 Entering Gaussian System, Link 0=g09
 Initial command:
 /public/software/g09/g09/l1.exe /tmp/Gau-21481.inp -scrdir=/tmp/
 Entering Link 1 = /public/software/g09/g09/l1.exe PID=     21482.
  
 Copyright (c) 1988,1990,1992,1993,1995,1998,2003,2009,2010,
            Gaussian, Inc.  All Rights Reserved.
  
 This is part of the Gaussian(R) 09 program.  It is based on
 the Gaussian(R) 03 system (copyright 2003, Gaussian, Inc.),
 the Gaussian(R) 98 system (copyright 1998, Gaussian, Inc.),
 the Gaussian(R) 94 system (copyright 1995, Gaussian, Inc.),
 the Gaussian 92(TM) system (copyright 1992, Gaussian, Inc.),
 the Gaussian 90(TM) system (copyright 1990, Gaussian, Inc.),
 the Gaussian 88(TM) system (copyright 1988, Gaussian, Inc.),
 the Gaussian 86(TM) system (copyright 1986, Carnegie Mellon
 University), and the Gaussian 82(TM) system (copyright 1983,
 Carnegie Mellon University). Gaussian is a federally registered
 trademark of Gaussian, Inc.
  
 This software contains proprietary and confidential information,
 including trade secrets, belonging to Gaussian, Inc.
  
 This software is provided under written license and may be
 used, copied, transmitted, or stored only in accord with that
 written license.
  
 The following legend is applicable only to US Government
 contracts under FAR:
  
                    RESTRICTED RIGHTS LEGEND
  
 Use, reproduction and disclosure by the US Government is
 subject to restrictions as set forth in subparagraphs (a)
 and (c) of the Commercial Computer Software - Restricted
 Rights clause in FAR 52.227-19.
  
 Gaussian, Inc.
 340 Quinnipiac St., Bldg. 40, Wallingford CT 06492
  
  
 ---------------------------------------------------------------
 Warning -- This program may not be used in any manner that
 competes with the business of Gaussian, Inc. or will provide
 assistance to any competitor of Gaussian, Inc.  The licensee
 of this program is prohibited from giving any competitor of
 Gaussian, Inc. access to this program.  By using this program,
 the user acknowledges that Gaussian, Inc. is engaged in the
 business of creating and licensing software in the field of
 computational chemistry and represents and warrants to the
 licensee that it is not a competitor of Gaussian, Inc. and that
 it will not use this program in any manner prohibited above.
 ---------------------------------------------------------------
  

 Cite this work as:
 Gaussian 09, Revision B.01,
 M. J. Frisch, G. W. Trucks, H. B. Schlegel, G. E. Scuseria, 
 M. A. Robb, J. R. Cheeseman, G. Scalmani, V. Barone, B. Mennucci, 
 G. A. Petersson, H. Nakatsuji, M. Caricato, X. Li, H. P. Hratchian, 
 A. F. Izmaylov, J. Bloino, G. Zheng, J. L. Sonnenberg, M. Hada, 
 M. Ehara, K. Toyota, R. Fukuda, J. Hasegawa, M. Ishida, T. Nakajima, 
 Y. Honda, O. Kitao, H. Nakai, T. Vreven, J. A. Montgomery, Jr., 
 J. E. Peralta, F. Ogliaro, M. Bearpark, J. J. Heyd, E. Brothers, 
 K. N. Kudin, V. N. Staroverov, T. Keith, R. Kobayashi, J. Normand, 
 K. Raghavachari, A. Rendell, J. C. Burant, S. S. Iyengar, J. Tomasi, 
 M. Cossi, N. Rega, J. M. Millam, M. Klene, J. E. Knox, J. B. Cross, 
 V. Bakken, C. Adamo, J. Jaramillo, R. Gomperts, R. E. Stratmann, 
 O. Yazyev, A. J. Austin, R. Cammi, C. Pomelli, J. W. Ochterski, 
 R. L. Martin, K. Morokuma, V. G. Zakrzewski, G. A. Voth, 
 P. Salvador, J. J. Dannenberg, S. Dapprich, A. D. Daniels, 
 O. Farkas, J. B. Foresman, J. V. Ortiz, J. Cioslowski, 
 and D. J. Fox, Gaussian, Inc., Wallingford CT, 2010.
 
 ******************************************
 Gaussian 09:  EM64L-G09RevB.01 12-Aug-2010
                13-Apr-2021 
 ******************************************
 %mem=600MW
 %nprocshared=10
 Will use up to   10 processors via shared memory.
 ----------------------------------------
 # opt b3lyp/6-311+g(d) geom=connectivity
 ----------------------------------------
 1/14=-1,18=20,19=15,26=3,38=1,57=2/1,3;
 2/9=110,12=2,17=6,18=5,40=1/2;
 3/5=4,6=6,7=11,11=2,16=1,25=1,30=1,71=1,74=-5/1,2,3;
 4//1;
 5/5=2,38=5/2;
 6/7=2,8=2,9=2,10=2,28=1/1;
 7//1,2,3,16;
 1/14=-1,18=20,19=15/3(2);
 2/9=110/2;
 99//99;
 2/9=110/2;
 3/5=4,6=6,7=11,11=2,16=1,25=1,30=1,71=1,74=-5/1,2,3;
 4/5=5,16=3/1;
 5/5=2,38=5/2;
 7//1,2,3,16;
 1/14=-1,18=20,19=15/3(-5);
 2/9=110/2;
 6/7=2,8=2,9=2,10=2,19=2,28=1/1;
 99/9=1/99;
 -------------------
 Title Card Required
 -------------------
 Symbolic Z-matrix:
 Charge =  0 Multiplicity = 1
 C                     0.31885  -1.18937   2.99215 
 C                     0.6992    0.09297   3.03066 
 C                     1.42982   0.73218   1.86762 
 C                     1.4223   -0.07504   0.53059 
 C                     0.63233  -1.40599   0.46133 
 C                     0.58276  -2.11603   1.83807 
 C                     0.95894   0.94689  -0.54017 
 C                    -0.54991   1.01088  -0.70401 
 C                    -1.39442  -0.05305  -0.55063 
 C                    -0.81819  -1.32425  -0.08938 
 C                    -2.86654   0.10277  -0.82289 
 O                    -3.25084   0.95685  -1.60852 
 C                    -3.89357  -0.76765  -0.08745 
 C                    -4.47362  -1.79032  -1.09589 
 C                    -4.97384   0.14486   0.51908 
 O                    -1.45631  -2.37378  -0.11864 
 C                     1.21182   2.36432   0.01541 
 C                     0.18668   3.2198   -0.76237 
 O                    -0.93328   2.25757  -0.9631 
 C                     0.92735   2.1645    1.51775 
 O                     1.51447   0.6711   -1.81146 
 C                     1.48482  -2.23529  -0.5364 
 C                     2.90992  -1.81443  -0.19468 
 O                     2.79258  -0.41496   0.19744 
 C                     3.98518  -1.92221  -1.25616 
 C                     5.3396   -1.40082  -0.83936 
 C                     3.76874  -2.47074  -2.45566 
 C                     0.68457   3.64755  -2.14474 
 C                    -0.41255   4.40718  -0.01344 
 H                     2.2395    2.69316  -0.16649 
 H                     2.49268   0.81007   2.13677 
 C                     0.49252   0.9472    4.25719 
 H                    -0.17134  -1.62107   3.86393 
 H                     1.53478  -2.63944   2.0141 
 H                    -0.18141  -2.89641   1.77773 
 H                    -3.39716  -1.32599   0.71052 
 H                    -4.99671  -1.23572  -1.88577 
 H                    -3.63698  -2.31415  -1.571 
 H                    -5.73065  -0.44343   1.04778 
 H                    -5.46521   0.72939  -0.2643 
 H                    -4.53896   0.84816   1.23946 
 H                     1.39736   2.93005   2.14163 
 H                    -0.15104   2.2204    1.70115 
 H                     2.41533   0.34595  -1.61288 
 H                     1.23763  -1.95147  -1.56287 
 H                     1.31244  -3.30824  -0.42025 
 H                     3.26138  -2.36556   0.69219 
 H                     5.28185  -0.34546  -0.54933 
 H                     5.71502  -1.94631   0.03744 
 H                     6.07337  -1.5031   -1.64423 
 H                     4.57113  -2.55658  -3.18409 
 H                     2.80338  -2.86326  -2.75834 
 H                    -0.14351   4.0726   -2.72066 
 H                     1.46022   4.41509  -2.04006 
 H                     1.10051   2.79942  -2.69105 
 H                     0.36851   5.14624   0.19685 
 H                    -1.18012   4.88627  -0.62886 
 H                    -0.8731    4.10987   0.93149 
 H                     0.01724   0.37542   5.06011 
 H                     1.45029   1.33076   4.6372 
 H                    -0.13564   1.8237    4.0526 
 C                    -5.407    -2.82919  -0.46666 
 H                    -5.74703  -3.54771  -1.22169 
 H                    -4.8915   -3.39415   0.31961 
 H                    -6.29971  -2.37324  -0.02411 
 

 GradGradGradGradGradGradGradGradGradGradGradGradGradGradGradGradGradGrad
 Berny optimization.
 Initialization pass.
                           ----------------------------
                           !    Initial Parameters    !
                           ! (Angstroms and Degrees)  !
 --------------------------                            --------------------------
 ! Name  Definition              Value          Derivative Info.                !
 --------------------------------------------------------------------------------
 ! R1    R(1,2)                  1.3381         estimate D2E/DX2                !
 ! R2    R(1,6)                  1.5034         estimate D2E/DX2                !
 ! R3    R(1,33)                 1.0893         estimate D2E/DX2                !
 ! R4    R(2,3)                  1.5149         estimate D2E/DX2                !
 ! R5    R(2,32)                 1.5089         estimate D2E/DX2                !
 ! R6    R(3,4)                  1.5618         estimate D2E/DX2                !
 ! R7    R(3,20)                 1.5577         estimate D2E/DX2                !
 ! R8    R(3,31)                 1.0992         estimate D2E/DX2                !
 ! R9    R(4,5)                  1.5493         estimate D2E/DX2                !
 ! R10   R(4,7)                  1.551          estimate D2E/DX2                !
 ! R11   R(4,24)                 1.4506         estimate D2E/DX2                !
 ! R12   R(5,6)                  1.5498         estimate D2E/DX2                !
 ! R13   R(5,10)                 1.5537         estimate D2E/DX2                !
 ! R14   R(5,22)                 1.5524         estimate D2E/DX2                !
 ! R15   R(6,34)                 1.1006         estimate D2E/DX2                !
 ! R16   R(6,35)                 1.0939         estimate D2E/DX2                !
 ! R17   R(7,8)                  1.5191         estimate D2E/DX2                !
 ! R18   R(7,17)                 1.5433         estimate D2E/DX2                !
 ! R19   R(7,21)                 1.4145         estimate D2E/DX2                !
 ! R20   R(8,9)                  1.367          estimate D2E/DX2                !
 ! R21   R(8,19)                 1.3298         estimate D2E/DX2                !
 ! R22   R(9,10)                 1.4699         estimate D2E/DX2                !
 ! R23   R(9,11)                 1.5052         estimate D2E/DX2                !
 ! R24   R(10,16)                1.2287         estimate D2E/DX2                !
 ! R25   R(11,12)                1.2224         estimate D2E/DX2                !
 ! R26   R(11,13)                1.534          estimate D2E/DX2                !
 ! R27   R(13,14)                1.549          estimate D2E/DX2                !
 ! R28   R(13,15)                1.5387         estimate D2E/DX2                !
 ! R29   R(13,36)                1.0931         estimate D2E/DX2                !
 ! R30   R(14,37)                1.0978         estimate D2E/DX2                !
 ! R31   R(14,38)                1.0955         estimate D2E/DX2                !
 ! R32   R(14,62)                1.5318         estimate D2E/DX2                !
 ! R33   R(15,39)                1.0947         estimate D2E/DX2                !
 ! R34   R(15,40)                1.094          estimate D2E/DX2                !
 ! R35   R(15,41)                1.0967         estimate D2E/DX2                !
 ! R36   R(17,18)                1.5452         estimate D2E/DX2                !
 ! R37   R(17,20)                1.542          estimate D2E/DX2                !
 ! R38   R(17,30)                1.0942         estimate D2E/DX2                !
 ! R39   R(18,19)                1.4901         estimate D2E/DX2                !
 ! R40   R(18,28)                1.5303         estimate D2E/DX2                !
 ! R41   R(18,29)                1.5264         estimate D2E/DX2                !
 ! R42   R(20,42)                1.0937         estimate D2E/DX2                !
 ! R43   R(20,43)                1.0953         estimate D2E/DX2                !
 ! R44   R(21,44)                0.9781         estimate D2E/DX2                !
 ! R45   R(22,23)                1.5247         estimate D2E/DX2                !
 ! R46   R(22,45)                1.0933         estimate D2E/DX2                !
 ! R47   R(22,46)                1.0929         estimate D2E/DX2                !
 ! R48   R(23,24)                1.4581         estimate D2E/DX2                !
 ! R49   R(23,25)                1.5148         estimate D2E/DX2                !
 ! R50   R(23,47)                1.1017         estimate D2E/DX2                !
 ! R51   R(25,26)                1.51           estimate D2E/DX2                !
 ! R52   R(25,27)                1.3366         estimate D2E/DX2                !
 ! R53   R(26,48)                1.096          estimate D2E/DX2                !
 ! R54   R(26,49)                1.0988         estimate D2E/DX2                !
 ! R55   R(26,50)                1.0939         estimate D2E/DX2                !
 ! R56   R(27,51)                1.0871         estimate D2E/DX2                !
 ! R57   R(27,52)                1.0852         estimate D2E/DX2                !
 ! R58   R(28,53)                1.0946         estimate D2E/DX2                !
 ! R59   R(28,54)                1.0962         estimate D2E/DX2                !
 ! R60   R(28,55)                1.0912         estimate D2E/DX2                !
 ! R61   R(29,56)                1.0957         estimate D2E/DX2                !
 ! R62   R(29,57)                1.0943         estimate D2E/DX2                !
 ! R63   R(29,58)                1.0924         estimate D2E/DX2                !
 ! R64   R(32,59)                1.0943         estimate D2E/DX2                !
 ! R65   R(32,60)                1.0995         estimate D2E/DX2                !
 ! R66   R(32,61)                1.0976         estimate D2E/DX2                !
 ! R67   R(62,63)                1.0963         estimate D2E/DX2                !
 ! R68   R(62,64)                1.0969         estimate D2E/DX2                !
 ! R69   R(62,65)                1.0958         estimate D2E/DX2                !
 ! A1    A(2,1,6)              124.2552         estimate D2E/DX2                !
 ! A2    A(2,1,33)             118.9897         estimate D2E/DX2                !
 ! A3    A(6,1,33)             116.6832         estimate D2E/DX2                !
 ! A4    A(1,2,3)              121.2879         estimate D2E/DX2                !
 ! A5    A(1,2,32)             121.8023         estimate D2E/DX2                !
 ! A6    A(3,2,32)             116.8227         estimate D2E/DX2                !
 ! A7    A(2,3,4)              115.901          estimate D2E/DX2                !
 ! A8    A(2,3,20)             113.8811         estimate D2E/DX2                !
 ! A9    A(2,3,31)             107.9538         estimate D2E/DX2                !
 ! A10   A(4,3,20)             106.3446         estimate D2E/DX2                !
 ! A11   A(4,3,31)             104.531          estimate D2E/DX2                !
 ! A12   A(20,3,31)            107.5628         estimate D2E/DX2                !
 ! A13   A(3,4,5)              118.995          estimate D2E/DX2                !
 ! A14   A(3,4,7)              104.5902         estimate D2E/DX2                !
 ! A15   A(3,4,24)             108.251          estimate D2E/DX2                !
 ! A16   A(5,4,7)              112.5092         estimate D2E/DX2                !
 ! A17   A(5,4,24)             105.6698         estimate D2E/DX2                !
 ! A18   A(7,4,24)             106.1439         estimate D2E/DX2                !
 ! A19   A(4,5,6)              111.7256         estimate D2E/DX2                !
 ! A20   A(4,5,10)             116.5311         estimate D2E/DX2                !
 ! A21   A(4,5,22)             101.9844         estimate D2E/DX2                !
 ! A22   A(6,5,10)             108.0054         estimate D2E/DX2                !
 ! A23   A(6,5,22)             110.105          estimate D2E/DX2                !
 ! A24   A(10,5,22)            108.2391         estimate D2E/DX2                !
 ! A25   A(1,6,5)              113.8993         estimate D2E/DX2                !
 ! A26   A(1,6,34)             108.796          estimate D2E/DX2                !
 ! A27   A(1,6,35)             111.0657         estimate D2E/DX2                !
 ! A28   A(5,6,34)             109.408          estimate D2E/DX2                !
 ! A29   A(5,6,35)             107.4681         estimate D2E/DX2                !
 ! A30   A(34,6,35)            105.8921         estimate D2E/DX2                !
 ! A31   A(4,7,8)              113.5132         estimate D2E/DX2                !
 ! A32   A(4,7,17)             107.9187         estimate D2E/DX2                !
 ! A33   A(4,7,21)             112.0042         estimate D2E/DX2                !
 ! A34   A(8,7,17)              99.3749         estimate D2E/DX2                !
 ! A35   A(8,7,21)             107.5401         estimate D2E/DX2                !
 ! A36   A(17,7,21)            115.9933         estimate D2E/DX2                !
 ! A37   A(7,8,9)              124.6628         estimate D2E/DX2                !
 ! A38   A(7,8,19)             110.2958         estimate D2E/DX2                !
 ! A39   A(9,8,19)             124.9886         estimate D2E/DX2                !
 ! A40   A(8,9,10)             117.7809         estimate D2E/DX2                !
 ! A41   A(8,9,11)             120.2224         estimate D2E/DX2                !
 ! A42   A(10,9,11)            121.9842         estimate D2E/DX2                !
 ! A43   A(5,10,9)             121.5137         estimate D2E/DX2                !
 ! A44   A(5,10,16)            116.6397         estimate D2E/DX2                !
 ! A45   A(9,10,16)            121.8466         estimate D2E/DX2                !
 ! A46   A(9,11,12)            119.7382         estimate D2E/DX2                !
 ! A47   A(9,11,13)            120.6198         estimate D2E/DX2                !
 ! A48   A(12,11,13)           119.6082         estimate D2E/DX2                !
 ! A49   A(11,13,14)           108.2531         estimate D2E/DX2                !
 ! A50   A(11,13,15)           108.8155         estimate D2E/DX2                !
 ! A51   A(11,13,36)           109.6183         estimate D2E/DX2                !
 ! A52   A(14,13,15)           112.6604         estimate D2E/DX2                !
 ! A53   A(14,13,36)           107.9435         estimate D2E/DX2                !
 ! A54   A(15,13,36)           109.5106         estimate D2E/DX2                !
 ! A55   A(13,14,37)           108.2602         estimate D2E/DX2                !
 ! A56   A(13,14,38)           108.1837         estimate D2E/DX2                !
 ! A57   A(13,14,62)           114.1124         estimate D2E/DX2                !
 ! A58   A(37,14,38)           107.0629         estimate D2E/DX2                !
 ! A59   A(37,14,62)           110.3557         estimate D2E/DX2                !
 ! A60   A(38,14,62)           108.6155         estimate D2E/DX2                !
 ! A61   A(13,15,39)           110.9193         estimate D2E/DX2                !
 ! A62   A(13,15,40)           110.4832         estimate D2E/DX2                !
 ! A63   A(13,15,41)           111.1522         estimate D2E/DX2                !
 ! A64   A(39,15,40)           108.8114         estimate D2E/DX2                !
 ! A65   A(39,15,41)           107.5505         estimate D2E/DX2                !
 ! A66   A(40,15,41)           107.8084         estimate D2E/DX2                !
 ! A67   A(7,17,18)            102.6249         estimate D2E/DX2                !
 ! A68   A(7,17,20)            101.624          estimate D2E/DX2                !
 ! A69   A(7,17,30)            111.7194         estimate D2E/DX2                !
 ! A70   A(18,17,20)           116.0876         estimate D2E/DX2                !
 ! A71   A(18,17,30)           111.9019         estimate D2E/DX2                !
 ! A72   A(20,17,30)           111.9724         estimate D2E/DX2                !
 ! A73   A(17,18,19)           102.0595         estimate D2E/DX2                !
 ! A74   A(17,18,28)           113.1784         estimate D2E/DX2                !
 ! A75   A(17,18,29)           116.3688         estimate D2E/DX2                !
 ! A76   A(19,18,28)           107.6588         estimate D2E/DX2                !
 ! A77   A(19,18,29)           105.8639         estimate D2E/DX2                !
 ! A78   A(28,18,29)           110.7024         estimate D2E/DX2                !
 ! A79   A(8,19,18)            111.251          estimate D2E/DX2                !
 ! A80   A(3,20,17)            106.1688         estimate D2E/DX2                !
 ! A81   A(3,20,42)            112.1403         estimate D2E/DX2                !
 ! A82   A(3,20,43)            109.0813         estimate D2E/DX2                !
 ! A83   A(17,20,42)           112.6911         estimate D2E/DX2                !
 ! A84   A(17,20,43)           109.7643         estimate D2E/DX2                !
 ! A85   A(42,20,43)           106.9695         estimate D2E/DX2                !
 ! A86   A(7,21,44)            104.1266         estimate D2E/DX2                !
 ! A87   A(5,22,23)            102.813          estimate D2E/DX2                !
 ! A88   A(5,22,45)            109.912          estimate D2E/DX2                !
 ! A89   A(5,22,46)            111.6863         estimate D2E/DX2                !
 ! A90   A(23,22,45)           110.4927         estimate D2E/DX2                !
 ! A91   A(23,22,46)           113.2403         estimate D2E/DX2                !
 ! A92   A(45,22,46)           108.6017         estimate D2E/DX2                !
 ! A93   A(22,23,24)           104.4766         estimate D2E/DX2                !
 ! A94   A(22,23,25)           119.1289         estimate D2E/DX2                !
 ! A95   A(22,23,47)           109.9075         estimate D2E/DX2                !
 ! A96   A(24,23,25)           108.2922         estimate D2E/DX2                !
 ! A97   A(24,23,47)           106.8171         estimate D2E/DX2                !
 ! A98   A(25,23,47)           107.5803         estimate D2E/DX2                !
 ! A99   A(4,24,23)            111.2653         estimate D2E/DX2                !
 ! A100  A(23,25,26)           114.7545         estimate D2E/DX2                !
 ! A101  A(23,25,27)           122.896          estimate D2E/DX2                !
 ! A102  A(26,25,27)           122.3215         estimate D2E/DX2                !
 ! A103  A(25,26,48)           110.9941         estimate D2E/DX2                !
 ! A104  A(25,26,49)           110.8126         estimate D2E/DX2                !
 ! A105  A(25,26,50)           111.4868         estimate D2E/DX2                !
 ! A106  A(48,26,49)           106.5519         estimate D2E/DX2                !
 ! A107  A(48,26,50)           108.6676         estimate D2E/DX2                !
 ! A108  A(49,26,50)           108.1511         estimate D2E/DX2                !
 ! A109  A(25,27,51)           120.9445         estimate D2E/DX2                !
 ! A110  A(25,27,52)           122.875          estimate D2E/DX2                !
 ! A111  A(51,27,52)           116.1767         estimate D2E/DX2                !
 ! A112  A(18,28,53)           109.7365         estimate D2E/DX2                !
 ! A113  A(18,28,54)           109.856          estimate D2E/DX2                !
 ! A114  A(18,28,55)           111.0386         estimate D2E/DX2                !
 ! A115  A(53,28,54)           108.2796         estimate D2E/DX2                !
 ! A116  A(53,28,55)           109.0732         estimate D2E/DX2                !
 ! A117  A(54,28,55)           108.8022         estimate D2E/DX2                !
 ! A118  A(18,29,56)           109.8181         estimate D2E/DX2                !
 ! A119  A(18,29,57)           109.8771         estimate D2E/DX2                !
 ! A120  A(18,29,58)           112.2226         estimate D2E/DX2                !
 ! A121  A(56,29,57)           108.2195         estimate D2E/DX2                !
 ! A122  A(56,29,58)           108.5475         estimate D2E/DX2                !
 ! A123  A(57,29,58)           108.0535         estimate D2E/DX2                !
 ! A124  A(2,32,59)            111.1068         estimate D2E/DX2                !
 ! A125  A(2,32,60)            111.0463         estimate D2E/DX2                !
 ! A126  A(2,32,61)            112.2693         estimate D2E/DX2                !
 ! A127  A(59,32,60)           107.8797         estimate D2E/DX2                !
 ! A128  A(59,32,61)           107.786          estimate D2E/DX2                !
 ! A129  A(60,32,61)           106.5224         estimate D2E/DX2                !
 ! A130  A(14,62,63)           110.5227         estimate D2E/DX2                !
 ! A131  A(14,62,64)           110.9413         estimate D2E/DX2                !
 ! A132  A(14,62,65)           112.3417         estimate D2E/DX2                !
 ! A133  A(63,62,64)           107.5689         estimate D2E/DX2                !
 ! A134  A(63,62,65)           107.3476         estimate D2E/DX2                !
 ! A135  A(64,62,65)           107.9205         estimate D2E/DX2                !
 ! D1    D(6,1,2,3)              0.9432         estimate D2E/DX2                !
 ! D2    D(6,1,2,32)          -175.5554         estimate D2E/DX2                !
 ! D3    D(33,1,2,3)           177.7502         estimate D2E/DX2                !
 ! D4    D(33,1,2,32)            1.2517         estimate D2E/DX2                !
 ! D5    D(2,1,6,5)            -30.5755         estimate D2E/DX2                !
 ! D6    D(2,1,6,34)            91.7513         estimate D2E/DX2                !
 ! D7    D(2,1,6,35)          -152.077          estimate D2E/DX2                !
 ! D8    D(33,1,6,5)           152.5503         estimate D2E/DX2                !
 ! D9    D(33,1,6,34)          -85.123          estimate D2E/DX2                !
 ! D10   D(33,1,6,35)           31.0487         estimate D2E/DX2                !
 ! D11   D(1,2,3,4)             13.2825         estimate D2E/DX2                !
 ! D12   D(1,2,3,20)           137.1397         estimate D2E/DX2                !
 ! D13   D(1,2,3,31)          -103.4962         estimate D2E/DX2                !
 ! D14   D(32,2,3,4)          -170.0519         estimate D2E/DX2                !
 ! D15   D(32,2,3,20)          -46.1947         estimate D2E/DX2                !
 ! D16   D(32,2,3,31)           73.1694         estimate D2E/DX2                !
 ! D17   D(1,2,32,59)            0.4279         estimate D2E/DX2                !
 ! D18   D(1,2,32,60)          120.5042         estimate D2E/DX2                !
 ! D19   D(1,2,32,61)         -120.362          estimate D2E/DX2                !
 ! D20   D(3,2,32,59)         -176.2193         estimate D2E/DX2                !
 ! D21   D(3,2,32,60)          -56.143          estimate D2E/DX2                !
 ! D22   D(3,2,32,61)           62.9909         estimate D2E/DX2                !
 ! D23   D(2,3,4,5)              2.8924         estimate D2E/DX2                !
 ! D24   D(2,3,4,7)            129.5143         estimate D2E/DX2                !
 ! D25   D(2,3,4,24)          -117.6324         estimate D2E/DX2                !
 ! D26   D(20,3,4,5)          -124.7991         estimate D2E/DX2                !
 ! D27   D(20,3,4,7)             1.8227         estimate D2E/DX2                !
 ! D28   D(20,3,4,24)          114.6761         estimate D2E/DX2                !
 ! D29   D(31,3,4,5)           121.5686         estimate D2E/DX2                !
 ! D30   D(31,3,4,7)          -111.8095         estimate D2E/DX2                !
 ! D31   D(31,3,4,24)            1.0439         estimate D2E/DX2                !
 ! D32   D(2,3,20,17)         -152.4814         estimate D2E/DX2                !
 ! D33   D(2,3,20,42)           84.0423         estimate D2E/DX2                !
 ! D34   D(2,3,20,43)          -34.2625         estimate D2E/DX2                !
 ! D35   D(4,3,20,17)          -23.6024         estimate D2E/DX2                !
 ! D36   D(4,3,20,42)         -147.0787         estimate D2E/DX2                !
 ! D37   D(4,3,20,43)           94.6165         estimate D2E/DX2                !
 ! D38   D(31,3,20,17)          87.9329         estimate D2E/DX2                !
 ! D39   D(31,3,20,42)         -35.5434         estimate D2E/DX2                !
 ! D40   D(31,3,20,43)        -153.8482         estimate D2E/DX2                !
 ! D41   D(3,4,5,6)            -30.1028         estimate D2E/DX2                !
 ! D42   D(3,4,5,10)            94.7064         estimate D2E/DX2                !
 ! D43   D(3,4,5,22)          -147.6743         estimate D2E/DX2                !
 ! D44   D(7,4,5,6)           -152.8825         estimate D2E/DX2                !
 ! D45   D(7,4,5,10)           -28.0733         estimate D2E/DX2                !
 ! D46   D(7,4,5,22)            89.5461         estimate D2E/DX2                !
 ! D47   D(24,4,5,6)            91.7232         estimate D2E/DX2                !
 ! D48   D(24,4,5,10)         -143.4676         estimate D2E/DX2                !
 ! D49   D(24,4,5,22)          -25.8483         estimate D2E/DX2                !
 ! D50   D(3,4,7,8)            -88.3752         estimate D2E/DX2                !
 ! D51   D(3,4,7,17)            20.735          estimate D2E/DX2                !
 ! D52   D(3,4,7,21)           149.5985         estimate D2E/DX2                !
 ! D53   D(5,4,7,8)             42.1709         estimate D2E/DX2                !
 ! D54   D(5,4,7,17)           151.281          estimate D2E/DX2                !
 ! D55   D(5,4,7,21)           -79.8555         estimate D2E/DX2                !
 ! D56   D(24,4,7,8)           157.2787         estimate D2E/DX2                !
 ! D57   D(24,4,7,17)          -93.6111         estimate D2E/DX2                !
 ! D58   D(24,4,7,21)           35.2524         estimate D2E/DX2                !
 ! D59   D(3,4,24,23)          133.7765         estimate D2E/DX2                !
 ! D60   D(5,4,24,23)            5.2689         estimate D2E/DX2                !
 ! D61   D(7,4,24,23)         -114.4096         estimate D2E/DX2                !
 ! D62   D(4,5,6,1)             42.6889         estimate D2E/DX2                !
 ! D63   D(4,5,6,34)           -79.3008         estimate D2E/DX2                !
 ! D64   D(4,5,6,35)           166.1656         estimate D2E/DX2                !
 ! D65   D(10,5,6,1)           -86.7393         estimate D2E/DX2                !
 ! D66   D(10,5,6,34)          151.271          estimate D2E/DX2                !
 ! D67   D(10,5,6,35)           36.7374         estimate D2E/DX2                !
 ! D68   D(22,5,6,1)           155.2634         estimate D2E/DX2                !
 ! D69   D(22,5,6,34)           33.2737         estimate D2E/DX2                !
 ! D70   D(22,5,6,35)          -81.2599         estimate D2E/DX2                !
 ! D71   D(4,5,10,9)             1.4723         estimate D2E/DX2                !
 ! D72   D(4,5,10,16)         -178.5027         estimate D2E/DX2                !
 ! D73   D(6,5,10,9)           128.1497         estimate D2E/DX2                !
 ! D74   D(6,5,10,16)          -51.8254         estimate D2E/DX2                !
 ! D75   D(22,5,10,9)         -112.6627         estimate D2E/DX2                !
 ! D76   D(22,5,10,16)          67.3623         estimate D2E/DX2                !
 ! D77   D(4,5,22,23)           36.1944         estimate D2E/DX2                !
 ! D78   D(4,5,22,45)          -81.4666         estimate D2E/DX2                !
 ! D79   D(4,5,22,46)          157.9254         estimate D2E/DX2                !
 ! D80   D(6,5,22,23)          -82.5346         estimate D2E/DX2                !
 ! D81   D(6,5,22,45)          159.8044         estimate D2E/DX2                !
 ! D82   D(6,5,22,46)           39.1964         estimate D2E/DX2                !
 ! D83   D(10,5,22,23)         159.6124         estimate D2E/DX2                !
 ! D84   D(10,5,22,45)          41.9514         estimate D2E/DX2                !
 ! D85   D(10,5,22,46)         -78.6566         estimate D2E/DX2                !
 ! D86   D(4,7,8,9)            -32.9903         estimate D2E/DX2                !
 ! D87   D(4,7,8,19)           144.4764         estimate D2E/DX2                !
 ! D88   D(17,7,8,9)          -147.3146         estimate D2E/DX2                !
 ! D89   D(17,7,8,19)           30.1521         estimate D2E/DX2                !
 ! D90   D(21,7,8,9)            91.4844         estimate D2E/DX2                !
 ! D91   D(21,7,8,19)          -91.0488         estimate D2E/DX2                !
 ! D92   D(4,7,17,18)         -155.2547         estimate D2E/DX2                !
 ! D93   D(4,7,17,20)          -34.8469         estimate D2E/DX2                !
 ! D94   D(4,7,17,30)           84.6994         estimate D2E/DX2                !
 ! D95   D(8,7,17,18)          -36.6764         estimate D2E/DX2                !
 ! D96   D(8,7,17,20)           83.7314         estimate D2E/DX2                !
 ! D97   D(8,7,17,30)         -156.7223         estimate D2E/DX2                !
 ! D98   D(21,7,17,18)          78.1789         estimate D2E/DX2                !
 ! D99   D(21,7,17,20)        -161.4133         estimate D2E/DX2                !
 ! D100  D(21,7,17,30)         -41.867          estimate D2E/DX2                !
 ! D101  D(4,7,21,44)          -36.1743         estimate D2E/DX2                !
 ! D102  D(8,7,21,44)         -161.5556         estimate D2E/DX2                !
 ! D103  D(17,7,21,44)          88.3131         estimate D2E/DX2                !
 ! D104  D(7,8,9,10)             5.1793         estimate D2E/DX2                !
 ! D105  D(7,8,9,11)          -176.0767         estimate D2E/DX2                !
 ! D106  D(19,8,9,10)         -171.9203         estimate D2E/DX2                !
 ! D107  D(19,8,9,11)            6.8237         estimate D2E/DX2                !
 ! D108  D(7,8,19,18)          -10.4706         estimate D2E/DX2                !
 ! D109  D(9,8,19,18)          166.9861         estimate D2E/DX2                !
 ! D110  D(8,9,10,5)            11.2835         estimate D2E/DX2                !
 ! D111  D(8,9,10,16)         -168.7428         estimate D2E/DX2                !
 ! D112  D(11,9,10,5)         -167.437          estimate D2E/DX2                !
 ! D113  D(11,9,10,16)          12.5367         estimate D2E/DX2                !
 ! D114  D(8,9,11,12)           26.5162         estimate D2E/DX2                !
 ! D115  D(8,9,11,13)         -151.3612         estimate D2E/DX2                !
 ! D116  D(10,9,11,12)        -154.7938         estimate D2E/DX2                !
 ! D117  D(10,9,11,13)          27.3288         estimate D2E/DX2                !
 ! D118  D(9,11,13,14)        -108.2648         estimate D2E/DX2                !
 ! D119  D(9,11,13,15)         128.9862         estimate D2E/DX2                !
 ! D120  D(9,11,13,36)           9.2484         estimate D2E/DX2                !
 ! D121  D(12,11,13,14)         73.8551         estimate D2E/DX2                !
 ! D122  D(12,11,13,15)        -48.894          estimate D2E/DX2                !
 ! D123  D(12,11,13,36)       -168.6318         estimate D2E/DX2                !
 ! D124  D(11,13,14,37)        -62.908          estimate D2E/DX2                !
 ! D125  D(11,13,14,38)         52.7883         estimate D2E/DX2                !
 ! D126  D(11,13,14,62)        173.7944         estimate D2E/DX2                !
 ! D127  D(15,13,14,37)         57.4708         estimate D2E/DX2                !
 ! D128  D(15,13,14,38)        173.1671         estimate D2E/DX2                !
 ! D129  D(15,13,14,62)        -65.8267         estimate D2E/DX2                !
 ! D130  D(36,13,14,37)        178.5098         estimate D2E/DX2                !
 ! D131  D(36,13,14,38)        -65.7939         estimate D2E/DX2                !
 ! D132  D(36,13,14,62)         55.2123         estimate D2E/DX2                !
 ! D133  D(11,13,15,39)        179.605          estimate D2E/DX2                !
 ! D134  D(11,13,15,40)         58.8547         estimate D2E/DX2                !
 ! D135  D(11,13,15,41)        -60.7883         estimate D2E/DX2                !
 ! D136  D(14,13,15,39)         59.5499         estimate D2E/DX2                !
 ! D137  D(14,13,15,40)        -61.2004         estimate D2E/DX2                !
 ! D138  D(14,13,15,41)        179.1567         estimate D2E/DX2                !
 ! D139  D(36,13,15,39)        -60.5904         estimate D2E/DX2                !
 ! D140  D(36,13,15,40)        178.6594         estimate D2E/DX2                !
 ! D141  D(36,13,15,41)         59.0164         estimate D2E/DX2                !
 ! D142  D(13,14,62,63)       -177.4791         estimate D2E/DX2                !
 ! D143  D(13,14,62,64)        -58.2463         estimate D2E/DX2                !
 ! D144  D(13,14,62,65)         62.6493         estimate D2E/DX2                !
 ! D145  D(37,14,62,63)         60.3659         estimate D2E/DX2                !
 ! D146  D(37,14,62,64)        179.5987         estimate D2E/DX2                !
 ! D147  D(37,14,62,65)        -59.5058         estimate D2E/DX2                !
 ! D148  D(38,14,62,63)        -56.713          estimate D2E/DX2                !
 ! D149  D(38,14,62,64)         62.5198         estimate D2E/DX2                !
 ! D150  D(38,14,62,65)       -176.5846         estimate D2E/DX2                !
 ! D151  D(7,17,18,19)          31.8746         estimate D2E/DX2                !
 ! D152  D(7,17,18,28)         -83.5233         estimate D2E/DX2                !
 ! D153  D(7,17,18,29)         146.576          estimate D2E/DX2                !
 ! D154  D(20,17,18,19)        -77.9761         estimate D2E/DX2                !
 ! D155  D(20,17,18,28)        166.626          estimate D2E/DX2                !
 ! D156  D(20,17,18,29)         36.7254         estimate D2E/DX2                !
 ! D157  D(30,17,18,19)        151.7939         estimate D2E/DX2                !
 ! D158  D(30,17,18,28)         36.396          estimate D2E/DX2                !
 ! D159  D(30,17,18,29)        -93.5047         estimate D2E/DX2                !
 ! D160  D(7,17,20,3)           35.3905         estimate D2E/DX2                !
 ! D161  D(7,17,20,42)         158.521          estimate D2E/DX2                !
 ! D162  D(7,17,20,43)         -82.3753         estimate D2E/DX2                !
 ! D163  D(18,17,20,3)         145.8274         estimate D2E/DX2                !
 ! D164  D(18,17,20,42)        -91.0421         estimate D2E/DX2                !
 ! D165  D(18,17,20,43)         28.0616         estimate D2E/DX2                !
 ! D166  D(30,17,20,3)         -83.9762         estimate D2E/DX2                !
 ! D167  D(30,17,20,42)         39.1543         estimate D2E/DX2                !
 ! D168  D(30,17,20,43)        158.258          estimate D2E/DX2                !
 ! D169  D(17,18,19,8)         -14.0689         estimate D2E/DX2                !
 ! D170  D(28,18,19,8)         105.2975         estimate D2E/DX2                !
 ! D171  D(29,18,19,8)        -136.2681         estimate D2E/DX2                !
 ! D172  D(17,18,28,53)        168.8086         estimate D2E/DX2                !
 ! D173  D(17,18,28,54)        -72.254          estimate D2E/DX2                !
 ! D174  D(17,18,28,55)         48.1472         estimate D2E/DX2                !
 ! D175  D(19,18,28,53)         56.7958         estimate D2E/DX2                !
 ! D176  D(19,18,28,54)        175.7333         estimate D2E/DX2                !
 ! D177  D(19,18,28,55)        -63.8655         estimate D2E/DX2                !
 ! D178  D(29,18,28,53)        -58.4804         estimate D2E/DX2                !
 ! D179  D(29,18,28,54)         60.4571         estimate D2E/DX2                !
 ! D180  D(29,18,28,55)       -179.1417         estimate D2E/DX2                !
 ! D181  D(17,18,29,56)         65.7133         estimate D2E/DX2                !
 ! D182  D(17,18,29,57)       -175.3601         estimate D2E/DX2                !
 ! D183  D(17,18,29,58)        -55.1158         estimate D2E/DX2                !
 ! D184  D(19,18,29,56)        178.2513         estimate D2E/DX2                !
 ! D185  D(19,18,29,57)        -62.8222         estimate D2E/DX2                !
 ! D186  D(19,18,29,58)         57.4221         estimate D2E/DX2                !
 ! D187  D(28,18,29,56)        -65.3559         estimate D2E/DX2                !
 ! D188  D(28,18,29,57)         53.5707         estimate D2E/DX2                !
 ! D189  D(28,18,29,58)        173.815          estimate D2E/DX2                !
 ! D190  D(5,22,23,24)         -33.7317         estimate D2E/DX2                !
 ! D191  D(5,22,23,25)        -154.7265         estimate D2E/DX2                !
 ! D192  D(5,22,23,47)          80.5544         estimate D2E/DX2                !
 ! D193  D(45,22,23,24)         83.5181         estimate D2E/DX2                !
 ! D194  D(45,22,23,25)        -37.4768         estimate D2E/DX2                !
 ! D195  D(45,22,23,47)       -162.1959         estimate D2E/DX2                !
 ! D196  D(46,22,23,24)       -154.4017         estimate D2E/DX2                !
 ! D197  D(46,22,23,25)         84.6034         estimate D2E/DX2                !
 ! D198  D(46,22,23,47)        -40.1156         estimate D2E/DX2                !
 ! D199  D(22,23,24,4)          18.1507         estimate D2E/DX2                !
 ! D200  D(25,23,24,4)         146.0911         estimate D2E/DX2                !
 ! D201  D(47,23,24,4)         -98.299          estimate D2E/DX2                !
 ! D202  D(22,23,25,26)        176.4254         estimate D2E/DX2                !
 ! D203  D(22,23,25,27)         -5.4621         estimate D2E/DX2                !
 ! D204  D(24,23,25,26)         57.3723         estimate D2E/DX2                !
 ! D205  D(24,23,25,27)       -124.5151         estimate D2E/DX2                !
 ! D206  D(47,23,25,26)        -57.7392         estimate D2E/DX2                !
 ! D207  D(47,23,25,27)        120.3734         estimate D2E/DX2                !
 ! D208  D(23,25,26,48)        -58.6279         estimate D2E/DX2                !
 ! D209  D(23,25,26,49)         59.5564         estimate D2E/DX2                !
 ! D210  D(23,25,26,50)       -179.9267         estimate D2E/DX2                !
 ! D211  D(27,25,26,48)        123.2474         estimate D2E/DX2                !
 ! D212  D(27,25,26,49)       -118.5682         estimate D2E/DX2                !
 ! D213  D(27,25,26,50)          1.9486         estimate D2E/DX2                !
 ! D214  D(23,25,27,51)       -178.2914         estimate D2E/DX2                !
 ! D215  D(23,25,27,52)          0.9762         estimate D2E/DX2                !
 ! D216  D(26,25,27,51)         -0.3197         estimate D2E/DX2                !
 ! D217  D(26,25,27,52)        178.9479         estimate D2E/DX2                !
 --------------------------------------------------------------------------------
 Trust Radius=3.00D-01 FncErr=1.00D-07 GrdErr=1.00D-06
 Number of steps in this run=    390 maximum allowed number of steps=    390.
 GradGradGradGradGradGradGradGradGradGradGradGradGradGradGradGradGradGrad

 Stoichiometry    C26H34O5
 Framework group  C1[X(C26H34O5)]
 Deg. of freedom   189
 Full point group                 C1      NOp   1
 Largest Abelian subgroup         C1      NOp   1
 Largest concise Abelian subgroup C1      NOp   1
                         Standard orientation:                         
 ---------------------------------------------------------------------
 Center     Atomic      Atomic             Coordinates (Angstroms)
 Number     Number       Type             X           Y           Z
 ---------------------------------------------------------------------
      1          6           0        0.318847   -1.189368    2.992145
      2          6           0        0.699200    0.092966    3.030658
      3          6           0        1.429816    0.732176    1.867617
      4          6           0        1.422301   -0.075040    0.530593
      5          6           0        0.632325   -1.405992    0.461325
      6          6           0        0.582759   -2.116032    1.838068
      7          6           0        0.958937    0.946886   -0.540170
      8          6           0       -0.549905    1.010878   -0.704007
      9          6           0       -1.394420   -0.053051   -0.550629
     10          6           0       -0.818186   -1.324245   -0.089377
     11          6           0       -2.866541    0.102767   -0.822885
     12          8           0       -3.250835    0.956851   -1.608518
     13          6           0       -3.893568   -0.767645   -0.087453
     14          6           0       -4.473623   -1.790318   -1.095886
     15          6           0       -4.973842    0.144862    0.519084
     16          8           0       -1.456310   -2.373781   -0.118643
     17          6           0        1.211819    2.364323    0.015413
     18          6           0        0.186681    3.219802   -0.762373
     19          8           0       -0.933284    2.257572   -0.963097
     20          6           0        0.927347    2.164502    1.517750
     21          8           0        1.514467    0.671095   -1.811459
     22          6           0        1.484822   -2.235286   -0.536404
     23          6           0        2.909916   -1.814426   -0.194682
     24          8           0        2.792582   -0.414955    0.197435
     25          6           0        3.985182   -1.922208   -1.256155
     26          6           0        5.339598   -1.400815   -0.839363
     27          6           0        3.768739   -2.470737   -2.455663
     28          6           0        0.684573    3.647554   -2.144745
     29          6           0       -0.412547    4.407181   -0.013443
     30          1           0        2.239496    2.693164   -0.166492
     31          1           0        2.492683    0.810069    2.136773
     32          6           0        0.492520    0.947199    4.257191
     33          1           0       -0.171342   -1.621071    3.863933
     34          1           0        1.534777   -2.639443    2.014099
     35          1           0       -0.181407   -2.896412    1.777726
     36          1           0       -3.397158   -1.325993    0.710524
     37          1           0       -4.996714   -1.235723   -1.885766
     38          1           0       -3.636977   -2.314154   -1.571004
     39          1           0       -5.730654   -0.443428    1.047778
     40          1           0       -5.465211    0.729385   -0.264304
     41          1           0       -4.538958    0.848163    1.239456
     42          1           0        1.397356    2.930050    2.141631
     43          1           0       -0.151040    2.220403    1.701154
     44          1           0        2.415325    0.345953   -1.612882
     45          1           0        1.237632   -1.951465   -1.562870
     46          1           0        1.312437   -3.308242   -0.420246
     47          1           0        3.261383   -2.365555    0.692193
     48          1           0        5.281845   -0.345459   -0.549333
     49          1           0        5.715017   -1.946309    0.037439
     50          1           0        6.073369   -1.503100   -1.644234
     51          1           0        4.571130   -2.556578   -3.184093
     52          1           0        2.803384   -2.863264   -2.758343
     53          1           0       -0.143513    4.072604   -2.720656
     54          1           0        1.460215    4.415087   -2.040061
     55          1           0        1.100506    2.799421   -2.691046
     56          1           0        0.368510    5.146237    0.196850
     57          1           0       -1.180117    4.886268   -0.628864
     58          1           0       -0.873100    4.109870    0.931494
     59          1           0        0.017243    0.375423    5.060115
     60          1           0        1.450294    1.330755    4.637203
     61          1           0       -0.135635    1.823697    4.052596
     62          6           0       -5.406997   -2.829185   -0.466660
     63          1           0       -5.747030   -3.547711   -1.221687
     64          1           0       -4.891502   -3.394152    0.319606
     65          1           0       -6.299710   -2.373238   -0.024110
 ---------------------------------------------------------------------
 Rotational constants (GHZ):      0.1915895      0.1278079      0.1112115
 Standard basis: 6-311+G(d) (5D, 7F)
 There are   784 symmetry adapted basis functions of A   symmetry.
 Integral buffers will be    131072 words long.
 Raffenetti 2 integral format.
 Two-electron integral symmetry is turned on.
   784 basis functions,  1286 primitive gaussians,   815 cartesian basis functions
   115 alpha electrons      115 beta electrons
       nuclear repulsion energy      3495.8719589254 Hartrees.
 NAtoms=   65 NActive=   65 NUniq=   65 SFac= 1.00D+00 NAtFMM=   50 NAOKFM=T Big=T
 One-electron integrals computed using PRISM.
 NBasis=   784 RedAO= T  NBF=   784
 NBsUse=   777 1.00D-06 NBFU=   777
 Harris functional with IExCor=  402 diagonalized for initial guess.
 ExpMin= 4.38D-02 ExpMax= 8.59D+03 ExpMxC= 1.30D+03 IAcc=2 IRadAn=         0 AccDes= 0.00D+00
 HarFok:  IExCor=  402 AccDes= 0.00D+00 IRadAn=         0 IDoV= 1
 ScaDFX=  1.000000  1.000000  1.000000  1.000000
 FoFCou: FMM=F IPFlag=           0 FMFlag=      100000 FMFlg1=        2001
         NFxFlg=           0 DoJE=T BraDBF=F KetDBF=T FulRan=T
         Omega=  0.000000  0.000000  1.000000  0.000000  0.000000 ICntrl=     500 IOpCl=  0
         NMat0=    1 NMatS0=    1 NMatT0=    0 NMatD0=    1 NMtDS0=    0 NMtDT0=    0
         I1Cent=           4 NGrid=           0.
 Petite list used in FoFCou.
 Initial guess orbital symmetries:
       Occupied  (A) (A) (A) (A) (A) (A) (A) (A) (A) (A) (A) (A)
                 (A) (A) (A) (A) (A) (A) (A) (A) (A) (A) (A) (A)
                 (A) (A) (A) (A) (A) (A) (A) (A) (A) (A) (A) (A)
                 (A) (A) (A) (A) (A) (A) (A) (A) (A) (A) (A) (A)
                 (A) (A) (A) (A) (A) (A) (A) (A) (A) (A) (A) (A)
                 (A) (A) (A) (A) (A) (A) (A) (A) (A) (A) (A) (A)
                 (A) (A) (A) (A) (A) (A) (A) (A) (A) (A) (A) (A)
                 (A) (A) (A) (A) (A) (A) (A) (A) (A) (A) (A) (A)
                 (A) (A) (A) (A) (A) (A) (A) (A) (A) (A) (A) (A)
                 (A) (A) (A) (A) (A) (A) (A)
       Virtual   (A) (A) (A) (A) (A) (A) (A) (A) (A) (A) (A) (A)
                 (A) (A) (A) (A) (A) (A) (A) (A) (A) (A) (A) (A)
                 (A) (A) (A) (A) (A) (A) (A) (A) (A) (A) (A) (A)
                 (A) (A) (A) (A) (A) (A) (A) (A) (A) (A) (A) (A)
                 (A) (A) (A) (A) (A) (A) (A) (A) (A) (A) (A) (A)
                 (A) (A) (A) (A) (A) (A) (A) (A) (A) (A) (A) (A)
                 (A) (A) (A) (A) (A) (A) (A) (A) (A) (A) (A) (A)
                 (A) (A) (A) (A) (A) (A) (A) (A) (A) (A) (A) (A)
                 (A) (A) (A) (A) (A) (A) (A) (A) (A) (A) (A) (A)
                 (A) (A) (A) (A) (A) (A) (A) (A) (A) (A) (A) (A)
                 (A) (A) (A) (A) (A) (A) (A) (A) (A) (A) (A) (A)
                 (A) (A) (A) (A) (A) (A) (A) (A) (A) (A) (A) (A)
                 (A) (A) (A) (A) (A) (A) (A) (A) (A) (A) (A) (A)
                 (A) (A) (A) (A) (A) (A) (A) (A) (A) (A) (A) (A)
                 (A) (A) (A) (A) (A) (A) (A) (A) (A) (A) (A) (A)
                 (A) (A) (A) (A) (A) (A) (A) (A) (A) (A) (A) (A)
                 (A) (A) (A) (A) (A) (A) (A) (A) (A) (A) (A) (A)
                 (A) (A) (A) (A) (A) (A) (A) (A) (A) (A) (A) (A)
                 (A) (A) (A) (A) (A) (A) (A) (A) (A) (A) (A) (A)
                 (A) (A) (A) (A) (A) (A) (A) (A) (A) (A) (A) (A)
                 (A) (A) (A) (A) (A) (A) (A) (A) (A) (A) (A) (A)
                 (A) (A) (A) (A) (A) (A) (A) (A) (A) (A) (A) (A)
                 (A) (A) (A) (A) (A) (A) (A) (A) (A) (A) (A) (A)
                 (A) (A) (A) (A) (A) (A) (A) (A) (A) (A) (A) (A)
                 (A) (A) (A) (A) (A) (A) (A) (A) (A) (A) (A) (A)
                 (A) (A) (A) (A) (A) (A) (A) (A) (A) (A) (A) (A)
                 (A) (A) (A) (A) (A) (A) (A) (A) (A) (A) (A) (A)
                 (A) (A) (A) (A) (A) (A) (A) (A) (A) (A) (A) (A)
                 (A) (A) (A) (A) (A) (A) (A) (A) (A) (A) (A) (A)
                 (A) (A) (A) (A) (A) (A) (A) (A) (A) (A) (A) (A)
                 (A) (A) (A) (A) (A) (A) (A) (A) (A) (A) (A) (A)
                 (A) (A) (A) (A) (A) (A) (A) (A) (A) (A) (A) (A)
                 (A) (A) (A) (A) (A) (A) (A) (A) (A) (A) (A) (A)
                 (A) (A) (A) (A) (A) (A) (A) (A) (A) (A) (A) (A)
                 (A) (A) (A) (A) (A) (A) (A) (A) (A) (A) (A) (A)
                 (A) (A) (A) (A) (A) (A) (A) (A) (A) (A) (A) (A)
                 (A) (A) (A) (A) (A) (A) (A) (A) (A) (A) (A) (A)
                 (A) (A) (A) (A) (A) (A) (A) (A) (A) (A) (A) (A)
                 (A) (A) (A) (A) (A) (A) (A) (A) (A) (A) (A) (A)
                 (A) (A) (A) (A) (A) (A) (A) (A) (A) (A) (A) (A)
                 (A) (A) (A) (A) (A) (A) (A) (A) (A) (A) (A) (A)
                 (A) (A) (A) (A) (A) (A) (A) (A) (A) (A) (A) (A)
                 (A) (A) (A) (A) (A) (A) (A) (A) (A) (A) (A) (A)
                 (A) (A) (A) (A) (A) (A) (A) (A) (A) (A) (A) (A)
                 (A) (A) (A) (A) (A) (A) (A) (A) (A) (A) (A) (A)
                 (A) (A) (A) (A) (A) (A) (A) (A) (A) (A) (A) (A)
                 (A) (A) (A) (A) (A) (A) (A) (A) (A) (A) (A) (A)
                 (A) (A) (A) (A) (A) (A) (A) (A) (A) (A) (A) (A)
                 (A) (A) (A) (A) (A) (A) (A) (A) (A) (A) (A) (A)
                 (A) (A) (A) (A) (A) (A) (A) (A) (A) (A) (A) (A)
                 (A) (A) (A) (A) (A) (A) (A) (A) (A) (A) (A) (A)
                 (A) (A) (A) (A) (A) (A) (A) (A) (A) (A) (A) (A)
                 (A) (A) (A) (A) (A) (A) (A) (A) (A) (A) (A) (A)
                 (A) (A) (A) (A) (A) (A) (A) (A) (A) (A) (A) (A)
                 (A) (A) (A) (A) (A) (A) (A) (A) (A) (A) (A) (A)
                 (A) (A)
 The electronic state of the initial guess is 1-A.
 Requested convergence on RMS density matrix=1.00D-08 within 128 cycles.
 Requested convergence on MAX density matrix=1.00D-06.
 Requested convergence on             energy=1.00D-06.
 No special actions if energy rises.
 SCF Done:  E(RB3LYP) =  -1387.64805292     A.U. after   16 cycles
             Convg  =    0.9000D-08             -V/T =  2.0043

 **********************************************************************

            Population analysis using the SCF density.

 **********************************************************************

 Orbital symmetries:
       Occupied  (A) (A) (A) (A) (A) (A) (A) (A) (A) (A) (A) (A)
                 (A) (A) (A) (A) (A) (A) (A) (A) (A) (A) (A) (A)
                 (A) (A) (A) (A) (A) (A) (A) (A) (A) (A) (A) (A)
                 (A) (A) (A) (A) (A) (A) (A) (A) (A) (A) (A) (A)
                 (A) (A) (A) (A) (A) (A) (A) (A) (A) (A) (A) (A)
                 (A) (A) (A) (A) (A) (A) (A) (A) (A) (A) (A) (A)
                 (A) (A) (A) (A) (A) (A) (A) (A) (A) (A) (A) (A)
                 (A) (A) (A) (A) (A) (A) (A) (A) (A) (A) (A) (A)
                 (A) (A) (A) (A) (A) (A) (A) (A) (A) (A) (A) (A)
                 (A) (A) (A) (A) (A) (A) (A)
       Virtual   (A) (A) (A) (A) (A) (A) (A) (A) (A) (A) (A) (A)
                 (A) (A) (A) (A) (A) (A) (A) (A) (A) (A) (A) (A)
                 (A) (A) (A) (A) (A) (A) (A) (A) (A) (A) (A) (A)
                 (A) (A) (A) (A) (A) (A) (A) (A) (A) (A) (A) (A)
                 (A) (A) (A) (A) (A) (A) (A) (A) (A) (A) (A) (A)
                 (A) (A) (A) (A) (A) (A) (A) (A) (A) (A) (A) (A)
                 (A) (A) (A) (A) (A) (A) (A) (A) (A) (A) (A) (A)
                 (A) (A) (A) (A) (A) (A) (A) (A) (A) (A) (A) (A)
                 (A) (A) (A) (A) (A) (A) (A) (A) (A) (A) (A) (A)
                 (A) (A) (A) (A) (A) (A) (A) (A) (A) (A) (A) (A)
                 (A) (A) (A) (A) (A) (A) (A) (A) (A) (A) (A) (A)
                 (A) (A) (A) (A) (A) (A) (A) (A) (A) (A) (A) (A)
                 (A) (A) (A) (A) (A) (A) (A) (A) (A) (A) (A) (A)
                 (A) (A) (A) (A) (A) (A) (A) (A) (A) (A) (A) (A)
                 (A) (A) (A) (A) (A) (A) (A) (A) (A) (A) (A) (A)
                 (A) (A) (A) (A) (A) (A) (A) (A) (A) (A) (A) (A)
                 (A) (A) (A) (A) (A) (A) (A) (A) (A) (A) (A) (A)
                 (A) (A) (A) (A) (A) (A) (A) (A) (A) (A) (A) (A)
                 (A) (A) (A) (A) (A) (A) (A) (A) (A) (A) (A) (A)
                 (A) (A) (A) (A) (A) (A) (A) (A) (A) (A) (A) (A)
                 (A) (A) (A) (A) (A) (A) (A) (A) (A) (A) (A) (A)
                 (A) (A) (A) (A) (A) (A) (A) (A) (A) (A) (A) (A)
                 (A) (A) (A) (A) (A) (A) (A) (A) (A) (A) (A) (A)
                 (A) (A) (A) (A) (A) (A) (A) (A) (A) (A) (A) (A)
                 (A) (A) (A) (A) (A) (A) (A) (A) (A) (A) (A) (A)
                 (A) (A) (A) (A) (A) (A) (A) (A) (A) (A) (A) (A)
                 (A) (A) (A) (A) (A) (A) (A) (A) (A) (A) (A) (A)
                 (A) (A) (A) (A) (A) (A) (A) (A) (A) (A) (A) (A)
                 (A) (A) (A) (A) (A) (A) (A) (A) (A) (A) (A) (A)
                 (A) (A) (A) (A) (A) (A) (A) (A) (A) (A) (A) (A)
                 (A) (A) (A) (A) (A) (A) (A) (A) (A) (A) (A) (A)
                 (A) (A) (A) (A) (A) (A) (A) (A) (A) (A) (A) (A)
                 (A) (A) (A) (A) (A) (A) (A) (A) (A) (A) (A) (A)
                 (A) (A) (A) (A) (A) (A) (A) (A) (A) (A) (A) (A)
                 (A) (A) (A) (A) (A) (A) (A) (A) (A) (A) (A) (A)
                 (A) (A) (A) (A) (A) (A) (A) (A) (A) (A) (A) (A)
                 (A) (A) (A) (A) (A) (A) (A) (A) (A) (A) (A) (A)
                 (A) (A) (A) (A) (A) (A) (A) (A) (A) (A) (A) (A)
                 (A) (A) (A) (A) (A) (A) (A) (A) (A) (A) (A) (A)
                 (A) (A) (A) (A) (A) (A) (A) (A) (A) (A) (A) (A)
                 (A) (A) (A) (A) (A) (A) (A) (A) (A) (A) (A) (A)
                 (A) (A) (A) (A) (A) (A) (A) (A) (A) (A) (A) (A)
                 (A) (A) (A) (A) (A) (A) (A) (A) (A) (A) (A) (A)
                 (A) (A) (A) (A) (A) (A) (A) (A) (A) (A) (A) (A)
                 (A) (A) (A) (A) (A) (A) (A) (A) (A) (A) (A) (A)
                 (A) (A) (A) (A) (A) (A) (A) (A) (A) (A) (A) (A)
                 (A) (A) (A) (A) (A) (A) (A) (A) (A) (A) (A) (A)
                 (A) (A) (A) (A) (A) (A) (A) (A) (A) (A) (A) (A)
                 (A) (A) (A) (A) (A) (A) (A) (A) (A) (A) (A) (A)
                 (A) (A) (A) (A) (A) (A) (A) (A) (A) (A) (A) (A)
                 (A) (A) (A) (A) (A) (A) (A) (A) (A) (A) (A) (A)
                 (A) (A) (A) (A) (A) (A) (A) (A) (A) (A) (A) (A)
                 (A) (A) (A) (A) (A) (A) (A) (A) (A) (A) (A) (A)
                 (A) (A) (A) (A) (A) (A) (A) (A) (A) (A) (A) (A)
                 (A) (A) (A) (A) (A) (A) (A) (A) (A) (A) (A) (A)
                 (A) (A)
 The electronic state is 1-A.
 Alpha  occ. eigenvalues --  -19.17990 -19.14923 -19.14132 -19.10739 -19.09718
 Alpha  occ. eigenvalues --  -10.27228 -10.26628 -10.25914 -10.25544 -10.25444
 Alpha  occ. eigenvalues --  -10.25127 -10.24451 -10.20921 -10.19991 -10.19943
 Alpha  occ. eigenvalues --  -10.19852 -10.19149 -10.18886 -10.18739 -10.18594
 Alpha  occ. eigenvalues --  -10.18184 -10.17830 -10.17776 -10.17680 -10.17661
 Alpha  occ. eigenvalues --  -10.17481 -10.16839 -10.16475 -10.15201 -10.14736
 Alpha  occ. eigenvalues --  -10.14578  -1.10668  -1.07255  -1.04266  -1.03860
 Alpha  occ. eigenvalues --   -1.02911  -0.87861  -0.84661  -0.83376  -0.82454
 Alpha  occ. eigenvalues --   -0.81279  -0.79536  -0.77684  -0.75287  -0.74259
 Alpha  occ. eigenvalues --   -0.72732  -0.71570  -0.70671  -0.70295  -0.68901
 Alpha  occ. eigenvalues --   -0.66384  -0.64949  -0.64454  -0.62528  -0.61691
 Alpha  occ. eigenvalues --   -0.60523  -0.58765  -0.58006  -0.55574  -0.54560
 Alpha  occ. eigenvalues --   -0.53863  -0.52975  -0.51936  -0.51453  -0.50322
 Alpha  occ. eigenvalues --   -0.49327  -0.48456  -0.47640  -0.47370  -0.46802
 Alpha  occ. eigenvalues --   -0.46276  -0.45534  -0.45334  -0.44434  -0.44335
 Alpha  occ. eigenvalues --   -0.43707  -0.43147  -0.42672  -0.42528  -0.42258
 Alpha  occ. eigenvalues --   -0.41735  -0.41512  -0.41351  -0.40775  -0.40329
 Alpha  occ. eigenvalues --   -0.40115  -0.39395  -0.39177  -0.39021  -0.38862
 Alpha  occ. eigenvalues --   -0.38620  -0.38361  -0.38215  -0.37999  -0.37610
 Alpha  occ. eigenvalues --   -0.37470  -0.36235  -0.35784  -0.35529  -0.35066
 Alpha  occ. eigenvalues --   -0.34808  -0.34633  -0.33960  -0.33783  -0.33316
 Alpha  occ. eigenvalues --   -0.32489  -0.31375  -0.31090  -0.29440  -0.27954
 Alpha  occ. eigenvalues --   -0.27470  -0.25984  -0.25565  -0.24699  -0.23641
 Alpha virt. eigenvalues --   -0.06611  -0.03018  -0.01996  -0.01347  -0.00253
 Alpha virt. eigenvalues --   -0.00104   0.00230   0.01252   0.01459   0.01838
 Alpha virt. eigenvalues --    0.02191   0.02277   0.03039   0.03132   0.03507
 Alpha virt. eigenvalues --    0.03660   0.04168   0.04415   0.04494   0.04816
 Alpha virt. eigenvalues --    0.05256   0.05536   0.05588   0.05963   0.06410
 Alpha virt. eigenvalues --    0.06504   0.06766   0.07102   0.07522   0.07545
 Alpha virt. eigenvalues --    0.07826   0.08159   0.08228   0.08562   0.08833
 Alpha virt. eigenvalues --    0.08909   0.09046   0.09283   0.09596   0.09956
 Alpha virt. eigenvalues --    0.10160   0.10376   0.10543   0.10766   0.10989
 Alpha virt. eigenvalues --    0.11123   0.11534   0.11658   0.12022   0.12224
 Alpha virt. eigenvalues --    0.12308   0.12624   0.12767   0.12882   0.13207
 Alpha virt. eigenvalues --    0.13656   0.13737   0.14186   0.14345   0.14734
 Alpha virt. eigenvalues --    0.14808   0.15145   0.15551   0.15654   0.15828
 Alpha virt. eigenvalues --    0.16193   0.16630   0.16774   0.16971   0.17134
 Alpha virt. eigenvalues --    0.17331   0.17620   0.17754   0.17808   0.18091
 Alpha virt. eigenvalues --    0.18248   0.18556   0.18862   0.18992   0.19255
 Alpha virt. eigenvalues --    0.19353   0.19586   0.19721   0.19864   0.19932
 Alpha virt. eigenvalues --    0.20111   0.20797   0.20869   0.21047   0.21181
 Alpha virt. eigenvalues --    0.21451   0.21472   0.21782   0.21844   0.21964
 Alpha virt. eigenvalues --    0.22369   0.22607   0.22686   0.22751   0.23196
 Alpha virt. eigenvalues --    0.23365   0.23458   0.23577   0.23819   0.23985
 Alpha virt. eigenvalues --    0.24262   0.24299   0.24503   0.24896   0.25122
 Alpha virt. eigenvalues --    0.25165   0.25379   0.25601   0.25908   0.26006
 Alpha virt. eigenvalues --    0.26218   0.26306   0.26446   0.26819   0.26993
 Alpha virt. eigenvalues --    0.27150   0.27200   0.27676   0.27930   0.28243
 Alpha virt. eigenvalues --    0.28475   0.28733   0.28948   0.29101   0.29263
 Alpha virt. eigenvalues --    0.29435   0.29669   0.29937   0.30219   0.30644
 Alpha virt. eigenvalues --    0.30787   0.31451   0.31557   0.31647   0.32045
 Alpha virt. eigenvalues --    0.32327   0.32438   0.32917   0.33192   0.33307
 Alpha virt. eigenvalues --    0.33689   0.33794   0.34606   0.34926   0.35425
 Alpha virt. eigenvalues --    0.35678   0.35973   0.36310   0.36816   0.37165
 Alpha virt. eigenvalues --    0.37416   0.37565   0.37861   0.38257   0.38311
 Alpha virt. eigenvalues --    0.38695   0.39438   0.39738   0.40137   0.40350
 Alpha virt. eigenvalues --    0.40768   0.41274   0.41478   0.41646   0.42137
 Alpha virt. eigenvalues --    0.42352   0.42837   0.43434   0.43503   0.44039
 Alpha virt. eigenvalues --    0.44248   0.44624   0.44890   0.45489   0.45699
 Alpha virt. eigenvalues --    0.46245   0.46333   0.46732   0.46952   0.47378
 Alpha virt. eigenvalues --    0.47617   0.48050   0.48678   0.48967   0.49366
 Alpha virt. eigenvalues --    0.49695   0.49822   0.50351   0.50778   0.51094
 Alpha virt. eigenvalues --    0.51702   0.52268   0.52424   0.52915   0.53998
 Alpha virt. eigenvalues --    0.54339   0.54504   0.54850   0.55374   0.55634
 Alpha virt. eigenvalues --    0.56145   0.56254   0.57219   0.57439   0.57715
 Alpha virt. eigenvalues --    0.58304   0.58355   0.59009   0.59353   0.60090
 Alpha virt. eigenvalues --    0.60301   0.60506   0.60698   0.61271   0.61497
 Alpha virt. eigenvalues --    0.61940   0.62923   0.63342   0.63760   0.64097
 Alpha virt. eigenvalues --    0.64462   0.64991   0.65057   0.65501   0.65669
 Alpha virt. eigenvalues --    0.66015   0.66682   0.66877   0.67277   0.67591
 Alpha virt. eigenvalues --    0.67922   0.68329   0.68439   0.68514   0.68723
 Alpha virt. eigenvalues --    0.69286   0.69638   0.69729   0.70059   0.70239
 Alpha virt. eigenvalues --    0.70517   0.70867   0.71151   0.71432   0.71662
 Alpha virt. eigenvalues --    0.71880   0.72024   0.72476   0.73024   0.73358
 Alpha virt. eigenvalues --    0.73880   0.73925   0.74389   0.74479   0.75175
 Alpha virt. eigenvalues --    0.75753   0.75993   0.76114   0.76302   0.76557
 Alpha virt. eigenvalues --    0.76912   0.77593   0.77923   0.78250   0.78854
 Alpha virt. eigenvalues --    0.79323   0.79618   0.79888   0.80378   0.80766
 Alpha virt. eigenvalues --    0.81277   0.81823   0.82500   0.82972   0.83129
 Alpha virt. eigenvalues --    0.83515   0.83975   0.84328   0.84720   0.85399
 Alpha virt. eigenvalues --    0.86197   0.86444   0.86775   0.87763   0.88395
 Alpha virt. eigenvalues --    0.89209   0.89996   0.90874   0.91878   0.92658
 Alpha virt. eigenvalues --    0.93418   0.94302   0.95577   0.96584   0.96716
 Alpha virt. eigenvalues --    0.97080   0.97855   0.98825   0.98971   1.00168
 Alpha virt. eigenvalues --    1.01661   1.02882   1.03147   1.04134   1.05379
 Alpha virt. eigenvalues --    1.05574   1.07358   1.07980   1.08876   1.09394
 Alpha virt. eigenvalues --    1.10374   1.10962   1.11647   1.13253   1.14248
 Alpha virt. eigenvalues --    1.14589   1.15894   1.16997   1.17820   1.18554
 Alpha virt. eigenvalues --    1.18798   1.21403   1.22477   1.23021   1.24083
 Alpha virt. eigenvalues --    1.24853   1.25454   1.26080   1.27295   1.27716
 Alpha virt. eigenvalues --    1.28332   1.28752   1.30582   1.30955   1.31223
 Alpha virt. eigenvalues --    1.32415   1.32757   1.33848   1.34865   1.35589
 Alpha virt. eigenvalues --    1.36309   1.36622   1.37489   1.38301   1.39358
 Alpha virt. eigenvalues --    1.40808   1.41577   1.41968   1.42847   1.43474
 Alpha virt. eigenvalues --    1.44637   1.45708   1.46665   1.47096   1.47508
 Alpha virt. eigenvalues --    1.48500   1.49671   1.50201   1.50959   1.52075
 Alpha virt. eigenvalues --    1.52774   1.53899   1.54546   1.54664   1.55047
 Alpha virt. eigenvalues --    1.55656   1.56780   1.56999   1.57413   1.57854
 Alpha virt. eigenvalues --    1.58347   1.58609   1.59548   1.59943   1.60464
 Alpha virt. eigenvalues --    1.60667   1.61019   1.61547   1.61668   1.62885
 Alpha virt. eigenvalues --    1.63012   1.63673   1.64293   1.64450   1.65132
 Alpha virt. eigenvalues --    1.65358   1.65801   1.65976   1.66703   1.67323
 Alpha virt. eigenvalues --    1.67786   1.67866   1.68427   1.69432   1.70121
 Alpha virt. eigenvalues --    1.70421   1.71156   1.71586   1.72142   1.73253
 Alpha virt. eigenvalues --    1.73606   1.74175   1.74352   1.74911   1.75628
 Alpha virt. eigenvalues --    1.76454   1.77482   1.77896   1.79095   1.79669
 Alpha virt. eigenvalues --    1.80554   1.81205   1.81504   1.82696   1.83355
 Alpha virt. eigenvalues --    1.83758   1.84378   1.85509   1.86035   1.86763
 Alpha virt. eigenvalues --    1.87971   1.88213   1.88858   1.90542   1.91671
 Alpha virt. eigenvalues --    1.92373   1.93180   1.94452   1.95551   1.96182
 Alpha virt. eigenvalues --    1.97627   1.98851   1.99530   2.00952   2.01715
 Alpha virt. eigenvalues --    2.02716   2.03441   2.04208   2.04409   2.06408
 Alpha virt. eigenvalues --    2.07363   2.07685   2.08763   2.09800   2.10720
 Alpha virt. eigenvalues --    2.11587   2.12536   2.13578   2.14812   2.15919
 Alpha virt. eigenvalues --    2.16846   2.17729   2.18983   2.19569   2.22134
 Alpha virt. eigenvalues --    2.22759   2.22966   2.24272   2.24969   2.26838
 Alpha virt. eigenvalues --    2.27330   2.28551   2.30227   2.31612   2.33337
 Alpha virt. eigenvalues --    2.34935   2.37893   2.38072   2.39630   2.42373
 Alpha virt. eigenvalues --    2.44112   2.47286   2.48626   2.50252   2.50791
 Alpha virt. eigenvalues --    2.52270   2.53450   2.53816   2.54196   2.54812
 Alpha virt. eigenvalues --    2.55242   2.55721   2.56217   2.56555   2.56801
 Alpha virt. eigenvalues --    2.57606   2.58093   2.58984   2.59938   2.61049
 Alpha virt. eigenvalues --    2.62377   2.63061   2.64773   2.66050   2.66537
 Alpha virt. eigenvalues --    2.66810   2.67943   2.69705   2.70450   2.71064
 Alpha virt. eigenvalues --    2.71534   2.72338   2.73247   2.74132   2.75100
 Alpha virt. eigenvalues --    2.75764   2.77900   2.81266   2.81905   2.84199
 Alpha virt. eigenvalues --    2.85044   2.87236   2.88441   2.89028   2.89781
 Alpha virt. eigenvalues --    2.90620   2.92812   2.93900   2.94194   2.95037
 Alpha virt. eigenvalues --    2.95862   2.97665   2.98051   2.99546   2.99961
 Alpha virt. eigenvalues --    3.00647   3.00917   3.01948   3.02908   3.03518
 Alpha virt. eigenvalues --    3.04229   3.05793   3.06864   3.07656   3.08297
 Alpha virt. eigenvalues --    3.09240   3.10727   3.11503   3.12553   3.13534
 Alpha virt. eigenvalues --    3.14441   3.14933   3.16476   3.16680   3.17031
 Alpha virt. eigenvalues --    3.18385   3.19363   3.19992   3.21365   3.21914
 Alpha virt. eigenvalues --    3.22774   3.23005   3.24427   3.25128   3.25600
 Alpha virt. eigenvalues --    3.26162   3.26635   3.27570   3.27867   3.28822
 Alpha virt. eigenvalues --    3.29514   3.30207   3.31554   3.32450   3.33996
 Alpha virt. eigenvalues --    3.34147   3.34509   3.35864   3.37264   3.38519
 Alpha virt. eigenvalues --    3.39200   3.40484   3.41973   3.42382   3.44353
 Alpha virt. eigenvalues --    3.46062   3.46913   3.51132   3.52978   3.53276
 Alpha virt. eigenvalues --    3.54077   3.59459   3.61979   3.64007   3.74076
 Alpha virt. eigenvalues --    3.76779   3.78091   3.79566   3.87605   3.88995
 Alpha virt. eigenvalues --    3.90503   3.94793   3.97383   4.01260   4.02044
 Alpha virt. eigenvalues --    4.05309   4.06577   4.09060   4.09441   4.12011
 Alpha virt. eigenvalues --    4.15510   4.17725   4.20545   4.22497   4.23058
 Alpha virt. eigenvalues --    4.23387   4.28301   4.32981   4.35546   4.44744
 Alpha virt. eigenvalues --    4.60782   5.13897   5.14835   5.16883   5.21733
 Alpha virt. eigenvalues --    5.23390   5.28319   5.31134   5.34624   5.42418
 Alpha virt. eigenvalues --    5.43506   5.56943   5.66147   5.73766   5.79631
 Alpha virt. eigenvalues --    5.83712  23.45074  23.46952  23.52497  23.53132
 Alpha virt. eigenvalues --   23.60214  23.64724  23.65994  23.66733  23.68929
 Alpha virt. eigenvalues --   23.70425  23.73687  23.74898  23.76101  23.78519
 Alpha virt. eigenvalues --   23.78612  23.79393  23.82298  23.84222  23.86480
 Alpha virt. eigenvalues --   23.87195  23.87981  23.88821  23.95738  24.12546
 Alpha virt. eigenvalues --   24.18901  24.21857  49.98866  49.99664  50.02660
 Alpha virt. eigenvalues --   50.04431  50.06183
          Condensed to atoms (all electrons):
 Mulliken atomic charges:
              1
     1  C   -0.389310
     2  C    0.677223
     3  C   -0.035530
     4  C   -0.619613
     5  C    1.158336
     6  C   -0.872675
     7  C   -1.141562
     8  C    0.442769
     9  C    0.594382
    10  C   -1.171053
    11  C   -0.219364
    12  O   -0.193646
    13  C    0.809382
    14  C   -0.383468
    15  C   -0.985208
    16  O   -0.156688
    17  C   -0.226497
    18  C    0.724914
    19  O    0.173891
    20  C   -1.318632
    21  O    0.004355
    22  C   -0.506393
    23  C   -0.503175
    24  O    0.049297
    25  C    0.944641
    26  C   -1.017618
    27  C   -0.986364
    28  C   -0.696904
    29  C   -0.757839
    30  H    0.237499
    31  H    0.270405
    32  C   -1.069381
    33  H    0.203193
    34  H    0.242430
    35  H    0.273666
    36  H    0.226444
    37  H    0.244656
    38  H    0.254526
    39  H    0.235748
    40  H    0.278116
    41  H    0.237116
    42  H    0.271871
    43  H    0.275404
    44  H    0.288786
    45  H    0.270593
    46  H    0.288267
    47  H    0.234143
    48  H    0.267898
    49  H    0.263174
    50  H    0.254773
    51  H    0.230626
    52  H    0.239435
    53  H    0.265455
    54  H    0.245019
    55  H    0.310925
    56  H    0.260775
    57  H    0.275123
    58  H    0.258794
    59  H    0.256449
    60  H    0.256600
    61  H    0.256984
    62  C   -1.018373
    63  H    0.240432
    64  H    0.241190
    65  H    0.233585
 Sum of Mulliken atomic charges =   0.00000
 Mulliken charges with hydrogens summed into heavy atoms:
              1
     1  C   -0.186117
     2  C    0.677223
     3  C    0.234876
     4  C   -0.619613
     5  C    1.158336
     6  C   -0.356579
     7  C   -1.141562
     8  C    0.442769
     9  C    0.594382
    10  C   -1.171053
    11  C   -0.219364
    12  O   -0.193646
    13  C    1.035826
    14  C    0.115714
    15  C   -0.234229
    16  O   -0.156688
    17  C    0.011002
    18  C    0.724914
    19  O    0.173891
    20  C   -0.771357
    21  O    0.293142
    22  C    0.052468
    23  C   -0.269032
    24  O    0.049297
    25  C    0.944641
    26  C   -0.231773
    27  C   -0.516304
    28  C    0.124495
    29  C    0.036853
    32  C   -0.299348
    62  C   -0.303166
 Sum of Mulliken charges with hydrogens summed into heavy atoms =   0.00000
 Electronic spatial extent (au):  <R**2>=          11762.0072
 Charge=              0.0000 electrons
 Dipole moment (field-independent basis, Debye):
    X=              5.5939    Y=              1.6879    Z=              3.3890  Tot=              6.7547
 Quadrupole moment (field-independent basis, Debye-Ang):
   XX=           -191.9264   YY=           -180.6065   ZZ=           -189.1656
   XY=              1.0835   XZ=             -8.3209   YZ=              4.2673
 Traceless Quadrupole moment (field-independent basis, Debye-Ang):
   XX=             -4.6936   YY=              6.6263   ZZ=             -1.9327
   XY=              1.0835   XZ=             -8.3209   YZ=              4.2673
 Octapole moment (field-independent basis, Debye-Ang**2):
  XXX=             67.1931  YYY=             71.5033  ZZZ=              6.3503  XYY=             33.7241
  XXY=            -17.8058  XXZ=              0.5844  XZZ=             17.9030  YZZ=             -9.0452
  YYZ=             -4.4508  XYZ=             -3.6456
 Hexadecapole moment (field-independent basis, Debye-Ang**3):
 XXXX=          -8367.0425 YYYY=          -4628.4946 ZZZZ=          -3076.0677 XXXY=             -9.2950
 XXXZ=           -116.4875 YYYX=             -9.5109 YYYZ=            -62.8290 ZZZX=            -38.5093
 ZZZY=             14.3393 XXYY=          -2232.4379 XXZZ=          -1924.7299 YYZZ=          -1265.6137
 XXYZ=             57.3156 YYXZ=              2.1938 ZZXY=              4.4076
 N-N= 3.495871958925D+03 E-N=-1.022474770619D+04  KE= 1.381713650514D+03
 Calling FoFJK, ICntrl=      2127 FMM=T ISym2X=0 I1Cent= 0 IOpClX= 0 NMat=1 NMatS=1 NMatT=0.
 ***** Axes restored to original set *****
 -------------------------------------------------------------------
 Center     Atomic                   Forces (Hartrees/Bohr)
 Number     Number              X              Y              Z
 -------------------------------------------------------------------
      1        6           0.000771182    0.001988785    0.000107420
      2        6          -0.000308577   -0.002200312    0.000116962
      3        6          -0.000291476    0.000464152   -0.000202899
      4        6          -0.000278723    0.000692046    0.001151578
      5        6          -0.000113985   -0.000268996   -0.000225740
      6        6           0.000064754    0.000001001   -0.000176053
      7        6          -0.002306022    0.000753052    0.001360467
      8        6          -0.002700404    0.001714512   -0.000654021
      9        6           0.001026314    0.000517849    0.000157608
     10        6          -0.003254370   -0.005863061   -0.000662440
     11        6          -0.002859023    0.004847512   -0.004121681
     12        8           0.002856101   -0.006088925    0.004640085
     13        6           0.000146657    0.000209056   -0.000031549
     14        6           0.000169371    0.000008125   -0.000713386
     15        6           0.000103959    0.000220119   -0.000092932
     16        8           0.003862157    0.007255769   -0.000192928
     17        6           0.000455267    0.000089725   -0.000001417
     18        6           0.000879160    0.001535211   -0.000119548
     19        8           0.001184993   -0.004803728    0.001041846
     20        6          -0.000484552    0.000096709    0.000132776
     21        8           0.005844770   -0.000925984    0.003048697
     22        6           0.000483911   -0.000164175   -0.000504304
     23        6           0.000493614   -0.002002160   -0.000380882
     24        8          -0.000587507   -0.000221755    0.000861909
     25        6           0.000252051   -0.001226257   -0.001871226
     26        6          -0.000041213    0.000157713    0.000188355
     27        6           0.000298182    0.000619102    0.001947577
     28        6           0.000058945   -0.000140654    0.000452172
     29        6           0.000340256   -0.000373845   -0.000018888
     30        1          -0.001247460   -0.000371156    0.000106336
     31        1          -0.001384222   -0.000174476    0.000062091
     32        6           0.000013739    0.000384408    0.000149704
     33        1           0.000328114    0.000323124   -0.000701230
     34        1          -0.001537957    0.000628549   -0.000212792
     35        1           0.001590181    0.000783823    0.000653004
     36        1          -0.000565471    0.000685645   -0.000857330
     37        1           0.000676539   -0.000944332    0.000904738
     38        1          -0.001367106    0.000715527    0.000139207
     39        1           0.001107997    0.001086026   -0.000633242
     40        1           0.000047240   -0.000772409    0.001624742
     41        1          -0.000935948   -0.000841632   -0.000890421
     42        1          -0.000811845   -0.001009007   -0.000861628
     43        1           0.001688053    0.000074695   -0.000015157
     44        1          -0.003984622    0.001721984   -0.004135323
     45        1          -0.000004004   -0.001052610    0.001434049
     46        1           0.000196749    0.001460252   -0.000117170
     47        1          -0.000321937    0.000973219   -0.001192214
     48        1           0.000538145   -0.001583458   -0.000454672
     49        1          -0.000457493    0.000826947   -0.001310872
     50        1          -0.000940790    0.000220388    0.001306107
     51        1          -0.000769341   -0.000015311    0.000653003
     52        1           0.000950501    0.000470402    0.000227874
     53        1           0.001407097   -0.000564886    0.000590312
     54        1          -0.001001194   -0.001043733   -0.000417946
     55        1          -0.000682574    0.001937672    0.000241875
     56        1          -0.001248254   -0.000797692   -0.000113111
     57        1           0.001186787   -0.000514302    0.001097735
     58        1           0.000600102    0.000839555   -0.001403698
     59        1           0.000769344    0.001075804   -0.001094670
     60        1          -0.001429064   -0.000568323   -0.000431958
     61        1           0.000944910   -0.001399222    0.000510866
     62        6           0.000097265    0.000231476    0.000418259
     63        1           0.000384260    0.000923068    0.001240576
     64        1          -0.000995249    0.000446923   -0.001026657
[...]
                 (A) (A) (A) (A) (A) (A) (A) (A) (A) (A) (A) (A)
                 (A) (A) (A) (A) (A) (A) (A) (A) (A) (A) (A) (A)
                 (A) (A) (A) (A) (A) (A) (A) (A) (A) (A) (A) (A)
                 (A) (A) (A)
 The electronic state is 1-A.
 Alpha  occ. eigenvalues --  -19.17812 -19.14734 -19.13983 -19.10706 -19.10260
 Alpha  occ. eigenvalues --  -10.26871 -10.26451 -10.25944 -10.25468 -10.25412
 Alpha  occ. eigenvalues --  -10.25338 -10.24321 -10.20845 -10.19901 -10.19829
 Alpha  occ. eigenvalues --  -10.19731 -10.19051 -10.18760 -10.18516 -10.18426
 Alpha  occ. eigenvalues --  -10.18035 -10.17833 -10.17650 -10.17557 -10.17544
 Alpha  occ. eigenvalues --  -10.17377 -10.16780 -10.16774 -10.15396 -10.15211
 Alpha  occ. eigenvalues --  -10.14703  -1.10518  -1.06996  -1.04495  -1.03778
 Alpha  occ. eigenvalues --   -1.03602  -0.87884  -0.84719  -0.83422  -0.82524
 Alpha  occ. eigenvalues --   -0.81323  -0.79929  -0.77767  -0.75294  -0.74292
 Alpha  occ. eigenvalues --   -0.72844  -0.71945  -0.70775  -0.70325  -0.68926
 Alpha  occ. eigenvalues --   -0.66460  -0.65103  -0.64455  -0.62784  -0.61697
 Alpha  occ. eigenvalues --   -0.60558  -0.59015  -0.58036  -0.55716  -0.54632
 Alpha  occ. eigenvalues --   -0.53767  -0.53133  -0.51861  -0.51439  -0.50336
 Alpha  occ. eigenvalues --   -0.49363  -0.48683  -0.47721  -0.47394  -0.46832
 Alpha  occ. eigenvalues --   -0.46320  -0.45552  -0.45401  -0.44527  -0.44358
 Alpha  occ. eigenvalues --   -0.43921  -0.43333  -0.42828  -0.42614  -0.42345
 Alpha  occ. eigenvalues --   -0.41702  -0.41567  -0.41413  -0.40761  -0.40514
 Alpha  occ. eigenvalues --   -0.40101  -0.39748  -0.39342  -0.39151  -0.38909
 Alpha  occ. eigenvalues --   -0.38602  -0.38372  -0.38198  -0.38023  -0.37905
 Alpha  occ. eigenvalues --   -0.37448  -0.36406  -0.35961  -0.35576  -0.35387
 Alpha  occ. eigenvalues --   -0.34812  -0.34621  -0.34241  -0.33856  -0.33229
 Alpha  occ. eigenvalues --   -0.32424  -0.31620  -0.31505  -0.29353  -0.27843
 Alpha  occ. eigenvalues --   -0.27443  -0.26156  -0.25453  -0.24686  -0.23848
 Alpha virt. eigenvalues --   -0.06260  -0.02906  -0.01920  -0.01394  -0.00293
 Alpha virt. eigenvalues --   -0.00071   0.00214   0.01182   0.01474   0.01807
 Alpha virt. eigenvalues --    0.02075   0.02292   0.03041   0.03113   0.03540
 Alpha virt. eigenvalues --    0.03608   0.04161   0.04284   0.04498   0.04745
 Alpha virt. eigenvalues --    0.05224   0.05548   0.05696   0.05834   0.06193
 Alpha virt. eigenvalues --    0.06423   0.06540   0.07163   0.07539   0.07597
 Alpha virt. eigenvalues --    0.07906   0.08132   0.08187   0.08445   0.08708
 Alpha virt. eigenvalues --    0.08887   0.09114   0.09266   0.09593   0.09793
 Alpha virt. eigenvalues --    0.10156   0.10209   0.10535   0.10676   0.10963
 Alpha virt. eigenvalues --    0.11342   0.11654   0.11844   0.12157   0.12247
 Alpha virt. eigenvalues --    0.12393   0.12608   0.12827   0.13058   0.13335
 Alpha virt. eigenvalues --    0.13668   0.13685   0.14193   0.14354   0.14690
 Alpha virt. eigenvalues --    0.14883   0.15176   0.15381   0.15502   0.15772
 Alpha virt. eigenvalues --    0.16226   0.16563   0.16857   0.16944   0.17116
 Alpha virt. eigenvalues --    0.17279   0.17603   0.17812   0.17938   0.18070
 Alpha virt. eigenvalues --    0.18531   0.18649   0.18877   0.18886   0.19129
 Alpha virt. eigenvalues --    0.19366   0.19390   0.19648   0.19765   0.19961
 Alpha virt. eigenvalues --    0.20107   0.20581   0.20876   0.21080   0.21241
 Alpha virt. eigenvalues --    0.21447   0.21557   0.21671   0.21860   0.21957
 Alpha virt. eigenvalues --    0.22254   0.22534   0.22632   0.22706   0.22819
 Alpha virt. eigenvalues --    0.23289   0.23342   0.23589   0.23687   0.23973
 Alpha virt. eigenvalues --    0.24076   0.24169   0.24382   0.24668   0.24878
 Alpha virt. eigenvalues --    0.24980   0.25320   0.25414   0.25800   0.25982
 Alpha virt. eigenvalues --    0.26096   0.26301   0.26398   0.26597   0.26962
 Alpha virt. eigenvalues --    0.27107   0.27202   0.27624   0.27897   0.28005
 Alpha virt. eigenvalues --    0.28473   0.28554   0.28667   0.29109   0.29280
 Alpha virt. eigenvalues --    0.29641   0.29838   0.30069   0.30164   0.30705
 Alpha virt. eigenvalues --    0.30945   0.31127   0.31564   0.31745   0.31891
 Alpha virt. eigenvalues --    0.32315   0.32502   0.32882   0.33049   0.33381
 Alpha virt. eigenvalues --    0.33605   0.33905   0.34312   0.34923   0.35297
 Alpha virt. eigenvalues --    0.35725   0.35941   0.36339   0.36464   0.36601
 Alpha virt. eigenvalues --    0.37072   0.37313   0.37867   0.38066   0.38455
 Alpha virt. eigenvalues --    0.38745   0.39461   0.39486   0.39806   0.40041
 Alpha virt. eigenvalues --    0.40359   0.40817   0.41194   0.41744   0.41973
 Alpha virt. eigenvalues --    0.42419   0.42933   0.43189   0.43438   0.43489
 Alpha virt. eigenvalues --    0.44070   0.44337   0.44949   0.45164   0.45298
 Alpha virt. eigenvalues --    0.45804   0.46202   0.46736   0.47146   0.47332
 Alpha virt. eigenvalues --    0.47560   0.47818   0.48119   0.48514   0.48710
 Alpha virt. eigenvalues --    0.49006   0.49641   0.50146   0.50250   0.51101
 Alpha virt. eigenvalues --    0.51666   0.52061   0.52424   0.52790   0.53272
 Alpha virt. eigenvalues --    0.54131   0.54212   0.54891   0.55337   0.55748
 Alpha virt. eigenvalues --    0.55993   0.56245   0.56590   0.56855   0.57315
 Alpha virt. eigenvalues --    0.57837   0.58147   0.58509   0.58782   0.59391
 Alpha virt. eigenvalues --    0.60079   0.60280   0.60466   0.60764   0.61388
 Alpha virt. eigenvalues --    0.61668   0.61944   0.62824   0.63693   0.63944
 Alpha virt. eigenvalues --    0.64204   0.64417   0.64686   0.65276   0.65555
 Alpha virt. eigenvalues --    0.65696   0.66517   0.66798   0.67067   0.67332
 Alpha virt. eigenvalues --    0.67562   0.67746   0.68015   0.68349   0.68682
 Alpha virt. eigenvalues --    0.69215   0.69299   0.69694   0.70092   0.70242
 Alpha virt. eigenvalues --    0.70481   0.70674   0.70868   0.71218   0.71749
 Alpha virt. eigenvalues --    0.72039   0.72453   0.72501   0.72623   0.73321
 Alpha virt. eigenvalues --    0.73477   0.73885   0.74107   0.74615   0.74678
 Alpha virt. eigenvalues --    0.74960   0.75444   0.75636   0.76347   0.76546
 Alpha virt. eigenvalues --    0.76880   0.77218   0.77662   0.78479   0.78817
 Alpha virt. eigenvalues --    0.79003   0.79369   0.79916   0.80346   0.80456
 Alpha virt. eigenvalues --    0.81291   0.81357   0.81963   0.82318   0.82692
 Alpha virt. eigenvalues --    0.83355   0.83719   0.84082   0.84401   0.85026
 Alpha virt. eigenvalues --    0.85344   0.86344   0.86885   0.87234   0.88061
 Alpha virt. eigenvalues --    0.88625   0.89378   0.90271   0.90855   0.91601
 Alpha virt. eigenvalues --    0.92350   0.93444   0.94493   0.95932   0.96526
 Alpha virt. eigenvalues --    0.96801   0.97367   0.97548   0.98454   0.99111
 Alpha virt. eigenvalues --    1.00362   1.01379   1.02524   1.03271   1.04320
 Alpha virt. eigenvalues --    1.05520   1.06278   1.06581   1.07893   1.08481
 Alpha virt. eigenvalues --    1.09501   1.10677   1.11464   1.12263   1.13678
 Alpha virt. eigenvalues --    1.14254   1.14724   1.15811   1.17189   1.17810
 Alpha virt. eigenvalues --    1.18047   1.19786   1.21866   1.22351   1.23288
 Alpha virt. eigenvalues --    1.24011   1.24802   1.25370   1.26323   1.27035
 Alpha virt. eigenvalues --    1.27790   1.28577   1.29696   1.30639   1.31405
 Alpha virt. eigenvalues --    1.31789   1.32991   1.33018   1.34486   1.34664
 Alpha virt. eigenvalues --    1.35613   1.36042   1.36283   1.37546   1.37983
 Alpha virt. eigenvalues --    1.39829   1.40971   1.41499   1.42765   1.42931
 Alpha virt. eigenvalues --    1.43848   1.44491   1.45898   1.46137   1.47234
 Alpha virt. eigenvalues --    1.48137   1.48752   1.49354   1.50413   1.51112
 Alpha virt. eigenvalues --    1.52000   1.52812   1.54050   1.54499   1.54554
 Alpha virt. eigenvalues --    1.55155   1.55543   1.56288   1.56937   1.57456
 Alpha virt. eigenvalues --    1.57953   1.58350   1.58957   1.59723   1.59988
 Alpha virt. eigenvalues --    1.60091   1.60646   1.61288   1.61572   1.62235
 Alpha virt. eigenvalues --    1.62828   1.62983   1.64114   1.64416   1.64590
 Alpha virt. eigenvalues --    1.65191   1.65693   1.65891   1.66112   1.66780
 Alpha virt. eigenvalues --    1.67560   1.67756   1.67832   1.68923   1.69407
 Alpha virt. eigenvalues --    1.70070   1.70321   1.71283   1.71841   1.72580
 Alpha virt. eigenvalues --    1.73087   1.73642   1.74239   1.74651   1.75067
 Alpha virt. eigenvalues --    1.75207   1.76615   1.77993   1.78198   1.78529
 Alpha virt. eigenvalues --    1.79692   1.80667   1.81712   1.82135   1.82930
 Alpha virt. eigenvalues --    1.83763   1.84023   1.85099   1.85648   1.85889
 Alpha virt. eigenvalues --    1.87322   1.87906   1.88816   1.89360   1.91029
 Alpha virt. eigenvalues --    1.91928   1.92342   1.92914   1.94633   1.95682
 Alpha virt. eigenvalues --    1.96173   1.97910   1.98396   1.99475   2.01005
 Alpha virt. eigenvalues --    2.01484   2.02552   2.03295   2.04148   2.04664
 Alpha virt. eigenvalues --    2.06560   2.07445   2.07713   2.08493   2.10226
 Alpha virt. eigenvalues --    2.10538   2.12241   2.13130   2.13821   2.15447
 Alpha virt. eigenvalues --    2.16060   2.16793   2.17859   2.19574   2.19751
 Alpha virt. eigenvalues --    2.21569   2.22874   2.23523   2.24400   2.25876
 Alpha virt. eigenvalues --    2.27284   2.28093   2.29070   2.30441   2.31779
 Alpha virt. eigenvalues --    2.33671   2.34979   2.38064   2.38299   2.39998
 Alpha virt. eigenvalues --    2.42598   2.44351   2.47641   2.48471   2.49748
 Alpha virt. eigenvalues --    2.50736   2.52069   2.53465   2.53784   2.54292
 Alpha virt. eigenvalues --    2.54837   2.55567   2.55922   2.56134   2.56739
 Alpha virt. eigenvalues --    2.56976   2.57828   2.58242   2.59348   2.59748
 Alpha virt. eigenvalues --    2.60920   2.61808   2.63490   2.65060   2.66054
 Alpha virt. eigenvalues --    2.66554   2.67093   2.68758   2.69923   2.70623
 Alpha virt. eigenvalues --    2.71136   2.72269   2.72439   2.72918   2.74398
 Alpha virt. eigenvalues --    2.75468   2.76029   2.77665   2.81751   2.82704
 Alpha virt. eigenvalues --    2.84690   2.84890   2.87046   2.89071   2.89261
 Alpha virt. eigenvalues --    2.90254   2.90849   2.93232   2.93759   2.94219
 Alpha virt. eigenvalues --    2.95670   2.96073   2.98359   2.98656   2.99153
 Alpha virt. eigenvalues --    2.99847   3.01043   3.01424   3.02323   3.03267
 Alpha virt. eigenvalues --    3.03458   3.04296   3.05746   3.06800   3.07755
 Alpha virt. eigenvalues --    3.08245   3.09856   3.10919   3.11839   3.12817
 Alpha virt. eigenvalues --    3.13783   3.14719   3.14987   3.16464   3.17022
 Alpha virt. eigenvalues --    3.17178   3.18168   3.19860   3.20907   3.22144
 Alpha virt. eigenvalues --    3.22330   3.23388   3.23940   3.24950   3.25762
 Alpha virt. eigenvalues --    3.26293   3.26839   3.27133   3.28034   3.28633
 Alpha virt. eigenvalues --    3.28838   3.30212   3.30688   3.31864   3.33199
 Alpha virt. eigenvalues --    3.33381   3.34537   3.34979   3.36372   3.37944
 Alpha virt. eigenvalues --    3.38983   3.39593   3.41476   3.42501   3.43046
 Alpha virt. eigenvalues --    3.45341   3.46937   3.47630   3.51721   3.53251
 Alpha virt. eigenvalues --    3.53908   3.54904   3.59797   3.61990   3.63434
 Alpha virt. eigenvalues --    3.74658   3.77497   3.78385   3.80105   3.87736
 Alpha virt. eigenvalues --    3.89527   3.90656   3.96882   3.97901   4.01635
 Alpha virt. eigenvalues --    4.02678   4.05532   4.06154   4.09065   4.09675
 Alpha virt. eigenvalues --    4.12469   4.16201   4.17785   4.20154   4.22060
 Alpha virt. eigenvalues --    4.22957   4.23576   4.28580   4.31326   4.33035
 Alpha virt. eigenvalues --    4.45160   4.61438   5.14257   5.16160   5.17428
 Alpha virt. eigenvalues --    5.21847   5.23647   5.30088   5.31278   5.33838
 Alpha virt. eigenvalues --    5.41260   5.42658   5.57002   5.66458   5.73835
 Alpha virt. eigenvalues --    5.79148   5.83753  23.45231  23.47069  23.51951
 Alpha virt. eigenvalues --   23.52976  23.60489  23.64682  23.66375  23.66915
 Alpha virt. eigenvalues --   23.69254  23.71070  23.73665  23.74653  23.76593
 Alpha virt. eigenvalues --   23.78506  23.79140  23.79765  23.82583  23.84708
 Alpha virt. eigenvalues --   23.86938  23.87103  23.88645  23.89627  23.96594
 Alpha virt. eigenvalues --   24.16358  24.20010  24.23186  49.99099  49.99662
 Alpha virt. eigenvalues --   50.02645  50.04342  50.06805
          Condensed to atoms (all electrons):
 Mulliken atomic charges:
              1
     1  C   -0.851778
     2  C    0.865820
     3  C   -0.144820
     4  C   -0.524506
     5  C    1.210050
     6  C   -0.823755
     7  C   -1.232078
     8  C    0.409950
     9  C    0.855831
    10  C   -0.940028
    11  C   -0.346315
    12  O   -0.180396
    13  C    0.684694
    14  C   -0.307906
    15  C   -1.067799
    16  O   -0.169693
    17  C   -0.203122
    18  C    0.697422
    19  O    0.158331
    20  C   -1.229338
    21  O   -0.006357
    22  C   -0.444654
    23  C   -0.578663
    24  O    0.051024
    25  C    0.970876
    26  C   -1.013851
    27  C   -1.026332
    28  C   -0.719789
    29  C   -0.776906
    30  H    0.235664
    31  H    0.273667
    32  C   -1.055842
    33  H    0.202913
    34  H    0.241365
    35  H    0.275752
    36  H    0.230751
    37  H    0.251251
    38  H    0.254374
    39  H    0.248383
    40  H    0.278427
    41  H    0.239591
    42  H    0.272370
    43  H    0.277352
    44  H    0.290510
    45  H    0.270508
    46  H    0.286227
    47  H    0.235927
    48  H    0.268539
    49  H    0.263647
    50  H    0.256091
    51  H    0.230915
    52  H    0.239943
    53  H    0.266809
    54  H    0.247580
    55  H    0.311796
    56  H    0.263925
    57  H    0.272546
    58  H    0.257758
    59  H    0.256667
    60  H    0.259413
    61  H    0.257696
    62  C   -0.997224
    63  H    0.245037
    64  H    0.237460
    65  H    0.236300
 Sum of Mulliken atomic charges =   0.00000
 Mulliken charges with hydrogens summed into heavy atoms:
              1
     1  C   -0.648865
     2  C    0.865820
     3  C    0.128846
     4  C   -0.524506
     5  C    1.210050
     6  C   -0.306637
     7  C   -1.232078
     8  C    0.409950
     9  C    0.855831
    10  C   -0.940028
    11  C   -0.346315
    12  O   -0.180396
    13  C    0.915445
    14  C    0.197720
    15  C   -0.301399
    16  O   -0.169693
    17  C    0.032542
    18  C    0.697422
    19  O    0.158331
    20  C   -0.679616
    21  O    0.284153
    22  C    0.112081
    23  C   -0.342736
    24  O    0.051024
    25  C    0.970876
    26  C   -0.225574
    27  C   -0.555475
    28  C    0.106396
    29  C    0.017323
    32  C   -0.282066
    62  C   -0.278426
 Sum of Mulliken charges with hydrogens summed into heavy atoms =   0.00000
 Electronic spatial extent (au):  <R**2>=          11738.1586
 Charge=              0.0000 electrons
 Dipole moment (field-independent basis, Debye):
    X=              4.9435    Y=              2.0933    Z=              4.2750  Tot=              6.8626
 Quadrupole moment (field-independent basis, Debye-Ang):
   XX=           -188.5617   YY=           -180.4199   ZZ=           -192.1153
   XY=             -1.2627   XZ=            -10.2473   YZ=              3.9841
 Traceless Quadrupole moment (field-independent basis, Debye-Ang):
   XX=             -1.5294   YY=              6.6124   ZZ=             -5.0829
   XY=             -1.2627   XZ=            -10.2473   YZ=              3.9841
 Octapole moment (field-independent basis, Debye-Ang**2):
  XXX=             57.9227  YYY=             72.8590  ZZZ=             12.7991  XYY=             23.9830
  XXY=            -11.4996  XXZ=              2.0214  XZZ=             26.4888  YZZ=             -9.9893
  YYZ=              1.5037  XYZ=             -0.8565
 Hexadecapole moment (field-independent basis, Debye-Ang**3):
 XXXX=          -8431.6542 YYYY=          -4423.0633 ZZZZ=          -3082.7721 XXXY=            -16.1420
 XXXZ=           -118.9819 YYYX=            -12.2254 YYYZ=            -59.5467 ZZZX=            -60.5792
 ZZZY=             21.9904 XXYY=          -2213.5222 XXZZ=          -1970.3091 YYZZ=          -1242.6599
 XXYZ=             47.7787 YYXZ=             17.7106 ZZXY=              9.5248
 N-N= 3.497552809129D+03 E-N=-1.022817420455D+04  KE= 1.381922873345D+03
 1\1\GINC-B0805\FOpt\RB3LYP\6-311+G(d)\C26H34O5\CAOFEI\13-Apr-2021\0\\#
  opt b3lyp/6-311+g(d) geom=connectivity\\Title Card Required\\0,1\C,0.
 3024940734,-1.3293088048,2.8930085883\C,0.6234997973,-0.0359538239,2.9
 725097463\C,1.340313061,0.6683062012,1.8421657161\C,1.4274832227,-0.10
 92426462,0.4915394454\C,0.6935227021,-1.4715385697,0.3649609228\C,0.62
 87692207,-2.2116554327,1.7228429511\C,0.9738604365,0.9239481799,-0.575
 2499523\C,-0.5218637975,0.9156757481,-0.8277595065\C,-1.3157591353,-0.
 181889779,-0.7324131166\C,-0.7358690715,-1.4317092308,-0.2378858858\C,
 -2.7757509997,-0.1212549029,-1.1060541964\O,-3.1235488502,0.4619870996
 ,-2.1126120976\C,-3.8109363417,-0.7360346781,-0.1601115671\C,-4.669453
 1188,-1.7669067568,-0.9225751087\C,-4.6426859091,0.411944254,0.4437642
 975\O,-1.3636143174,-2.4813444868,-0.2821748451\C,1.1157989401,2.33358
 64914,0.0322791452\C,0.0946976713,3.1618685005,-0.7796806041\O,-0.9551
 514886,2.1451004237,-1.0889725618\C,0.7630400248,2.0722886169,1.507296
 8466\O,1.6119302211,0.7325695112,-1.8240048273\C,1.6161318071,-2.24497
 39946,-0.6132231132\C,3.0079227835,-1.7817225411,-0.2037078559\O,2.822
 4845874,-0.3970998361,0.220017833\C,4.131514826,-1.8359475422,-1.21615
 42563\C,5.4497064989,-1.2898948766,-0.7277926027\C,3.9854618706,-2.370
 9732839,-2.4294604967\C,0.6522577542,3.6770170025,-2.1052067352\C,-0.6
 117263303,4.2806298778,-0.0235092052\H,2.1310455552,2.7203475718,-0.08
 07642696\H,2.3855734692,0.8068646253,2.1464436397\C,0.3610214931,0.775
 1482866,4.215662017\H,-0.1807122458,-1.8068476096,3.7430813406\H,1.590
 0376093,-2.706129405,1.9150340417\H,-0.100428415,-3.0183383746,1.62701
 97626\H,-3.2894288786,-1.2548832367,0.6475045221\H,-5.193474122,-1.254
 0691756,-1.7354784558\H,-3.9947991776,-2.4890558468,-1.3920247147\H,-5
 .3545028733,0.03163838,1.1798782422\H,-5.1984016176,0.9401981453,-0.33
 46588529\H,-4.0060989048,1.142030484,0.9533487124\H,1.1473093271,2.845
 0930099,2.1754075815\H,-0.3221959359,2.053593463,1.636023367\H,2.51458
 59536,0.4364327527,-1.6221114206\H,1.3983200741,-1.9564272185,-1.64261
 42786\H,1.4800300395,-3.3236285809,-0.5226340348\H,3.3403354278,-2.338
 2475061,0.6839045218\H,5.3570377743,-0.243706694,-0.4234712976\H,5.796
 8965307,-1.8407462528,0.1541944908\H,6.221996524,-1.360180917,-1.49595
 4976\H,4.820715977,-2.4273100903,-3.1208483055\H,3.0465120386,-2.78112
 19336,-2.7824133672\H,-0.1549727776,4.0946094974,-2.7109876693\H,1.382
 462196,4.4699999749,-1.9186991035\H,1.1377079538,2.8814852973,-2.66756
 68682\H,0.112308687,5.0437191714,0.2752886814\H,-1.3561148614,4.755479
 0751,-0.6659060728\H,-1.1206135656,3.9216860083,0.8712465284\H,-0.0898
 02997,0.1629398558,4.9992040947\H,1.2914677408,1.1974539648,4.61482081
 6\H,-0.3088412436,1.6205436476,4.0274731137\C,-5.6679694256,-2.5206783
 704,-0.0411767032\H,-6.1866270201,-3.2902629404,-0.6202717056\H,-5.165
 685446,-3.0230014863,0.7921511954\H,-6.4343180024,-1.8633162931,0.3783
 044691\\Version=EM64L-G09RevB.01\State=1-A\HF=-1387.6493092\RMSD=7.162
 e-09\RMSF=8.533e-06\Dipole=1.9841023,0.8881748,1.6013167\Quadrupole=-1
 .3553233,5.3542421,-3.9989188,-1.2736619,-7.5008749,2.536991\PG=C01 [X
 (C26H34O5)]\\@


 THE LENGTH OF A MEETING IS PROPORTIONAL TO THE
 SQUARE OF THE PARTICIPANTS.
 Job cpu time:  1 days 12 hours  3 minutes 27.3 seconds.
 File lengths (MBytes):  RWF=    372 Int=      0 D2E=      0 Chk=     40 Scr=      1
 Normal termination of Gaussian 09 at Tue Apr 13 20:32:37 2021.
