 Entering Gaussian System, Link 0=g09
 Initial command:
 /public/software/g09/g09/l1.exe /tmp/Gau-9709.inp -scrdir=/tmp/
 Entering Link 1 = /public/software/g09/g09/l1.exe PID=      9710.
  
 Copyright (c) 1988,1990,1992,1993,1995,1998,2003,2009,2010,
            Gaussian, Inc.  All Rights Reserved.
  
 This is part of the Gaussian(R) 09 program.  It is based on
 the Gaussian(R) 03 system (copyright 2003, Gaussian, Inc.),
 the Gaussian(R) 98 system (copyright 1998, Gaussian, Inc.),
 the Gaussian(R) 94 system (copyright 1995, Gaussian, Inc.),
 the Gaussian 92(TM) system (copyright 1992, Gaussian, Inc.),
 the Gaussian 90(TM) system (copyright 1990, Gaussian, Inc.),
 the Gaussian 88(TM) system (copyright 1988, Gaussian, Inc.),
 the Gaussian 86(TM) system (copyright 1986, Carnegie Mellon
 University), and the Gaussian 82(TM) system (copyright 1983,
 Carnegie Mellon University). Gaussian is a federally registered
 trademark of Gaussian, Inc.
  
 This software contains proprietary and confidential information,
 including trade secrets, belonging to Gaussian, Inc.
  
 This software is provided under written license and may be
 used, copied, transmitted, or stored only in accord with that
 written license.
  
 The following legend is applicable only to US Government
 contracts under FAR:
  
                    RESTRICTED RIGHTS LEGEND
  
 Use, reproduction and disclosure by the US Government is
 subject to restrictions as set forth in subparagraphs (a)
 and (c) of the Commercial Computer Software - Restricted
 Rights clause in FAR 52.227-19.
  
 Gaussian, Inc.
 340 Quinnipiac St., Bldg. 40, Wallingford CT 06492
  
  
 ---------------------------------------------------------------
 Warning -- This program may not be used in any manner that
 competes with the business of Gaussian, Inc. or will provide
 assistance to any competitor of Gaussian, Inc.  The licensee
 of this program is prohibited from giving any competitor of
 Gaussian, Inc. access to this program.  By using this program,
 the user acknowledges that Gaussian, Inc. is engaged in the
 business of creating and licensing software in the field of
 computational chemistry and represents and warrants to the
 licensee that it is not a competitor of Gaussian, Inc. and that
 it will not use this program in any manner prohibited above.
 ---------------------------------------------------------------
  

 Cite this work as:
 Gaussian 09, Revision B.01,
 M. J. Frisch, G. W. Trucks, H. B. Schlegel, G. E. Scuseria, 
 M. A. Robb, J. R. Cheeseman, G. Scalmani, V. Barone, B. Mennucci, 
 G. A. Petersson, H. Nakatsuji, M. Caricato, X. Li, H. P. Hratchian, 
 A. F. Izmaylov, J. Bloino, G. Zheng, J. L. Sonnenberg, M. Hada, 
 M. Ehara, K. Toyota, R. Fukuda, J. Hasegawa, M. Ishida, T. Nakajima, 
 Y. Honda, O. Kitao, H. Nakai, T. Vreven, J. A. Montgomery, Jr., 
 J. E. Peralta, F. Ogliaro, M. Bearpark, J. J. Heyd, E. Brothers, 
 K. N. Kudin, V. N. Staroverov, T. Keith, R. Kobayashi, J. Normand, 
 K. Raghavachari, A. Rendell, J. C. Burant, S. S. Iyengar, J. Tomasi, 
 M. Cossi, N. Rega, J. M. Millam, M. Klene, J. E. Knox, J. B. Cross, 
 V. Bakken, C. Adamo, J. Jaramillo, R. Gomperts, R. E. Stratmann, 
 O. Yazyev, A. J. Austin, R. Cammi, C. Pomelli, J. W. Ochterski, 
 R. L. Martin, K. Morokuma, V. G. Zakrzewski, G. A. Voth, 
 P. Salvador, J. J. Dannenberg, S. Dapprich, A. D. Daniels, 
 O. Farkas, J. B. Foresman, J. V. Ortiz, J. Cioslowski, 
 and D. J. Fox, Gaussian, Inc., Wallingford CT, 2010.
 
 ******************************************
 Gaussian 09:  EM64L-G09RevB.01 12-Aug-2010
                13-Apr-2021 
 ******************************************
 %mem=600MW
 %nprocshared=10
 Will use up to   10 processors via shared memory.
 ----------------------------------------
 # opt b3lyp/6-311+g(d) geom=connectivity
 ----------------------------------------
 1/14=-1,18=20,19=15,26=3,38=1,57=2/1,3;
 2/9=110,12=2,17=6,18=5,40=1/2;
 3/5=4,6=6,7=11,11=2,16=1,25=1,30=1,71=1,74=-5/1,2,3;
 4//1;
 5/5=2,38=5/2;
 6/7=2,8=2,9=2,10=2,28=1/1;
 7//1,2,3,16;
 1/14=-1,18=20,19=15/3(2);
 2/9=110/2;
 99//99;
 2/9=110/2;
 3/5=4,6=6,7=11,11=2,16=1,25=1,30=1,71=1,74=-5/1,2,3;
 4/5=5,16=3/1;
 5/5=2,38=5/2;
 7//1,2,3,16;
 1/14=-1,18=20,19=15/3(-5);
 2/9=110/2;
 6/7=2,8=2,9=2,10=2,19=2,28=1/1;
 99/9=1/99;
 -------------------
 Title Card Required
 -------------------
 Symbolic Z-matrix:
 Charge =  0 Multiplicity = 1
 C                     1.56678   0.61351   3.16005 
 C                     1.61808   1.7353    2.43294 
 C                     1.73683   1.6911    0.92384 
 C                     1.49452   0.29859   0.26036 
 C                     1.05291  -0.88986   1.15511 
 C                     1.6329   -0.77425   2.58631 
 C                     0.49703   0.58933  -0.89148 
 C                    -0.95076   0.49666  -0.45979 
 C                    -1.43017  -0.36367   0.4734 
 C                    -0.47713  -1.14484   1.26918 
 C                    -2.91217  -0.40296   0.79658 
 O                    -3.49735   0.63437   1.05363 
 C                    -3.62086  -1.75306   0.73867 
 C                    -3.55734  -2.33073  -0.7024 
 C                    -5.04603  -1.6563    1.29108 
 O                    -0.84844  -1.9995    2.07056 
 C                     0.55619   2.09794  -1.2118 
 C                    -0.83295   2.36809  -1.83939 
 O                    -1.69499   1.38055  -1.13205 
 C                     0.80376   2.6976    0.18713 
 O                     0.68031  -0.2841   -1.99062 
 C                     1.68976  -2.09735   0.41574 
 C                     3.01598  -1.52831  -0.07905 
 O                     2.73008  -0.12894  -0.36925 
 C                     3.6732   -2.14511  -1.29655 
 C                     4.93283  -1.4499   -1.75501 
 C                     3.20434  -3.24379  -1.89645 
 C                    -0.88445   2.0487   -3.33508 
 C                    -1.44458   3.73746  -1.55493 
 H                     1.36801   2.3349   -1.90648 
 H                     2.77261   1.94618   0.65743 
 C                     1.63037   3.10015   3.07608 
 H                     1.51604   0.69041   4.24541 
 H                     2.68033  -1.1114    2.58713 
 H                     1.0879   -1.48272   3.2168 
 H                    -3.02946  -2.42561   1.37154 
 H                    -2.50539  -2.4652   -0.98396 
 H                    -3.99763  -3.3362   -0.67533 
 H                    -5.53926  -2.63404   1.23955 
 H                    -5.6489   -0.93221   0.7361 
 H                    -5.03571  -1.33248   2.3365 
 H                     1.23385   3.70233   0.14521 
 H                    -0.1429    2.77489   0.73295 
 H                     1.64813  -0.41839  -2.03037 
 H                     1.06177  -2.39281  -0.42933 
 H                     1.81182  -2.95828   1.07826 
 H                     3.75555  -1.53942   0.73721 
 H                     4.73591  -0.3991   -1.99621 
 H                     5.69096  -1.45127  -0.95968 
 H                     5.36184  -1.93714  -2.63546 
 H                     3.71805  -3.67761  -2.75077 
 H                     2.30993  -3.75981  -1.56262 
 H                    -1.92216   2.07005  -3.68345 
 H                    -0.3201    2.80195  -3.89695 
 H                    -0.45844   1.06502  -3.54037 
 H                    -0.83046   4.52183  -2.01147 
 H                    -2.44856   3.79474  -1.98673 
 H                    -1.52723   3.93527  -0.48398 
 H                     1.61476   3.0211    4.16739 
 H                     2.52967   3.66497   2.79097 
 H                     0.76885   3.70875   2.77272 
 C                    -4.26307  -1.4896   -1.77361 
 H                    -4.155    -1.95609  -2.75963 
 H                    -5.33509  -1.39059  -1.57141 
 H                    -3.84237  -0.47934  -1.83474 
 

 GradGradGradGradGradGradGradGradGradGradGradGradGradGradGradGradGradGrad
 Berny optimization.
 Initialization pass.
                           ----------------------------
                           !    Initial Parameters    !
                           ! (Angstroms and Degrees)  !
 --------------------------                            --------------------------
 ! Name  Definition              Value          Derivative Info.                !
 --------------------------------------------------------------------------------
 ! R1    R(1,2)                  1.3378         estimate D2E/DX2                !
 ! R2    R(1,6)                  1.5031         estimate D2E/DX2                !
 ! R3    R(1,33)                 1.0893         estimate D2E/DX2                !
 ! R4    R(2,3)                  1.5144         estimate D2E/DX2                !
 ! R5    R(2,32)                 1.5088         estimate D2E/DX2                !
 ! R6    R(3,4)                  1.5614         estimate D2E/DX2                !
 ! R7    R(3,20)                 1.5577         estimate D2E/DX2                !
 ! R8    R(3,31)                 1.0995         estimate D2E/DX2                !
 ! R9    R(4,5)                  1.5518         estimate D2E/DX2                !
 ! R10   R(4,7)                  1.5512         estimate D2E/DX2                !
 ! R11   R(4,24)                 1.4511         estimate D2E/DX2                !
 ! R12   R(5,6)                  1.5486         estimate D2E/DX2                !
 ! R13   R(5,10)                 1.5553         estimate D2E/DX2                !
 ! R14   R(5,22)                 1.5525         estimate D2E/DX2                !
 ! R15   R(6,34)                 1.1004         estimate D2E/DX2                !
 ! R16   R(6,35)                 1.0938         estimate D2E/DX2                !
 ! R17   R(7,8)                  1.5136         estimate D2E/DX2                !
 ! R18   R(7,17)                 1.5434         estimate D2E/DX2                !
 ! R19   R(7,21)                 1.4158         estimate D2E/DX2                !
 ! R20   R(8,9)                  1.3568         estimate D2E/DX2                !
 ! R21   R(8,19)                 1.3368         estimate D2E/DX2                !
 ! R22   R(9,10)                 1.4669         estimate D2E/DX2                !
 ! R23   R(9,11)                 1.5173         estimate D2E/DX2                !
 ! R24   R(10,16)                1.229          estimate D2E/DX2                !
 ! R25   R(11,12)                1.2184         estimate D2E/DX2                !
 ! R26   R(11,13)                1.5259         estimate D2E/DX2                !
 ! R27   R(13,14)                1.5538         estimate D2E/DX2                !
 ! R28   R(13,15)                1.5315         estimate D2E/DX2                !
 ! R29   R(13,36)                1.0966         estimate D2E/DX2                !
 ! R30   R(14,37)                1.0973         estimate D2E/DX2                !
 ! R31   R(14,38)                1.098          estimate D2E/DX2                !
 ! R32   R(14,62)                1.534          estimate D2E/DX2                !
 ! R33   R(15,39)                1.0963         estimate D2E/DX2                !
 ! R34   R(15,40)                1.0935         estimate D2E/DX2                !
 ! R35   R(15,41)                1.0945         estimate D2E/DX2                !
 ! R36   R(17,18)                1.5481         estimate D2E/DX2                !
 ! R37   R(17,20)                1.542          estimate D2E/DX2                !
 ! R38   R(17,30)                1.0944         estimate D2E/DX2                !
 ! R39   R(18,19)                1.4895         estimate D2E/DX2                !
 ! R40   R(18,28)                1.5303         estimate D2E/DX2                !
 ! R41   R(18,29)                1.5265         estimate D2E/DX2                !
 ! R42   R(20,42)                1.0937         estimate D2E/DX2                !
 ! R43   R(20,43)                1.0955         estimate D2E/DX2                !
 ! R44   R(21,44)                0.9779         estimate D2E/DX2                !
 ! R45   R(22,23)                1.5256         estimate D2E/DX2                !
 ! R46   R(22,45)                1.0935         estimate D2E/DX2                !
 ! R47   R(22,46)                1.0932         estimate D2E/DX2                !
 ! R48   R(23,24)                1.4575         estimate D2E/DX2                !
 ! R49   R(23,25)                1.5148         estimate D2E/DX2                !
 ! R50   R(23,47)                1.1015         estimate D2E/DX2                !
 ! R51   R(25,26)                1.51           estimate D2E/DX2                !
 ! R52   R(25,27)                1.3367         estimate D2E/DX2                !
 ! R53   R(26,48)                1.096          estimate D2E/DX2                !
 ! R54   R(26,49)                1.0988         estimate D2E/DX2                !
 ! R55   R(26,50)                1.0939         estimate D2E/DX2                !
 ! R56   R(27,51)                1.0872         estimate D2E/DX2                !
 ! R57   R(27,52)                1.0852         estimate D2E/DX2                !
 ! R58   R(28,53)                1.0948         estimate D2E/DX2                !
 ! R59   R(28,54)                1.0962         estimate D2E/DX2                !
 ! R60   R(28,55)                1.0914         estimate D2E/DX2                !
 ! R61   R(29,56)                1.0958         estimate D2E/DX2                !
 ! R62   R(29,57)                1.0944         estimate D2E/DX2                !
 ! R63   R(29,58)                1.0922         estimate D2E/DX2                !
 ! R64   R(32,59)                1.0943         estimate D2E/DX2                !
 ! R65   R(32,60)                1.0996         estimate D2E/DX2                !
 ! R66   R(32,61)                1.0976         estimate D2E/DX2                !
 ! R67   R(62,63)                1.0961         estimate D2E/DX2                !
 ! R68   R(62,64)                1.0954         estimate D2E/DX2                !
 ! R69   R(62,65)                1.0961         estimate D2E/DX2                !
 ! A1    A(2,1,6)              124.4034         estimate D2E/DX2                !
 ! A2    A(2,1,33)             118.9568         estimate D2E/DX2                !
 ! A3    A(6,1,33)             116.5873         estimate D2E/DX2                !
 ! A4    A(1,2,3)              121.3414         estimate D2E/DX2                !
 ! A5    A(1,2,32)             121.8129         estimate D2E/DX2                !
 ! A6    A(3,2,32)             116.7769         estimate D2E/DX2                !
 ! A7    A(2,3,4)              115.9316         estimate D2E/DX2                !
 ! A8    A(2,3,20)             113.9202         estimate D2E/DX2                !
 ! A9    A(2,3,31)             107.9721         estimate D2E/DX2                !
 ! A10   A(4,3,20)             106.3989         estimate D2E/DX2                !
 ! A11   A(4,3,31)             104.4853         estimate D2E/DX2                !
 ! A12   A(20,3,31)            107.4454         estimate D2E/DX2                !
 ! A13   A(3,4,5)              118.8273         estimate D2E/DX2                !
 ! A14   A(3,4,7)              104.3689         estimate D2E/DX2                !
 ! A15   A(3,4,24)             108.3594         estimate D2E/DX2                !
 ! A16   A(5,4,7)              112.873          estimate D2E/DX2                !
 ! A17   A(5,4,24)             105.4763         estimate D2E/DX2                !
 ! A18   A(7,4,24)             106.2942         estimate D2E/DX2                !
 ! A19   A(4,5,6)              111.662          estimate D2E/DX2                !
 ! A20   A(4,5,10)             116.6032         estimate D2E/DX2                !
 ! A21   A(4,5,22)             101.7904         estimate D2E/DX2                !
 ! A22   A(6,5,10)             108.2336         estimate D2E/DX2                !
 ! A23   A(6,5,22)             110.1556         estimate D2E/DX2                !
 ! A24   A(10,5,22)            108.1168         estimate D2E/DX2                !
 ! A25   A(1,6,5)              113.905          estimate D2E/DX2                !
 ! A26   A(1,6,34)             108.9331         estimate D2E/DX2                !
 ! A27   A(1,6,35)             110.8578         estimate D2E/DX2                !
 ! A28   A(5,6,34)             109.532          estimate D2E/DX2                !
 ! A29   A(5,6,35)             107.323          estimate D2E/DX2                !
 ! A30   A(34,6,35)            105.9853         estimate D2E/DX2                !
 ! A31   A(4,7,8)              113.0681         estimate D2E/DX2                !
 ! A32   A(4,7,17)             108.2202         estimate D2E/DX2                !
 ! A33   A(4,7,21)             112.1839         estimate D2E/DX2                !
 ! A34   A(8,7,17)              98.9576         estimate D2E/DX2                !
 ! A35   A(8,7,21)             107.9066         estimate D2E/DX2                !
 ! A36   A(17,7,21)            115.9074         estimate D2E/DX2                !
 ! A37   A(7,8,9)              124.9569         estimate D2E/DX2                !
 ! A38   A(7,8,19)             110.4015         estimate D2E/DX2                !
 ! A39   A(9,8,19)             124.6412         estimate D2E/DX2                !
 ! A40   A(8,9,10)             118.7664         estimate D2E/DX2                !
 ! A41   A(8,9,11)             120.5327         estimate D2E/DX2                !
 ! A42   A(10,9,11)            120.3466         estimate D2E/DX2                !
 ! A43   A(5,10,9)             120.7997         estimate D2E/DX2                !
 ! A44   A(5,10,16)            117.3251         estimate D2E/DX2                !
 ! A45   A(9,10,16)            121.8541         estimate D2E/DX2                !
 ! A46   A(9,11,12)            119.471          estimate D2E/DX2                !
 ! A47   A(9,11,13)            117.9339         estimate D2E/DX2                !
 ! A48   A(12,11,13)           122.563          estimate D2E/DX2                !
 ! A49   A(11,13,14)           110.1911         estimate D2E/DX2                !
 ! A50   A(11,13,15)           111.2596         estimate D2E/DX2                !
 ! A51   A(11,13,36)           105.6799         estimate D2E/DX2                !
 ! A52   A(14,13,15)           113.3309         estimate D2E/DX2                !
 ! A53   A(14,13,36)           106.5689         estimate D2E/DX2                !
 ! A54   A(15,13,36)           109.4158         estimate D2E/DX2                !
 ! A55   A(13,14,37)           108.8282         estimate D2E/DX2                !
 ! A56   A(13,14,38)           107.5293         estimate D2E/DX2                !
 ! A57   A(13,14,62)           115.15           estimate D2E/DX2                !
 ! A58   A(37,14,38)           106.1733         estimate D2E/DX2                !
 ! A59   A(37,14,62)           109.2127         estimate D2E/DX2                !
 ! A60   A(38,14,62)           109.5644         estimate D2E/DX2                !
 ! A61   A(13,15,39)           110.203          estimate D2E/DX2                !
 ! A62   A(13,15,40)           111.8268         estimate D2E/DX2                !
 ! A63   A(13,15,41)           110.7597         estimate D2E/DX2                !
 ! A64   A(39,15,40)           108.5817         estimate D2E/DX2                !
 ! A65   A(39,15,41)           108.2408         estimate D2E/DX2                !
 ! A66   A(40,15,41)           107.1009         estimate D2E/DX2                !
 ! A67   A(7,17,18)            102.7278         estimate D2E/DX2                !
 ! A68   A(7,17,20)            101.419          estimate D2E/DX2                !
 ! A69   A(7,17,30)            111.8271         estimate D2E/DX2                !
 ! A70   A(18,17,20)           116.3577         estimate D2E/DX2                !
 ! A71   A(18,17,30)           111.7475         estimate D2E/DX2                !
 ! A72   A(20,17,30)           111.8725         estimate D2E/DX2                !
 ! A73   A(17,18,19)           102.1873         estimate D2E/DX2                !
 ! A74   A(17,18,28)           112.9551         estimate D2E/DX2                !
 ! A75   A(17,18,29)           116.1385         estimate D2E/DX2                !
 ! A76   A(19,18,28)           107.8354         estimate D2E/DX2                !
 ! A77   A(19,18,29)           105.9246         estimate D2E/DX2                !
 ! A78   A(28,18,29)           110.8475         estimate D2E/DX2                !
 ! A79   A(8,19,18)            110.7923         estimate D2E/DX2                !
 ! A80   A(3,20,17)            105.8998         estimate D2E/DX2                !
 ! A81   A(3,20,42)            112.095          estimate D2E/DX2                !
 ! A82   A(3,20,43)            109.1217         estimate D2E/DX2                !
 ! A83   A(17,20,42)           112.6809         estimate D2E/DX2                !
 ! A84   A(17,20,43)           109.9203         estimate D2E/DX2                !
 ! A85   A(42,20,43)           107.104          estimate D2E/DX2                !
 ! A86   A(7,21,44)            104.1456         estimate D2E/DX2                !
 ! A87   A(5,22,23)            102.7646         estimate D2E/DX2                !
 ! A88   A(5,22,45)            110.0358         estimate D2E/DX2                !
 ! A89   A(5,22,46)            111.6982         estimate D2E/DX2                !
 ! A90   A(23,22,45)           110.4483         estimate D2E/DX2                !
 ! A91   A(23,22,46)           113.1562         estimate D2E/DX2                !
 ! A92   A(45,22,46)           108.6439         estimate D2E/DX2                !
 ! A93   A(22,23,24)           104.6066         estimate D2E/DX2                !
 ! A94   A(22,23,25)           119.0747         estimate D2E/DX2                !
 ! A95   A(22,23,47)           109.8502         estimate D2E/DX2                !
 ! A96   A(24,23,25)           108.4222         estimate D2E/DX2                !
 ! A97   A(24,23,47)           106.7944         estimate D2E/DX2                !
 ! A98   A(25,23,47)           107.4682         estimate D2E/DX2                !
 ! A99   A(4,24,23)            111.3156         estimate D2E/DX2                !
 ! A100  A(23,25,26)           114.7385         estimate D2E/DX2                !
 ! A101  A(23,25,27)           122.9012         estimate D2E/DX2                !
 ! A102  A(26,25,27)           122.3265         estimate D2E/DX2                !
 ! A103  A(25,26,48)           110.9988         estimate D2E/DX2                !
 ! A104  A(25,26,49)           110.8073         estimate D2E/DX2                !
 ! A105  A(25,26,50)           111.4966         estimate D2E/DX2                !
 ! A106  A(48,26,49)           106.5273         estimate D2E/DX2                !
 ! A107  A(48,26,50)           108.6867         estimate D2E/DX2                !
 ! A108  A(49,26,50)           108.1461         estimate D2E/DX2                !
 ! A109  A(25,27,51)           120.9914         estimate D2E/DX2                !
 ! A110  A(25,27,52)           122.8101         estimate D2E/DX2                !
 ! A111  A(51,27,52)           116.1944         estimate D2E/DX2                !
 ! A112  A(18,28,53)           109.8056         estimate D2E/DX2                !
 ! A113  A(18,28,54)           109.8916         estimate D2E/DX2                !
 ! A114  A(18,28,55)           111.0267         estimate D2E/DX2                !
 ! A115  A(53,28,54)           108.1482         estimate D2E/DX2                !
 ! A116  A(53,28,55)           109.1287         estimate D2E/DX2                !
 ! A117  A(54,28,55)           108.7814         estimate D2E/DX2                !
 ! A118  A(18,29,56)           109.8724         estimate D2E/DX2                !
 ! A119  A(18,29,57)           109.9382         estimate D2E/DX2                !
 ! A120  A(18,29,58)           112.0561         estimate D2E/DX2                !
 ! A121  A(56,29,57)           108.1965         estimate D2E/DX2                !
 ! A122  A(56,29,58)           108.7407         estimate D2E/DX2                !
 ! A123  A(57,29,58)           107.9373         estimate D2E/DX2                !
 ! A124  A(2,32,59)            111.0774         estimate D2E/DX2                !
 ! A125  A(2,32,60)            111.1493         estimate D2E/DX2                !
 ! A126  A(2,32,61)            112.1711         estimate D2E/DX2                !
 ! A127  A(59,32,60)           107.9006         estimate D2E/DX2                !
 ! A128  A(59,32,61)           107.7282         estimate D2E/DX2                !
 ! A129  A(60,32,61)           106.5873         estimate D2E/DX2                !
 ! A130  A(14,62,63)           110.4544         estimate D2E/DX2                !
 ! A131  A(14,62,64)           111.771          estimate D2E/DX2                !
 ! A132  A(14,62,65)           111.5781         estimate D2E/DX2                !
 ! A133  A(63,62,64)           107.5178         estimate D2E/DX2                !
 ! A134  A(63,62,65)           107.7128         estimate D2E/DX2                !
 ! A135  A(64,62,65)           107.6151         estimate D2E/DX2                !
 ! D1    D(6,1,2,3)              0.639          estimate D2E/DX2                !
 ! D2    D(6,1,2,32)          -176.2472         estimate D2E/DX2                !
 ! D3    D(33,1,2,3)           177.9084         estimate D2E/DX2                !
 ! D4    D(33,1,2,32)            1.0222         estimate D2E/DX2                !
 ! D5    D(2,1,6,5)            -29.8384         estimate D2E/DX2                !
 ! D6    D(2,1,6,34)            92.7543         estimate D2E/DX2                !
 ! D7    D(2,1,6,35)          -150.9978         estimate D2E/DX2                !
 ! D8    D(33,1,6,5)           152.8333         estimate D2E/DX2                !
 ! D9    D(33,1,6,34)          -84.574          estimate D2E/DX2                !
 ! D10   D(33,1,6,35)           31.674          estimate D2E/DX2                !
 ! D11   D(1,2,3,4)             12.3649         estimate D2E/DX2                !
 ! D12   D(1,2,3,20)           136.3593         estimate D2E/DX2                !
 ! D13   D(1,2,3,31)          -104.3874         estimate D2E/DX2                !
 ! D14   D(32,2,3,4)          -170.5988         estimate D2E/DX2                !
 ! D15   D(32,2,3,20)          -46.6044         estimate D2E/DX2                !
 ! D16   D(32,2,3,31)           72.6489         estimate D2E/DX2                !
 ! D17   D(1,2,32,59)            1.2404         estimate D2E/DX2                !
 ! D18   D(1,2,32,60)          121.3924         estimate D2E/DX2                !
 ! D19   D(1,2,32,61)         -119.3866         estimate D2E/DX2                !
 ! D20   D(3,2,32,59)         -175.7808         estimate D2E/DX2                !
 ! D21   D(3,2,32,60)          -55.6288         estimate D2E/DX2                !
 ! D22   D(3,2,32,61)           63.5921         estimate D2E/DX2                !
 ! D23   D(2,3,4,5)              4.5495         estimate D2E/DX2                !
 ! D24   D(2,3,4,7)            131.3472         estimate D2E/DX2                !
 ! D25   D(2,3,4,24)          -115.6871         estimate D2E/DX2                !
 ! D26   D(20,3,4,5)          -123.263          estimate D2E/DX2                !
 ! D27   D(20,3,4,7)             3.5348         estimate D2E/DX2                !
 ! D28   D(20,3,4,24)          116.5004         estimate D2E/DX2                !
 ! D29   D(31,3,4,5)           123.2338         estimate D2E/DX2                !
 ! D30   D(31,3,4,7)          -109.9684         estimate D2E/DX2                !
 ! D31   D(31,3,4,24)            2.9972         estimate D2E/DX2                !
 ! D32   D(2,3,20,17)         -154.2284         estimate D2E/DX2                !
 ! D33   D(2,3,20,42)           82.5175         estimate D2E/DX2                !
 ! D34   D(2,3,20,43)          -35.9527         estimate D2E/DX2                !
 ! D35   D(4,3,20,17)          -25.2366         estimate D2E/DX2                !
 ! D36   D(4,3,20,42)         -148.4907         estimate D2E/DX2                !
 ! D37   D(4,3,20,43)           93.0391         estimate D2E/DX2                !
 ! D38   D(31,3,20,17)          86.2199         estimate D2E/DX2                !
 ! D39   D(31,3,20,42)         -37.0342         estimate D2E/DX2                !
 ! D40   D(31,3,20,43)        -155.5045         estimate D2E/DX2                !
 ! D41   D(3,4,5,6)            -31.3406         estimate D2E/DX2                !
 ! D42   D(3,4,5,10)            93.7907         estimate D2E/DX2                !
 ! D43   D(3,4,5,22)          -148.8343         estimate D2E/DX2                !
 ! D44   D(7,4,5,6)           -153.9987         estimate D2E/DX2                !
 ! D45   D(7,4,5,10)           -28.8674         estimate D2E/DX2                !
 ! D46   D(7,4,5,22)            88.5076         estimate D2E/DX2                !
 ! D47   D(24,4,5,6)            90.3576         estimate D2E/DX2                !
 ! D48   D(24,4,5,10)         -144.5111         estimate D2E/DX2                !
 ! D49   D(24,4,5,22)          -27.1362         estimate D2E/DX2                !
 ! D50   D(3,4,7,8)            -89.0106         estimate D2E/DX2                !
 ! D51   D(3,4,7,17)            19.5529         estimate D2E/DX2                !
 ! D52   D(3,4,7,21)           148.6752         estimate D2E/DX2                !
 ! D53   D(5,4,7,8)             41.4023         estimate D2E/DX2                !
 ! D54   D(5,4,7,17)           149.9658         estimate D2E/DX2                !
 ! D55   D(5,4,7,21)           -80.912          estimate D2E/DX2                !
 ! D56   D(24,4,7,8)           156.5558         estimate D2E/DX2                !
 ! D57   D(24,4,7,17)          -94.8807         estimate D2E/DX2                !
 ! D58   D(24,4,7,21)           34.2416         estimate D2E/DX2                !
 ! D59   D(3,4,24,23)          135.1404         estimate D2E/DX2                !
 ! D60   D(5,4,24,23)            6.895          estimate D2E/DX2                !
 ! D61   D(7,4,24,23)         -113.1796         estimate D2E/DX2                !
 ! D62   D(4,5,6,1)             42.737          estimate D2E/DX2                !
 ! D63   D(4,5,6,34)           -79.5268         estimate D2E/DX2                !
 ! D64   D(4,5,6,35)           165.8445         estimate D2E/DX2                !
 ! D65   D(10,5,6,1)           -86.9173         estimate D2E/DX2                !
 ! D66   D(10,5,6,34)          150.8189         estimate D2E/DX2                !
 ! D67   D(10,5,6,35)           36.1902         estimate D2E/DX2                !
 ! D68   D(22,5,6,1)           155.0698         estimate D2E/DX2                !
 ! D69   D(22,5,6,34)           32.806          estimate D2E/DX2                !
 ! D70   D(22,5,6,35)          -81.8227         estimate D2E/DX2                !
 ! D71   D(4,5,10,9)             5.0452         estimate D2E/DX2                !
 ! D72   D(4,5,10,16)         -173.3134         estimate D2E/DX2                !
 ! D73   D(6,5,10,9)           131.8903         estimate D2E/DX2                !
 ! D74   D(6,5,10,16)          -46.4683         estimate D2E/DX2                !
 ! D75   D(22,5,10,9)         -108.8024         estimate D2E/DX2                !
 ! D76   D(22,5,10,16)          72.8389         estimate D2E/DX2                !
 ! D77   D(4,5,22,23)           36.726          estimate D2E/DX2                !
 ! D78   D(4,5,22,45)          -80.9134         estimate D2E/DX2                !
 ! D79   D(4,5,22,46)          158.3335         estimate D2E/DX2                !
 ! D80   D(6,5,22,23)          -81.8485         estimate D2E/DX2                !
 ! D81   D(6,5,22,45)          160.512          estimate D2E/DX2                !
 ! D82   D(6,5,22,46)           39.759          estimate D2E/DX2                !
 ! D83   D(10,5,22,23)         160.0667         estimate D2E/DX2                !
 ! D84   D(10,5,22,45)          42.4272         estimate D2E/DX2                !
 ! D85   D(10,5,22,46)         -78.3259         estimate D2E/DX2                !
 ! D86   D(4,7,8,9)            -33.7662         estimate D2E/DX2                !
 ! D87   D(4,7,8,19)           146.4591         estimate D2E/DX2                !
 ! D88   D(17,7,8,9)          -148.0445         estimate D2E/DX2                !
 ! D89   D(17,7,8,19)           32.1808         estimate D2E/DX2                !
 ! D90   D(21,7,8,9)            90.9072         estimate D2E/DX2                !
 ! D91   D(21,7,8,19)          -88.8676         estimate D2E/DX2                !
 ! D92   D(4,7,17,18)         -155.3166         estimate D2E/DX2                !
 ! D93   D(4,7,17,20)          -34.6548         estimate D2E/DX2                !
 ! D94   D(4,7,17,30)           84.7065         estimate D2E/DX2                !
 ! D95   D(8,7,17,18)          -37.3156         estimate D2E/DX2                !
 ! D96   D(8,7,17,20)           83.3462         estimate D2E/DX2                !
 ! D97   D(8,7,17,30)         -157.2925         estimate D2E/DX2                !
 ! D98   D(21,7,17,18)          77.6834         estimate D2E/DX2                !
 ! D99   D(21,7,17,20)        -161.6547         estimate D2E/DX2                !
 ! D100  D(21,7,17,30)         -42.2935         estimate D2E/DX2                !
 ! D101  D(4,7,21,44)          -36.2344         estimate D2E/DX2                !
 ! D102  D(8,7,21,44)         -161.4353         estimate D2E/DX2                !
 ! D103  D(17,7,21,44)          88.7572         estimate D2E/DX2                !
 ! D104  D(7,8,9,10)             8.8686         estimate D2E/DX2                !
 ! D105  D(7,8,9,11)          -177.9416         estimate D2E/DX2                !
 ! D106  D(19,8,9,10)         -171.388          estimate D2E/DX2                !
 ! D107  D(19,8,9,11)            1.8017         estimate D2E/DX2                !
 ! D108  D(7,8,19,18)          -13.126          estimate D2E/DX2                !
 ! D109  D(9,8,19,18)          167.0984         estimate D2E/DX2                !
 ! D110  D(8,9,10,5)             6.2968         estimate D2E/DX2                !
 ! D111  D(8,9,10,16)         -175.42           estimate D2E/DX2                !
 ! D112  D(11,9,10,5)         -166.906          estimate D2E/DX2                !
 ! D113  D(11,9,10,16)          11.3772         estimate D2E/DX2                !
 ! D114  D(8,9,11,12)          -50.6972         estimate D2E/DX2                !
 ! D115  D(8,9,11,13)          127.2919         estimate D2E/DX2                !
 ! D116  D(10,9,11,12)         122.3847         estimate D2E/DX2                !
 ! D117  D(10,9,11,13)         -59.6263         estimate D2E/DX2                !
 ! D118  D(9,11,13,14)         -61.9812         estimate D2E/DX2                !
 ! D119  D(9,11,13,15)         171.4443         estimate D2E/DX2                !
 ! D120  D(9,11,13,36)          52.7786         estimate D2E/DX2                !
 ! D121  D(12,11,13,14)        115.9415         estimate D2E/DX2                !
 ! D122  D(12,11,13,15)        -10.633          estimate D2E/DX2                !
 ! D123  D(12,11,13,36)       -129.2987         estimate D2E/DX2                !
 ! D124  D(11,13,14,37)         60.4215         estimate D2E/DX2                !
 ! D125  D(11,13,14,38)        175.0242         estimate D2E/DX2                !
 ! D126  D(11,13,14,62)        -62.5472         estimate D2E/DX2                !
 ! D127  D(15,13,14,37)       -174.1735         estimate D2E/DX2                !
 ! D128  D(15,13,14,38)        -59.5708         estimate D2E/DX2                !
 ! D129  D(15,13,14,62)         62.8578         estimate D2E/DX2                !
 ! D130  D(36,13,14,37)        -53.7738         estimate D2E/DX2                !
 ! D131  D(36,13,14,38)         60.8289         estimate D2E/DX2                !
 ! D132  D(36,13,14,62)       -176.7425         estimate D2E/DX2                !
 ! D133  D(11,13,15,39)        179.8898         estimate D2E/DX2                !
 ! D134  D(11,13,15,40)         59.0157         estimate D2E/DX2                !
 ! D135  D(11,13,15,41)        -60.3627         estimate D2E/DX2                !
 ! D136  D(14,13,15,39)         55.0597         estimate D2E/DX2                !
 ! D137  D(14,13,15,40)        -65.8144         estimate D2E/DX2                !
 ! D138  D(14,13,15,41)        174.8072         estimate D2E/DX2                !
 ! D139  D(36,13,15,39)        -63.7113         estimate D2E/DX2                !
 ! D140  D(36,13,15,40)        175.4147         estimate D2E/DX2                !
 ! D141  D(36,13,15,41)         56.0362         estimate D2E/DX2                !
 ! D142  D(13,14,62,63)        178.9394         estimate D2E/DX2                !
 ! D143  D(13,14,62,64)        -61.3979         estimate D2E/DX2                !
 ! D144  D(13,14,62,65)         59.1576         estimate D2E/DX2                !
 ! D145  D(37,14,62,63)         56.1759         estimate D2E/DX2                !
 ! D146  D(37,14,62,64)        175.8385         estimate D2E/DX2                !
 ! D147  D(37,14,62,65)        -63.606          estimate D2E/DX2                !
 ! D148  D(38,14,62,63)        -59.7298         estimate D2E/DX2                !
 ! D149  D(38,14,62,64)         59.9328         estimate D2E/DX2                !
 ! D150  D(38,14,62,65)       -179.5117         estimate D2E/DX2                !
 ! D151  D(7,17,18,19)          31.2265         estimate D2E/DX2                !
 ! D152  D(7,17,18,28)         -84.3535         estimate D2E/DX2                !
 ! D153  D(7,17,18,29)         145.9766         estimate D2E/DX2                !
 ! D154  D(20,17,18,19)        -78.555          estimate D2E/DX2                !
 ! D155  D(20,17,18,28)        165.865          estimate D2E/DX2                !
 ! D156  D(20,17,18,29)         36.1951         estimate D2E/DX2                !
 ! D157  D(30,17,18,19)        151.2585         estimate D2E/DX2                !
 ! D158  D(30,17,18,28)         35.6785         estimate D2E/DX2                !
 ! D159  D(30,17,18,29)        -93.9914         estimate D2E/DX2                !
 ! D160  D(7,17,20,3)           36.1688         estimate D2E/DX2                !
 ! D161  D(7,17,20,42)         159.0522         estimate D2E/DX2                !
 ! D162  D(7,17,20,43)         -81.5747         estimate D2E/DX2                !
 ! D163  D(18,17,20,3)         146.7127         estimate D2E/DX2                !
 ! D164  D(18,17,20,42)        -90.4039         estimate D2E/DX2                !
 ! D165  D(18,17,20,43)         28.9692         estimate D2E/DX2                !
 ! D166  D(30,17,20,3)         -83.1601         estimate D2E/DX2                !
 ! D167  D(30,17,20,42)         39.7233         estimate D2E/DX2                !
 ! D168  D(30,17,20,43)        159.0965         estimate D2E/DX2                !
 ! D169  D(17,18,19,8)         -12.0261         estimate D2E/DX2                !
 ! D170  D(28,18,19,8)         107.2249         estimate D2E/DX2                !
 ! D171  D(29,18,19,8)        -134.0525         estimate D2E/DX2                !
 ! D172  D(17,18,28,53)        169.1177         estimate D2E/DX2                !
 ! D173  D(17,18,28,54)        -72.042          estimate D2E/DX2                !
 ! D174  D(17,18,28,55)         48.349          estimate D2E/DX2                !
 ! D175  D(19,18,28,53)         56.9627         estimate D2E/DX2                !
 ! D176  D(19,18,28,54)        175.8029         estimate D2E/DX2                !
 ! D177  D(19,18,28,55)        -63.8061         estimate D2E/DX2                !
 ! D178  D(29,18,28,53)        -58.5647         estimate D2E/DX2                !
 ! D179  D(29,18,28,54)         60.2756         estimate D2E/DX2                !
 ! D180  D(29,18,28,55)       -179.3334         estimate D2E/DX2                !
 ! D181  D(17,18,29,56)         64.8482         estimate D2E/DX2                !
 ! D182  D(17,18,29,57)       -176.1828         estimate D2E/DX2                !
 ! D183  D(17,18,29,58)        -56.1526         estimate D2E/DX2                !
 ! D184  D(19,18,29,56)        177.4646         estimate D2E/DX2                !
 ! D185  D(19,18,29,57)        -63.5664         estimate D2E/DX2                !
 ! D186  D(19,18,29,58)         56.4637         estimate D2E/DX2                !
 ! D187  D(28,18,29,56)        -65.8254         estimate D2E/DX2                !
 ! D188  D(28,18,29,57)         53.1436         estimate D2E/DX2                !
 ! D189  D(28,18,29,58)        173.1737         estimate D2E/DX2                !
 ! D190  D(5,22,23,24)         -33.3745         estimate D2E/DX2                !
 ! D191  D(5,22,23,25)        -154.61           estimate D2E/DX2                !
 ! D192  D(5,22,23,47)          80.9266         estimate D2E/DX2                !
 ! D193  D(45,22,23,24)         83.9727         estimate D2E/DX2                !
 ! D194  D(45,22,23,25)        -37.2628         estimate D2E/DX2                !
 ! D195  D(45,22,23,47)       -161.7263         estimate D2E/DX2                !
 ! D196  D(46,22,23,24)       -153.9848         estimate D2E/DX2                !
 ! D197  D(46,22,23,25)         84.7797         estimate D2E/DX2                !
 ! D198  D(46,22,23,47)        -39.6837         estimate D2E/DX2                !
 ! D199  D(22,23,24,4)          16.8769         estimate D2E/DX2                !
 ! D200  D(25,23,24,4)         144.9093         estimate D2E/DX2                !
 ! D201  D(47,23,24,4)         -99.5587         estimate D2E/DX2                !
 ! D202  D(22,23,25,26)        176.1534         estimate D2E/DX2                !
 ! D203  D(22,23,25,27)         -5.9189         estimate D2E/DX2                !
 ! D204  D(24,23,25,26)         56.8571         estimate D2E/DX2                !
 ! D205  D(24,23,25,27)       -125.2152         estimate D2E/DX2                !
 ! D206  D(47,23,25,26)        -58.2358         estimate D2E/DX2                !
 ! D207  D(47,23,25,27)        119.6919         estimate D2E/DX2                !
 ! D208  D(23,25,26,48)        -58.6269         estimate D2E/DX2                !
 ! D209  D(23,25,26,49)         59.5263         estimate D2E/DX2                !
 ! D210  D(23,25,26,50)       -179.9602         estimate D2E/DX2                !
 ! D211  D(27,25,26,48)        123.4321         estimate D2E/DX2                !
 ! D212  D(27,25,26,49)       -118.4147         estimate D2E/DX2                !
 ! D213  D(27,25,26,50)          2.0989         estimate D2E/DX2                !
 ! D214  D(23,25,27,51)       -178.126          estimate D2E/DX2                !
 ! D215  D(23,25,27,52)          1.1043         estimate D2E/DX2                !
 ! D216  D(26,25,27,51)         -0.3534         estimate D2E/DX2                !
 ! D217  D(26,25,27,52)        178.8769         estimate D2E/DX2                !
 --------------------------------------------------------------------------------
 Trust Radius=3.00D-01 FncErr=1.00D-07 GrdErr=1.00D-06
 Number of steps in this run=    390 maximum allowed number of steps=    390.
 GradGradGradGradGradGradGradGradGradGradGradGradGradGradGradGradGradGrad

 Stoichiometry    C26H34O5
 Framework group  C1[X(C26H34O5)]
 Deg. of freedom   189
 Full point group                 C1      NOp   1
 Largest Abelian subgroup         C1      NOp   1
 Largest concise Abelian subgroup C1      NOp   1
                         Standard orientation:                         
 ---------------------------------------------------------------------
 Center     Atomic      Atomic             Coordinates (Angstroms)
 Number     Number       Type             X           Y           Z
 ---------------------------------------------------------------------
      1          6           0        1.566781    0.613513    3.160054
      2          6           0        1.618083    1.735304    2.432939
      3          6           0        1.736831    1.691102    0.923843
      4          6           0        1.494519    0.298590    0.260357
      5          6           0        1.052907   -0.889857    1.155105
      6          6           0        1.632895   -0.774245    2.586306
      7          6           0        0.497027    0.589329   -0.891477
      8          6           0       -0.950763    0.496661   -0.459785
      9          6           0       -1.430168   -0.363671    0.473398
     10          6           0       -0.477125   -1.144844    1.269183
     11          6           0       -2.912169   -0.402960    0.796584
     12          8           0       -3.497353    0.634369    1.053628
     13          6           0       -3.620861   -1.753058    0.738670
     14          6           0       -3.557344   -2.330728   -0.702395
     15          6           0       -5.046026   -1.656296    1.291083
     16          8           0       -0.848442   -1.999502    2.070559
     17          6           0        0.556188    2.097940   -1.211803
     18          6           0       -0.832948    2.368092   -1.839386
     19          8           0       -1.694988    1.380549   -1.132054
     20          6           0        0.803757    2.697603    0.187129
     21          8           0        0.680314   -0.284104   -1.990622
     22          6           0        1.689757   -2.097353    0.415744
     23          6           0        3.015979   -1.528310   -0.079047
     24          8           0        2.730083   -0.128941   -0.369248
     25          6           0        3.673197   -2.145105   -1.296551
     26          6           0        4.932832   -1.449902   -1.755011
     27          6           0        3.204344   -3.243789   -1.896448
     28          6           0       -0.884450    2.048697   -3.335084
     29          6           0       -1.444581    3.737460   -1.554929
     30          1           0        1.368010    2.334896   -1.906476
     31          1           0        2.772606    1.946177    0.657431
     32          6           0        1.630374    3.100151    3.076079
     33          1           0        1.516036    0.690413    4.245407
     34          1           0        2.680330   -1.111396    2.587131
     35          1           0        1.087898   -1.482722    3.216805
     36          1           0       -3.029464   -2.425612    1.371535
     37          1           0       -2.505392   -2.465195   -0.983955
     38          1           0       -3.997631   -3.336203   -0.675328
     39          1           0       -5.539255   -2.634036    1.239547
     40          1           0       -5.648899   -0.932205    0.736100
     41          1           0       -5.035713   -1.332476    2.336496
     42          1           0        1.233854    3.702326    0.145210
     43          1           0       -0.142904    2.774894    0.732953
     44          1           0        1.648129   -0.418393   -2.030365
     45          1           0        1.061774   -2.392812   -0.429328
     46          1           0        1.811822   -2.958284    1.078258
     47          1           0        3.755551   -1.539423    0.737209
     48          1           0        4.735905   -0.399099   -1.996210
     49          1           0        5.690956   -1.451271   -0.959683
     50          1           0        5.361836   -1.937144   -2.635457
     51          1           0        3.718046   -3.677614   -2.750773
     52          1           0        2.309927   -3.759805   -1.562624
     53          1           0       -1.922156    2.070053   -3.683452
     54          1           0       -0.320103    2.801945   -3.896951
     55          1           0       -0.458436    1.065023   -3.540366
     56          1           0       -0.830460    4.521832   -2.011466
     57          1           0       -2.448560    3.794744   -1.986729
     58          1           0       -1.527233    3.935271   -0.483981
     59          1           0        1.614757    3.021099    4.167395
     60          1           0        2.529667    3.664974    2.790973
     61          1           0        0.768853    3.708745    2.772718
     62          6           0       -4.263072   -1.489601   -1.773613
     63          1           0       -4.155001   -1.956086   -2.759631
     64          1           0       -5.335086   -1.390594   -1.571409
     65          1           0       -3.842370   -0.479337   -1.834742
 ---------------------------------------------------------------------
 Rotational constants (GHZ):      0.1920301      0.1303554      0.1226719
 Standard basis: 6-311+G(d) (5D, 7F)
 There are   784 symmetry adapted basis functions of A   symmetry.
 Integral buffers will be    131072 words long.
 Raffenetti 2 integral format.
 Two-electron integral symmetry is turned on.
   784 basis functions,  1286 primitive gaussians,   815 cartesian basis functions
   115 alpha electrons      115 beta electrons
       nuclear repulsion energy      3525.3991755366 Hartrees.
 NAtoms=   65 NActive=   65 NUniq=   65 SFac= 1.00D+00 NAtFMM=   50 NAOKFM=T Big=T
 One-electron integrals computed using PRISM.
 NBasis=   784 RedAO= T  NBF=   784
 NBsUse=   777 1.00D-06 NBFU=   777
 Harris functional with IExCor=  402 diagonalized for initial guess.
 ExpMin= 4.38D-02 ExpMax= 8.59D+03 ExpMxC= 1.30D+03 IAcc=2 IRadAn=         0 AccDes= 0.00D+00
 HarFok:  IExCor=  402 AccDes= 0.00D+00 IRadAn=         0 IDoV= 1
 ScaDFX=  1.000000  1.000000  1.000000  1.000000
 FoFCou: FMM=F IPFlag=           0 FMFlag=      100000 FMFlg1=        2001
         NFxFlg=           0 DoJE=T BraDBF=F KetDBF=T FulRan=T
         Omega=  0.000000  0.000000  1.000000  0.000000  0.000000 ICntrl=     500 IOpCl=  0
         NMat0=    1 NMatS0=    1 NMatT0=    0 NMatD0=    1 NMtDS0=    0 NMtDT0=    0
         I1Cent=           4 NGrid=           0.
 Petite list used in FoFCou.
 Initial guess orbital symmetries:
       Occupied  (A) (A) (A) (A) (A) (A) (A) (A) (A) (A) (A) (A)
                 (A) (A) (A) (A) (A) (A) (A) (A) (A) (A) (A) (A)
                 (A) (A) (A) (A) (A) (A) (A) (A) (A) (A) (A) (A)
                 (A) (A) (A) (A) (A) (A) (A) (A) (A) (A) (A) (A)
                 (A) (A) (A) (A) (A) (A) (A) (A) (A) (A) (A) (A)
                 (A) (A) (A) (A) (A) (A) (A) (A) (A) (A) (A) (A)
                 (A) (A) (A) (A) (A) (A) (A) (A) (A) (A) (A) (A)
                 (A) (A) (A) (A) (A) (A) (A) (A) (A) (A) (A) (A)
                 (A) (A) (A) (A) (A) (A) (A) (A) (A) (A) (A) (A)
                 (A) (A) (A) (A) (A) (A) (A)
       Virtual   (A) (A) (A) (A) (A) (A) (A) (A) (A) (A) (A) (A)
                 (A) (A) (A) (A) (A) (A) (A) (A) (A) (A) (A) (A)
                 (A) (A) (A) (A) (A) (A) (A) (A) (A) (A) (A) (A)
                 (A) (A) (A) (A) (A) (A) (A) (A) (A) (A) (A) (A)
                 (A) (A) (A) (A) (A) (A) (A) (A) (A) (A) (A) (A)
                 (A) (A) (A) (A) (A) (A) (A) (A) (A) (A) (A) (A)
                 (A) (A) (A) (A) (A) (A) (A) (A) (A) (A) (A) (A)
                 (A) (A) (A) (A) (A) (A) (A) (A) (A) (A) (A) (A)
                 (A) (A) (A) (A) (A) (A) (A) (A) (A) (A) (A) (A)
                 (A) (A) (A) (A) (A) (A) (A) (A) (A) (A) (A) (A)
                 (A) (A) (A) (A) (A) (A) (A) (A) (A) (A) (A) (A)
                 (A) (A) (A) (A) (A) (A) (A) (A) (A) (A) (A) (A)
                 (A) (A) (A) (A) (A) (A) (A) (A) (A) (A) (A) (A)
                 (A) (A) (A) (A) (A) (A) (A) (A) (A) (A) (A) (A)
                 (A) (A) (A) (A) (A) (A) (A) (A) (A) (A) (A) (A)
                 (A) (A) (A) (A) (A) (A) (A) (A) (A) (A) (A) (A)
                 (A) (A) (A) (A) (A) (A) (A) (A) (A) (A) (A) (A)
                 (A) (A) (A) (A) (A) (A) (A) (A) (A) (A) (A) (A)
                 (A) (A) (A) (A) (A) (A) (A) (A) (A) (A) (A) (A)
                 (A) (A) (A) (A) (A) (A) (A) (A) (A) (A) (A) (A)
                 (A) (A) (A) (A) (A) (A) (A) (A) (A) (A) (A) (A)
                 (A) (A) (A) (A) (A) (A) (A) (A) (A) (A) (A) (A)
                 (A) (A) (A) (A) (A) (A) (A) (A) (A) (A) (A) (A)
                 (A) (A) (A) (A) (A) (A) (A) (A) (A) (A) (A) (A)
                 (A) (A) (A) (A) (A) (A) (A) (A) (A) (A) (A) (A)
                 (A) (A) (A) (A) (A) (A) (A) (A) (A) (A) (A) (A)
                 (A) (A) (A) (A) (A) (A) (A) (A) (A) (A) (A) (A)
                 (A) (A) (A) (A) (A) (A) (A) (A) (A) (A) (A) (A)
                 (A) (A) (A) (A) (A) (A) (A) (A) (A) (A) (A) (A)
                 (A) (A) (A) (A) (A) (A) (A) (A) (A) (A) (A) (A)
                 (A) (A) (A) (A) (A) (A) (A) (A) (A) (A) (A) (A)
                 (A) (A) (A) (A) (A) (A) (A) (A) (A) (A) (A) (A)
                 (A) (A) (A) (A) (A) (A) (A) (A) (A) (A) (A) (A)
                 (A) (A) (A) (A) (A) (A) (A) (A) (A) (A) (A) (A)
                 (A) (A) (A) (A) (A) (A) (A) (A) (A) (A) (A) (A)
                 (A) (A) (A) (A) (A) (A) (A) (A) (A) (A) (A) (A)
                 (A) (A) (A) (A) (A) (A) (A) (A) (A) (A) (A) (A)
                 (A) (A) (A) (A) (A) (A) (A) (A) (A) (A) (A) (A)
                 (A) (A) (A) (A) (A) (A) (A) (A) (A) (A) (A) (A)
                 (A) (A) (A) (A) (A) (A) (A) (A) (A) (A) (A) (A)
                 (A) (A) (A) (A) (A) (A) (A) (A) (A) (A) (A) (A)
                 (A) (A) (A) (A) (A) (A) (A) (A) (A) (A) (A) (A)
                 (A) (A) (A) (A) (A) (A) (A) (A) (A) (A) (A) (A)
                 (A) (A) (A) (A) (A) (A) (A) (A) (A) (A) (A) (A)
                 (A) (A) (A) (A) (A) (A) (A) (A) (A) (A) (A) (A)
                 (A) (A) (A) (A) (A) (A) (A) (A) (A) (A) (A) (A)
                 (A) (A) (A) (A) (A) (A) (A) (A) (A) (A) (A) (A)
                 (A) (A) (A) (A) (A) (A) (A) (A) (A) (A) (A) (A)
                 (A) (A) (A) (A) (A) (A) (A) (A) (A) (A) (A) (A)
                 (A) (A) (A) (A) (A) (A) (A) (A) (A) (A) (A) (A)
                 (A) (A) (A) (A) (A) (A) (A) (A) (A) (A) (A) (A)
                 (A) (A) (A) (A) (A) (A) (A) (A) (A) (A) (A) (A)
                 (A) (A) (A) (A) (A) (A) (A) (A) (A) (A) (A) (A)
                 (A) (A) (A) (A) (A) (A) (A) (A) (A) (A) (A) (A)
                 (A) (A) (A) (A) (A) (A) (A) (A) (A) (A) (A) (A)
                 (A) (A)
 The electronic state of the initial guess is 1-A.
 Requested convergence on RMS density matrix=1.00D-08 within 128 cycles.
 Requested convergence on MAX density matrix=1.00D-06.
 Requested convergence on             energy=1.00D-06.
 No special actions if energy rises.
 SCF Done:  E(RB3LYP) =  -1387.64888581     A.U. after   17 cycles
             Convg  =    0.5449D-08             -V/T =  2.0043

 **********************************************************************

            Population analysis using the SCF density.

 **********************************************************************

 Orbital symmetries:
       Occupied  (A) (A) (A) (A) (A) (A) (A) (A) (A) (A) (A) (A)
                 (A) (A) (A) (A) (A) (A) (A) (A) (A) (A) (A) (A)
                 (A) (A) (A) (A) (A) (A) (A) (A) (A) (A) (A) (A)
                 (A) (A) (A) (A) (A) (A) (A) (A) (A) (A) (A) (A)
                 (A) (A) (A) (A) (A) (A) (A) (A) (A) (A) (A) (A)
                 (A) (A) (A) (A) (A) (A) (A) (A) (A) (A) (A) (A)
                 (A) (A) (A) (A) (A) (A) (A) (A) (A) (A) (A) (A)
                 (A) (A) (A) (A) (A) (A) (A) (A) (A) (A) (A) (A)
                 (A) (A) (A) (A) (A) (A) (A) (A) (A) (A) (A) (A)
                 (A) (A) (A) (A) (A) (A) (A)
       Virtual   (A) (A) (A) (A) (A) (A) (A) (A) (A) (A) (A) (A)
                 (A) (A) (A) (A) (A) (A) (A) (A) (A) (A) (A) (A)
                 (A) (A) (A) (A) (A) (A) (A) (A) (A) (A) (A) (A)
                 (A) (A) (A) (A) (A) (A) (A) (A) (A) (A) (A) (A)
                 (A) (A) (A) (A) (A) (A) (A) (A) (A) (A) (A) (A)
                 (A) (A) (A) (A) (A) (A) (A) (A) (A) (A) (A) (A)
                 (A) (A) (A) (A) (A) (A) (A) (A) (A) (A) (A) (A)
                 (A) (A) (A) (A) (A) (A) (A) (A) (A) (A) (A) (A)
                 (A) (A) (A) (A) (A) (A) (A) (A) (A) (A) (A) (A)
                 (A) (A) (A) (A) (A) (A) (A) (A) (A) (A) (A) (A)
                 (A) (A) (A) (A) (A) (A) (A) (A) (A) (A) (A) (A)
                 (A) (A) (A) (A) (A) (A) (A) (A) (A) (A) (A) (A)
                 (A) (A) (A) (A) (A) (A) (A) (A) (A) (A) (A) (A)
                 (A) (A) (A) (A) (A) (A) (A) (A) (A) (A) (A) (A)
                 (A) (A) (A) (A) (A) (A) (A) (A) (A) (A) (A) (A)
                 (A) (A) (A) (A) (A) (A) (A) (A) (A) (A) (A) (A)
                 (A) (A) (A) (A) (A) (A) (A) (A) (A) (A) (A) (A)
                 (A) (A) (A) (A) (A) (A) (A) (A) (A) (A) (A) (A)
                 (A) (A) (A) (A) (A) (A) (A) (A) (A) (A) (A) (A)
                 (A) (A) (A) (A) (A) (A) (A) (A) (A) (A) (A) (A)
                 (A) (A) (A) (A) (A) (A) (A) (A) (A) (A) (A) (A)
                 (A) (A) (A) (A) (A) (A) (A) (A) (A) (A) (A) (A)
                 (A) (A) (A) (A) (A) (A) (A) (A) (A) (A) (A) (A)
                 (A) (A) (A) (A) (A) (A) (A) (A) (A) (A) (A) (A)
                 (A) (A) (A) (A) (A) (A) (A) (A) (A) (A) (A) (A)
                 (A) (A) (A) (A) (A) (A) (A) (A) (A) (A) (A) (A)
                 (A) (A) (A) (A) (A) (A) (A) (A) (A) (A) (A) (A)
                 (A) (A) (A) (A) (A) (A) (A) (A) (A) (A) (A) (A)
                 (A) (A) (A) (A) (A) (A) (A) (A) (A) (A) (A) (A)
                 (A) (A) (A) (A) (A) (A) (A) (A) (A) (A) (A) (A)
                 (A) (A) (A) (A) (A) (A) (A) (A) (A) (A) (A) (A)
                 (A) (A) (A) (A) (A) (A) (A) (A) (A) (A) (A) (A)
                 (A) (A) (A) (A) (A) (A) (A) (A) (A) (A) (A) (A)
                 (A) (A) (A) (A) (A) (A) (A) (A) (A) (A) (A) (A)
                 (A) (A) (A) (A) (A) (A) (A) (A) (A) (A) (A) (A)
                 (A) (A) (A) (A) (A) (A) (A) (A) (A) (A) (A) (A)
                 (A) (A) (A) (A) (A) (A) (A) (A) (A) (A) (A) (A)
                 (A) (A) (A) (A) (A) (A) (A) (A) (A) (A) (A) (A)
                 (A) (A) (A) (A) (A) (A) (A) (A) (A) (A) (A) (A)
                 (A) (A) (A) (A) (A) (A) (A) (A) (A) (A) (A) (A)
                 (A) (A) (A) (A) (A) (A) (A) (A) (A) (A) (A) (A)
                 (A) (A) (A) (A) (A) (A) (A) (A) (A) (A) (A) (A)
                 (A) (A) (A) (A) (A) (A) (A) (A) (A) (A) (A) (A)
                 (A) (A) (A) (A) (A) (A) (A) (A) (A) (A) (A) (A)
                 (A) (A) (A) (A) (A) (A) (A) (A) (A) (A) (A) (A)
                 (A) (A) (A) (A) (A) (A) (A) (A) (A) (A) (A) (A)
                 (A) (A) (A) (A) (A) (A) (A) (A) (A) (A) (A) (A)
                 (A) (A) (A) (A) (A) (A) (A) (A) (A) (A) (A) (A)
                 (A) (A) (A) (A) (A) (A) (A) (A) (A) (A) (A) (A)
                 (A) (A) (A) (A) (A) (A) (A) (A) (A) (A) (A) (A)
                 (A) (A) (A) (A) (A) (A) (A) (A) (A) (A) (A) (A)
                 (A) (A) (A) (A) (A) (A) (A) (A) (A) (A) (A) (A)
                 (A) (A) (A) (A) (A) (A) (A) (A) (A) (A) (A) (A)
                 (A) (A) (A) (A) (A) (A) (A) (A) (A) (A) (A) (A)
                 (A) (A) (A) (A) (A) (A) (A) (A) (A) (A) (A) (A)
                 (A) (A)
 The electronic state is 1-A.
 Alpha  occ. eigenvalues --  -19.17607 -19.14815 -19.14048 -19.10713 -19.10671
 Alpha  occ. eigenvalues --  -10.26704 -10.26674 -10.25810 -10.25690 -10.25355
 Alpha  occ. eigenvalues --  -10.25314 -10.24411 -10.20863 -10.19947 -10.19847
 Alpha  occ. eigenvalues --  -10.19576 -10.18806 -10.18668 -10.18612 -10.18483
 Alpha  occ. eigenvalues --  -10.17825 -10.17794 -10.17671 -10.17540 -10.17239
 Alpha  occ. eigenvalues --  -10.17085 -10.16921 -10.16771 -10.16519 -10.14989
 Alpha  occ. eigenvalues --  -10.14499  -1.10245  -1.07096  -1.04293  -1.03731
 Alpha  occ. eigenvalues --   -1.03598  -0.87663  -0.84541  -0.83317  -0.82365
 Alpha  occ. eigenvalues --   -0.81115  -0.80207  -0.77530  -0.75146  -0.74055
 Alpha  occ. eigenvalues --   -0.72475  -0.71948  -0.70574  -0.70275  -0.68697
 Alpha  occ. eigenvalues --   -0.66368  -0.65087  -0.64269  -0.62398  -0.61503
 Alpha  occ. eigenvalues --   -0.60371  -0.59556  -0.57941  -0.55655  -0.54499
 Alpha  occ. eigenvalues --   -0.53693  -0.53075  -0.51735  -0.51232  -0.50206
 Alpha  occ. eigenvalues --   -0.49068  -0.48061  -0.47462  -0.47108  -0.46762
 Alpha  occ. eigenvalues --   -0.46170  -0.45588  -0.45442  -0.44820  -0.44200
 Alpha  occ. eigenvalues --   -0.43979  -0.43771  -0.42964  -0.42509  -0.42129
 Alpha  occ. eigenvalues --   -0.41691  -0.41594  -0.41263  -0.40830  -0.40124
 Alpha  occ. eigenvalues --   -0.39895  -0.39251  -0.39003  -0.38757  -0.38460
 Alpha  occ. eigenvalues --   -0.38404  -0.38208  -0.38023  -0.37803  -0.37565
 Alpha  occ. eigenvalues --   -0.37397  -0.36593  -0.36311  -0.35899  -0.35188
 Alpha  occ. eigenvalues --   -0.34635  -0.34449  -0.34267  -0.33747  -0.33094
 Alpha  occ. eigenvalues --   -0.32332  -0.32198  -0.31869  -0.29382  -0.27854
 Alpha  occ. eigenvalues --   -0.27446  -0.25932  -0.25308  -0.24501  -0.24043
 Alpha virt. eigenvalues --   -0.06103  -0.02623  -0.01993  -0.01147  -0.00133
 Alpha virt. eigenvalues --    0.00224   0.00518   0.00981   0.01535   0.01969
 Alpha virt. eigenvalues --    0.02058   0.02312   0.02789   0.03395   0.03509
 Alpha virt. eigenvalues --    0.03843   0.04043   0.04303   0.04527   0.04798
 Alpha virt. eigenvalues --    0.05132   0.05464   0.05642   0.05927   0.06446
 Alpha virt. eigenvalues --    0.06663   0.07075   0.07140   0.07267   0.07581
 Alpha virt. eigenvalues --    0.07729   0.08000   0.08161   0.08810   0.08927
 Alpha virt. eigenvalues --    0.09066   0.09406   0.09584   0.09693   0.09923
 Alpha virt. eigenvalues --    0.10167   0.10449   0.10604   0.10806   0.11075
 Alpha virt. eigenvalues --    0.11202   0.11611   0.11993   0.12158   0.12436
 Alpha virt. eigenvalues --    0.12532   0.12733   0.13134   0.13336   0.13521
 Alpha virt. eigenvalues --    0.13640   0.14112   0.14228   0.14710   0.14788
 Alpha virt. eigenvalues --    0.15051   0.15218   0.15448   0.15565   0.16050
 Alpha virt. eigenvalues --    0.16411   0.16673   0.16942   0.17095   0.17153
 Alpha virt. eigenvalues --    0.17474   0.17614   0.17968   0.18031   0.18173
 Alpha virt. eigenvalues --    0.18264   0.18494   0.18616   0.18846   0.19115
 Alpha virt. eigenvalues --    0.19461   0.19569   0.19767   0.19871   0.20061
 Alpha virt. eigenvalues --    0.20164   0.20540   0.20831   0.20943   0.21201
 Alpha virt. eigenvalues --    0.21451   0.21693   0.21790   0.21959   0.22118
 Alpha virt. eigenvalues --    0.22177   0.22462   0.22528   0.22862   0.23135
 Alpha virt. eigenvalues --    0.23180   0.23366   0.23387   0.23748   0.23906
 Alpha virt. eigenvalues --    0.24240   0.24344   0.24408   0.24464   0.24880
 Alpha virt. eigenvalues --    0.25081   0.25386   0.25515   0.25613   0.25993
 Alpha virt. eigenvalues --    0.26205   0.26371   0.26642   0.26846   0.26896
 Alpha virt. eigenvalues --    0.27150   0.27415   0.27499   0.28092   0.28352
 Alpha virt. eigenvalues --    0.28613   0.28747   0.28860   0.29366   0.29452
 Alpha virt. eigenvalues --    0.29667   0.29994   0.30480   0.30677   0.30919
 Alpha virt. eigenvalues --    0.31134   0.31381   0.31718   0.32060   0.32162
 Alpha virt. eigenvalues --    0.32288   0.32645   0.33133   0.33277   0.33554
 Alpha virt. eigenvalues --    0.34031   0.34436   0.34871   0.34961   0.35067
 Alpha virt. eigenvalues --    0.35941   0.36122   0.36382   0.36571   0.36875
 Alpha virt. eigenvalues --    0.37217   0.37788   0.38122   0.38435   0.38921
 Alpha virt. eigenvalues --    0.39366   0.39607   0.39899   0.40194   0.40412
 Alpha virt. eigenvalues --    0.40670   0.41115   0.41188   0.41805   0.42447
 Alpha virt. eigenvalues --    0.42704   0.42855   0.43423   0.43491   0.43933
 Alpha virt. eigenvalues --    0.44123   0.44455   0.44735   0.45234   0.45527
 Alpha virt. eigenvalues --    0.46050   0.46580   0.46786   0.46916   0.47449
 Alpha virt. eigenvalues --    0.48046   0.48317   0.48495   0.49329   0.49457
 Alpha virt. eigenvalues --    0.49695   0.49888   0.50788   0.51300   0.51903
 Alpha virt. eigenvalues --    0.52215   0.52533   0.52992   0.53405   0.53834
 Alpha virt. eigenvalues --    0.54469   0.54960   0.55773   0.55858   0.56194
 Alpha virt. eigenvalues --    0.56832   0.57236   0.57436   0.57880   0.58269
 Alpha virt. eigenvalues --    0.58538   0.58909   0.59424   0.59680   0.60413
 Alpha virt. eigenvalues --    0.60436   0.60533   0.60729   0.61797   0.62127
 Alpha virt. eigenvalues --    0.62739   0.63179   0.63844   0.64053   0.64180
 Alpha virt. eigenvalues --    0.64488   0.64809   0.65178   0.65437   0.66061
 Alpha virt. eigenvalues --    0.66563   0.66895   0.67170   0.67215   0.67443
 Alpha virt. eigenvalues --    0.67697   0.68098   0.68325   0.68510   0.68833
 Alpha virt. eigenvalues --    0.69270   0.69729   0.69953   0.70181   0.70727
 Alpha virt. eigenvalues --    0.70985   0.71377   0.71467   0.71627   0.72329
 Alpha virt. eigenvalues --    0.72598   0.72805   0.72883   0.73224   0.73677
 Alpha virt. eigenvalues --    0.73781   0.74476   0.74651   0.74919   0.75230
 Alpha virt. eigenvalues --    0.75585   0.75829   0.76157   0.76560   0.76877
 Alpha virt. eigenvalues --    0.77274   0.77931   0.78205   0.78730   0.78801
 Alpha virt. eigenvalues --    0.79329   0.79906   0.80299   0.80459   0.80850
 Alpha virt. eigenvalues --    0.81348   0.82072   0.82304   0.83014   0.83220
 Alpha virt. eigenvalues --    0.83995   0.84353   0.84456   0.84691   0.85731
 Alpha virt. eigenvalues --    0.86094   0.87019   0.87326   0.87944   0.88308
 Alpha virt. eigenvalues --    0.89301   0.89685   0.90755   0.91506   0.92124
 Alpha virt. eigenvalues --    0.93409   0.93998   0.95253   0.96124   0.96392
 Alpha virt. eigenvalues --    0.96896   0.97794   0.99398   1.00482   1.00759
 Alpha virt. eigenvalues --    1.01782   1.02410   1.03725   1.04335   1.05330
 Alpha virt. eigenvalues --    1.06544   1.07092   1.08687   1.09697   1.10295
 Alpha virt. eigenvalues --    1.11224   1.11823   1.13333   1.14638   1.14834
 Alpha virt. eigenvalues --    1.15946   1.16270   1.17237   1.17822   1.19241
 Alpha virt. eigenvalues --    1.20611   1.21769   1.22528   1.23200   1.23774
 Alpha virt. eigenvalues --    1.24873   1.25292   1.25870   1.26454   1.27547
 Alpha virt. eigenvalues --    1.29000   1.29343   1.30006   1.31702   1.32169
 Alpha virt. eigenvalues --    1.32649   1.33395   1.34297   1.34510   1.35533
 Alpha virt. eigenvalues --    1.36408   1.37189   1.38055   1.38530   1.39280
 Alpha virt. eigenvalues --    1.40468   1.42060   1.42303   1.43534   1.43895
 Alpha virt. eigenvalues --    1.44412   1.45787   1.46893   1.47457   1.49091
 Alpha virt. eigenvalues --    1.49794   1.50210   1.50567   1.51568   1.52168
 Alpha virt. eigenvalues --    1.52914   1.53487   1.54407   1.54804   1.56136
 Alpha virt. eigenvalues --    1.56454   1.56858   1.57456   1.57764   1.58020
 Alpha virt. eigenvalues --    1.58559   1.58869   1.59901   1.60468   1.60688
 Alpha virt. eigenvalues --    1.61131   1.61543   1.62445   1.62683   1.63044
 Alpha virt. eigenvalues --    1.63600   1.64180   1.64330   1.65007   1.65767
 Alpha virt. eigenvalues --    1.66076   1.66389   1.66877   1.67259   1.67603
 Alpha virt. eigenvalues --    1.67918   1.68339   1.69027   1.69841   1.70170
 Alpha virt. eigenvalues --    1.71069   1.71416   1.71884   1.72463   1.73111
 Alpha virt. eigenvalues --    1.73417   1.74197   1.74719   1.75501   1.76618
 Alpha virt. eigenvalues --    1.77545   1.77721   1.78647   1.79078   1.80141
 Alpha virt. eigenvalues --    1.80610   1.81891   1.83002   1.83477   1.83835
 Alpha virt. eigenvalues --    1.84873   1.85672   1.86172   1.86710   1.87472
 Alpha virt. eigenvalues --    1.87846   1.88603   1.89796   1.91255   1.91655
 Alpha virt. eigenvalues --    1.92705   1.93015   1.94473   1.95175   1.96854
 Alpha virt. eigenvalues --    1.97704   1.99055   2.00939   2.01248   2.03047
 Alpha virt. eigenvalues --    2.03408   2.03604   2.04140   2.05607   2.06782
 Alpha virt. eigenvalues --    2.07174   2.07654   2.07973   2.08682   2.09475
 Alpha virt. eigenvalues --    2.10945   2.12178   2.13817   2.14366   2.16333
 Alpha virt. eigenvalues --    2.17312   2.17840   2.18793   2.20921   2.21822
 Alpha virt. eigenvalues --    2.22531   2.23569   2.24592   2.25265   2.26861
 Alpha virt. eigenvalues --    2.26994   2.29741   2.31543   2.33101   2.33772
 Alpha virt. eigenvalues --    2.35149   2.37296   2.38841   2.40131   2.42636
 Alpha virt. eigenvalues --    2.44224   2.47348   2.48704   2.49868   2.51496
 Alpha virt. eigenvalues --    2.52258   2.52673   2.54360   2.54657   2.55292
 Alpha virt. eigenvalues --    2.55643   2.55842   2.56470   2.56804   2.57526
 Alpha virt. eigenvalues --    2.58270   2.59299   2.59935   2.60761   2.61213
 Alpha virt. eigenvalues --    2.62511   2.63531   2.65167   2.66460   2.66934
 Alpha virt. eigenvalues --    2.67057   2.69546   2.69825   2.70420   2.70817
 Alpha virt. eigenvalues --    2.71086   2.72282   2.73077   2.73743   2.74447
 Alpha virt. eigenvalues --    2.75250   2.77433   2.81758   2.84079   2.84537
 Alpha virt. eigenvalues --    2.86090   2.86735   2.88340   2.89068   2.89901
 Alpha virt. eigenvalues --    2.90727   2.91034   2.92802   2.93589   2.94685
 Alpha virt. eigenvalues --    2.96020   2.97017   2.98266   2.99059   3.00238
 Alpha virt. eigenvalues --    3.00385   3.01232   3.02994   3.03432   3.04331
 Alpha virt. eigenvalues --    3.05852   3.06084   3.07376   3.07958   3.09313
 Alpha virt. eigenvalues --    3.09842   3.11625   3.12268   3.12887   3.13805
 Alpha virt. eigenvalues --    3.14793   3.15678   3.16336   3.16935   3.17945
 Alpha virt. eigenvalues --    3.18835   3.19091   3.20220   3.20739   3.22204
 Alpha virt. eigenvalues --    3.22715   3.24351   3.24969   3.25882   3.26192
 Alpha virt. eigenvalues --    3.26281   3.26868   3.27746   3.28305   3.29733
 Alpha virt. eigenvalues --    3.30651   3.31214   3.31981   3.32515   3.34175
 Alpha virt. eigenvalues --    3.34522   3.35870   3.37512   3.37818   3.39343
 Alpha virt. eigenvalues --    3.39674   3.40387   3.41441   3.42426   3.44488
 Alpha virt. eigenvalues --    3.46519   3.47402   3.50310   3.51645   3.53165
 Alpha virt. eigenvalues --    3.55011   3.59224   3.61402   3.65917   3.73713
 Alpha virt. eigenvalues --    3.76521   3.77835   3.80643   3.87943   3.88618
 Alpha virt. eigenvalues --    3.89129   3.96728   3.98360   4.01276   4.02901
 Alpha virt. eigenvalues --    4.05590   4.06257   4.10112   4.10642   4.12725
 Alpha virt. eigenvalues --    4.16305   4.17904   4.19721   4.22120   4.23051
 Alpha virt. eigenvalues --    4.23681   4.28068   4.29340   4.33196   4.44961
 Alpha virt. eigenvalues --    4.61021   5.13445   5.17434   5.17865   5.21925
 Alpha virt. eigenvalues --    5.24061   5.27993   5.31310   5.32408   5.42620
 Alpha virt. eigenvalues --    5.43339   5.56985   5.66519   5.73677   5.78710
 Alpha virt. eigenvalues --    5.83998  23.45375  23.47425  23.51527  23.52522
 Alpha virt. eigenvalues --   23.62133  23.65533  23.65935  23.67063  23.69196
 Alpha virt. eigenvalues --   23.70590  23.72909  23.74233  23.76423  23.78889
 Alpha virt. eigenvalues --   23.79082  23.80128  23.82489  23.84213  23.86499
 Alpha virt. eigenvalues --   23.87073  23.88960  23.90242  23.96144  24.16657
 Alpha virt. eigenvalues --   24.18858  24.22171  49.99189  50.00577  50.01967
 Alpha virt. eigenvalues --   50.03066  50.06995
          Condensed to atoms (all electrons):
 Mulliken atomic charges:
              1
     1  C   -0.270210
     2  C    0.734270
     3  C   -0.250503
     4  C   -0.817756
     5  C    1.138478
     6  C   -0.731733
     7  C   -1.034410
     8  C    0.472869
     9  C    0.733376
    10  C   -0.782181
    11  C   -0.225282
    12  O   -0.162349
    13  C    0.426712
    14  C   -0.401489
    15  C   -0.941088
    16  O   -0.204558
    17  C   -0.320226
    18  C    0.634274
    19  O    0.157392
    20  C   -1.119835
    21  O    0.004009
    22  C   -0.565712
    23  C   -0.490079
    24  O    0.047948
    25  C    0.899181
    26  C   -1.015047
    27  C   -1.007019
    28  C   -0.860671
    29  C   -0.692503
    30  H    0.237636
    31  H    0.275472
    32  C   -1.067708
    33  H    0.202270
    34  H    0.239453
    35  H    0.282767
    36  H    0.283494
    37  H    0.242575
    38  H    0.227641
    39  H    0.235964
    40  H    0.267714
    41  H    0.262284
    42  H    0.265397
    43  H    0.282782
    44  H    0.284502
    45  H    0.251978
    46  H    0.279448
    47  H    0.233988
    48  H    0.268004
    49  H    0.263359
    50  H    0.254834
    51  H    0.230286
    52  H    0.238828
    53  H    0.264842
    54  H    0.251036
    55  H    0.311785
    56  H    0.258592
    57  H    0.270500
    58  H    0.264196
    59  H    0.256681
    60  H    0.253798
    61  H    0.258364
    62  C   -1.063302
    63  H    0.242692
    64  H    0.248925
    65  H    0.283059
 Sum of Mulliken atomic charges =   0.00000
 Mulliken charges with hydrogens summed into heavy atoms:
              1
     1  C   -0.067940
     2  C    0.734270
     3  C    0.024970
     4  C   -0.817756
     5  C    1.138478
     6  C   -0.209513
     7  C   -1.034410
     8  C    0.472869
     9  C    0.733376
    10  C   -0.782181
    11  C   -0.225282
    12  O   -0.162349
    13  C    0.710206
    14  C    0.068727
    15  C   -0.175126
    16  O   -0.204558
    17  C   -0.082590
    18  C    0.634274
    19  O    0.157392
    20  C   -0.571655
    21  O    0.288511
    22  C   -0.034285
    23  C   -0.256091
    24  O    0.047948
    25  C    0.899181
    26  C   -0.228850
    27  C   -0.537904
    28  C   -0.033008
    29  C    0.100786
    32  C   -0.298865
    62  C   -0.288626
 Sum of Mulliken charges with hydrogens summed into heavy atoms =   0.00000
 Electronic spatial extent (au):  <R**2>=          11228.3593
 Charge=              0.0000 electrons
 Dipole moment (field-independent basis, Debye):
    X=              5.0007    Y=              1.6836    Z=             -2.4327  Tot=              5.8103
 Quadrupole moment (field-independent basis, Debye-Ang):
   XX=           -192.7855   YY=           -179.0162   ZZ=           -188.8482
   XY=              2.1171   XZ=              5.3377   YZ=             -0.0720
 Traceless Quadrupole moment (field-independent basis, Debye-Ang):
   XX=             -5.9022   YY=              7.8671   ZZ=             -1.9649
   XY=              2.1171   XZ=              5.3377   YZ=             -0.0720
 Octapole moment (field-independent basis, Debye-Ang**2):
  XXX=             51.4467  YYY=             36.0512  ZZZ=             -6.9570  XYY=              8.0616
  XXY=            -35.3694  XXZ=            -30.2110  XZZ=             20.1624  YZZ=             20.3960
  YYZ=            -30.4775  XYZ=              9.8806
 Hexadecapole moment (field-independent basis, Debye-Ang**3):
 XXXX=          -7733.6581 YYYY=          -4225.9358 ZZZZ=          -3494.6303 XXXY=             33.5998
 XXXZ=            -14.0706 YYYX=              2.9565 YYYZ=             -2.6485 ZZZX=            -12.6450
 ZZZY=              2.4090 XXYY=          -1969.0763 XXZZ=          -1849.6399 YYZZ=          -1276.6350
 XXYZ=            -10.8380 YYXZ=             -0.5100 ZZXY=            -48.1947
 N-N= 3.525399175537D+03 E-N=-1.028383392407D+04  KE= 1.381708712076D+03
 Calling FoFJK, ICntrl=      2127 FMM=T ISym2X=0 I1Cent= 0 IOpClX= 0 NMat=1 NMatS=1 NMatT=0.
 ***** Axes restored to original set *****
 -------------------------------------------------------------------
 Center     Atomic                   Forces (Hartrees/Bohr)
 Number     Number              X              Y              Z
 -------------------------------------------------------------------
      1        6           0.000319325    0.001806663   -0.001165825
      2        6           0.000349401   -0.001865701    0.001281920
      3        6          -0.000485209    0.000290945   -0.000300181
      4        6          -0.000032032    0.001230263    0.000716826
      5        6          -0.000123120   -0.000434089    0.000124446
      6        6           0.000000919   -0.000060739   -0.000150535
      7        6          -0.001993539    0.001254068    0.001760981
      8        6          -0.003471842   -0.000174134   -0.000599330
      9        6           0.001428476    0.001812061    0.000630775
     10        6          -0.002308845   -0.004528090    0.003086478
     11        6          -0.003733558    0.005483533    0.000735310
     12        8           0.004463637   -0.006836891   -0.000832782
     13        6          -0.000171678    0.000436448    0.000185487
     14        6           0.000340664   -0.000279966   -0.000357825
     15        6           0.000186056    0.000080944   -0.000066526
     16        8           0.001835707    0.005440643   -0.004708437
     17        6           0.000466140    0.000117337   -0.000220488
     18        6           0.000376758    0.001346756   -0.001097550
     19        8           0.002513003   -0.003369205    0.002340356
     20        6          -0.000446087    0.000125319    0.000213198
     21        8           0.006591662    0.001029110    0.000471094
     22        6           0.000236204   -0.000406929   -0.000532302
     23        6           0.000802357   -0.001913174    0.000441415
     24        8          -0.000161088    0.000226936    0.000969438
     25        6          -0.000088806   -0.002008959   -0.001007919
     26        6          -0.000022540    0.000228497    0.000085630
     27        6           0.000784792    0.001520620    0.001126462
     28        6           0.000253625    0.000141099    0.000400271
     29        6           0.000432697   -0.000358915    0.000149202
     30        1          -0.001007806   -0.000348736    0.000734269
     31        1          -0.001190127   -0.000193770    0.000697059
     32        6          -0.000091936    0.000388302   -0.000080334
     33        1          -0.000036468   -0.000084063   -0.000849780
     34        1          -0.001633844    0.000386563    0.000130209
     35        1           0.001507696    0.001042735   -0.000488799
     36        1          -0.000821008    0.000755810   -0.000768908
     37        1          -0.001468302   -0.000348856    0.000293605
     38        1           0.000918364    0.001183083    0.000057364
     39        1           0.000500558    0.001380767    0.000189656
     40        1           0.000400415   -0.001311026    0.001243037
     41        1          -0.000448018   -0.000646411   -0.001459984
     42        1          -0.000764551   -0.001371393    0.000103063
     43        1           0.001527115    0.000167226   -0.000670034
     44        1          -0.005335096   -0.000817384   -0.002578101
     45        1           0.000753155   -0.000152255    0.001592166
     46        1          -0.000169897    0.001195486   -0.000854270
     47        1          -0.000931461    0.000213221   -0.001267871
     48        1           0.000696984   -0.001565833    0.000168117
     49        1          -0.001041255    0.000024392   -0.001249584
     50        1          -0.000484557    0.000851895    0.001297256
     51        1          -0.000495738    0.000304179    0.000807357
     52        1           0.000831786    0.000549910   -0.000410528
     53        1           0.001621067   -0.000046644    0.000175544
     54        1          -0.000829459   -0.001174417    0.000507714
     55        1          -0.001008205    0.001740057   -0.000449313
     56        1          -0.001010060   -0.000809527    0.000715949
     57        1           0.001512860    0.000209585    0.000689139
     58        1          -0.000082947    0.000054259   -0.001756757
     59        1           0.000055928    0.000351839   -0.001682487
     60        1          -0.001284141   -0.000765697    0.000526240
     61        1           0.001379057   -0.000884544    0.000660668
     62        6          -0.000103108    0.000081246    0.000217944
     63        1          -0.000279048    0.000831246    0.001293140
     64        1           0.001526122   -0.000015931   -0.000773760
[...]
                 (A) (A) (A) (A) (A) (A) (A) (A) (A) (A) (A) (A)
                 (A) (A)
 The electronic state is 1-A.
 Alpha  occ. eigenvalues --  -19.17505 -19.14618 -19.13970 -19.10842 -19.10657
 Alpha  occ. eigenvalues --  -10.26517 -10.26486 -10.25815 -10.25730 -10.25300
 Alpha  occ. eigenvalues --  -10.25239 -10.24283 -10.20748 -10.19857 -10.19753
 Alpha  occ. eigenvalues --  -10.19430 -10.18663 -10.18579 -10.18421 -10.18319
 Alpha  occ. eigenvalues --  -10.17692 -10.17673 -10.17553 -10.17477 -10.17087
 Alpha  occ. eigenvalues --  -10.16934 -10.16886 -10.16884 -10.16533 -10.14925
 Alpha  occ. eigenvalues --  -10.14505  -1.10193  -1.06858  -1.04586  -1.03945
 Alpha  occ. eigenvalues --   -1.03683  -0.87675  -0.84582  -0.83354  -0.82401
 Alpha  occ. eigenvalues --   -0.81151  -0.80334  -0.77581  -0.75149  -0.74059
 Alpha  occ. eigenvalues --   -0.72527  -0.72075  -0.70662  -0.70316  -0.68700
 Alpha  occ. eigenvalues --   -0.66417  -0.65172  -0.64261  -0.62470  -0.61482
 Alpha  occ. eigenvalues --   -0.60430  -0.59619  -0.57938  -0.55764  -0.54593
 Alpha  occ. eigenvalues --   -0.53626  -0.53159  -0.51656  -0.51210  -0.50212
 Alpha  occ. eigenvalues --   -0.49060  -0.48175  -0.47523  -0.47153  -0.46748
 Alpha  occ. eigenvalues --   -0.46227  -0.45606  -0.45515  -0.44861  -0.44206
 Alpha  occ. eigenvalues --   -0.43977  -0.43777  -0.42981  -0.42509  -0.42151
 Alpha  occ. eigenvalues --   -0.41802  -0.41642  -0.41305  -0.40824  -0.40172
 Alpha  occ. eigenvalues --   -0.39883  -0.39237  -0.38994  -0.38783  -0.38494
 Alpha  occ. eigenvalues --   -0.38370  -0.38210  -0.38059  -0.37824  -0.37632
 Alpha  occ. eigenvalues --   -0.37403  -0.36725  -0.36428  -0.35867  -0.35252
 Alpha  occ. eigenvalues --   -0.34604  -0.34472  -0.34233  -0.33785  -0.33036
 Alpha  occ. eigenvalues --   -0.32380  -0.32192  -0.31929  -0.29335  -0.27742
 Alpha  occ. eigenvalues --   -0.27431  -0.25979  -0.25274  -0.24480  -0.24052
 Alpha virt. eigenvalues --   -0.05875  -0.02434  -0.01934  -0.01119  -0.00113
 Alpha virt. eigenvalues --    0.00255   0.00581   0.01003   0.01546   0.01989
 Alpha virt. eigenvalues --    0.02039   0.02271   0.02804   0.03369   0.03462
 Alpha virt. eigenvalues --    0.03799   0.04053   0.04268   0.04484   0.04811
 Alpha virt. eigenvalues --    0.05109   0.05454   0.05615   0.05977   0.06498
 Alpha virt. eigenvalues --    0.06727   0.07078   0.07120   0.07161   0.07634
 Alpha virt. eigenvalues --    0.07785   0.07960   0.08146   0.08819   0.09005
 Alpha virt. eigenvalues --    0.09030   0.09456   0.09599   0.09670   0.09997
 Alpha virt. eigenvalues --    0.10219   0.10388   0.10693   0.10830   0.11084
 Alpha virt. eigenvalues --    0.11119   0.11639   0.12059   0.12137   0.12504
 Alpha virt. eigenvalues --    0.12559   0.12786   0.13081   0.13378   0.13470
 Alpha virt. eigenvalues --    0.13683   0.14090   0.14240   0.14776   0.14890
 Alpha virt. eigenvalues --    0.15086   0.15264   0.15483   0.15578   0.16022
 Alpha virt. eigenvalues --    0.16448   0.16630   0.17026   0.17087   0.17179
 Alpha virt. eigenvalues --    0.17545   0.17668   0.17914   0.18017   0.18183
 Alpha virt. eigenvalues --    0.18319   0.18564   0.18609   0.18935   0.19103
 Alpha virt. eigenvalues --    0.19402   0.19596   0.19781   0.19911   0.20105
 Alpha virt. eigenvalues --    0.20293   0.20628   0.20920   0.21020   0.21280
 Alpha virt. eigenvalues --    0.21438   0.21725   0.21760   0.21934   0.22094
 Alpha virt. eigenvalues --    0.22314   0.22376   0.22615   0.22890   0.23127
 Alpha virt. eigenvalues --    0.23196   0.23357   0.23402   0.23786   0.24069
 Alpha virt. eigenvalues --    0.24248   0.24343   0.24392   0.24484   0.24955
 Alpha virt. eigenvalues --    0.25386   0.25476   0.25634   0.25724   0.25973
 Alpha virt. eigenvalues --    0.26206   0.26264   0.26646   0.26822   0.26989
 Alpha virt. eigenvalues --    0.27156   0.27490   0.27617   0.27961   0.28470
 Alpha virt. eigenvalues --    0.28630   0.28972   0.29019   0.29406   0.29559
 Alpha virt. eigenvalues --    0.29710   0.30168   0.30498   0.30665   0.30957
 Alpha virt. eigenvalues --    0.31158   0.31300   0.31760   0.32045   0.32165
 Alpha virt. eigenvalues --    0.32486   0.32912   0.33138   0.33268   0.33615
 Alpha virt. eigenvalues --    0.34172   0.34453   0.34685   0.35039   0.35280
 Alpha virt. eigenvalues --    0.35909   0.36129   0.36412   0.36452   0.36831
 Alpha virt. eigenvalues --    0.37402   0.37732   0.38190   0.38598   0.38932
 Alpha virt. eigenvalues --    0.39416   0.39661   0.39972   0.40148   0.40497
 Alpha virt. eigenvalues --    0.40800   0.41183   0.41408   0.41893   0.42279
 Alpha virt. eigenvalues --    0.42652   0.42849   0.43576   0.43701   0.44242
 Alpha virt. eigenvalues --    0.44451   0.44779   0.44846   0.45286   0.45589
 Alpha virt. eigenvalues --    0.46262   0.46503   0.46845   0.47369   0.47490
 Alpha virt. eigenvalues --    0.48067   0.48362   0.48490   0.49265   0.49520
 Alpha virt. eigenvalues --    0.49767   0.50034   0.50816   0.51287   0.51892
 Alpha virt. eigenvalues --    0.52433   0.52671   0.53106   0.53189   0.53847
 Alpha virt. eigenvalues --    0.54524   0.55026   0.55700   0.55966   0.56125
 Alpha virt. eigenvalues --    0.56929   0.57121   0.57651   0.57847   0.58341
 Alpha virt. eigenvalues --    0.58668   0.58873   0.59569   0.59811   0.60291
 Alpha virt. eigenvalues --    0.60448   0.60579   0.60821   0.61864   0.62403
 Alpha virt. eigenvalues --    0.62958   0.63397   0.63751   0.64026   0.64387
 Alpha virt. eigenvalues --    0.64629   0.64876   0.65343   0.65550   0.66168
 Alpha virt. eigenvalues --    0.66546   0.66884   0.67091   0.67245   0.67557
 Alpha virt. eigenvalues --    0.67902   0.68097   0.68534   0.68570   0.69008
 Alpha virt. eigenvalues --    0.69223   0.69539   0.69964   0.70200   0.70758
 Alpha virt. eigenvalues --    0.70970   0.71180   0.71493   0.71766   0.72384
 Alpha virt. eigenvalues --    0.72605   0.72853   0.73031   0.73324   0.73848
 Alpha virt. eigenvalues --    0.73999   0.74349   0.74676   0.74885   0.75458
 Alpha virt. eigenvalues --    0.75557   0.76160   0.76313   0.76659   0.76921
 Alpha virt. eigenvalues --    0.77466   0.78118   0.78266   0.78737   0.78954
 Alpha virt. eigenvalues --    0.79362   0.79822   0.80346   0.80561   0.81002
 Alpha virt. eigenvalues --    0.81386   0.82182   0.82505   0.82980   0.83347
 Alpha virt. eigenvalues --    0.83817   0.84178   0.84304   0.84651   0.85863
 Alpha virt. eigenvalues --    0.86083   0.86954   0.87409   0.88152   0.88656
 Alpha virt. eigenvalues --    0.89270   0.89535   0.91065   0.91453   0.92155
 Alpha virt. eigenvalues --    0.93292   0.93903   0.94912   0.96313   0.96530
 Alpha virt. eigenvalues --    0.96787   0.97727   0.99218   1.00296   1.00870
 Alpha virt. eigenvalues --    1.01726   1.02652   1.03762   1.04525   1.04768
 Alpha virt. eigenvalues --    1.06504   1.07076   1.08719   1.09443   1.10029
 Alpha virt. eigenvalues --    1.11368   1.12076   1.13335   1.14495   1.14608
 Alpha virt. eigenvalues --    1.15656   1.16119   1.16966   1.17523   1.19355
 Alpha virt. eigenvalues --    1.20427   1.22170   1.22636   1.22901   1.23413
 Alpha virt. eigenvalues --    1.24537   1.25718   1.26175   1.27195   1.27500
 Alpha virt. eigenvalues --    1.29333   1.29492   1.30130   1.31361   1.32177
 Alpha virt. eigenvalues --    1.32376   1.33566   1.34174   1.34654   1.36028
 Alpha virt. eigenvalues --    1.36284   1.37682   1.37892   1.38801   1.39903
 Alpha virt. eigenvalues --    1.40456   1.42122   1.42256   1.43491   1.43947
 Alpha virt. eigenvalues --    1.44761   1.45271   1.47117   1.47824   1.49195
 Alpha virt. eigenvalues --    1.49776   1.50415   1.50839   1.51678   1.52292
 Alpha virt. eigenvalues --    1.52913   1.53657   1.54421   1.54815   1.55925
 Alpha virt. eigenvalues --    1.56742   1.56900   1.57386   1.57949   1.58010
 Alpha virt. eigenvalues --    1.58494   1.59177   1.60040   1.60394   1.60778
 Alpha virt. eigenvalues --    1.61224   1.61562   1.62443   1.62595   1.63354
 Alpha virt. eigenvalues --    1.63641   1.64238   1.64675   1.65043   1.65853
 Alpha virt. eigenvalues --    1.66182   1.66475   1.66839   1.67251   1.67666
 Alpha virt. eigenvalues --    1.68095   1.68336   1.68963   1.69746   1.70100
 Alpha virt. eigenvalues --    1.70790   1.71445   1.72041   1.72671   1.73226
 Alpha virt. eigenvalues --    1.73454   1.74285   1.74755   1.75394   1.76408
 Alpha virt. eigenvalues --    1.77518   1.78024   1.78543   1.79238   1.80247
 Alpha virt. eigenvalues --    1.80595   1.81980   1.83026   1.83622   1.83981
 Alpha virt. eigenvalues --    1.84928   1.85774   1.86377   1.86666   1.87380
 Alpha virt. eigenvalues --    1.87878   1.88335   1.89853   1.91208   1.91858
 Alpha virt. eigenvalues --    1.92783   1.93387   1.94618   1.95342   1.96798
 Alpha virt. eigenvalues --    1.97927   1.99448   2.00863   2.01235   2.03004
 Alpha virt. eigenvalues --    2.03717   2.03876   2.04095   2.05576   2.07047
 Alpha virt. eigenvalues --    2.07221   2.07772   2.08274   2.08840   2.09724
 Alpha virt. eigenvalues --    2.11305   2.12249   2.14068   2.14639   2.16558
 Alpha virt. eigenvalues --    2.17396   2.18011   2.18840   2.21246   2.21563
 Alpha virt. eigenvalues --    2.22842   2.23806   2.24689   2.25481   2.27196
 Alpha virt. eigenvalues --    2.27276   2.30093   2.32007   2.33267   2.34572
 Alpha virt. eigenvalues --    2.35607   2.37308   2.39037   2.40465   2.42832
 Alpha virt. eigenvalues --    2.44415   2.47007   2.47963   2.49936   2.51263
 Alpha virt. eigenvalues --    2.52081   2.52733   2.54496   2.54865   2.55378
 Alpha virt. eigenvalues --    2.55735   2.55909   2.56604   2.56820   2.57703
 Alpha virt. eigenvalues --    2.58253   2.59335   2.60115   2.60679   2.61380
 Alpha virt. eigenvalues --    2.62467   2.63606   2.65213   2.66510   2.66836
 Alpha virt. eigenvalues --    2.67141   2.69449   2.69833   2.70579   2.71105
 Alpha virt. eigenvalues --    2.71209   2.72371   2.73319   2.73942   2.74687
 Alpha virt. eigenvalues --    2.75548   2.77440   2.81937   2.84135   2.84879
 Alpha virt. eigenvalues --    2.86109   2.86869   2.88218   2.89224   2.90067
 Alpha virt. eigenvalues --    2.90490   2.91842   2.93157   2.93524   2.95141
 Alpha virt. eigenvalues --    2.96012   2.97353   2.98633   2.99290   3.00285
 Alpha virt. eigenvalues --    3.00518   3.01567   3.03248   3.03585   3.04382
 Alpha virt. eigenvalues --    3.06013   3.06532   3.07973   3.08220   3.09672
 Alpha virt. eigenvalues --    3.10048   3.11966   3.12665   3.13240   3.14040
 Alpha virt. eigenvalues --    3.15026   3.15970   3.16682   3.17078   3.17967
 Alpha virt. eigenvalues --    3.18832   3.19193   3.20581   3.20955   3.22224
 Alpha virt. eigenvalues --    3.23193   3.24835   3.25478   3.25931   3.26407
 Alpha virt. eigenvalues --    3.26737   3.27217   3.28024   3.28725   3.29962
 Alpha virt. eigenvalues --    3.31098   3.31422   3.32429   3.33378   3.34521
 Alpha virt. eigenvalues --    3.35019   3.36096   3.37536   3.37851   3.39480
 Alpha virt. eigenvalues --    3.39881   3.41421   3.41848   3.42858   3.45196
 Alpha virt. eigenvalues --    3.46999   3.47823   3.50870   3.52046   3.53645
 Alpha virt. eigenvalues --    3.55348   3.59782   3.61493   3.66157   3.74510
 Alpha virt. eigenvalues --    3.77201   3.78125   3.81054   3.88089   3.88758
 Alpha virt. eigenvalues --    3.89690   3.97431   3.98991   4.01610   4.03201
 Alpha virt. eigenvalues --    4.05773   4.06107   4.10092   4.10692   4.13000
 Alpha virt. eigenvalues --    4.16584   4.18120   4.19835   4.22072   4.23060
 Alpha virt. eigenvalues --    4.24084   4.27539   4.29050   4.33223   4.45408
 Alpha virt. eigenvalues --    4.61561   5.14608   5.17053   5.17804   5.21954
 Alpha virt. eigenvalues --    5.24179   5.27999   5.31517   5.32617   5.42574
 Alpha virt. eigenvalues --    5.43515   5.57003   5.66841   5.74185   5.78897
 Alpha virt. eigenvalues --    5.84427  23.45340  23.47531  23.51382  23.52651
 Alpha virt. eigenvalues --   23.61889  23.65768  23.66248  23.67284  23.69404
 Alpha virt. eigenvalues --   23.70961  23.73065  23.74231  23.76777  23.79297
 Alpha virt. eigenvalues --   23.79413  23.80488  23.82776  23.84735  23.87011
 Alpha virt. eigenvalues --   23.87234  23.89359  23.91177  23.96885  24.18694
 Alpha virt. eigenvalues --   24.19935  24.23560  49.99443  50.00416  50.02070
 Alpha virt. eigenvalues --   50.03074  50.07606
          Condensed to atoms (all electrons):
 Mulliken atomic charges:
              1
     1  C   -0.248297
     2  C    0.724752
     3  C   -0.275734
     4  C   -0.888075
     5  C    1.165340
     6  C   -0.742570
     7  C   -0.992695
     8  C    0.476349
     9  C    0.740947
    10  C   -0.694016
    11  C   -0.228195
    12  O   -0.160802
    13  C    0.395046
    14  C   -0.396502
    15  C   -0.960916
    16  O   -0.201233
    17  C   -0.375796
    18  C    0.648114
    19  O    0.156848
    20  C   -1.134697
    21  O   -0.007687
    22  C   -0.544734
    23  C   -0.491717
    24  O    0.048122
    25  C    0.903120
    26  C   -1.011018
    27  C   -1.018561
    28  C   -0.844714
    29  C   -0.672541
    30  H    0.237893
    31  H    0.276305
    32  C   -1.063672
    33  H    0.201860
    34  H    0.238757
    35  H    0.283052
    36  H    0.277358
    37  H    0.243605
    38  H    0.230298
    39  H    0.237503
    40  H    0.270040
    41  H    0.263828
    42  H    0.265657
    43  H    0.286051
    44  H    0.286606
    45  H    0.252215
    46  H    0.279572
    47  H    0.233676
    48  H    0.268403
    49  H    0.263693
    50  H    0.255287
    51  H    0.230179
    52  H    0.238028
    53  H    0.265336
    54  H    0.252168
    55  H    0.309274
    56  H    0.259486
    57  H    0.268963
    58  H    0.263933
    59  H    0.257200
    60  H    0.253432
    61  H    0.258909
    62  C   -1.085268
    63  H    0.244529
    64  H    0.250635
    65  H    0.277070
 Sum of Mulliken atomic charges =   0.00000
 Mulliken charges with hydrogens summed into heavy atoms:
              1
     1  C   -0.046438
     2  C    0.724752
     3  C    0.000571
     4  C   -0.888075
     5  C    1.165340
     6  C   -0.220760
     7  C   -0.992695
     8  C    0.476349
     9  C    0.740947
    10  C   -0.694016
    11  C   -0.228195
    12  O   -0.160802
    13  C    0.672404
    14  C    0.077401
    15  C   -0.189545
    16  O   -0.201233
    17  C   -0.137904
    18  C    0.648114
    19  O    0.156848
    20  C   -0.582990
    21  O    0.278919
    22  C   -0.012948
    23  C   -0.258041
    24  O    0.048122
    25  C    0.903120
    26  C   -0.223635
    27  C   -0.550353
    28  C   -0.017936
    29  C    0.119841
    32  C   -0.294131
    62  C   -0.313034
 Sum of Mulliken charges with hydrogens summed into heavy atoms =   0.00000
 Electronic spatial extent (au):  <R**2>=          11261.6014
 Charge=              0.0000 electrons
 Dipole moment (field-independent basis, Debye):
    X=              4.7844    Y=              1.7307    Z=             -2.7680  Tot=              5.7921
 Quadrupole moment (field-independent basis, Debye-Ang):
   XX=           -191.7674   YY=           -178.3896   ZZ=           -189.7117
   XY=              1.6488   XZ=              6.1366   YZ=             -0.0841
 Traceless Quadrupole moment (field-independent basis, Debye-Ang):
   XX=             -5.1445   YY=              8.2333   ZZ=             -3.0889
   XY=              1.6488   XZ=              6.1366   YZ=             -0.0841
 Octapole moment (field-independent basis, Debye-Ang**2):
  XXX=             46.2922  YYY=             35.2993  ZZZ=             -9.8873  XYY=              5.5786
  XXY=            -34.0585  XXZ=            -32.4307  XZZ=             23.6912  YZZ=             19.9796
  YYZ=            -30.0122  XYZ=             10.7656
 Hexadecapole moment (field-independent basis, Debye-Ang**3):
 XXXX=          -7789.8114 YYYY=          -4179.7430 ZZZZ=          -3496.6514 XXXY=             26.9988
 XXXZ=            -11.8057 YYYX=              2.5384 YYYZ=             -1.8246 ZZZX=             -6.2883
 ZZZY=              4.5932 XXYY=          -1969.9829 XXZZ=          -1868.7606 YYZZ=          -1273.0740
 XXYZ=            -11.3361 YYXZ=             -1.3861 ZZXY=            -45.1324
 N-N= 3.523740185299D+03 E-N=-1.028070277570D+04  KE= 1.381918560879D+03
 1\1\GINC-B0805\FOpt\RB3LYP\6-311+G(d)\C26H34O5\CAOFEI\13-Apr-2021\0\\#
  opt b3lyp/6-311+g(d) geom=connectivity\\Title Card Required\\0,1\C,1.
 5997536636,0.6495575097,3.157372149\C,1.6409476209,1.7597547697,2.4178
 163567\C,1.7331145678,1.6979543541,0.9095636628\C,1.5024109728,0.29629
 90675,0.263283115\C,1.0688933772,-0.8819663939,1.176140295\C,1.6586357
 317,-0.7429585992,2.5996700318\C,0.5020430154,0.5700683121,-0.89189437
 19\C,-0.9459225474,0.4556885566,-0.4686970202\C,-1.4113581943,-0.38339
 75224,0.4837086908\C,-0.4586344673,-1.1377841509,1.2997581495\C,-2.890
 9724251,-0.4394623819,0.8231093019\O,-3.4562414655,0.5673586412,1.1925
 532511\C,-3.6014253595,-1.7786248569,0.6619293186\C,-3.6048813731,-2.2
 232695883,-0.8259897864\C,-4.9956497982,-1.7563881504,1.2907714227\O,-
 0.8347595882,-1.9612189785,2.1237061197\C,0.5390399894,2.0773424524,-1
 .2152086102\C,-0.8496513567,2.3303470222,-1.8481226435\O,-1.6995146174
 ,1.3131609474,-1.1592073869\C,0.7787007149,2.6837891888,0.1790859506\O
 ,0.6929271766,-0.2938140974,-1.9989368613\C,1.7101991829,-2.0968547461
 ,0.4550156467\C,3.0319163553,-1.5313183144,-0.0497694453\O,2.742462606
 8,-0.134043518,-0.3542700396\C,3.6960689268,-2.1666084798,-1.252140972
 7\C,4.9572575155,-1.4801950303,-1.713217659\C,3.2359286799,-3.27785718
 88,-1.8295652739\C,-0.8880882038,2.0384543866,-3.3470168435\C,-1.48303
 52172,3.683306794,-1.5456984586\H,1.3475268162,2.3214477523,-1.9083470
 068\H,2.7598152099,1.9644288099,0.6271113166\C,1.6641270187,3.13201252
 35,3.0404377054\H,1.5642977274,0.7380611354,4.2412259536\H,2.703848530
 7,-1.0786056274,2.5968571226\H,1.1268609893,-1.4419209968,3.2476739958
 \H,-2.978741517,-2.5016911867,1.1998590663\H,-2.5707347385,-2.29024115
 84,-1.1800688149\H,-3.9993614855,-3.2451267712,-0.8601564015\H,-5.4856
 946267,-2.7259245519,1.1596109528\H,-5.6325243033,-0.987517818,0.85088
 11095\H,-4.9371338579,-1.5499102684,2.3616196867\H,1.1882467612,3.6944
 268756,0.1337041366\H,-0.1634857929,2.7458288161,0.729534038\H,1.65130
 4787,-0.4328134369,-2.0687257095\H,1.0814988466,-2.4158470511,-0.37795
 41382\H,1.8391237745,-2.942201257,1.1327946118\H,3.769956936,-1.527141
 7474,0.7645795964\H,4.7648049286,-0.4386353501,-1.9850303257\H,5.70472
 78299,-1.458658497,-0.91157746\H,5.3984286926,-1.9873472071,-2.5732308
 57\H,3.7566652851,-3.7306791459,-2.6678580897\H,2.3401153121,-3.786835
 482,-1.4935424188\H,-1.919914671,2.061706872,-3.7053415517\H,-0.325495
 2576,2.8032671963,-3.8904307047\H,-0.4580455174,1.0642056693,-3.573480
 9679\H,-0.8737258931,4.4847109688,-1.973148499\H,-2.4775304935,3.74082
 82917,-1.9930934933\H,-1.58841645,3.8605400932,-0.4757938079\H,1.67658
 87545,3.0704488338,4.1304055747\H,2.5518795094,3.6947269582,2.72616122
 03\H,0.7951222291,3.7326474765,2.7524495362\C,-4.4096607941,-1.3319512
 801,-1.7772786784\H,-4.3345869532,-1.7039418199,-2.803304778\H,-5.4708
 76272,-1.309115755,-1.5170824561\H,-4.0463047987,-0.3007228698,-1.7737
 57553\\Version=EM64L-G09RevB.01\State=1-A\HF=-1387.6496557\RMSD=7.383e
 -09\RMSF=3.933e-06\Dipole=1.9025984,0.6636842,-1.0641623\Quadrupole=-3
 .9603236,6.1086934,-2.1483698,1.3087741,4.5244526,-0.1316373\PG=C01 [X
 (C26H34O5)]\\@


 I WANT TO KNOW HOW GOD CREATED THE WORLD.  I AM NOT INTERESTED IN
 THIS OR THAT PHENOMENON, IN THE SPECTRUM OF THIS OR THAT ELEMENT.
 I WANT TO KNOW HIS THOUGHTS, THE REST ARE DETAILS.
     -- ALBERT EINSTEIN
 Job cpu time:  1 days  9 hours 23 minutes 34.8 seconds.
 File lengths (MBytes):  RWF=    372 Int=      0 D2E=      0 Chk=     38 Scr=      1
 Normal termination of Gaussian 09 at Tue Apr 13 23:16:49 2021.
