 Entering Gaussian System, Link 0=g09
 Initial command:
 /public/software/g09/g09/l1.exe /tmp/Gau-15374.inp -scrdir=/tmp/
 Entering Link 1 = /public/software/g09/g09/l1.exe PID=     15375.
  
 Copyright (c) 1988,1990,1992,1993,1995,1998,2003,2009,2010,
            Gaussian, Inc.  All Rights Reserved.
  
 This is part of the Gaussian(R) 09 program.  It is based on
 the Gaussian(R) 03 system (copyright 2003, Gaussian, Inc.),
 the Gaussian(R) 98 system (copyright 1998, Gaussian, Inc.),
 the Gaussian(R) 94 system (copyright 1995, Gaussian, Inc.),
 the Gaussian 92(TM) system (copyright 1992, Gaussian, Inc.),
 the Gaussian 90(TM) system (copyright 1990, Gaussian, Inc.),
 the Gaussian 88(TM) system (copyright 1988, Gaussian, Inc.),
 the Gaussian 86(TM) system (copyright 1986, Carnegie Mellon
 University), and the Gaussian 82(TM) system (copyright 1983,
 Carnegie Mellon University). Gaussian is a federally registered
 trademark of Gaussian, Inc.
  
 This software contains proprietary and confidential information,
 including trade secrets, belonging to Gaussian, Inc.
  
 This software is provided under written license and may be
 used, copied, transmitted, or stored only in accord with that
 written license.
  
 The following legend is applicable only to US Government
 contracts under FAR:
  
                    RESTRICTED RIGHTS LEGEND
  
 Use, reproduction and disclosure by the US Government is
 subject to restrictions as set forth in subparagraphs (a)
 and (c) of the Commercial Computer Software - Restricted
 Rights clause in FAR 52.227-19.
  
 Gaussian, Inc.
 340 Quinnipiac St., Bldg. 40, Wallingford CT 06492
  
  
 ---------------------------------------------------------------
 Warning -- This program may not be used in any manner that
 competes with the business of Gaussian, Inc. or will provide
 assistance to any competitor of Gaussian, Inc.  The licensee
 of this program is prohibited from giving any competitor of
 Gaussian, Inc. access to this program.  By using this program,
 the user acknowledges that Gaussian, Inc. is engaged in the
 business of creating and licensing software in the field of
 computational chemistry and represents and warrants to the
 licensee that it is not a competitor of Gaussian, Inc. and that
 it will not use this program in any manner prohibited above.
 ---------------------------------------------------------------
  

 Cite this work as:
 Gaussian 09, Revision B.01,
 M. J. Frisch, G. W. Trucks, H. B. Schlegel, G. E. Scuseria, 
 M. A. Robb, J. R. Cheeseman, G. Scalmani, V. Barone, B. Mennucci, 
 G. A. Petersson, H. Nakatsuji, M. Caricato, X. Li, H. P. Hratchian, 
 A. F. Izmaylov, J. Bloino, G. Zheng, J. L. Sonnenberg, M. Hada, 
 M. Ehara, K. Toyota, R. Fukuda, J. Hasegawa, M. Ishida, T. Nakajima, 
 Y. Honda, O. Kitao, H. Nakai, T. Vreven, J. A. Montgomery, Jr., 
 J. E. Peralta, F. Ogliaro, M. Bearpark, J. J. Heyd, E. Brothers, 
 K. N. Kudin, V. N. Staroverov, T. Keith, R. Kobayashi, J. Normand, 
 K. Raghavachari, A. Rendell, J. C. Burant, S. S. Iyengar, J. Tomasi, 
 M. Cossi, N. Rega, J. M. Millam, M. Klene, J. E. Knox, J. B. Cross, 
 V. Bakken, C. Adamo, J. Jaramillo, R. Gomperts, R. E. Stratmann, 
 O. Yazyev, A. J. Austin, R. Cammi, C. Pomelli, J. W. Ochterski, 
 R. L. Martin, K. Morokuma, V. G. Zakrzewski, G. A. Voth, 
 P. Salvador, J. J. Dannenberg, S. Dapprich, A. D. Daniels, 
 O. Farkas, J. B. Foresman, J. V. Ortiz, J. Cioslowski, 
 and D. J. Fox, Gaussian, Inc., Wallingford CT, 2010.
 
 ******************************************
 Gaussian 09:  EM64L-G09RevB.01 12-Aug-2010
                13-Apr-2021 
 ******************************************
 %mem=600MW
 %nprocshared=10
 Will use up to   10 processors via shared memory.
 ----------------------------------------
 # opt b3lyp/6-311+g(d) geom=connectivity
 ----------------------------------------
 1/14=-1,18=20,19=15,26=3,38=1,57=2/1,3;
 2/9=110,12=2,17=6,18=5,40=1/2;
 3/5=4,6=6,7=11,11=2,16=1,25=1,30=1,71=1,74=-5/1,2,3;
 4//1;
 5/5=2,38=5/2;
 6/7=2,8=2,9=2,10=2,28=1/1;
 7//1,2,3,16;
 1/14=-1,18=20,19=15/3(2);
 2/9=110/2;
 99//99;
 2/9=110/2;
 3/5=4,6=6,7=11,11=2,16=1,25=1,30=1,71=1,74=-5/1,2,3;
 4/5=5,16=3/1;
 5/5=2,38=5/2;
 7//1,2,3,16;
 1/14=-1,18=20,19=15/3(-5);
 2/9=110/2;
 6/7=2,8=2,9=2,10=2,19=2,28=1/1;
 99/9=1/99;
 -------------------
 Title Card Required
 -------------------
 Symbolic Z-matrix:
 Charge =  0 Multiplicity = 1
 C                     1.76108   0.4274    2.9053 
 C                     2.17765   1.48395   2.19693 
 C                     1.74111   1.65721   0.76059 
 C                     1.38913   0.34827  -0.01854 
 C                     1.11906  -0.93874   0.83737 
 C                     0.85162  -0.63061   2.34189 
 C                     0.21514   0.762    -0.96646 
 C                    -1.1433    0.30509  -0.46065 
 C                    -1.35792  -0.90624   0.10121 
 C                    -0.14407  -1.71887   0.37671 
 C                    -2.68417  -1.43228   0.56677 
 O                    -2.76492  -1.97174   1.6591 
 C                    -3.87781  -1.35236  -0.38572 
 C                    -5.21725  -1.32383   0.36595 
 C                    -3.78064  -2.56959  -1.33455 
 O                    -0.15476  -2.93715   0.3641 
 C                     0.04199   2.29483  -0.87047 
 C                    -1.45772   2.50231  -1.17861 
 O                    -2.07376   1.25432  -0.65583 
 C                     0.51414   2.58662   0.56736 
 O                     0.38481   0.25455  -2.2743 
 C                     2.39442  -1.79768   0.6328 
 C                     3.35294  -0.91883  -0.17288 
 O                     2.48356   0.00017  -0.87959 
 C                     4.28855  -1.56367  -1.17182 
 C                     5.04256  -0.60068  -2.05681 
 C                     4.48606  -2.8838   -1.22415 
 C                    -1.73895   2.56168  -2.68229 
 C                    -2.14149   3.6507   -0.44347 
 H                     0.67345   2.80596  -1.60329 
 H                     2.56911   2.09985   0.18965 
 C                     3.0585    2.56127   2.77529 
 H                     2.05837   0.32763   3.94835 
 H                     0.95496  -1.56844   2.89804 
 H                    -0.19791  -0.33187   2.47817 
 H                    -3.77739  -0.44303  -0.98962 
 H                    -5.26647  -2.19733   1.02606 
 H                    -6.02529  -1.43359  -0.36998 
 H                    -2.81668  -2.60183  -1.85339 
 H                    -4.57394  -2.52248  -2.08897 
 H                    -3.89293  -3.5037   -0.77323 
 H                    -0.26291   2.32154   1.29427 
 H                     0.76245   3.63991   0.73005 
 H                     1.30597  -0.07695  -2.2972 
 H                     2.83919  -2.10583   1.58259 
 H                     2.11767  -2.70219   0.0866 
 H                     3.96455  -0.31363   0.51697 
 H                     5.61793   0.11746  -1.45624 
 H                     4.35596  -0.011    -2.6747 
 H                     5.73779  -1.12785  -2.7167 
 H                     5.202    -3.3145   -1.9196 
 H                     3.95983  -3.58322  -0.58283 
 H                    -2.81776   2.51274  -2.86304 
 H                    -1.36453   3.50465  -3.09693 
 H                    -1.25055   1.73523  -3.20364 
 H                    -1.71937   4.60764  -0.76949 
 H                    -2.02376   3.56933   0.63992 
 H                    -3.21242   3.65676  -0.67026 
 H                     3.30996   2.35701   3.82079 
 H                     3.99653   2.65455   2.2103 
 H                     2.57095   3.54518   2.7332 
 C                    -5.44022  -0.04754   1.1844 
 H                    -5.38442   0.84708   0.55142 
 H                    -4.68696   0.05015   1.97325 
 H                    -6.4253   -0.05591   1.6649 
 

 GradGradGradGradGradGradGradGradGradGradGradGradGradGradGradGradGradGrad
 Berny optimization.
 Initialization pass.
                           ----------------------------
                           !    Initial Parameters    !
                           ! (Angstroms and Degrees)  !
 --------------------------                            --------------------------
 ! Name  Definition              Value          Derivative Info.                !
 --------------------------------------------------------------------------------
 ! R1    R(1,2)                  1.3385         estimate D2E/DX2                !
 ! R2    R(1,6)                  1.5046         estimate D2E/DX2                !
 ! R3    R(1,33)                 1.0892         estimate D2E/DX2                !
 ! R4    R(2,3)                  1.5112         estimate D2E/DX2                !
 ! R5    R(2,32)                 1.507          estimate D2E/DX2                !
 ! R6    R(3,4)                  1.5634         estimate D2E/DX2                !
 ! R7    R(3,20)                 1.5513         estimate D2E/DX2                !
 ! R8    R(3,31)                 1.0989         estimate D2E/DX2                !
 ! R9    R(4,5)                  1.5691         estimate D2E/DX2                !
 ! R10   R(4,7)                  1.5646         estimate D2E/DX2                !
 ! R11   R(4,24)                 1.4354         estimate D2E/DX2                !
 ! R12   R(5,6)                  1.5589         estimate D2E/DX2                !
 ! R13   R(5,10)                 1.5544         estimate D2E/DX2                !
 ! R14   R(5,22)                 1.5512         estimate D2E/DX2                !
 ! R15   R(6,34)                 1.0952         estimate D2E/DX2                !
 ! R16   R(6,35)                 1.0997         estimate D2E/DX2                !
 ! R17   R(7,8)                  1.5199         estimate D2E/DX2                !
 ! R18   R(7,17)                 1.5456         estimate D2E/DX2                !
 ! R19   R(7,21)                 1.4131         estimate D2E/DX2                !
 ! R20   R(8,9)                  1.3524         estimate D2E/DX2                !
 ! R21   R(8,19)                 1.3435         estimate D2E/DX2                !
 ! R22   R(9,10)                 1.4865         estimate D2E/DX2                !
 ! R23   R(9,11)                 1.5008         estimate D2E/DX2                !
 ! R24   R(10,16)                1.2184         estimate D2E/DX2                !
 ! R25   R(11,12)                1.2209         estimate D2E/DX2                !
 ! R26   R(11,13)                1.5292         estimate D2E/DX2                !
 ! R27   R(13,14)                1.5362         estimate D2E/DX2                !
 ! R28   R(13,15)                1.5464         estimate D2E/DX2                !
 ! R29   R(13,36)                1.0962         estimate D2E/DX2                !
 ! R30   R(14,37)                1.096          estimate D2E/DX2                !
 ! R31   R(14,38)                1.0984         estimate D2E/DX2                !
 ! R32   R(14,62)                1.5325         estimate D2E/DX2                !
 ! R33   R(15,39)                1.0952         estimate D2E/DX2                !
 ! R34   R(15,40)                1.0958         estimate D2E/DX2                !
 ! R35   R(15,41)                1.0956         estimate D2E/DX2                !
 ! R36   R(17,18)                1.545          estimate D2E/DX2                !
 ! R37   R(17,20)                1.5412         estimate D2E/DX2                !
 ! R38   R(17,30)                1.0941         estimate D2E/DX2                !
 ! R39   R(18,19)                1.4867         estimate D2E/DX2                !
 ! R40   R(18,28)                1.5309         estimate D2E/DX2                !
 ! R41   R(18,29)                1.5254         estimate D2E/DX2                !
 ! R42   R(20,42)                1.0966         estimate D2E/DX2                !
 ! R43   R(20,43)                1.0943         estimate D2E/DX2                !
 ! R44   R(21,44)                0.9793         estimate D2E/DX2                !
 ! R45   R(22,23)                1.5298         estimate D2E/DX2                !
 ! R46   R(22,45)                1.0931         estimate D2E/DX2                !
 ! R47   R(22,46)                1.0923         estimate D2E/DX2                !
 ! R48   R(23,24)                1.4491         estimate D2E/DX2                !
 ! R49   R(23,25)                1.513          estimate D2E/DX2                !
 ! R50   R(23,47)                1.1028         estimate D2E/DX2                !
 ! R51   R(24,44)                1.8445         estimate D2E/DX2                !
 ! R52   R(25,26)                1.5097         estimate D2E/DX2                !
 ! R53   R(25,27)                1.3358         estimate D2E/DX2                !
 ! R54   R(26,48)                1.0988         estimate D2E/DX2                !
 ! R55   R(26,49)                1.0959         estimate D2E/DX2                !
 ! R56   R(26,50)                1.0939         estimate D2E/DX2                !
 ! R57   R(27,51)                1.0871         estimate D2E/DX2                !
 ! R58   R(27,52)                1.0851         estimate D2E/DX2                !
 ! R59   R(28,53)                1.0949         estimate D2E/DX2                !
 ! R60   R(28,54)                1.096          estimate D2E/DX2                !
 ! R61   R(28,55)                1.0924         estimate D2E/DX2                !
 ! R62   R(29,56)                1.0955         estimate D2E/DX2                !
 ! R63   R(29,57)                1.0928         estimate D2E/DX2                !
 ! R64   R(29,58)                1.0947         estimate D2E/DX2                !
 ! R65   R(32,59)                1.0945         estimate D2E/DX2                !
 ! R66   R(32,60)                1.099          estimate D2E/DX2                !
 ! R67   R(32,61)                1.0989         estimate D2E/DX2                !
 ! R68   R(62,63)                1.0973         estimate D2E/DX2                !
 ! R69   R(62,64)                1.0951         estimate D2E/DX2                !
 ! R70   R(62,65)                1.096          estimate D2E/DX2                !
 ! A1    A(2,1,6)              123.0239         estimate D2E/DX2                !
 ! A2    A(2,1,33)             119.6144         estimate D2E/DX2                !
 ! A3    A(6,1,33)             117.3337         estimate D2E/DX2                !
 ! A4    A(1,2,3)              120.2389         estimate D2E/DX2                !
 ! A5    A(1,2,32)             122.8944         estimate D2E/DX2                !
 ! A6    A(3,2,32)             116.851          estimate D2E/DX2                !
 ! A7    A(2,3,4)              116.2777         estimate D2E/DX2                !
 ! A8    A(2,3,20)             114.5545         estimate D2E/DX2                !
 ! A9    A(2,3,31)             108.806          estimate D2E/DX2                !
 ! A10   A(4,3,20)             105.1563         estimate D2E/DX2                !
 ! A11   A(4,3,31)             104.3565         estimate D2E/DX2                !
 ! A12   A(20,3,31)            106.8528         estimate D2E/DX2                !
 ! A13   A(3,4,5)              116.9772         estimate D2E/DX2                !
 ! A14   A(3,4,7)              104.4459         estimate D2E/DX2                !
 ! A15   A(3,4,24)             109.289          estimate D2E/DX2                !
 ! A16   A(5,4,7)              114.7234         estimate D2E/DX2                !
 ! A17   A(5,4,24)             105.0431         estimate D2E/DX2                !
 ! A18   A(7,4,24)             105.8313         estimate D2E/DX2                !
 ! A19   A(4,5,6)              113.196          estimate D2E/DX2                !
 ! A20   A(4,5,10)             112.9461         estimate D2E/DX2                !
 ! A21   A(4,5,22)             103.9301         estimate D2E/DX2                !
 ! A22   A(6,5,10)             104.2298         estimate D2E/DX2                !
 ! A23   A(6,5,22)             112.1972         estimate D2E/DX2                !
 ! A24   A(10,5,22)            110.5555         estimate D2E/DX2                !
 ! A25   A(1,6,5)              113.3711         estimate D2E/DX2                !
 ! A26   A(1,6,34)             110.7892         estimate D2E/DX2                !
 ! A27   A(1,6,35)             109.8431         estimate D2E/DX2                !
 ! A28   A(5,6,34)             107.7372         estimate D2E/DX2                !
 ! A29   A(5,6,35)             109.6969         estimate D2E/DX2                !
 ! A30   A(34,6,35)            105.0545         estimate D2E/DX2                !
 ! A31   A(4,7,8)              112.9251         estimate D2E/DX2                !
 ! A32   A(4,7,17)             107.9803         estimate D2E/DX2                !
 ! A33   A(4,7,21)             112.0662         estimate D2E/DX2                !
 ! A34   A(8,7,17)             100.2157         estimate D2E/DX2                !
 ! A35   A(8,7,21)             107.9013         estimate D2E/DX2                !
 ! A36   A(17,7,21)            115.2832         estimate D2E/DX2                !
 ! A37   A(7,8,9)              123.3238         estimate D2E/DX2                !
 ! A38   A(7,8,19)             110.9935         estimate D2E/DX2                !
 ! A39   A(9,8,19)             125.6819         estimate D2E/DX2                !
 ! A40   A(8,9,10)             115.9151         estimate D2E/DX2                !
 ! A41   A(8,9,11)             125.6655         estimate D2E/DX2                !
 ! A42   A(10,9,11)            118.1971         estimate D2E/DX2                !
 ! A43   A(5,10,9)             116.3666         estimate D2E/DX2                !
 ! A44   A(5,10,16)            120.7984         estimate D2E/DX2                !
 ! A45   A(9,10,16)            122.5162         estimate D2E/DX2                !
 ! A46   A(9,11,12)            119.396          estimate D2E/DX2                !
 ! A47   A(9,11,13)            118.5711         estimate D2E/DX2                !
 ! A48   A(12,11,13)           121.9192         estimate D2E/DX2                !
 ! A49   A(11,13,14)           112.1352         estimate D2E/DX2                !
 ! A50   A(11,13,15)           106.977          estimate D2E/DX2                !
 ! A51   A(11,13,36)           108.3604         estimate D2E/DX2                !
 ! A52   A(14,13,15)           111.6926         estimate D2E/DX2                !
 ! A53   A(14,13,36)           109.5133         estimate D2E/DX2                !
 ! A54   A(15,13,36)           108.0096         estimate D2E/DX2                !
 ! A55   A(13,14,37)           108.606          estimate D2E/DX2                !
 ! A56   A(13,14,38)           108.1632         estimate D2E/DX2                !
 ! A57   A(13,14,62)           113.8066         estimate D2E/DX2                !
 ! A58   A(37,14,38)           106.909          estimate D2E/DX2                !
 ! A59   A(37,14,62)           109.607          estimate D2E/DX2                !
 ! A60   A(38,14,62)           109.5119         estimate D2E/DX2                !
 ! A61   A(13,15,39)           111.6635         estimate D2E/DX2                !
 ! A62   A(13,15,40)           110.0661         estimate D2E/DX2                !
 ! A63   A(13,15,41)           110.5075         estimate D2E/DX2                !
 ! A64   A(39,15,40)           108.1986         estimate D2E/DX2                !
 ! A65   A(39,15,41)           107.929          estimate D2E/DX2                !
 ! A66   A(40,15,41)           108.3737         estimate D2E/DX2                !
 ! A67   A(7,17,18)            103.27           estimate D2E/DX2                !
 ! A68   A(7,17,20)            102.2033         estimate D2E/DX2                !
 ! A69   A(7,17,30)            110.9205         estimate D2E/DX2                !
 ! A70   A(18,17,20)           117.2577         estimate D2E/DX2                !
 ! A71   A(18,17,30)           111.34           estimate D2E/DX2                !
 ! A72   A(20,17,30)           111.0761         estimate D2E/DX2                !
 ! A73   A(17,18,19)           102.6708         estimate D2E/DX2                !
 ! A74   A(17,18,28)           112.2971         estimate D2E/DX2                !
 ! A75   A(17,18,29)           116.1098         estimate D2E/DX2                !
 ! A76   A(19,18,28)           107.5671         estimate D2E/DX2                !
 ! A77   A(19,18,29)           106.0671         estimate D2E/DX2                !
 ! A78   A(28,18,29)           111.2127         estimate D2E/DX2                !
 ! A79   A(8,19,18)            110.9292         estimate D2E/DX2                !
 ! A80   A(3,20,17)            104.1862         estimate D2E/DX2                !
 ! A81   A(3,20,42)            109.4552         estimate D2E/DX2                !
 ! A82   A(3,20,43)            112.251          estimate D2E/DX2                !
 ! A83   A(17,20,42)           110.828          estimate D2E/DX2                !
 ! A84   A(17,20,43)           112.9808         estimate D2E/DX2                !
 ! A85   A(42,20,43)           107.152          estimate D2E/DX2                !
 ! A86   A(7,21,44)            104.8424         estimate D2E/DX2                !
 ! A87   A(5,22,23)            105.456          estimate D2E/DX2                !
 ! A88   A(5,22,45)            112.0886         estimate D2E/DX2                !
 ! A89   A(5,22,46)            108.4317         estimate D2E/DX2                !
 ! A90   A(23,22,45)           111.3839         estimate D2E/DX2                !
 ! A91   A(23,22,46)           111.7856         estimate D2E/DX2                !
 ! A92   A(45,22,46)           107.7071         estimate D2E/DX2                !
 ! A93   A(22,23,24)           104.1981         estimate D2E/DX2                !
 ! A94   A(22,23,25)           119.3629         estimate D2E/DX2                !
 ! A95   A(22,23,47)           109.4696         estimate D2E/DX2                !
 ! A96   A(24,23,25)           108.6213         estimate D2E/DX2                !
 ! A97   A(24,23,47)           106.8442         estimate D2E/DX2                !
 ! A98   A(25,23,47)           107.6948         estimate D2E/DX2                !
 ! A99   A(4,24,23)            108.5837         estimate D2E/DX2                !
 ! A100  A(23,25,26)           115.0897         estimate D2E/DX2                !
 ! A101  A(23,25,27)           122.5811         estimate D2E/DX2                !
 ! A102  A(26,25,27)           122.2469         estimate D2E/DX2                !
 ! A103  A(25,26,48)           110.978          estimate D2E/DX2                !
 ! A104  A(25,26,49)           111.1524         estimate D2E/DX2                !
 ! A105  A(25,26,50)           111.324          estimate D2E/DX2                !
 ! A106  A(48,26,49)           106.5325         estimate D2E/DX2                !
 ! A107  A(48,26,50)           108.1706         estimate D2E/DX2                !
 ! A108  A(49,26,50)           108.5042         estimate D2E/DX2                !
 ! A109  A(25,27,51)           120.9292         estimate D2E/DX2                !
 ! A110  A(25,27,52)           122.8291         estimate D2E/DX2                !
 ! A111  A(51,27,52)           116.2398         estimate D2E/DX2                !
 ! A112  A(18,28,53)           109.962          estimate D2E/DX2                !
 ! A113  A(18,28,54)           110.0103         estimate D2E/DX2                !
 ! A114  A(18,28,55)           110.934          estimate D2E/DX2                !
 ! A115  A(53,28,54)           108.2149         estimate D2E/DX2                !
 ! A116  A(53,28,55)           109.1418         estimate D2E/DX2                !
 ! A117  A(54,28,55)           108.5182         estimate D2E/DX2                !
 ! A118  A(18,29,56)           109.9664         estimate D2E/DX2                !
 ! A119  A(18,29,57)           111.928          estimate D2E/DX2                !
 ! A120  A(18,29,58)           110.0506         estimate D2E/DX2                !
 ! A121  A(56,29,57)           108.5754         estimate D2E/DX2                !
 ! A122  A(56,29,58)           108.0868         estimate D2E/DX2                !
 ! A123  A(57,29,58)           108.1315         estimate D2E/DX2                !
 ! A124  A(2,32,59)            111.5597         estimate D2E/DX2                !
 ! A125  A(2,32,60)            111.2396         estimate D2E/DX2                !
 ! A126  A(2,32,61)            111.4724         estimate D2E/DX2                !
 ! A127  A(59,32,60)           108.1077         estimate D2E/DX2                !
 ! A128  A(59,32,61)           107.7946         estimate D2E/DX2                !
 ! A129  A(60,32,61)           106.4392         estimate D2E/DX2                !
 ! A130  A(14,62,63)           111.3158         estimate D2E/DX2                !
 ! A131  A(14,62,64)           111.0343         estimate D2E/DX2                !
 ! A132  A(14,62,65)           111.0105         estimate D2E/DX2                !
 ! A133  A(63,62,64)           107.9279         estimate D2E/DX2                !
 ! A134  A(63,62,65)           107.7472         estimate D2E/DX2                !
 ! A135  A(64,62,65)           107.6434         estimate D2E/DX2                !
 ! D1    D(6,1,2,3)             -0.2031         estimate D2E/DX2                !
 ! D2    D(6,1,2,32)           178.3042         estimate D2E/DX2                !
 ! D3    D(33,1,2,3)          -178.2286         estimate D2E/DX2                !
 ! D4    D(33,1,2,32)            0.2787         estimate D2E/DX2                !
 ! D5    D(2,1,6,5)             35.7886         estimate D2E/DX2                !
 ! D6    D(2,1,6,34)           157.0575         estimate D2E/DX2                !
 ! D7    D(2,1,6,35)           -87.3245         estimate D2E/DX2                !
 ! D8    D(33,1,6,5)          -146.1438         estimate D2E/DX2                !
 ! D9    D(33,1,6,34)          -24.8748         estimate D2E/DX2                !
 ! D10   D(33,1,6,35)           90.7432         estimate D2E/DX2                !
 ! D11   D(1,2,3,4)            -27.0115         estimate D2E/DX2                !
 ! D12   D(1,2,3,20)            96.0922         estimate D2E/DX2                !
 ! D13   D(1,2,3,31)          -144.416          estimate D2E/DX2                !
 ! D14   D(32,2,3,4)           154.3933         estimate D2E/DX2                !
 ! D15   D(32,2,3,20)          -82.503          estimate D2E/DX2                !
 ! D16   D(32,2,3,31)           36.9889         estimate D2E/DX2                !
 ! D17   D(1,2,32,59)            0.6121         estimate D2E/DX2                !
 ! D18   D(1,2,32,60)          121.4166         estimate D2E/DX2                !
 ! D19   D(1,2,32,61)         -119.9535         estimate D2E/DX2                !
 ! D20   D(3,2,32,59)          179.1667         estimate D2E/DX2                !
 ! D21   D(3,2,32,60)          -60.0289         estimate D2E/DX2                !
 ! D22   D(3,2,32,61)           58.6011         estimate D2E/DX2                !
 ! D23   D(2,3,4,5)             17.1314         estimate D2E/DX2                !
 ! D24   D(2,3,4,7)            145.1383         estimate D2E/DX2                !
 ! D25   D(2,3,4,24)          -101.9928         estimate D2E/DX2                !
 ! D26   D(20,3,4,5)          -110.7404         estimate D2E/DX2                !
 ! D27   D(20,3,4,7)            17.2665         estimate D2E/DX2                !
 ! D28   D(20,3,4,24)          130.1355         estimate D2E/DX2                !
 ! D29   D(31,3,4,5)           136.9648         estimate D2E/DX2                !
 ! D30   D(31,3,4,7)           -95.0283         estimate D2E/DX2                !
 ! D31   D(31,3,4,24)           17.8406         estimate D2E/DX2                !
 ! D32   D(2,3,20,17)         -164.9673         estimate D2E/DX2                !
 ! D33   D(2,3,20,42)          -46.3962         estimate D2E/DX2                !
 ! D34   D(2,3,20,43)           72.4494         estimate D2E/DX2                !
 ! D35   D(4,3,20,17)          -36.0619         estimate D2E/DX2                !
 ! D36   D(4,3,20,42)           82.5091         estimate D2E/DX2                !
 ! D37   D(4,3,20,43)         -158.6452         estimate D2E/DX2                !
 ! D38   D(31,3,20,17)          74.4542         estimate D2E/DX2                !
 ! D39   D(31,3,20,42)        -166.9747         estimate D2E/DX2                !
 ! D40   D(31,3,20,43)         -48.129          estimate D2E/DX2                !
 ! D41   D(3,4,5,6)             16.2237         estimate D2E/DX2                !
 ! D42   D(3,4,5,10)           134.3768         estimate D2E/DX2                !
 ! D43   D(3,4,5,22)          -105.7656         estimate D2E/DX2                !
 ! D44   D(7,4,5,6)           -106.6337         estimate D2E/DX2                !
 ! D45   D(7,4,5,10)            11.5194         estimate D2E/DX2                !
 ! D46   D(7,4,5,22)           131.377          estimate D2E/DX2                !
 ! D47   D(24,4,5,6)           137.5977         estimate D2E/DX2                !
 ! D48   D(24,4,5,10)         -104.2492         estimate D2E/DX2                !
 ! D49   D(24,4,5,22)           15.6083         estimate D2E/DX2                !
 ! D50   D(3,4,7,8)           -102.293          estimate D2E/DX2                !
 ! D51   D(3,4,7,17)             7.5662         estimate D2E/DX2                !
 ! D52   D(3,4,7,21)           135.596          estimate D2E/DX2                !
 ! D53   D(5,4,7,8)             27.0776         estimate D2E/DX2                !
 ! D54   D(5,4,7,17)           136.9368         estimate D2E/DX2                !
 ! D55   D(5,4,7,21)           -95.0334         estimate D2E/DX2                !
 ! D56   D(24,4,7,8)           142.3907         estimate D2E/DX2                !
 ! D57   D(24,4,7,17)         -107.7501         estimate D2E/DX2                !
 ! D58   D(24,4,7,21)           20.2797         estimate D2E/DX2                !
 ! D59   D(3,4,24,23)           93.0484         estimate D2E/DX2                !
 ! D60   D(5,4,24,23)          -33.2314         estimate D2E/DX2                !
 ! D61   D(7,4,24,23)         -154.9914         estimate D2E/DX2                !
 ! D62   D(4,5,6,1)            -41.4117         estimate D2E/DX2                !
 ! D63   D(4,5,6,34)          -164.38           estimate D2E/DX2                !
 ! D64   D(4,5,6,35)            81.7819         estimate D2E/DX2                !
 ! D65   D(10,5,6,1)          -164.5217         estimate D2E/DX2                !
 ! D66   D(10,5,6,34)           72.51           estimate D2E/DX2                !
 ! D67   D(10,5,6,35)          -41.3281         estimate D2E/DX2                !
 ! D68   D(22,5,6,1)            75.8286         estimate D2E/DX2                !
 ! D69   D(22,5,6,34)          -47.1397         estimate D2E/DX2                !
 ! D70   D(22,5,6,35)         -160.9778         estimate D2E/DX2                !
 ! D71   D(4,5,10,9)           -45.1299         estimate D2E/DX2                !
 ! D72   D(4,5,10,16)          141.1952         estimate D2E/DX2                !
 ! D73   D(6,5,10,9)            78.1428         estimate D2E/DX2                !
 ! D74   D(6,5,10,16)          -95.5322         estimate D2E/DX2                !
 ! D75   D(22,5,10,9)         -161.1035         estimate D2E/DX2                !
 ! D76   D(22,5,10,16)          25.2216         estimate D2E/DX2                !
 ! D77   D(4,5,22,23)            5.9078         estimate D2E/DX2                !
 ! D78   D(4,5,22,45)          127.2716         estimate D2E/DX2                !
 ! D79   D(4,5,22,46)         -113.9619         estimate D2E/DX2                !
 ! D80   D(6,5,22,23)         -116.7419         estimate D2E/DX2                !
 ! D81   D(6,5,22,45)            4.6219         estimate D2E/DX2                !
 ! D82   D(6,5,22,46)          123.3884         estimate D2E/DX2                !
 ! D83   D(10,5,22,23)         127.3743         estimate D2E/DX2                !
 ! D84   D(10,5,22,45)        -111.2619         estimate D2E/DX2                !
 ! D85   D(10,5,22,46)           7.5046         estimate D2E/DX2                !
 ! D86   D(4,7,8,9)            -40.6986         estimate D2E/DX2                !
 ! D87   D(4,7,8,19)           139.6156         estimate D2E/DX2                !
 ! D88   D(17,7,8,9)          -155.33           estimate D2E/DX2                !
 ! D89   D(17,7,8,19)           24.9842         estimate D2E/DX2                !
 ! D90   D(21,7,8,9)            83.7218         estimate D2E/DX2                !
 ! D91   D(21,7,8,19)          -95.964          estimate D2E/DX2                !
 ! D92   D(4,7,17,18)         -151.5312         estimate D2E/DX2                !
 ! D93   D(4,7,17,20)          -29.3607         estimate D2E/DX2                !
 ! D94   D(4,7,17,30)           89.1003         estimate D2E/DX2                !
 ! D95   D(8,7,17,18)          -33.1972         estimate D2E/DX2                !
 ! D96   D(8,7,17,20)           88.9732         estimate D2E/DX2                !
 ! D97   D(8,7,17,30)         -152.5658         estimate D2E/DX2                !
 ! D98   D(21,7,17,18)          82.3046         estimate D2E/DX2                !
 ! D99   D(21,7,17,20)        -155.5249         estimate D2E/DX2                !
 ! D100  D(21,7,17,30)         -37.064          estimate D2E/DX2                !
 ! D101  D(4,7,21,44)          -11.6387         estimate D2E/DX2                !
 ! D102  D(8,7,21,44)         -136.5732         estimate D2E/DX2                !
 ! D103  D(17,7,21,44)         112.4066         estimate D2E/DX2                !
 ! D104  D(7,8,9,10)             8.1718         estimate D2E/DX2                !
 ! D105  D(7,8,9,11)          -177.3702         estimate D2E/DX2                !
 ! D106  D(19,8,9,10)         -172.1894         estimate D2E/DX2                !
 ! D107  D(19,8,9,11)            2.2686         estimate D2E/DX2                !
 ! D108  D(7,8,19,18)           -5.6957         estimate D2E/DX2                !
 ! D109  D(9,8,19,18)          174.6275         estimate D2E/DX2                !
 ! D110  D(8,9,10,5)            36.3041         estimate D2E/DX2                !
 ! D111  D(8,9,10,16)         -150.1395         estimate D2E/DX2                !
 ! D112  D(11,9,10,5)         -138.5884         estimate D2E/DX2                !
 ! D113  D(11,9,10,16)          34.968          estimate D2E/DX2                !
 ! D114  D(8,9,11,12)         -134.0024         estimate D2E/DX2                !
 ! D115  D(8,9,11,13)           49.7981         estimate D2E/DX2                !
 ! D116  D(10,9,11,12)          40.3413         estimate D2E/DX2                !
 ! D117  D(10,9,11,13)        -135.8581         estimate D2E/DX2                !
 ! D118  D(9,11,13,14)        -154.7188         estimate D2E/DX2                !
 ! D119  D(9,11,13,15)          82.502          estimate D2E/DX2                !
 ! D120  D(9,11,13,36)         -33.7248         estimate D2E/DX2                !
 ! D121  D(12,11,13,14)         29.1825         estimate D2E/DX2                !
 ! D122  D(12,11,13,15)        -93.5967         estimate D2E/DX2                !
 ! D123  D(12,11,13,36)        150.1765         estimate D2E/DX2                !
 ! D124  D(11,13,14,37)        -55.1238         estimate D2E/DX2                !
 ! D125  D(11,13,14,38)       -170.8095         estimate D2E/DX2                !
 ! D126  D(11,13,14,62)         67.256          estimate D2E/DX2                !
 ! D127  D(15,13,14,37)         64.9463         estimate D2E/DX2                !
 ! D128  D(15,13,14,38)        -50.7393         estimate D2E/DX2                !
 ! D129  D(15,13,14,62)       -172.6739         estimate D2E/DX2                !
 ! D130  D(36,13,14,37)       -175.4506         estimate D2E/DX2                !
 ! D131  D(36,13,14,38)         68.8638         estimate D2E/DX2                !
 ! D132  D(36,13,14,62)        -53.0708         estimate D2E/DX2                !
 ! D133  D(11,13,15,39)        -55.6703         estimate D2E/DX2                !
 ! D134  D(11,13,15,40)       -175.8594         estimate D2E/DX2                !
 ! D135  D(11,13,15,41)         64.4764         estimate D2E/DX2                !
 ! D136  D(14,13,15,39)       -178.7245         estimate D2E/DX2                !
 ! D137  D(14,13,15,40)         61.0863         estimate D2E/DX2                !
 ! D138  D(14,13,15,41)        -58.5779         estimate D2E/DX2                !
 ! D139  D(36,13,15,39)         60.7892         estimate D2E/DX2                !
 ! D140  D(36,13,15,40)        -59.4            estimate D2E/DX2                !
 ! D141  D(36,13,15,41)       -179.0641         estimate D2E/DX2                !
 ! D142  D(13,14,62,63)         57.4819         estimate D2E/DX2                !
 ! D143  D(13,14,62,64)        -62.7875         estimate D2E/DX2                !
 ! D144  D(13,14,62,65)        177.5064         estimate D2E/DX2                !
 ! D145  D(37,14,62,63)        179.309          estimate D2E/DX2                !
 ! D146  D(37,14,62,64)         59.0397         estimate D2E/DX2                !
 ! D147  D(37,14,62,65)        -60.6665         estimate D2E/DX2                !
 ! D148  D(38,14,62,63)        -63.7036         estimate D2E/DX2                !
 ! D149  D(38,14,62,64)        176.0271         estimate D2E/DX2                !
 ! D150  D(38,14,62,65)         56.3209         estimate D2E/DX2                !
 ! D151  D(7,17,18,19)          30.924          estimate D2E/DX2                !
 ! D152  D(7,17,18,28)         -84.3249         estimate D2E/DX2                !
 ! D153  D(7,17,18,29)         146.1442         estimate D2E/DX2                !
 ! D154  D(20,17,18,19)        -80.5337         estimate D2E/DX2                !
 ! D155  D(20,17,18,28)        164.2175         estimate D2E/DX2                !
 ! D156  D(20,17,18,29)         34.6865         estimate D2E/DX2                !
 ! D157  D(30,17,18,19)        150.0027         estimate D2E/DX2                !
 ! D158  D(30,17,18,28)         34.7539         estimate D2E/DX2                !
 ! D159  D(30,17,18,29)        -94.7771         estimate D2E/DX2                !
 ! D160  D(7,17,20,3)           39.911          estimate D2E/DX2                !
 ! D161  D(7,17,20,42)         -77.7171         estimate D2E/DX2                !
 ! D162  D(7,17,20,43)         162.0141         estimate D2E/DX2                !
 ! D163  D(18,17,20,3)         151.9727         estimate D2E/DX2                !
 ! D164  D(18,17,20,42)         34.3446         estimate D2E/DX2                !
 ! D165  D(18,17,20,43)        -85.9242         estimate D2E/DX2                !
 ! D166  D(30,17,20,3)         -78.4396         estimate D2E/DX2                !
 ! D167  D(30,17,20,42)        163.9323         estimate D2E/DX2                !
 ! D168  D(30,17,20,43)         43.6636         estimate D2E/DX2                !
 ! D169  D(17,18,19,8)         -16.3374         estimate D2E/DX2                !
 ! D170  D(28,18,19,8)         102.2879         estimate D2E/DX2                !
 ! D171  D(29,18,19,8)        -138.6249         estimate D2E/DX2                !
 ! D172  D(17,18,28,53)        169.0322         estimate D2E/DX2                !
 ! D173  D(17,18,28,54)        -71.8763         estimate D2E/DX2                !
 ! D174  D(17,18,28,55)         48.2038         estimate D2E/DX2                !
 ! D175  D(19,18,28,53)         56.7917         estimate D2E/DX2                !
 ! D176  D(19,18,28,54)        175.8831         estimate D2E/DX2                !
 ! D177  D(19,18,28,55)        -64.0368         estimate D2E/DX2                !
 ! D178  D(29,18,28,53)        -58.9477         estimate D2E/DX2                !
 ! D179  D(29,18,28,54)         60.1437         estimate D2E/DX2                !
 ! D180  D(29,18,28,55)       -179.7761         estimate D2E/DX2                !
 ! D181  D(17,18,29,56)         65.6758         estimate D2E/DX2                !
 ! D182  D(17,18,29,57)        -55.0954         estimate D2E/DX2                !
 ! D183  D(17,18,29,58)       -175.3629         estimate D2E/DX2                !
 ! D184  D(19,18,29,56)        178.9646         estimate D2E/DX2                !
 ! D185  D(19,18,29,57)         58.1934         estimate D2E/DX2                !
 ! D186  D(19,18,29,58)        -62.0741         estimate D2E/DX2                !
 ! D187  D(28,18,29,56)        -64.3747         estimate D2E/DX2                !
 ! D188  D(28,18,29,57)        174.8541         estimate D2E/DX2                !
 ! D189  D(28,18,29,58)         54.5866         estimate D2E/DX2                !
 ! D190  D(5,22,23,24)         -25.1954         estimate D2E/DX2                !
 ! D191  D(5,22,23,25)        -146.5455         estimate D2E/DX2                !
 ! D192  D(5,22,23,47)          88.7879         estimate D2E/DX2                !
 ! D193  D(45,22,23,24)       -147.016          estimate D2E/DX2                !
 ! D194  D(45,22,23,25)         91.6339         estimate D2E/DX2                !
 ! D195  D(45,22,23,47)        -33.0327         estimate D2E/DX2                !
 ! D196  D(46,22,23,24)         92.4358         estimate D2E/DX2                !
 ! D197  D(46,22,23,25)        -28.9143         estimate D2E/DX2                !
 ! D198  D(46,22,23,47)       -153.5809         estimate D2E/DX2                !
 ! D199  D(22,23,24,4)          37.1413         estimate D2E/DX2                !
 ! D200  D(25,23,24,4)         165.383          estimate D2E/DX2                !
 ! D201  D(47,23,24,4)         -78.6962         estimate D2E/DX2                !
 ! D202  D(22,23,25,26)        171.2996         estimate D2E/DX2                !
 ! D203  D(22,23,25,27)        -11.9346         estimate D2E/DX2                !
 ! D204  D(24,23,25,26)         52.1855         estimate D2E/DX2                !
 ! D205  D(24,23,25,27)       -131.0486         estimate D2E/DX2                !
 ! D206  D(47,23,25,26)        -63.1846         estimate D2E/DX2                !
 ! D207  D(47,23,25,27)        113.5813         estimate D2E/DX2                !
 ! D208  D(23,25,26,48)         56.4447         estimate D2E/DX2                !
 ! D209  D(23,25,26,49)        -61.9231         estimate D2E/DX2                !
 ! D210  D(23,25,26,50)        176.9891         estimate D2E/DX2                !
 ! D211  D(27,25,26,48)       -120.3331         estimate D2E/DX2                !
 ! D212  D(27,25,26,49)        121.2991         estimate D2E/DX2                !
 ! D213  D(27,25,26,50)          0.2113         estimate D2E/DX2                !
 ! D214  D(23,25,27,51)       -176.9075         estimate D2E/DX2                !
 ! D215  D(23,25,27,52)          2.5662         estimate D2E/DX2                !
 ! D216  D(26,25,27,51)         -0.371          estimate D2E/DX2                !
 ! D217  D(26,25,27,52)        179.1027         estimate D2E/DX2                !
 --------------------------------------------------------------------------------
 Trust Radius=3.00D-01 FncErr=1.00D-07 GrdErr=1.00D-06
 Number of steps in this run=    390 maximum allowed number of steps=    390.
 GradGradGradGradGradGradGradGradGradGradGradGradGradGradGradGradGradGrad

 Stoichiometry    C26H34O5
 Framework group  C1[X(C26H34O5)]
 Deg. of freedom   189
 Full point group                 C1      NOp   1
 Largest Abelian subgroup         C1      NOp   1
 Largest concise Abelian subgroup C1      NOp   1
                         Standard orientation:                         
 ---------------------------------------------------------------------
 Center     Atomic      Atomic             Coordinates (Angstroms)
 Number     Number       Type             X           Y           Z
 ---------------------------------------------------------------------
      1          6           0        1.761078    0.427395    2.905296
      2          6           0        2.177652    1.483953    2.196926
      3          6           0        1.741111    1.657211    0.760594
      4          6           0        1.389132    0.348270   -0.018544
      5          6           0        1.119059   -0.938741    0.837370
      6          6           0        0.851615   -0.630609    2.341888
      7          6           0        0.215139    0.762004   -0.966459
      8          6           0       -1.143295    0.305086   -0.460647
      9          6           0       -1.357923   -0.906244    0.101211
     10          6           0       -0.144068   -1.718871    0.376708
     11          6           0       -2.684168   -1.432284    0.566768
     12          8           0       -2.764923   -1.971737    1.659095
     13          6           0       -3.877808   -1.352358   -0.385720
     14          6           0       -5.217253   -1.323827    0.365948
     15          6           0       -3.780640   -2.569588   -1.334547
     16          8           0       -0.154756   -2.937152    0.364101
     17          6           0        0.041990    2.294826   -0.870470
     18          6           0       -1.457724    2.502308   -1.178611
     19          8           0       -2.073757    1.254318   -0.655830
     20          6           0        0.514144    2.586616    0.567362
     21          8           0        0.384810    0.254548   -2.274299
     22          6           0        2.394421   -1.797683    0.632796
     23          6           0        3.352942   -0.918829   -0.172882
     24          8           0        2.483557    0.000169   -0.879591
     25          6           0        4.288553   -1.563672   -1.171818
     26          6           0        5.042557   -0.600680   -2.056812
     27          6           0        4.486062   -2.883799   -1.224149
     28          6           0       -1.738949    2.561678   -2.682294
     29          6           0       -2.141491    3.650700   -0.443466
     30          1           0        0.673446    2.805959   -1.603293
     31          1           0        2.569108    2.099850    0.189646
     32          6           0        3.058498    2.561265    2.775289
     33          1           0        2.058372    0.327633    3.948345
     34          1           0        0.954961   -1.568437    2.898043
     35          1           0       -0.197914   -0.331874    2.478174
     36          1           0       -3.777386   -0.443026   -0.989623
     37          1           0       -5.266472   -2.197333    1.026056
     38          1           0       -6.025289   -1.433586   -0.369984
     39          1           0       -2.816679   -2.601830   -1.853393
     40          1           0       -4.573938   -2.522475   -2.088969
     41          1           0       -3.892927   -3.503702   -0.773225
     42          1           0       -0.262912    2.321538    1.294269
     43          1           0        0.762450    3.639914    0.730050
     44          1           0        1.305966   -0.076951   -2.297198
     45          1           0        2.839191   -2.105825    1.582589
     46          1           0        2.117669   -2.702193    0.086600
     47          1           0        3.964552   -0.313633    0.516971
     48          1           0        5.617933    0.117460   -1.456243
     49          1           0        4.355959   -0.010999   -2.674700
     50          1           0        5.737792   -1.127846   -2.716696
     51          1           0        5.201998   -3.314501   -1.919604
     52          1           0        3.959825   -3.583218   -0.582831
     53          1           0       -2.817759    2.512739   -2.863040
     54          1           0       -1.364531    3.504648   -3.096932
     55          1           0       -1.250547    1.735233   -3.203642
     56          1           0       -1.719367    4.607643   -0.769489
     57          1           0       -2.023756    3.569332    0.639921
     58          1           0       -3.212423    3.656759   -0.670258
     59          1           0        3.309962    2.357005    3.820786
     60          1           0        3.996531    2.654548    2.210296
     61          1           0        2.570953    3.545175    2.733202
     62          6           0       -5.440225   -0.047540    1.184396
     63          1           0       -5.384417    0.847076    0.551416
     64          1           0       -4.686957    0.050146    1.973254
     65          1           0       -6.425299   -0.055910    1.664896
 ---------------------------------------------------------------------
 Rotational constants (GHZ):      0.2186035      0.1211823      0.1074310
 Standard basis: 6-311+G(d) (5D, 7F)
 There are   784 symmetry adapted basis functions of A   symmetry.
 Integral buffers will be    131072 words long.
 Raffenetti 2 integral format.
 Two-electron integral symmetry is turned on.
   784 basis functions,  1286 primitive gaussians,   815 cartesian basis functions
   115 alpha electrons      115 beta electrons
       nuclear repulsion energy      3495.2293985047 Hartrees.
 NAtoms=   65 NActive=   65 NUniq=   65 SFac= 1.00D+00 NAtFMM=   50 NAOKFM=T Big=T
 One-electron integrals computed using PRISM.
 NBasis=   784 RedAO= T  NBF=   784
 NBsUse=   778 1.00D-06 NBFU=   778
 Harris functional with IExCor=  402 diagonalized for initial guess.
 ExpMin= 4.38D-02 ExpMax= 8.59D+03 ExpMxC= 1.30D+03 IAcc=2 IRadAn=         0 AccDes= 0.00D+00
 HarFok:  IExCor=  402 AccDes= 0.00D+00 IRadAn=         0 IDoV= 1
 ScaDFX=  1.000000  1.000000  1.000000  1.000000
 FoFCou: FMM=F IPFlag=           0 FMFlag=      100000 FMFlg1=        2001
         NFxFlg=           0 DoJE=T BraDBF=F KetDBF=T FulRan=T
         Omega=  0.000000  0.000000  1.000000  0.000000  0.000000 ICntrl=     500 IOpCl=  0
         NMat0=    1 NMatS0=    1 NMatT0=    0 NMatD0=    1 NMtDS0=    0 NMtDT0=    0
         I1Cent=           4 NGrid=           0.
 Petite list used in FoFCou.
 Initial guess orbital symmetries:
       Occupied  (A) (A) (A) (A) (A) (A) (A) (A) (A) (A) (A) (A)
                 (A) (A) (A) (A) (A) (A) (A) (A) (A) (A) (A) (A)
                 (A) (A) (A) (A) (A) (A) (A) (A) (A) (A) (A) (A)
                 (A) (A) (A) (A) (A) (A) (A) (A) (A) (A) (A) (A)
                 (A) (A) (A) (A) (A) (A) (A) (A) (A) (A) (A) (A)
                 (A) (A) (A) (A) (A) (A) (A) (A) (A) (A) (A) (A)
                 (A) (A) (A) (A) (A) (A) (A) (A) (A) (A) (A) (A)
                 (A) (A) (A) (A) (A) (A) (A) (A) (A) (A) (A) (A)
                 (A) (A) (A) (A) (A) (A) (A) (A) (A) (A) (A) (A)
                 (A) (A) (A) (A) (A) (A) (A)
       Virtual   (A) (A) (A) (A) (A) (A) (A) (A) (A) (A) (A) (A)
                 (A) (A) (A) (A) (A) (A) (A) (A) (A) (A) (A) (A)
                 (A) (A) (A) (A) (A) (A) (A) (A) (A) (A) (A) (A)
                 (A) (A) (A) (A) (A) (A) (A) (A) (A) (A) (A) (A)
                 (A) (A) (A) (A) (A) (A) (A) (A) (A) (A) (A) (A)
                 (A) (A) (A) (A) (A) (A) (A) (A) (A) (A) (A) (A)
                 (A) (A) (A) (A) (A) (A) (A) (A) (A) (A) (A) (A)
                 (A) (A) (A) (A) (A) (A) (A) (A) (A) (A) (A) (A)
                 (A) (A) (A) (A) (A) (A) (A) (A) (A) (A) (A) (A)
                 (A) (A) (A) (A) (A) (A) (A) (A) (A) (A) (A) (A)
                 (A) (A) (A) (A) (A) (A) (A) (A) (A) (A) (A) (A)
                 (A) (A) (A) (A) (A) (A) (A) (A) (A) (A) (A) (A)
                 (A) (A) (A) (A) (A) (A) (A) (A) (A) (A) (A) (A)
                 (A) (A) (A) (A) (A) (A) (A) (A) (A) (A) (A) (A)
                 (A) (A) (A) (A) (A) (A) (A) (A) (A) (A) (A) (A)
                 (A) (A) (A) (A) (A) (A) (A) (A) (A) (A) (A) (A)
                 (A) (A) (A) (A) (A) (A) (A) (A) (A) (A) (A) (A)
                 (A) (A) (A) (A) (A) (A) (A) (A) (A) (A) (A) (A)
                 (A) (A) (A) (A) (A) (A) (A) (A) (A) (A) (A) (A)
                 (A) (A) (A) (A) (A) (A) (A) (A) (A) (A) (A) (A)
                 (A) (A) (A) (A) (A) (A) (A) (A) (A) (A) (A) (A)
                 (A) (A) (A) (A) (A) (A) (A) (A) (A) (A) (A) (A)
                 (A) (A) (A) (A) (A) (A) (A) (A) (A) (A) (A) (A)
                 (A) (A) (A) (A) (A) (A) (A) (A) (A) (A) (A) (A)
                 (A) (A) (A) (A) (A) (A) (A) (A) (A) (A) (A) (A)
                 (A) (A) (A) (A) (A) (A) (A) (A) (A) (A) (A) (A)
                 (A) (A) (A) (A) (A) (A) (A) (A) (A) (A) (A) (A)
                 (A) (A) (A) (A) (A) (A) (A) (A) (A) (A) (A) (A)
                 (A) (A) (A) (A) (A) (A) (A) (A) (A) (A) (A) (A)
                 (A) (A) (A) (A) (A) (A) (A) (A) (A) (A) (A) (A)
                 (A) (A) (A) (A) (A) (A) (A) (A) (A) (A) (A) (A)
                 (A) (A) (A) (A) (A) (A) (A) (A) (A) (A) (A) (A)
                 (A) (A) (A) (A) (A) (A) (A) (A) (A) (A) (A) (A)
                 (A) (A) (A) (A) (A) (A) (A) (A) (A) (A) (A) (A)
                 (A) (A) (A) (A) (A) (A) (A) (A) (A) (A) (A) (A)
                 (A) (A) (A) (A) (A) (A) (A) (A) (A) (A) (A) (A)
                 (A) (A) (A) (A) (A) (A) (A) (A) (A) (A) (A) (A)
                 (A) (A) (A) (A) (A) (A) (A) (A) (A) (A) (A) (A)
                 (A) (A) (A) (A) (A) (A) (A) (A) (A) (A) (A) (A)
                 (A) (A) (A) (A) (A) (A) (A) (A) (A) (A) (A) (A)
                 (A) (A) (A) (A) (A) (A) (A) (A) (A) (A) (A) (A)
                 (A) (A) (A) (A) (A) (A) (A) (A) (A) (A) (A) (A)
                 (A) (A) (A) (A) (A) (A) (A) (A) (A) (A) (A) (A)
                 (A) (A) (A) (A) (A) (A) (A) (A) (A) (A) (A) (A)
                 (A) (A) (A) (A) (A) (A) (A) (A) (A) (A) (A) (A)
                 (A) (A) (A) (A) (A) (A) (A) (A) (A) (A) (A) (A)
                 (A) (A) (A) (A) (A) (A) (A) (A) (A) (A) (A) (A)
                 (A) (A) (A) (A) (A) (A) (A) (A) (A) (A) (A) (A)
                 (A) (A) (A) (A) (A) (A) (A) (A) (A) (A) (A) (A)
                 (A) (A) (A) (A) (A) (A) (A) (A) (A) (A) (A) (A)
                 (A) (A) (A) (A) (A) (A) (A) (A) (A) (A) (A) (A)
                 (A) (A) (A) (A) (A) (A) (A) (A) (A) (A) (A) (A)
                 (A) (A) (A) (A) (A) (A) (A) (A) (A) (A) (A) (A)
                 (A) (A) (A) (A) (A) (A) (A) (A) (A) (A) (A) (A)
                 (A) (A) (A) (A) (A) (A) (A) (A) (A) (A) (A) (A)
                 (A) (A) (A)
 The electronic state of the initial guess is 1-A.
 Requested convergence on RMS density matrix=1.00D-08 within 128 cycles.
 Requested convergence on MAX density matrix=1.00D-06.
 Requested convergence on             energy=1.00D-06.
 No special actions if energy rises.
 SCF Done:  E(RB3LYP) =  -1387.64942478     A.U. after   17 cycles
             Convg  =    0.7019D-08             -V/T =  2.0043

 **********************************************************************

            Population analysis using the SCF density.

 **********************************************************************

 Orbital symmetries:
       Occupied  (A) (A) (A) (A) (A) (A) (A) (A) (A) (A) (A) (A)
                 (A) (A) (A) (A) (A) (A) (A) (A) (A) (A) (A) (A)
                 (A) (A) (A) (A) (A) (A) (A) (A) (A) (A) (A) (A)
                 (A) (A) (A) (A) (A) (A) (A) (A) (A) (A) (A) (A)
                 (A) (A) (A) (A) (A) (A) (A) (A) (A) (A) (A) (A)
                 (A) (A) (A) (A) (A) (A) (A) (A) (A) (A) (A) (A)
                 (A) (A) (A) (A) (A) (A) (A) (A) (A) (A) (A) (A)
                 (A) (A) (A) (A) (A) (A) (A) (A) (A) (A) (A) (A)
                 (A) (A) (A) (A) (A) (A) (A) (A) (A) (A) (A) (A)
                 (A) (A) (A) (A) (A) (A) (A)
       Virtual   (A) (A) (A) (A) (A) (A) (A) (A) (A) (A) (A) (A)
                 (A) (A) (A) (A) (A) (A) (A) (A) (A) (A) (A) (A)
                 (A) (A) (A) (A) (A) (A) (A) (A) (A) (A) (A) (A)
                 (A) (A) (A) (A) (A) (A) (A) (A) (A) (A) (A) (A)
                 (A) (A) (A) (A) (A) (A) (A) (A) (A) (A) (A) (A)
                 (A) (A) (A) (A) (A) (A) (A) (A) (A) (A) (A) (A)
                 (A) (A) (A) (A) (A) (A) (A) (A) (A) (A) (A) (A)
                 (A) (A) (A) (A) (A) (A) (A) (A) (A) (A) (A) (A)
                 (A) (A) (A) (A) (A) (A) (A) (A) (A) (A) (A) (A)
                 (A) (A) (A) (A) (A) (A) (A) (A) (A) (A) (A) (A)
                 (A) (A) (A) (A) (A) (A) (A) (A) (A) (A) (A) (A)
                 (A) (A) (A) (A) (A) (A) (A) (A) (A) (A) (A) (A)
                 (A) (A) (A) (A) (A) (A) (A) (A) (A) (A) (A) (A)
                 (A) (A) (A) (A) (A) (A) (A) (A) (A) (A) (A) (A)
                 (A) (A) (A) (A) (A) (A) (A) (A) (A) (A) (A) (A)
                 (A) (A) (A) (A) (A) (A) (A) (A) (A) (A) (A) (A)
                 (A) (A) (A) (A) (A) (A) (A) (A) (A) (A) (A) (A)
                 (A) (A) (A) (A) (A) (A) (A) (A) (A) (A) (A) (A)
                 (A) (A) (A) (A) (A) (A) (A) (A) (A) (A) (A) (A)
                 (A) (A) (A) (A) (A) (A) (A) (A) (A) (A) (A) (A)
                 (A) (A) (A) (A) (A) (A) (A) (A) (A) (A) (A) (A)
                 (A) (A) (A) (A) (A) (A) (A) (A) (A) (A) (A) (A)
                 (A) (A) (A) (A) (A) (A) (A) (A) (A) (A) (A) (A)
                 (A) (A) (A) (A) (A) (A) (A) (A) (A) (A) (A) (A)
                 (A) (A) (A) (A) (A) (A) (A) (A) (A) (A) (A) (A)
                 (A) (A) (A) (A) (A) (A) (A) (A) (A) (A) (A) (A)
                 (A) (A) (A) (A) (A) (A) (A) (A) (A) (A) (A) (A)
                 (A) (A) (A) (A) (A) (A) (A) (A) (A) (A) (A) (A)
                 (A) (A) (A) (A) (A) (A) (A) (A) (A) (A) (A) (A)
                 (A) (A) (A) (A) (A) (A) (A) (A) (A) (A) (A) (A)
                 (A) (A) (A) (A) (A) (A) (A) (A) (A) (A) (A) (A)
                 (A) (A) (A) (A) (A) (A) (A) (A) (A) (A) (A) (A)
                 (A) (A) (A) (A) (A) (A) (A) (A) (A) (A) (A) (A)
                 (A) (A) (A) (A) (A) (A) (A) (A) (A) (A) (A) (A)
                 (A) (A) (A) (A) (A) (A) (A) (A) (A) (A) (A) (A)
                 (A) (A) (A) (A) (A) (A) (A) (A) (A) (A) (A) (A)
                 (A) (A) (A) (A) (A) (A) (A) (A) (A) (A) (A) (A)
                 (A) (A) (A) (A) (A) (A) (A) (A) (A) (A) (A) (A)
                 (A) (A) (A) (A) (A) (A) (A) (A) (A) (A) (A) (A)
                 (A) (A) (A) (A) (A) (A) (A) (A) (A) (A) (A) (A)
                 (A) (A) (A) (A) (A) (A) (A) (A) (A) (A) (A) (A)
                 (A) (A) (A) (A) (A) (A) (A) (A) (A) (A) (A) (A)
                 (A) (A) (A) (A) (A) (A) (A) (A) (A) (A) (A) (A)
                 (A) (A) (A) (A) (A) (A) (A) (A) (A) (A) (A) (A)
                 (A) (A) (A) (A) (A) (A) (A) (A) (A) (A) (A) (A)
                 (A) (A) (A) (A) (A) (A) (A) (A) (A) (A) (A) (A)
                 (A) (A) (A) (A) (A) (A) (A) (A) (A) (A) (A) (A)
                 (A) (A) (A) (A) (A) (A) (A) (A) (A) (A) (A) (A)
                 (A) (A) (A) (A) (A) (A) (A) (A) (A) (A) (A) (A)
                 (A) (A) (A) (A) (A) (A) (A) (A) (A) (A) (A) (A)
                 (A) (A) (A) (A) (A) (A) (A) (A) (A) (A) (A) (A)
                 (A) (A) (A) (A) (A) (A) (A) (A) (A) (A) (A) (A)
                 (A) (A) (A) (A) (A) (A) (A) (A) (A) (A) (A) (A)
                 (A) (A) (A) (A) (A) (A) (A) (A) (A) (A) (A) (A)
                 (A) (A) (A) (A) (A) (A) (A) (A) (A) (A) (A) (A)
                 (A) (A) (A)
 The electronic state is 1-A.
 Alpha  occ. eigenvalues --  -19.17898 -19.15170 -19.13518 -19.11093 -19.10619
 Alpha  occ. eigenvalues --  -10.26356 -10.26321 -10.26137 -10.25799 -10.25758
 Alpha  occ. eigenvalues --  -10.25725 -10.24066 -10.20812 -10.20001 -10.19863
 Alpha  occ. eigenvalues --  -10.19444 -10.19388 -10.19047 -10.18549 -10.18302
 Alpha  occ. eigenvalues --  -10.18168 -10.17955 -10.17794 -10.17533 -10.17310
 Alpha  occ. eigenvalues --  -10.17298 -10.17297 -10.17088 -10.15709 -10.15695
 Alpha  occ. eigenvalues --  -10.14849  -1.10255  -1.07674  -1.04632  -1.03688
 Alpha  occ. eigenvalues --   -1.03442  -0.87965  -0.84821  -0.83121  -0.82326
 Alpha  occ. eigenvalues --   -0.81039  -0.80260  -0.77804  -0.74914  -0.74084
 Alpha  occ. eigenvalues --   -0.73172  -0.72353  -0.71054  -0.69916  -0.69110
 Alpha  occ. eigenvalues --   -0.65741  -0.65019  -0.64304  -0.62686  -0.61757
 Alpha  occ. eigenvalues --   -0.60150  -0.59776  -0.57855  -0.56140  -0.54330
 Alpha  occ. eigenvalues --   -0.54011  -0.52783  -0.52057  -0.50829  -0.50496
 Alpha  occ. eigenvalues --   -0.49481  -0.48677  -0.48046  -0.47559  -0.46982
 Alpha  occ. eigenvalues --   -0.46075  -0.45255  -0.45154  -0.44394  -0.43954
 Alpha  occ. eigenvalues --   -0.43731  -0.43198  -0.43141  -0.42681  -0.42141
 Alpha  occ. eigenvalues --   -0.41777  -0.41729  -0.41351  -0.40963  -0.40825
 Alpha  occ. eigenvalues --   -0.40519  -0.40146  -0.39898  -0.39505  -0.39063
 Alpha  occ. eigenvalues --   -0.38627  -0.38548  -0.38235  -0.37908  -0.36985
 Alpha  occ. eigenvalues --   -0.36727  -0.36652  -0.36265  -0.35624  -0.35327
 Alpha  occ. eigenvalues --   -0.34919  -0.34164  -0.34024  -0.33526  -0.33415
 Alpha  occ. eigenvalues --   -0.32651  -0.32438  -0.31894  -0.29416  -0.28779
 Alpha  occ. eigenvalues --   -0.26818  -0.25903  -0.25450  -0.24636  -0.24132
 Alpha virt. eigenvalues --   -0.05636  -0.03335  -0.01750  -0.01210  -0.00640
 Alpha virt. eigenvalues --   -0.00045   0.00326   0.00550   0.01582   0.01707
 Alpha virt. eigenvalues --    0.02188   0.02309   0.02409   0.03307   0.03512
 Alpha virt. eigenvalues --    0.03630   0.03676   0.04396   0.04541   0.04869
 Alpha virt. eigenvalues --    0.04933   0.05176   0.05638   0.05957   0.06042
 Alpha virt. eigenvalues --    0.06373   0.06754   0.06959   0.07266   0.07497
 Alpha virt. eigenvalues --    0.07666   0.07785   0.08169   0.08364   0.08767
 Alpha virt. eigenvalues --    0.08820   0.09026   0.09070   0.09300   0.09886
 Alpha virt. eigenvalues --    0.10106   0.10319   0.10596   0.10773   0.10932
 Alpha virt. eigenvalues --    0.11320   0.11463   0.11735   0.12053   0.12118
 Alpha virt. eigenvalues --    0.12740   0.12860   0.13141   0.13393   0.13525
 Alpha virt. eigenvalues --    0.13763   0.13921   0.14217   0.14349   0.14721
 Alpha virt. eigenvalues --    0.14894   0.15108   0.15335   0.15702   0.15956
 Alpha virt. eigenvalues --    0.16116   0.16205   0.16573   0.16765   0.16913
 Alpha virt. eigenvalues --    0.17281   0.17319   0.17531   0.17678   0.18234
 Alpha virt. eigenvalues --    0.18277   0.18474   0.18634   0.18810   0.19025
 Alpha virt. eigenvalues --    0.19233   0.19429   0.19568   0.19755   0.19893
 Alpha virt. eigenvalues --    0.20302   0.20500   0.20605   0.20879   0.21008
 Alpha virt. eigenvalues --    0.21102   0.21379   0.21480   0.21619   0.22062
 Alpha virt. eigenvalues --    0.22115   0.22465   0.22537   0.22751   0.22913
 Alpha virt. eigenvalues --    0.23031   0.23129   0.23336   0.23382   0.23767
 Alpha virt. eigenvalues --    0.24024   0.24121   0.24341   0.24446   0.24877
 Alpha virt. eigenvalues --    0.24980   0.25216   0.25550   0.25827   0.26002
 Alpha virt. eigenvalues --    0.26174   0.26307   0.26586   0.26694   0.27329
 Alpha virt. eigenvalues --    0.27356   0.27574   0.27903   0.28018   0.28227
 Alpha virt. eigenvalues --    0.28354   0.28474   0.28660   0.29059   0.29506
 Alpha virt. eigenvalues --    0.29569   0.29971   0.30133   0.30361   0.30500
 Alpha virt. eigenvalues --    0.31097   0.31207   0.31537   0.31827   0.32093
 Alpha virt. eigenvalues --    0.32332   0.32591   0.32880   0.33283   0.33476
 Alpha virt. eigenvalues --    0.33740   0.34171   0.34599   0.34688   0.35024
 Alpha virt. eigenvalues --    0.35381   0.35547   0.35730   0.36005   0.36461
 Alpha virt. eigenvalues --    0.36815   0.36905   0.37324   0.37594   0.38400
 Alpha virt. eigenvalues --    0.38531   0.38576   0.39122   0.39302   0.39741
 Alpha virt. eigenvalues --    0.39769   0.40326   0.40762   0.41211   0.41767
 Alpha virt. eigenvalues --    0.42182   0.43018   0.43286   0.43525   0.43876
 Alpha virt. eigenvalues --    0.43980   0.44371   0.44463   0.44874   0.45492
 Alpha virt. eigenvalues --    0.45781   0.46246   0.46592   0.46812   0.47030
 Alpha virt. eigenvalues --    0.47579   0.47724   0.48191   0.48605   0.48665
 Alpha virt. eigenvalues --    0.49601   0.49720   0.50362   0.51009   0.51593
 Alpha virt. eigenvalues --    0.51861   0.52055   0.52448   0.53204   0.53879
 Alpha virt. eigenvalues --    0.53989   0.54578   0.54776   0.55370   0.55560
 Alpha virt. eigenvalues --    0.55766   0.56455   0.56985   0.57329   0.57776
 Alpha virt. eigenvalues --    0.58095   0.58428   0.58547   0.59425   0.59594
 Alpha virt. eigenvalues --    0.59915   0.60053   0.60754   0.60911   0.61483
 Alpha virt. eigenvalues --    0.61871   0.61998   0.62247   0.62912   0.63668
 Alpha virt. eigenvalues --    0.64083   0.64471   0.65051   0.65340   0.65726
 Alpha virt. eigenvalues --    0.65891   0.66270   0.66655   0.67192   0.67285
 Alpha virt. eigenvalues --    0.67620   0.68248   0.68583   0.68992   0.69176
 Alpha virt. eigenvalues --    0.69390   0.69522   0.69909   0.70328   0.70410
 Alpha virt. eigenvalues --    0.70601   0.71105   0.71122   0.71625   0.71675
 Alpha virt. eigenvalues --    0.72225   0.72405   0.72470   0.72568   0.72907
 Alpha virt. eigenvalues --    0.73230   0.73782   0.73936   0.74290   0.74709
 Alpha virt. eigenvalues --    0.75056   0.75342   0.75520   0.75897   0.76618
 Alpha virt. eigenvalues --    0.76905   0.77584   0.77761   0.78251   0.78697
 Alpha virt. eigenvalues --    0.79274   0.79436   0.79900   0.80436   0.80655
 Alpha virt. eigenvalues --    0.81013   0.81440   0.81897   0.82144   0.82719
 Alpha virt. eigenvalues --    0.83191   0.83859   0.84091   0.84547   0.84712
 Alpha virt. eigenvalues --    0.85306   0.86222   0.86844   0.87392   0.89023
 Alpha virt. eigenvalues --    0.89345   0.89755   0.89985   0.90477   0.92363
 Alpha virt. eigenvalues --    0.92770   0.93133   0.93711   0.95375   0.95979
 Alpha virt. eigenvalues --    0.96285   0.97093   0.98794   0.99023   0.99470
 Alpha virt. eigenvalues --    1.00492   1.01168   1.02219   1.02891   1.03389
 Alpha virt. eigenvalues --    1.03597   1.05978   1.06480   1.07769   1.09730
 Alpha virt. eigenvalues --    1.10247   1.10744   1.12752   1.13123   1.13283
 Alpha virt. eigenvalues --    1.15813   1.16148   1.16745   1.18173   1.18512
 Alpha virt. eigenvalues --    1.19204   1.20079   1.21325   1.22597   1.22878
 Alpha virt. eigenvalues --    1.23482   1.23918   1.26001   1.26746   1.27616
 Alpha virt. eigenvalues --    1.27723   1.28982   1.29866   1.30388   1.31160
 Alpha virt. eigenvalues --    1.32572   1.32983   1.33519   1.34162   1.34396
 Alpha virt. eigenvalues --    1.35143   1.36116   1.37283   1.37491   1.37701
 Alpha virt. eigenvalues --    1.39162   1.39524   1.40933   1.41370   1.42479
 Alpha virt. eigenvalues --    1.44192   1.45173   1.45853   1.46653   1.47614
 Alpha virt. eigenvalues --    1.48523   1.49726   1.50381   1.51383   1.52546
 Alpha virt. eigenvalues --    1.52849   1.53427   1.54204   1.54909   1.54912
 Alpha virt. eigenvalues --    1.55418   1.55860   1.56850   1.57147   1.57730
 Alpha virt. eigenvalues --    1.58528   1.58942   1.59760   1.60032   1.60222
 Alpha virt. eigenvalues --    1.60660   1.60948   1.61193   1.61783   1.62290
 Alpha virt. eigenvalues --    1.62775   1.63186   1.63544   1.63850   1.64402
 Alpha virt. eigenvalues --    1.65133   1.65252   1.65851   1.66218   1.67090
 Alpha virt. eigenvalues --    1.67603   1.68039   1.68796   1.68881   1.69618
 Alpha virt. eigenvalues --    1.70511   1.71007   1.71135   1.71670   1.72078
 Alpha virt. eigenvalues --    1.73026   1.73241   1.73510   1.75122   1.75263
 Alpha virt. eigenvalues --    1.76506   1.76762   1.77737   1.78213   1.78685
 Alpha virt. eigenvalues --    1.79251   1.81141   1.81475   1.81821   1.82533
 Alpha virt. eigenvalues --    1.82879   1.84054   1.84732   1.86564   1.86748
 Alpha virt. eigenvalues --    1.87735   1.87904   1.88693   1.89766   1.90929
 Alpha virt. eigenvalues --    1.91865   1.92915   1.93677   1.94877   1.95105
 Alpha virt. eigenvalues --    1.96316   1.98056   1.98733   1.99233   2.00358
 Alpha virt. eigenvalues --    2.00883   2.02320   2.02753   2.04090   2.04802
 Alpha virt. eigenvalues --    2.06338   2.06995   2.08048   2.09095   2.10474
 Alpha virt. eigenvalues --    2.11012   2.12649   2.13508   2.14331   2.14890
 Alpha virt. eigenvalues --    2.16089   2.16875   2.18338   2.19872   2.20460
 Alpha virt. eigenvalues --    2.21134   2.22508   2.23521   2.24618   2.25338
 Alpha virt. eigenvalues --    2.26429   2.28161   2.28659   2.30841   2.31806
 Alpha virt. eigenvalues --    2.34272   2.35083   2.37039   2.38307   2.39394
 Alpha virt. eigenvalues --    2.40566   2.43277   2.45624   2.48392   2.50761
 Alpha virt. eigenvalues --    2.51252   2.51836   2.52849   2.53982   2.54506
 Alpha virt. eigenvalues --    2.54723   2.55663   2.56061   2.56440   2.57404
 Alpha virt. eigenvalues --    2.57570   2.58266   2.59350   2.59569   2.60330
 Alpha virt. eigenvalues --    2.61056   2.62900   2.63838   2.64349   2.65602
 Alpha virt. eigenvalues --    2.65739   2.66843   2.68395   2.69621   2.69769
 Alpha virt. eigenvalues --    2.70680   2.71643   2.71894   2.72215   2.73026
 Alpha virt. eigenvalues --    2.74253   2.74515   2.76338   2.80296   2.82453
 Alpha virt. eigenvalues --    2.85602   2.86373   2.87238   2.88554   2.90326
 Alpha virt. eigenvalues --    2.90966   2.91992   2.92667   2.93179   2.93885
 Alpha virt. eigenvalues --    2.95373   2.95944   2.96893   2.98086   2.98176
 Alpha virt. eigenvalues --    2.99303   3.00152   3.01633   3.02469   3.02987
 Alpha virt. eigenvalues --    3.03606   3.03967   3.04512   3.05195   3.06520
 Alpha virt. eigenvalues --    3.07550   3.09075   3.09564   3.11114   3.12350
 Alpha virt. eigenvalues --    3.13356   3.14501   3.15251   3.15761   3.17354
 Alpha virt. eigenvalues --    3.18067   3.18782   3.20193   3.20827   3.22160
 Alpha virt. eigenvalues --    3.22685   3.23932   3.24425   3.24941   3.26032
 Alpha virt. eigenvalues --    3.26675   3.26752   3.27656   3.28693   3.29484
 Alpha virt. eigenvalues --    3.30783   3.31688   3.31882   3.33085   3.33798
 Alpha virt. eigenvalues --    3.34580   3.34844   3.35767   3.37525   3.38374
 Alpha virt. eigenvalues --    3.38716   3.39253   3.39555   3.40992   3.42893
 Alpha virt. eigenvalues --    3.45515   3.46257   3.47734   3.50441   3.52090
 Alpha virt. eigenvalues --    3.52680   3.53677   3.58299   3.60968   3.65470
 Alpha virt. eigenvalues --    3.74874   3.75889   3.77900   3.79606   3.85893
 Alpha virt. eigenvalues --    3.89617   3.92643   3.94579   3.98119   4.01485
 Alpha virt. eigenvalues --    4.02276   4.05081   4.05969   4.07682   4.09107
 Alpha virt. eigenvalues --    4.11498   4.15275   4.16645   4.17919   4.20955
 Alpha virt. eigenvalues --    4.24051   4.25686   4.27285   4.29273   4.33009
 Alpha virt. eigenvalues --    4.45289   4.55241   5.14305   5.15327   5.16198
 Alpha virt. eigenvalues --    5.20279   5.23820   5.28300   5.31126   5.32432
 Alpha virt. eigenvalues --    5.41729   5.43730   5.55611   5.70554   5.72516
 Alpha virt. eigenvalues --    5.78187   5.81895  23.44566  23.49336  23.50680
 Alpha virt. eigenvalues --   23.53152  23.62053  23.62638  23.65600  23.67119
 Alpha virt. eigenvalues --   23.67278  23.70223  23.72324  23.74086  23.75818
 Alpha virt. eigenvalues --   23.78325  23.78859  23.79712  23.83472  23.84674
 Alpha virt. eigenvalues --   23.85233  23.88500  23.89027  23.90958  23.94819
 Alpha virt. eigenvalues --   24.19119  24.19824  24.21834  49.97246  50.00082
 Alpha virt. eigenvalues --   50.01767  50.02881  50.06244
          Condensed to atoms (all electrons):
 Mulliken atomic charges:
              1
     1  C   -0.770448
     2  C    0.973075
     3  C    0.128029
     4  C   -0.000328
     5  C    1.452448
     6  C   -1.229468
     7  C   -0.591801
     8  C    0.119822
     9  C    0.523143
    10  C   -0.621273
    11  C   -0.642585
    12  O   -0.175850
    13  C    0.309650
    14  C   -0.274264
    15  C   -1.101186
    16  O   -0.149529
    17  C   -0.189346
    18  C    0.746213
    19  O    0.189068
    20  C   -1.958817
    21  O   -0.131449
    22  C   -0.671414
    23  C   -0.056142
    24  O    0.092844
    25  C    0.958350
    26  C   -1.030684
    27  C   -1.216421
    28  C   -0.695183
    29  C   -0.611498
    30  H    0.234781
    31  H    0.263689
    32  C   -1.241266
    33  H    0.209905
    34  H    0.264473
    35  H    0.280024
    36  H    0.234002
    37  H    0.259425
    38  H    0.217360
    39  H    0.278974
    40  H    0.254278
    41  H    0.275804
    42  H    0.297886
    43  H    0.264481
    44  H    0.323716
    45  H    0.262565
    46  H    0.266070
    47  H    0.259424
    48  H    0.261402
    49  H    0.269483
    50  H    0.257093
    51  H    0.229749
    52  H    0.236669
    53  H    0.262853
    54  H    0.246476
    55  H    0.313060
    56  H    0.263694
    57  H    0.265911
    58  H    0.272330
    59  H    0.250371
    60  H    0.259091
    61  H    0.246631
    62  C   -0.941044
    63  H    0.227236
    64  H    0.254651
    65  H    0.243796
 Sum of Mulliken atomic charges =   0.00000
 Mulliken charges with hydrogens summed into heavy atoms:
              1
     1  C   -0.560543
     2  C    0.973075
     3  C    0.391718
     4  C   -0.000328
     5  C    1.452448
     6  C   -0.684971
     7  C   -0.591801
     8  C    0.119822
     9  C    0.523143
    10  C   -0.621273
    11  C   -0.642585
    12  O   -0.175850
    13  C    0.543653
    14  C    0.202522
    15  C   -0.292130
    16  O   -0.149529
    17  C    0.045434
    18  C    0.746213
    19  O    0.189068
    20  C   -1.396449
    21  O    0.192267
    22  C   -0.142778
    23  C    0.203282
    24  O    0.092844
    25  C    0.958350
    26  C   -0.242706
    27  C   -0.750003
    28  C    0.127206
    29  C    0.190437
    32  C   -0.485173
    62  C   -0.215362
 Sum of Mulliken charges with hydrogens summed into heavy atoms =   0.00000
 Electronic spatial extent (au):  <R**2>=          11790.0415
 Charge=              0.0000 electrons
 Dipole moment (field-independent basis, Debye):
    X=              3.2249    Y=              6.1728    Z=             -0.8719  Tot=              7.0188
 Quadrupole moment (field-independent basis, Debye-Ang):
   XX=           -181.5964   YY=           -189.6701   ZZ=           -190.5046
   XY=             -6.7276   XZ=              8.2672   YZ=              3.2990
 Traceless Quadrupole moment (field-independent basis, Debye-Ang):
   XX=              5.6606   YY=             -2.4131   ZZ=             -3.2476
   XY=             -6.7276   XZ=              8.2672   YZ=              3.2990
 Octapole moment (field-independent basis, Debye-Ang**2):
  XXX=             14.2609  YYY=             67.1623  ZZZ=              2.3268  XYY=             15.4170
  XXY=             -0.9702  XXZ=            -38.7954  XZZ=             23.3379  YZZ=              8.5450
  YYZ=            -26.4241  XYZ=             -2.4419
 Hexadecapole moment (field-independent basis, Debye-Ang**3):
 XXXX=          -9345.5791 YYYY=          -4158.3302 ZZZZ=          -2683.4624 XXXY=              1.0210
 XXXZ=            -34.8258 YYYX=            -70.2418 YYYZ=            -20.4272 ZZZX=             30.4329
 ZZZY=            -19.8476 XXYY=          -2231.2540 XXZZ=          -1991.7981 YYZZ=          -1144.9255
 XXYZ=             68.4297 YYXZ=             31.1724 ZZXY=            -43.6144
 N-N= 3.495229398505D+03 E-N=-1.022325863639D+04  KE= 1.381712773778D+03
 Calling FoFJK, ICntrl=      2127 FMM=T ISym2X=0 I1Cent= 0 IOpClX= 0 NMat=1 NMatS=1 NMatT=0.
 ***** Axes restored to original set *****
 -------------------------------------------------------------------
 Center     Atomic                   Forces (Hartrees/Bohr)
 Number     Number              X              Y              Z
 -------------------------------------------------------------------
      1        6           0.000624852    0.002091932   -0.001614692
      2        6          -0.000801721   -0.001787931    0.001524907
      3        6          -0.000055411    0.000323222   -0.000109528
      4        6          -0.000495264    0.000676707    0.000499382
      5        6           0.000378057   -0.000748609   -0.000119485
      6        6          -0.000295373   -0.000306760   -0.000101484
      7        6          -0.002224118    0.001101265    0.002590270
      8        6          -0.002684337   -0.002138967    0.000681740
      9        6           0.001422044    0.002050994   -0.000210680
     10        6          -0.000530654   -0.007235307    0.000465165
     11        6          -0.001015402   -0.003598605    0.005975938
     12        8           0.000555582    0.004118897   -0.007590247
     13        6          -0.000251047    0.000234603    0.000196679
     14        6           0.000140350   -0.000118491   -0.000013255
     15        6           0.000387305   -0.000274384    0.000253955
     16        8           0.000062676    0.008559002   -0.000102507
     17        6           0.000317346    0.000123029   -0.000405418
     18        6          -0.000063754    0.001675039   -0.000594137
     19        8           0.002155966   -0.002666397    0.000741450
     20        6          -0.000264379   -0.000051843    0.000402556
     21        8           0.006171274   -0.000984826    0.000479891
     22        6           0.000552442   -0.000175281   -0.000221549
     23        6           0.000898462   -0.001044473    0.000282885
     24        8          -0.000432716   -0.000308139    0.000937227
     25        6           0.000929327   -0.001570937    0.000038456
     26        6          -0.000085093    0.000268649   -0.000116804
     27        6          -0.000312090    0.001773935    0.000266165
     28        6           0.000347671    0.000030934    0.000367953
     29        6           0.000488869   -0.000266489   -0.000136415
     30        1          -0.000805245   -0.000667147    0.000746821
     31        1          -0.000843625   -0.000374676    0.000983343
     32        6           0.000060657    0.000279966   -0.000060662
     33        1          -0.000239123    0.000021493   -0.000852633
     34        1          -0.000451462    0.001448451   -0.000627934
     35        1           0.001740179   -0.000289484    0.000282348
     36        1          -0.000043872   -0.001144672    0.000795432
     37        1          -0.000669623    0.000954804   -0.001134657
     38        1           0.000954405   -0.000173555    0.000952526
     39        1          -0.001682073   -0.000319527    0.000332636
     40        1           0.001248759   -0.000086344    0.001015627
     41        1           0.000138155    0.001165269   -0.001267026
     42        1           0.001237195    0.000608304   -0.000830853
     43        1          -0.000474876   -0.001494022   -0.000235685
     44        1          -0.004634103    0.000797542   -0.002872536
     45        1          -0.000611020    0.000263070   -0.001343946
     46        1           0.000859225    0.001423136    0.001031856
     47        1          -0.000539697   -0.000745643   -0.001049719
     48        1          -0.000712495   -0.001049298   -0.000979664
     49        1           0.001336336   -0.000876054    0.000742197
     50        1          -0.000974929    0.000957498    0.000887672
     51        1          -0.000662226    0.000313361    0.000670543
     52        1           0.000480947    0.000625182   -0.000733159
     53        1           0.001595689    0.000170252   -0.000070835
     54        1          -0.000589676   -0.001383663    0.000297804
     55        1          -0.001173049    0.001594583    0.000189135
     56        1          -0.000771548   -0.001101567    0.000659644
     57        1          -0.000405276    0.000469958   -0.001603682
     58        1           0.001609501    0.000311882    0.000416351
     59        1          -0.000235603    0.000531689   -0.001603280
     60        1          -0.001273110   -0.000111946    0.000943406
     61        1           0.000825682   -0.001427525    0.000210301
     62        6           0.000223677    0.000005178   -0.000091908
     63        1          -0.000353264   -0.001062444    0.001139365
[...]
 Alpha  occ. eigenvalues --  -10.26260 -10.26183 -10.26112 -10.25724 -10.25703
 Alpha  occ. eigenvalues --  -10.25684 -10.23942 -10.20717 -10.19895 -10.19756
 Alpha  occ. eigenvalues --  -10.19342 -10.19309 -10.18938 -10.18441 -10.18155
 Alpha  occ. eigenvalues --  -10.18067 -10.17850 -10.17677 -10.17430 -10.17241
 Alpha  occ. eigenvalues --  -10.17218 -10.17198 -10.17001 -10.15629 -10.15606
 Alpha  occ. eigenvalues --  -10.14723  -1.10200  -1.07492  -1.04884  -1.03784
 Alpha  occ. eigenvalues --   -1.03642  -0.88032  -0.84866  -0.83175  -0.82366
 Alpha  occ. eigenvalues --   -0.81067  -0.80312  -0.77833  -0.74931  -0.74095
 Alpha  occ. eigenvalues --   -0.73221  -0.72390  -0.71118  -0.69956  -0.69130
 Alpha  occ. eigenvalues --   -0.65734  -0.65026  -0.64350  -0.62724  -0.61757
 Alpha  occ. eigenvalues --   -0.60158  -0.59834  -0.57899  -0.56158  -0.54280
 Alpha  occ. eigenvalues --   -0.54125  -0.52795  -0.52044  -0.50853  -0.50493
 Alpha  occ. eigenvalues --   -0.49529  -0.48707  -0.48068  -0.47577  -0.46970
 Alpha  occ. eigenvalues --   -0.46082  -0.45303  -0.45182  -0.44425  -0.43999
 Alpha  occ. eigenvalues --   -0.43773  -0.43227  -0.43118  -0.42715  -0.42160
 Alpha  occ. eigenvalues --   -0.41820  -0.41761  -0.41367  -0.40977  -0.40824
 Alpha  occ. eigenvalues --   -0.40537  -0.40165  -0.39912  -0.39540  -0.39067
 Alpha  occ. eigenvalues --   -0.38600  -0.38491  -0.38267  -0.37886  -0.36978
 Alpha  occ. eigenvalues --   -0.36780  -0.36675  -0.36240  -0.35659  -0.35333
 Alpha  occ. eigenvalues --   -0.34912  -0.34182  -0.34028  -0.33517  -0.33400
 Alpha  occ. eigenvalues --   -0.32651  -0.32444  -0.31910  -0.29377  -0.28744
 Alpha  occ. eigenvalues --   -0.26833  -0.25865  -0.25428  -0.24626  -0.24073
 Alpha virt. eigenvalues --   -0.05498  -0.03156  -0.01707  -0.01175  -0.00603
 Alpha virt. eigenvalues --   -0.00024   0.00360   0.00551   0.01598   0.01727
 Alpha virt. eigenvalues --    0.02194   0.02293   0.02423   0.03345   0.03517
 Alpha virt. eigenvalues --    0.03636   0.03726   0.04368   0.04542   0.04911
 Alpha virt. eigenvalues --    0.04984   0.05203   0.05661   0.05918   0.06033
 Alpha virt. eigenvalues --    0.06388   0.06768   0.06978   0.07289   0.07557
 Alpha virt. eigenvalues --    0.07689   0.07798   0.08231   0.08376   0.08762
 Alpha virt. eigenvalues --    0.08827   0.09018   0.09127   0.09314   0.09880
 Alpha virt. eigenvalues --    0.10162   0.10365   0.10614   0.10824   0.10865
 Alpha virt. eigenvalues --    0.11316   0.11542   0.11783   0.12129   0.12193
 Alpha virt. eigenvalues --    0.12755   0.12897   0.13259   0.13374   0.13535
 Alpha virt. eigenvalues --    0.13762   0.13890   0.14180   0.14378   0.14754
 Alpha virt. eigenvalues --    0.14978   0.15172   0.15313   0.15765   0.15844
 Alpha virt. eigenvalues --    0.16177   0.16211   0.16668   0.16726   0.16962
 Alpha virt. eigenvalues --    0.17267   0.17367   0.17574   0.17733   0.18223
 Alpha virt. eigenvalues --    0.18319   0.18529   0.18752   0.18913   0.19033
 Alpha virt. eigenvalues --    0.19252   0.19485   0.19597   0.19737   0.19956
 Alpha virt. eigenvalues --    0.20381   0.20595   0.20726   0.20926   0.20967
 Alpha virt. eigenvalues --    0.21139   0.21411   0.21521   0.21706   0.22113
 Alpha virt. eigenvalues --    0.22129   0.22509   0.22624   0.22764   0.22956
 Alpha virt. eigenvalues --    0.23024   0.23259   0.23333   0.23502   0.23914
 Alpha virt. eigenvalues --    0.24145   0.24263   0.24333   0.24538   0.24955
 Alpha virt. eigenvalues --    0.25044   0.25257   0.25645   0.25967   0.26049
 Alpha virt. eigenvalues --    0.26242   0.26312   0.26574   0.26729   0.27374
 Alpha virt. eigenvalues --    0.27403   0.27617   0.28113   0.28130   0.28154
 Alpha virt. eigenvalues --    0.28406   0.28601   0.28682   0.29192   0.29515
 Alpha virt. eigenvalues --    0.29623   0.29991   0.30143   0.30301   0.30493
 Alpha virt. eigenvalues --    0.31204   0.31237   0.31751   0.31859   0.32210
 Alpha virt. eigenvalues --    0.32427   0.32748   0.32925   0.33371   0.33584
 Alpha virt. eigenvalues --    0.33816   0.34301   0.34599   0.34725   0.35103
 Alpha virt. eigenvalues --    0.35334   0.35678   0.35910   0.36064   0.36571
 Alpha virt. eigenvalues --    0.36858   0.37013   0.37406   0.37552   0.38301
 Alpha virt. eigenvalues --    0.38476   0.38604   0.39114   0.39384   0.39740
 Alpha virt. eigenvalues --    0.39801   0.40408   0.40934   0.41224   0.41892
 Alpha virt. eigenvalues --    0.42345   0.42994   0.43281   0.43548   0.43999
 Alpha virt. eigenvalues --    0.44302   0.44460   0.44645   0.44776   0.45651
 Alpha virt. eigenvalues --    0.45780   0.46240   0.46550   0.46883   0.47284
 Alpha virt. eigenvalues --    0.47623   0.47711   0.48183   0.48558   0.48649
 Alpha virt. eigenvalues --    0.49581   0.50025   0.50492   0.51160   0.51605
 Alpha virt. eigenvalues --    0.51934   0.52084   0.52577   0.53267   0.53934
 Alpha virt. eigenvalues --    0.54110   0.54496   0.54862   0.55430   0.55750
 Alpha virt. eigenvalues --    0.55937   0.56499   0.56923   0.57399   0.57729
 Alpha virt. eigenvalues --    0.58070   0.58450   0.58563   0.59471   0.59662
 Alpha virt. eigenvalues --    0.59819   0.60174   0.60873   0.60990   0.61581
 Alpha virt. eigenvalues --    0.61869   0.62132   0.62389   0.62793   0.63804
 Alpha virt. eigenvalues --    0.64230   0.64283   0.65150   0.65417   0.65909
 Alpha virt. eigenvalues --    0.66056   0.66397   0.66794   0.67161   0.67346
 Alpha virt. eigenvalues --    0.67800   0.68408   0.68694   0.69083   0.69209
 Alpha virt. eigenvalues --    0.69491   0.69684   0.70002   0.70435   0.70662
 Alpha virt. eigenvalues --    0.70827   0.71205   0.71327   0.71672   0.71878
 Alpha virt. eigenvalues --    0.72349   0.72574   0.72597   0.72717   0.72837
 Alpha virt. eigenvalues --    0.73413   0.73655   0.73962   0.74398   0.74963
 Alpha virt. eigenvalues --    0.75118   0.75427   0.75697   0.75973   0.76782
 Alpha virt. eigenvalues --    0.77122   0.77685   0.77874   0.78420   0.78950
 Alpha virt. eigenvalues --    0.79219   0.79639   0.79938   0.80335   0.80777
 Alpha virt. eigenvalues --    0.81125   0.81600   0.82050   0.82329   0.82573
 Alpha virt. eigenvalues --    0.83030   0.83733   0.84129   0.84703   0.84938
 Alpha virt. eigenvalues --    0.85292   0.86276   0.86867   0.87462   0.89012
 Alpha virt. eigenvalues --    0.89315   0.89938   0.90373   0.90729   0.92412
 Alpha virt. eigenvalues --    0.92800   0.93135   0.93555   0.95364   0.96073
 Alpha virt. eigenvalues --    0.96148   0.97048   0.98766   0.98915   0.99867
 Alpha virt. eigenvalues --    1.00458   1.01174   1.02108   1.03206   1.03592
 Alpha virt. eigenvalues --    1.03649   1.05905   1.06292   1.07675   1.09859
 Alpha virt. eigenvalues --    1.10144   1.10952   1.12641   1.13190   1.13505
 Alpha virt. eigenvalues --    1.15852   1.16231   1.17089   1.18050   1.18407
 Alpha virt. eigenvalues --    1.19395   1.20319   1.21252   1.22551   1.22778
 Alpha virt. eigenvalues --    1.23637   1.23800   1.25874   1.26532   1.27457
 Alpha virt. eigenvalues --    1.27968   1.29077   1.29857   1.30392   1.31437
 Alpha virt. eigenvalues --    1.32412   1.33095   1.33853   1.34246   1.34473
 Alpha virt. eigenvalues --    1.35372   1.36141   1.37344   1.37625   1.37829
 Alpha virt. eigenvalues --    1.39283   1.39845   1.40541   1.41224   1.42633
 Alpha virt. eigenvalues --    1.44224   1.45187   1.45966   1.46869   1.47789
 Alpha virt. eigenvalues --    1.48616   1.49960   1.50570   1.51385   1.52599
 Alpha virt. eigenvalues --    1.52846   1.53410   1.54232   1.54762   1.55106
 Alpha virt. eigenvalues --    1.55635   1.55966   1.56928   1.57283   1.57764
 Alpha virt. eigenvalues --    1.58561   1.59023   1.59770   1.60146   1.60369
 Alpha virt. eigenvalues --    1.60858   1.61130   1.61174   1.61976   1.62432
 Alpha virt. eigenvalues --    1.63015   1.63268   1.63556   1.64023   1.64514
 Alpha virt. eigenvalues --    1.65141   1.65370   1.66124   1.66316   1.67239
 Alpha virt. eigenvalues --    1.67782   1.68122   1.68954   1.69166   1.69746
 Alpha virt. eigenvalues --    1.70607   1.71039   1.71092   1.71729   1.72276
 Alpha virt. eigenvalues --    1.73202   1.73366   1.73530   1.75100   1.75245
 Alpha virt. eigenvalues --    1.76286   1.76879   1.78004   1.78186   1.79010
 Alpha virt. eigenvalues --    1.79321   1.81242   1.81570   1.81965   1.82661
 Alpha virt. eigenvalues --    1.83128   1.84052   1.85023   1.86708   1.87068
 Alpha virt. eigenvalues --    1.87706   1.88010   1.88643   1.89910   1.91106
 Alpha virt. eigenvalues --    1.91755   1.93206   1.93495   1.95105   1.95246
 Alpha virt. eigenvalues --    1.96543   1.98419   1.98783   1.99506   2.00483
 Alpha virt. eigenvalues --    2.00979   2.02373   2.02842   2.04439   2.05031
 Alpha virt. eigenvalues --    2.06748   2.07111   2.08211   2.09395   2.10808
 Alpha virt. eigenvalues --    2.11054   2.12623   2.13808   2.14650   2.15090
 Alpha virt. eigenvalues --    2.16336   2.17142   2.18599   2.20141   2.20522
 Alpha virt. eigenvalues --    2.21597   2.22631   2.23460   2.24660   2.25680
 Alpha virt. eigenvalues --    2.26904   2.28098   2.28741   2.30979   2.32020
 Alpha virt. eigenvalues --    2.34618   2.35386   2.37210   2.38479   2.39467
 Alpha virt. eigenvalues --    2.40909   2.43575   2.45662   2.48604   2.50810
 Alpha virt. eigenvalues --    2.51459   2.51884   2.52839   2.53535   2.54694
 Alpha virt. eigenvalues --    2.54846   2.55626   2.55957   2.56681   2.57572
 Alpha virt. eigenvalues --    2.57817   2.58288   2.59303   2.59771   2.60404
 Alpha virt. eigenvalues --    2.61006   2.63217   2.64216   2.64623   2.65734
 Alpha virt. eigenvalues --    2.65934   2.66983   2.68564   2.69665   2.69956
 Alpha virt. eigenvalues --    2.70692   2.71991   2.72050   2.72288   2.73215
 Alpha virt. eigenvalues --    2.74156   2.74678   2.76320   2.80472   2.82765
 Alpha virt. eigenvalues --    2.85649   2.86450   2.87410   2.88558   2.90177
 Alpha virt. eigenvalues --    2.91021   2.92380   2.92757   2.93191   2.94103
 Alpha virt. eigenvalues --    2.95496   2.95993   2.97041   2.98215   2.98433
 Alpha virt. eigenvalues --    2.99393   3.00553   3.01928   3.02766   3.03284
 Alpha virt. eigenvalues --    3.03848   3.04294   3.04863   3.05393   3.06814
 Alpha virt. eigenvalues --    3.07635   3.09467   3.09834   3.11239   3.12350
 Alpha virt. eigenvalues --    3.13759   3.14768   3.15404   3.16094   3.17716
 Alpha virt. eigenvalues --    3.18381   3.19207   3.20518   3.21087   3.22229
 Alpha virt. eigenvalues --    3.22875   3.24467   3.24775   3.25465   3.26360
 Alpha virt. eigenvalues --    3.26730   3.27090   3.28017   3.29030   3.29895
 Alpha virt. eigenvalues --    3.31244   3.31879   3.32500   3.33194   3.33826
 Alpha virt. eigenvalues --    3.34940   3.35223   3.36186   3.37919   3.38665
 Alpha virt. eigenvalues --    3.39362   3.39917   3.40333   3.41526   3.43209
 Alpha virt. eigenvalues --    3.46059   3.46849   3.48199   3.50997   3.52557
 Alpha virt. eigenvalues --    3.52822   3.53950   3.59103   3.61387   3.65882
 Alpha virt. eigenvalues --    3.75421   3.76373   3.78271   3.79984   3.86035
 Alpha virt. eigenvalues --    3.89934   3.93225   3.94981   3.98566   4.01894
 Alpha virt. eigenvalues --    4.02726   4.05244   4.06432   4.07867   4.09234
 Alpha virt. eigenvalues --    4.11629   4.15634   4.16715   4.17936   4.21221
 Alpha virt. eigenvalues --    4.24404   4.25757   4.27700   4.29597   4.33055
 Alpha virt. eigenvalues --    4.45299   4.55640   5.14137   5.15113   5.16116
 Alpha virt. eigenvalues --    5.20223   5.23926   5.28291   5.31813   5.32707
 Alpha virt. eigenvalues --    5.41596   5.43816   5.55517   5.70788   5.72978
 Alpha virt. eigenvalues --    5.78439   5.82338  23.44690  23.49825  23.50850
 Alpha virt. eigenvalues --   23.53426  23.62325  23.62923  23.65800  23.67304
 Alpha virt. eigenvalues --   23.67589  23.70605  23.72444  23.74373  23.76211
 Alpha virt. eigenvalues --   23.78545  23.79133  23.79921  23.83874  23.85324
 Alpha virt. eigenvalues --   23.85376  23.88941  23.89429  23.91519  23.95587
 Alpha virt. eigenvalues --   24.20300  24.20823  24.23199  49.97329  49.99918
 Alpha virt. eigenvalues --   50.02056  50.03068  50.06734
          Condensed to atoms (all electrons):
 Mulliken atomic charges:
              1
     1  C   -0.784966
     2  C    1.003668
     3  C    0.051857
     4  C    0.002721
     5  C    1.460661
     6  C   -1.202598
     7  C   -0.608099
     8  C    0.105098
     9  C    0.587733
    10  C   -0.629337
    11  C   -0.701633
    12  O   -0.173544
    13  C    0.309067
    14  C   -0.249774
    15  C   -1.095806
    16  O   -0.151015
    17  C   -0.227522
    18  C    0.772556
    19  O    0.195237
    20  C   -1.933064
    21  O   -0.142343
    22  C   -0.681295
    23  C   -0.023392
    24  O    0.086457
    25  C    0.941223
    26  C   -1.030824
    27  C   -1.227666
    28  C   -0.690361
    29  C   -0.599670
    30  H    0.235854
    31  H    0.265777
    32  C   -1.227091
    33  H    0.209730
    34  H    0.265241
    35  H    0.275780
    36  H    0.235329
    37  H    0.258432
    38  H    0.217345
    39  H    0.280556
    40  H    0.255546
    41  H    0.275898
    42  H    0.296293
    43  H    0.264566
    44  H    0.331897
    45  H    0.264063
    46  H    0.263559
    47  H    0.258950
    48  H    0.261437
    49  H    0.269969
    50  H    0.257706
    51  H    0.229779
    52  H    0.236611
    53  H    0.263415
    54  H    0.247352
    55  H    0.311783
    56  H    0.264212
    57  H    0.266513
    58  H    0.272347
    59  H    0.250425
    60  H    0.258607
    61  H    0.246987
    62  C   -0.957141
    63  H    0.227951
    64  H    0.257128
    65  H    0.243826
 Sum of Mulliken atomic charges =   0.00000
 Mulliken charges with hydrogens summed into heavy atoms:
              1
     1  C   -0.575235
     2  C    1.003668
     3  C    0.317634
     4  C    0.002721
     5  C    1.460661
     6  C   -0.661576
     7  C   -0.608099
     8  C    0.105098
     9  C    0.587733
    10  C   -0.629337
    11  C   -0.701633
    12  O   -0.173544
    13  C    0.544395
    14  C    0.226003
    15  C   -0.283807
    16  O   -0.151015
    17  C    0.008331
    18  C    0.772556
    19  O    0.195237
    20  C   -1.372205
    21  O    0.189554
    22  C   -0.153673
    23  C    0.235558
    24  O    0.086457
    25  C    0.941223
    26  C   -0.241712
    27  C   -0.761276
    28  C    0.132189
    29  C    0.203402
    32  C   -0.471073
    62  C   -0.228235
 Sum of Mulliken charges with hydrogens summed into heavy atoms =   0.00000
 Electronic spatial extent (au):  <R**2>=          11817.1775
 Charge=              0.0000 electrons
 Dipole moment (field-independent basis, Debye):
    X=              3.3103    Y=              6.0205    Z=             -1.1081  Tot=              6.9593
 Quadrupole moment (field-independent basis, Debye-Ang):
   XX=           -181.8707   YY=           -188.5700   ZZ=           -190.7596
   XY=             -6.4245   XZ=              8.4850   YZ=              3.8034
 Traceless Quadrupole moment (field-independent basis, Debye-Ang):
   XX=              5.1961   YY=             -1.5032   ZZ=             -3.6928
   XY=             -6.4245   XZ=              8.4850   YZ=              3.8034
 Octapole moment (field-independent basis, Debye-Ang**2):
  XXX=             15.1723  YYY=             64.9179  ZZZ=              0.0324  XYY=             13.4747
  XXY=             -0.9200  XXZ=            -38.5138  XZZ=             24.9448  YZZ=              8.6724
  YYZ=            -27.2544  XYZ=             -2.5148
 Hexadecapole moment (field-independent basis, Debye-Ang**3):
 XXXX=          -9402.9995 YYYY=          -4179.4210 ZZZZ=          -2633.5494 XXXY=              4.8305
 XXXZ=            -27.3100 YYYX=            -67.9233 YYYZ=            -18.9570 ZZZX=             31.6239
 ZZZY=            -17.2103 XXYY=          -2237.8635 XXZZ=          -1994.1321 YYZZ=          -1143.7834
 XXYZ=             69.3696 YYXZ=             27.7221 ZZXY=            -46.0053
 N-N= 3.495027474034D+03 E-N=-1.022306228733D+04  KE= 1.381924124968D+03
 1\1\GINC-B0600\FOpt\RB3LYP\6-311+G(d)\C26H34O5\CAOFEI\13-Apr-2021\0\\#
  opt b3lyp/6-311+g(d) geom=connectivity\\Title Card Required\\0,1\C,1.
 8249073031,0.4646519737,2.8964419262\C,2.2427282013,1.5026125314,2.167
 679538\C,1.7629577133,1.6685445287,0.7458668266\C,1.3839831623,0.35616
 79772,-0.0154367481\C,1.116174987,-0.9143466418,0.8644034752\C,0.87570
 06896,-0.5727684247,2.3643036407\C,0.1971150163,0.7778070767,-0.941353
 9477\C,-1.15569472,0.319225119,-0.4256580749\C,-1.3668933948,-0.883587
 5556,0.1474933202\C,-0.1589762885,-1.6950353689,0.4389803932\C,-2.7055
 828309,-1.4046371705,0.5944191848\O,-2.8208678463,-1.8849645173,1.7038
 740599\C,-3.8593517549,-1.3819157566,-0.4072388823\C,-5.233176412,-1.3
 872515071,0.2766965343\C,-3.6827359509,-2.6019276731,-1.338548896\O,-0
 .1795610232,-2.9081894546,0.4654743194\C,0.0302169741,2.3079050837,-0.
 8389268814\C,-1.4708720111,2.5255655943,-1.1260429865\O,-2.0860252356,
 1.2638621781,-0.6247960924\C,0.5331421824,2.5968041493,0.5864634663\O,
 0.34223302,0.2927079452,-2.264073625\C,2.3852164449,-1.7816643592,0.66
 07497001\C,3.3348055855,-0.9280221862,-0.1778847798\O,2.4577271896,-0.
 0193355421,-0.8895220634\C,4.2561945826,-1.5984071434,-1.171228833\C,5
 .0135183331,-0.6598217651,-2.0761921325\C,4.4412210212,-2.9187503449,-
 1.2003081206\C,-1.7696057375,2.6254564078,-2.6214246314\C,-2.137596776
 2,3.6585813146,-0.357144648\H,0.6509057929,2.8136550675,-1.5816940359\
 H,2.5725115338,2.1073009077,0.14983938\C,3.1656065581,2.5643770961,2.7
 02327773\H,2.151161515,0.3632656336,3.929270268\H,0.9525120441,-1.5003
 487389,2.9368721784\H,-0.158436105,-0.2356607197,2.5076837657\H,-3.760
 5366112,-0.4781150797,-1.0167658847\H,-5.2940952885,-2.2524008211,0.94
 35802575\H,-5.9951158332,-1.5375161929,-0.497395711\H,-2.7040976388,-2
 .6075110377,-1.8242418951\H,-4.446562768,-2.5872732716,-2.120761672\H,
 -3.7844478836,-3.5358904442,-0.7797528772\H,-0.2230030393,2.3325236301
 ,1.3317558695\H,0.7843984571,3.6477035342,0.7446108416\H,1.2418230002,
 -0.0712959254,-2.3272453975\H,2.8407399699,-2.0697495427,1.6092087049\
 H,2.1014654998,-2.6965096712,0.1418312422\H,3.9598111834,-0.3119480186
 ,0.4865549803\H,5.6026143505,0.0585997257,-1.493968368\H,4.3330480284,
 -0.0722555914,-2.6982373699\H,5.6960166566,-1.2034290842,-2.7321078039
 \H,5.1487110568,-3.3687907175,-1.8900122682\H,3.9124925096,-3.60140852
 15,-0.5457605376\H,-2.8485221224,2.5976058846,-2.7917266221\H,-1.38922
 09261,3.5715867318,-3.0171304208\H,-1.3029670853,1.810170695,-3.173691
 8892\H,-1.7048502287,4.617915458,-0.6537789873\H,-2.0215815485,3.54746
 73677,0.721231354\H,-3.2063286228,3.6893771622,-0.5804742807\H,3.44411
 19728,2.3714314301,3.7404819139\H,4.086559142,2.6258949548,2.110288501
 9\H,2.703471388,3.5576556511,2.6603790251\C,-5.5494420885,-0.109821277
 1,1.0590439843\H,-5.5011192241,0.7755168548,0.4164641448\H,-4.84949162
 81,0.0365939856,1.8850649718\H,-6.5556094415,-0.1519315839,1.486194822
 4\\Version=EM64L-G09RevB.01\State=1-A\HF=-1387.6500312\RMSD=9.325e-09\
 RMSF=9.703e-06\Dipole=1.2959615,2.3778515,-0.4037571\Quadrupole=3.8222
 02,-1.2117867,-2.6104152,-4.8391847,6.28858,2.837511\PG=C01 [X(C26H34O
 5)]\\@


 WE'RE IN THE POSITION OF A VISITOR FROM ANOTHER
 DIMENSION WHO COMES TO EARTH AND SEES A CHESS MATCH.
 ASSUMING HE KNOWS IT'S A GAME, HE'S GOT TWO PROBLEMS:
 FIRST, FIGURE OUT THE RULES, AND SECOND, FIGURE OUT HOW TO WIN.
 NINETY PERCENT OF SCIENCE (INCLUDING VIRTUALLY ALL OF CHEMISRY)
 IS IN THAT SECOND CATEGORY.  THEY'RE TRYING TO APPLY
 THE LAWS THAT ARE ALREADY KNOWN.

                     -- SHELDON GLASHOW, 1979
 Job cpu time:  0 days 22 hours 48 minutes 15.2 seconds.
 File lengths (MBytes):  RWF=    372 Int=      0 D2E=      0 Chk=     38 Scr=      1
 Normal termination of Gaussian 09 at Tue Apr 13 22:38:03 2021.
