 Entering Gaussian System, Link 0=g09
 Initial command:
 /public/software/g09/g09/l1.exe /tmp/Gau-10070.inp -scrdir=/tmp/
 Entering Link 1 = /public/software/g09/g09/l1.exe PID=     10071.
  
 Copyright (c) 1988,1990,1992,1993,1995,1998,2003,2009,2010,
            Gaussian, Inc.  All Rights Reserved.
  
 This is part of the Gaussian(R) 09 program.  It is based on
 the Gaussian(R) 03 system (copyright 2003, Gaussian, Inc.),
 the Gaussian(R) 98 system (copyright 1998, Gaussian, Inc.),
 the Gaussian(R) 94 system (copyright 1995, Gaussian, Inc.),
 the Gaussian 92(TM) system (copyright 1992, Gaussian, Inc.),
 the Gaussian 90(TM) system (copyright 1990, Gaussian, Inc.),
 the Gaussian 88(TM) system (copyright 1988, Gaussian, Inc.),
 the Gaussian 86(TM) system (copyright 1986, Carnegie Mellon
 University), and the Gaussian 82(TM) system (copyright 1983,
 Carnegie Mellon University). Gaussian is a federally registered
 trademark of Gaussian, Inc.
  
 This software contains proprietary and confidential information,
 including trade secrets, belonging to Gaussian, Inc.
  
 This software is provided under written license and may be
 used, copied, transmitted, or stored only in accord with that
 written license.
  
 The following legend is applicable only to US Government
 contracts under FAR:
  
                    RESTRICTED RIGHTS LEGEND
  
 Use, reproduction and disclosure by the US Government is
 subject to restrictions as set forth in subparagraphs (a)
 and (c) of the Commercial Computer Software - Restricted
 Rights clause in FAR 52.227-19.
  
 Gaussian, Inc.
 340 Quinnipiac St., Bldg. 40, Wallingford CT 06492
  
  
 ---------------------------------------------------------------
 Warning -- This program may not be used in any manner that
 competes with the business of Gaussian, Inc. or will provide
 assistance to any competitor of Gaussian, Inc.  The licensee
 of this program is prohibited from giving any competitor of
 Gaussian, Inc. access to this program.  By using this program,
 the user acknowledges that Gaussian, Inc. is engaged in the
 business of creating and licensing software in the field of
 computational chemistry and represents and warrants to the
 licensee that it is not a competitor of Gaussian, Inc. and that
 it will not use this program in any manner prohibited above.
 ---------------------------------------------------------------
  

 Cite this work as:
 Gaussian 09, Revision B.01,
 M. J. Frisch, G. W. Trucks, H. B. Schlegel, G. E. Scuseria, 
 M. A. Robb, J. R. Cheeseman, G. Scalmani, V. Barone, B. Mennucci, 
 G. A. Petersson, H. Nakatsuji, M. Caricato, X. Li, H. P. Hratchian, 
 A. F. Izmaylov, J. Bloino, G. Zheng, J. L. Sonnenberg, M. Hada, 
 M. Ehara, K. Toyota, R. Fukuda, J. Hasegawa, M. Ishida, T. Nakajima, 
 Y. Honda, O. Kitao, H. Nakai, T. Vreven, J. A. Montgomery, Jr., 
 J. E. Peralta, F. Ogliaro, M. Bearpark, J. J. Heyd, E. Brothers, 
 K. N. Kudin, V. N. Staroverov, T. Keith, R. Kobayashi, J. Normand, 
 K. Raghavachari, A. Rendell, J. C. Burant, S. S. Iyengar, J. Tomasi, 
 M. Cossi, N. Rega, J. M. Millam, M. Klene, J. E. Knox, J. B. Cross, 
 V. Bakken, C. Adamo, J. Jaramillo, R. Gomperts, R. E. Stratmann, 
 O. Yazyev, A. J. Austin, R. Cammi, C. Pomelli, J. W. Ochterski, 
 R. L. Martin, K. Morokuma, V. G. Zakrzewski, G. A. Voth, 
 P. Salvador, J. J. Dannenberg, S. Dapprich, A. D. Daniels, 
 O. Farkas, J. B. Foresman, J. V. Ortiz, J. Cioslowski, 
 and D. J. Fox, Gaussian, Inc., Wallingford CT, 2010.
 
 ******************************************
 Gaussian 09:  EM64L-G09RevB.01 12-Aug-2010
                13-Apr-2021 
 ******************************************
 %mem=600MW
 %nprocshared=10
 Will use up to   10 processors via shared memory.
 ----------------------------------------
 # opt b3lyp/6-311+g(d) geom=connectivity
 ----------------------------------------
 1/14=-1,18=20,19=15,26=3,38=1,57=2/1,3;
 2/9=110,12=2,17=6,18=5,40=1/2;
 3/5=4,6=6,7=11,11=2,16=1,25=1,30=1,71=1,74=-5/1,2,3;
 4//1;
 5/5=2,38=5/2;
 6/7=2,8=2,9=2,10=2,28=1/1;
 7//1,2,3,16;
 1/14=-1,18=20,19=15/3(2);
 2/9=110/2;
 99//99;
 2/9=110/2;
 3/5=4,6=6,7=11,11=2,16=1,25=1,30=1,71=1,74=-5/1,2,3;
 4/5=5,16=3/1;
 5/5=2,38=5/2;
 7//1,2,3,16;
 1/14=-1,18=20,19=15/3(-5);
 2/9=110/2;
 6/7=2,8=2,9=2,10=2,19=2,28=1/1;
 99/9=1/99;
 -------------------
 Title Card Required
 -------------------
 Symbolic Z-matrix:
 Charge =  0 Multiplicity = 1
 C                    -2.50899   0.31476  -2.69408 
 C                    -3.21333   0.90298  -1.7199 
 C                    -2.6156    1.0456   -0.33946 
 C                    -1.59401  -0.06049   0.07932 
 C                    -0.95982  -0.90385  -1.06633 
 C                    -1.12804  -0.24153  -2.47026 
 C                    -0.54249   0.70171   0.9544 
 C                     0.75994   0.97671   0.21697 
 C                     1.39052   0.04107  -0.55251 
 C                     0.57958  -1.13281  -0.92196 
 C                     2.79703   0.26717  -1.04525 
 O                     3.17056   1.40352  -1.29533 
 C                     3.7407   -0.92862  -1.1652 
 C                     3.97804  -1.56377   0.23264 
 C                     5.03816  -0.53349  -1.87705 
 O                     1.05426  -2.20137  -1.29722 
 C                    -1.0493    2.14337   1.17352 
 C                     0.25674   2.95001   1.34437 
 O                     1.22458   2.18574   0.51073 
 C                    -1.88189   2.39186  -0.0988 
 O                    -0.22158  -0.01052   2.1288 
 C                    -1.73661  -2.234    -1.00505 
 C                    -2.27452  -2.35631   0.42348 
 O                    -2.27024  -0.99048   0.94453 
 C                    -1.57119  -3.26349   1.42123 
 C                    -2.30497  -3.41042   2.73504 
 C                    -0.41891  -3.89605   1.1813 
 C                     0.77517   2.92439   2.78398 
 C                     0.25134   4.36697   0.78088 
 H                    -1.67418   2.20471   2.06957 
 H                    -3.41782   0.97394   0.40671 
 C                    -4.58964   1.47607  -1.93484 
 H                    -2.92768   0.23859  -3.69645 
 H                    -0.37935   0.55356  -2.59289 
 H                    -0.88664  -0.99612  -3.22744 
 H                     3.21625  -1.69097  -1.75175 
 H                     4.60893  -2.45101   0.08848 
 H                     3.01939  -1.93033   0.61663 
 H                     5.56201   0.26913  -1.35095 
 H                     4.83444  -0.17232  -2.89024 
 H                     5.7064   -1.39963  -1.9493 
 H                    -2.57789   3.23044   0.00058 
 H                    -1.23113   2.61221  -0.95343 
 H                    -0.94502  -0.66557   2.21662 
 H                    -1.0986   -3.06303  -1.31087 
 H                    -2.58326  -2.18359  -1.69542 
 H                    -3.33254  -2.6503    0.40382 
 H                    -2.49208  -2.43581   3.20367 
 H                    -3.29032  -3.87342   2.58308 
 H                    -1.74394  -4.02819   3.44207 
 H                     0.03041  -4.53062   1.94181 
 H                     0.12716  -3.80148   0.24929 
 H                     0.1351    3.54315   3.42334 
 H                     0.78005   1.90544   3.1778 
 H                     1.79179   3.32851   2.82131 
 H                     1.24469   4.81494   0.88191 
 H                    -0.02122   4.38273  -0.27716 
 H                    -0.46272   4.98564   1.33558 
 H                    -5.32581   0.99584  -1.27536 
 H                    -4.61912   2.55013  -1.70453 
 H                    -4.92296   1.34588  -2.96931 
 C                     4.6272   -0.63726   1.268 
 H                     4.02126   0.25922   1.44432 
 H                     5.6223   -0.3055    0.95202 
 H                     4.74074  -1.15469   2.2276 
 

 GradGradGradGradGradGradGradGradGradGradGradGradGradGradGradGradGradGrad
 Berny optimization.
 Initialization pass.
                           ----------------------------
                           !    Initial Parameters    !
                           ! (Angstroms and Degrees)  !
 --------------------------                            --------------------------
 ! Name  Definition              Value          Derivative Info.                !
 --------------------------------------------------------------------------------
 ! R1    R(1,2)                  1.3383         estimate D2E/DX2                !
 ! R2    R(1,6)                  1.5055         estimate D2E/DX2                !
 ! R3    R(1,33)                 1.089          estimate D2E/DX2                !
 ! R4    R(2,3)                  1.511          estimate D2E/DX2                !
 ! R5    R(2,32)                 1.5063         estimate D2E/DX2                !
 ! R6    R(3,4)                  1.5628         estimate D2E/DX2                !
 ! R7    R(3,20)                 1.552          estimate D2E/DX2                !
 ! R8    R(3,31)                 1.0979         estimate D2E/DX2                !
 ! R9    R(4,5)                  1.5576         estimate D2E/DX2                !
 ! R10   R(4,7)                  1.566          estimate D2E/DX2                !
 ! R11   R(4,24)                 1.439          estimate D2E/DX2                !
 ! R12   R(5,6)                  1.5614         estimate D2E/DX2                !
 ! R13   R(5,10)                 1.563          estimate D2E/DX2                !
 ! R14   R(5,22)                 1.5416         estimate D2E/DX2                !
 ! R15   R(6,34)                 1.099          estimate D2E/DX2                !
 ! R16   R(6,35)                 1.0959         estimate D2E/DX2                !
 ! R17   R(7,8)                  1.5218         estimate D2E/DX2                !
 ! R18   R(7,17)                 1.5438         estimate D2E/DX2                !
 ! R19   R(7,21)                 1.4105         estimate D2E/DX2                !
 ! R20   R(8,9)                  1.3657         estimate D2E/DX2                !
 ! R21   R(8,19)                 1.3281         estimate D2E/DX2                !
 ! R22   R(9,10)                 1.4738         estimate D2E/DX2                !
 ! R23   R(9,11)                 1.5074         estimate D2E/DX2                !
 ! R24   R(10,16)                1.228          estimate D2E/DX2                !
 ! R25   R(11,12)                1.222          estimate D2E/DX2                !
 ! R26   R(11,13)                1.528          estimate D2E/DX2                !
 ! R27   R(13,14)                1.5536         estimate D2E/DX2                !
 ! R28   R(13,15)                1.5317         estimate D2E/DX2                !
 ! R29   R(13,36)                1.0956         estimate D2E/DX2                !
 ! R30   R(14,37)                1.0982         estimate D2E/DX2                !
 ! R31   R(14,38)                1.0958         estimate D2E/DX2                !
 ! R32   R(14,62)                1.5336         estimate D2E/DX2                !
 ! R33   R(15,39)                1.0933         estimate D2E/DX2                !
 ! R34   R(15,40)                1.0948         estimate D2E/DX2                !
 ! R35   R(15,41)                1.0963         estimate D2E/DX2                !
 ! R36   R(17,18)                1.5445         estimate D2E/DX2                !
 ! R37   R(17,20)                1.5407         estimate D2E/DX2                !
 ! R38   R(17,30)                1.0941         estimate D2E/DX2                !
 ! R39   R(18,19)                1.4886         estimate D2E/DX2                !
 ! R40   R(18,28)                1.5303         estimate D2E/DX2                !
 ! R41   R(18,29)                1.5249         estimate D2E/DX2                !
 ! R42   R(20,42)                1.0943         estimate D2E/DX2                !
 ! R43   R(20,43)                1.0966         estimate D2E/DX2                !
 ! R44   R(21,44)                0.9799         estimate D2E/DX2                !
 ! R45   R(22,23)                1.5313         estimate D2E/DX2                !
 ! R46   R(22,45)                1.0899         estimate D2E/DX2                !
 ! R47   R(22,46)                1.0936         estimate D2E/DX2                !
 ! R48   R(23,24)                1.4618         estimate D2E/DX2                !
 ! R49   R(23,25)                1.5209         estimate D2E/DX2                !
 ! R50   R(23,47)                1.0983         estimate D2E/DX2                !
 ! R51   R(24,44)                1.8655         estimate D2E/DX2                !
 ! R52   R(25,26)                1.512          estimate D2E/DX2                !
 ! R53   R(25,27)                1.3362         estimate D2E/DX2                !
 ! R54   R(26,48)                1.0975         estimate D2E/DX2                !
 ! R55   R(26,49)                1.0993         estimate D2E/DX2                !
 ! R56   R(26,50)                1.0938         estimate D2E/DX2                !
 ! R57   R(27,51)                1.0876         estimate D2E/DX2                !
 ! R58   R(27,52)                1.0843         estimate D2E/DX2                !
 ! R59   R(28,53)                1.0961         estimate D2E/DX2                !
 ! R60   R(28,54)                1.0924         estimate D2E/DX2                !
 ! R61   R(28,55)                1.0946         estimate D2E/DX2                !
 ! R62   R(29,56)                1.0944         estimate D2E/DX2                !
 ! R63   R(29,57)                1.0927         estimate D2E/DX2                !
 ! R64   R(29,58)                1.0956         estimate D2E/DX2                !
 ! R65   R(32,59)                1.0989         estimate D2E/DX2                !
 ! R66   R(32,60)                1.0989         estimate D2E/DX2                !
 ! R67   R(32,61)                1.0946         estimate D2E/DX2                !
 ! R68   R(62,63)                1.0963         estimate D2E/DX2                !
 ! R69   R(62,64)                1.0955         estimate D2E/DX2                !
 ! R70   R(62,65)                1.0961         estimate D2E/DX2                !
 ! A1    A(2,1,6)              122.4747         estimate D2E/DX2                !
 ! A2    A(2,1,33)             119.8956         estimate D2E/DX2                !
 ! A3    A(6,1,33)             117.624          estimate D2E/DX2                !
 ! A4    A(1,2,3)              119.887          estimate D2E/DX2                !
 ! A5    A(1,2,32)             122.9719         estimate D2E/DX2                !
 ! A6    A(3,2,32)             117.1229         estimate D2E/DX2                !
 ! A7    A(2,3,4)              115.8861         estimate D2E/DX2                !
 ! A8    A(2,3,20)             114.239          estimate D2E/DX2                !
 ! A9    A(2,3,31)             109.0063         estimate D2E/DX2                !
 ! A10   A(4,3,20)             105.269          estimate D2E/DX2                !
 ! A11   A(4,3,31)             104.4377         estimate D2E/DX2                !
 ! A12   A(20,3,31)            107.2567         estimate D2E/DX2                !
 ! A13   A(3,4,5)              116.8901         estimate D2E/DX2                !
 ! A14   A(3,4,7)              104.1338         estimate D2E/DX2                !
 ! A15   A(3,4,24)             108.1391         estimate D2E/DX2                !
 ! A16   A(5,4,7)              113.6504         estimate D2E/DX2                !
 ! A17   A(5,4,24)             106.4786         estimate D2E/DX2                !
 ! A18   A(7,4,24)             107.1042         estimate D2E/DX2                !
 ! A19   A(4,5,6)              112.8186         estimate D2E/DX2                !
 ! A20   A(4,5,10)             114.3557         estimate D2E/DX2                !
 ! A21   A(4,5,22)             103.4612         estimate D2E/DX2                !
 ! A22   A(6,5,10)             104.5544         estimate D2E/DX2                !
 ! A23   A(6,5,22)             110.332          estimate D2E/DX2                !
 ! A24   A(10,5,22)            111.4823         estimate D2E/DX2                !
 ! A25   A(1,6,5)              112.9067         estimate D2E/DX2                !
 ! A26   A(1,6,34)             109.9369         estimate D2E/DX2                !
 ! A27   A(1,6,35)             110.7176         estimate D2E/DX2                !
 ! A28   A(5,6,34)             109.5008         estimate D2E/DX2                !
 ! A29   A(5,6,35)             107.784          estimate D2E/DX2                !
 ! A30   A(34,6,35)            105.7232         estimate D2E/DX2                !
 ! A31   A(4,7,8)              113.0696         estimate D2E/DX2                !
 ! A32   A(4,7,17)             108.2639         estimate D2E/DX2                !
 ! A33   A(4,7,21)             111.8556         estimate D2E/DX2                !
 ! A34   A(8,7,17)             100.428          estimate D2E/DX2                !
 ! A35   A(8,7,21)             107.4579         estimate D2E/DX2                !
 ! A36   A(17,7,21)            115.3448         estimate D2E/DX2                !
 ! A37   A(7,8,9)              122.9841         estimate D2E/DX2                !
 ! A38   A(7,8,19)             110.9            estimate D2E/DX2                !
 ! A39   A(9,8,19)             125.9268         estimate D2E/DX2                !
 ! A40   A(8,9,10)             115.6492         estimate D2E/DX2                !
 ! A41   A(8,9,11)             120.8132         estimate D2E/DX2                !
 ! A42   A(10,9,11)            123.4318         estimate D2E/DX2                !
 ! A43   A(5,10,9)             116.6408         estimate D2E/DX2                !
 ! A44   A(5,10,16)            118.6824         estimate D2E/DX2                !
 ! A45   A(9,10,16)            123.8484         estimate D2E/DX2                !
 ! A46   A(9,11,12)            119.4446         estimate D2E/DX2                !
 ! A47   A(9,11,13)            118.9819         estimate D2E/DX2                !
 ! A48   A(12,11,13)           121.5254         estimate D2E/DX2                !
 ! A49   A(11,13,14)           110.0996         estimate D2E/DX2                !
 ! A50   A(11,13,15)           110.9608         estimate D2E/DX2                !
 ! A51   A(11,13,36)           106.9146         estimate D2E/DX2                !
 ! A52   A(14,13,15)           113.2155         estimate D2E/DX2                !
 ! A53   A(14,13,36)           105.6853         estimate D2E/DX2                !
 ! A54   A(15,13,36)           109.6442         estimate D2E/DX2                !
 ! A55   A(13,14,37)           107.4544         estimate D2E/DX2                !
 ! A56   A(13,14,38)           108.5653         estimate D2E/DX2                !
 ! A57   A(13,14,62)           115.1577         estimate D2E/DX2                !
 ! A58   A(37,14,38)           106.1604         estimate D2E/DX2                !
 ! A59   A(37,14,62)           109.485          estimate D2E/DX2                !
 ! A60   A(38,14,62)           109.6232         estimate D2E/DX2                !
 ! A61   A(13,15,39)           111.8133         estimate D2E/DX2                !
 ! A62   A(13,15,40)           110.9514         estimate D2E/DX2                !
 ! A63   A(13,15,41)           110.0671         estimate D2E/DX2                !
 ! A64   A(39,15,40)           106.9964         estimate D2E/DX2                !
 ! A65   A(39,15,41)           108.6412         estimate D2E/DX2                !
 ! A66   A(40,15,41)           108.244          estimate D2E/DX2                !
 ! A67   A(7,17,18)            103.0506         estimate D2E/DX2                !
 ! A68   A(7,17,20)            102.1697         estimate D2E/DX2                !
 ! A69   A(7,17,30)            110.8599         estimate D2E/DX2                !
 ! A70   A(18,17,20)           117.6501         estimate D2E/DX2                !
 ! A71   A(18,17,30)           111.2884         estimate D2E/DX2                !
 ! A72   A(20,17,30)           111.0156         estimate D2E/DX2                !
 ! A73   A(17,18,19)           102.6912         estimate D2E/DX2                !
 ! A74   A(17,18,28)           112.4438         estimate D2E/DX2                !
 ! A75   A(17,18,29)           116.1942         estimate D2E/DX2                !
 ! A76   A(19,18,28)           107.336          estimate D2E/DX2                !
 ! A77   A(19,18,29)           105.8098         estimate D2E/DX2                !
 ! A78   A(28,18,29)           111.3693         estimate D2E/DX2                !
 ! A79   A(8,19,18)            111.3337         estimate D2E/DX2                !
 ! A80   A(3,20,17)            104.1006         estimate D2E/DX2                !
 ! A81   A(3,20,42)            112.2183         estimate D2E/DX2                !
 ! A82   A(3,20,43)            109.513          estimate D2E/DX2                !
 ! A83   A(17,20,42)           113.0975         estimate D2E/DX2                !
 ! A84   A(17,20,43)           110.8133         estimate D2E/DX2                !
 ! A85   A(42,20,43)           107.1117         estimate D2E/DX2                !
 ! A86   A(7,21,44)            104.135          estimate D2E/DX2                !
 ! A87   A(5,22,23)            106.4397         estimate D2E/DX2                !
 ! A88   A(5,22,45)            110.4996         estimate D2E/DX2                !
 ! A89   A(5,22,46)            108.9804         estimate D2E/DX2                !
 ! A90   A(23,22,45)           113.993          estimate D2E/DX2                !
 ! A91   A(23,22,46)           108.7014         estimate D2E/DX2                !
 ! A92   A(45,22,46)           108.1267         estimate D2E/DX2                !
 ! A93   A(22,23,24)           104.8832         estimate D2E/DX2                !
 ! A94   A(22,23,25)           119.8137         estimate D2E/DX2                !
 ! A95   A(22,23,47)           110.0643         estimate D2E/DX2                !
 ! A96   A(24,23,25)           108.7906         estimate D2E/DX2                !
 ! A97   A(24,23,47)           105.0285         estimate D2E/DX2                !
 ! A98   A(25,23,47)           107.3114         estimate D2E/DX2                !
 ! A99   A(4,24,23)            113.0099         estimate D2E/DX2                !
 ! A100  A(23,25,26)           113.8016         estimate D2E/DX2                !
 ! A101  A(23,25,27)           124.2884         estimate D2E/DX2                !
 ! A102  A(26,25,27)           121.9064         estimate D2E/DX2                !
 ! A103  A(25,26,48)           111.5604         estimate D2E/DX2                !
 ! A104  A(25,26,49)           110.8442         estimate D2E/DX2                !
 ! A105  A(25,26,50)           111.5706         estimate D2E/DX2                !
 ! A106  A(48,26,49)           106.2747         estimate D2E/DX2                !
 ! A107  A(48,26,50)           108.2403         estimate D2E/DX2                !
 ! A108  A(49,26,50)           108.1345         estimate D2E/DX2                !
 ! A109  A(25,27,51)           120.4575         estimate D2E/DX2                !
 ! A110  A(25,27,52)           123.1846         estimate D2E/DX2                !
 ! A111  A(51,27,52)           116.3489         estimate D2E/DX2                !
 ! A112  A(18,28,53)           109.9663         estimate D2E/DX2                !
 ! A113  A(18,28,54)           110.8709         estimate D2E/DX2                !
 ! A114  A(18,28,55)           109.9094         estimate D2E/DX2                !
 ! A115  A(53,28,54)           108.5949         estimate D2E/DX2                !
 ! A116  A(53,28,55)           108.3029         estimate D2E/DX2                !
 ! A117  A(54,28,55)           109.1422         estimate D2E/DX2                !
 ! A118  A(18,29,56)           110.0619         estimate D2E/DX2                !
 ! A119  A(18,29,57)           111.8444         estimate D2E/DX2                !
 ! A120  A(18,29,58)           109.873          estimate D2E/DX2                !
 ! A121  A(56,29,57)           108.0534         estimate D2E/DX2                !
 ! A122  A(56,29,58)           108.2825         estimate D2E/DX2                !
 ! A123  A(57,29,58)           108.6344         estimate D2E/DX2                !
 ! A124  A(2,32,59)            111.1141         estimate D2E/DX2                !
 ! A125  A(2,32,60)            111.499          estimate D2E/DX2                !
 ! A126  A(2,32,61)            111.5822         estimate D2E/DX2                !
 ! A127  A(59,32,60)           106.4636         estimate D2E/DX2                !
 ! A128  A(59,32,61)           108.131          estimate D2E/DX2                !
 ! A129  A(60,32,61)           107.8277         estimate D2E/DX2                !
 ! A130  A(14,62,63)           111.6325         estimate D2E/DX2                !
 ! A131  A(14,62,64)           111.8846         estimate D2E/DX2                !
 ! A132  A(14,62,65)           110.4686         estimate D2E/DX2                !
 ! A133  A(63,62,64)           107.5058         estimate D2E/DX2                !
 ! A134  A(63,62,65)           107.6057         estimate D2E/DX2                !
 ! A135  A(64,62,65)           107.5403         estimate D2E/DX2                !
 ! D1    D(6,1,2,3)              0.939          estimate D2E/DX2                !
 ! D2    D(6,1,2,32)           179.3426         estimate D2E/DX2                !
 ! D3    D(33,1,2,3)          -178.1687         estimate D2E/DX2                !
 ! D4    D(33,1,2,32)            0.2348         estimate D2E/DX2                !
 ! D5    D(2,1,6,5)             37.0336         estimate D2E/DX2                !
 ! D6    D(2,1,6,34)           -85.5666         estimate D2E/DX2                !
 ! D7    D(2,1,6,35)           157.9855         estimate D2E/DX2                !
 ! D8    D(33,1,6,5)          -143.8395         estimate D2E/DX2                !
 ! D9    D(33,1,6,34)           93.5604         estimate D2E/DX2                !
 ! D10   D(33,1,6,35)          -22.8875         estimate D2E/DX2                !
 ! D11   D(1,2,3,4)            -29.6949         estimate D2E/DX2                !
 ! D12   D(1,2,3,20)            92.9553         estimate D2E/DX2                !
 ! D13   D(1,2,3,31)          -147.0991         estimate D2E/DX2                !
 ! D14   D(32,2,3,4)           151.8099         estimate D2E/DX2                !
 ! D15   D(32,2,3,20)          -85.5399         estimate D2E/DX2                !
 ! D16   D(32,2,3,31)           34.4057         estimate D2E/DX2                !
 ! D17   D(1,2,32,59)          120.8489         estimate D2E/DX2                !
 ! D18   D(1,2,32,60)         -120.5557         estimate D2E/DX2                !
 ! D19   D(1,2,32,61)            0.086          estimate D2E/DX2                !
 ! D20   D(3,2,32,59)          -60.7063         estimate D2E/DX2                !
 ! D21   D(3,2,32,60)           57.8891         estimate D2E/DX2                !
 ! D22   D(3,2,32,61)          178.5309         estimate D2E/DX2                !
 ! D23   D(2,3,4,5)             18.8253         estimate D2E/DX2                !
 ! D24   D(2,3,4,7)            145.0906         estimate D2E/DX2                !
 ! D25   D(2,3,4,24)          -101.2283         estimate D2E/DX2                !
 ! D26   D(20,3,4,5)          -108.4395         estimate D2E/DX2                !
 ! D27   D(20,3,4,7)            17.8257         estimate D2E/DX2                !
 ! D28   D(20,3,4,24)          131.5069         estimate D2E/DX2                !
 ! D29   D(31,3,4,5)           138.7416         estimate D2E/DX2                !
 ! D30   D(31,3,4,7)           -94.9931         estimate D2E/DX2                !
 ! D31   D(31,3,4,24)           18.688          estimate D2E/DX2                !
 ! D32   D(2,3,20,17)         -164.6851         estimate D2E/DX2                !
 ! D33   D(2,3,20,42)           72.6632         estimate D2E/DX2                !
 ! D34   D(2,3,20,43)          -46.1496         estimate D2E/DX2                !
 ! D35   D(4,3,20,17)          -36.4259         estimate D2E/DX2                !
 ! D36   D(4,3,20,42)         -159.0776         estimate D2E/DX2                !
 ! D37   D(4,3,20,43)           82.1096         estimate D2E/DX2                !
 ! D38   D(31,3,20,17)          74.3941         estimate D2E/DX2                !
 ! D39   D(31,3,20,42)         -48.2576         estimate D2E/DX2                !
 ! D40   D(31,3,20,43)        -167.0704         estimate D2E/DX2                !
 ! D41   D(3,4,5,6)             16.803          estimate D2E/DX2                !
 ! D42   D(3,4,5,10)           136.1262         estimate D2E/DX2                !
 ! D43   D(3,4,5,22)          -102.4273         estimate D2E/DX2                !
 ! D44   D(7,4,5,6)           -104.5949         estimate D2E/DX2                !
 ! D45   D(7,4,5,10)            14.7284         estimate D2E/DX2                !
 ! D46   D(7,4,5,22)           136.1749         estimate D2E/DX2                !
 ! D47   D(24,4,5,6)           137.7354         estimate D2E/DX2                !
 ! D48   D(24,4,5,10)         -102.9414         estimate D2E/DX2                !
 ! D49   D(24,4,5,22)           18.5051         estimate D2E/DX2                !
 ! D50   D(3,4,7,8)           -103.3517         estimate D2E/DX2                !
 ! D51   D(3,4,7,17)             6.9966         estimate D2E/DX2                !
 ! D52   D(3,4,7,21)           135.1707         estimate D2E/DX2                !
 ! D53   D(5,4,7,8)             24.9236         estimate D2E/DX2                !
 ! D54   D(5,4,7,17)           135.2719         estimate D2E/DX2                !
 ! D55   D(5,4,7,21)           -96.554          estimate D2E/DX2                !
 ! D56   D(24,4,7,8)           142.2305         estimate D2E/DX2                !
 ! D57   D(24,4,7,17)         -107.4211         estimate D2E/DX2                !
 ! D58   D(24,4,7,21)           20.7529         estimate D2E/DX2                !
 ! D59   D(3,4,24,23)          120.3633         estimate D2E/DX2                !
 ! D60   D(5,4,24,23)           -6.023          estimate D2E/DX2                !
 ! D61   D(7,4,24,23)         -127.9421         estimate D2E/DX2                !
 ! D62   D(4,5,6,1)            -43.5708         estimate D2E/DX2                !
 ! D63   D(4,5,6,34)            79.2726         estimate D2E/DX2                !
 ! D64   D(4,5,6,35)          -166.1767         estimate D2E/DX2                !
 ! D65   D(10,5,6,1)          -168.4249         estimate D2E/DX2                !
 ! D66   D(10,5,6,34)          -45.5815         estimate D2E/DX2                !
 ! D67   D(10,5,6,35)           68.9692         estimate D2E/DX2                !
 ! D68   D(22,5,6,1)            71.5949         estimate D2E/DX2                !
 ! D69   D(22,5,6,34)         -165.5617         estimate D2E/DX2                !
 ! D70   D(22,5,6,35)          -51.011          estimate D2E/DX2                !
 ! D71   D(4,5,10,9)           -44.9254         estimate D2E/DX2                !
 ! D72   D(4,5,10,16)          145.0895         estimate D2E/DX2                !
 ! D73   D(6,5,10,9)            78.9471         estimate D2E/DX2                !
 ! D74   D(6,5,10,16)          -91.038          estimate D2E/DX2                !
 ! D75   D(22,5,10,9)         -161.8465         estimate D2E/DX2                !
 ! D76   D(22,5,10,16)          28.1684         estimate D2E/DX2                !
 ! D77   D(4,5,22,23)          -24.0462         estimate D2E/DX2                !
 ! D78   D(4,5,22,45)         -148.3054         estimate D2E/DX2                !
 ! D79   D(4,5,22,46)           93.0195         estimate D2E/DX2                !
 ! D80   D(6,5,22,23)         -144.9742         estimate D2E/DX2                !
 ! D81   D(6,5,22,45)           90.7665         estimate D2E/DX2                !
 ! D82   D(6,5,22,46)          -27.9086         estimate D2E/DX2                !
 ! D83   D(10,5,22,23)          99.3146         estimate D2E/DX2                !
 ! D84   D(10,5,22,45)         -24.9446         estimate D2E/DX2                !
 ! D85   D(10,5,22,46)        -143.6197         estimate D2E/DX2                !
 ! D86   D(4,7,8,9)            -44.3794         estimate D2E/DX2                !
 ! D87   D(4,7,8,19)           140.3505         estimate D2E/DX2                !
 ! D88   D(17,7,8,9)          -159.5136         estimate D2E/DX2                !
 ! D89   D(17,7,8,19)           25.2163         estimate D2E/DX2                !
 ! D90   D(21,7,8,9)            79.5458         estimate D2E/DX2                !
 ! D91   D(21,7,8,19)          -95.7243         estimate D2E/DX2                !
 ! D92   D(4,7,17,18)         -151.5025         estimate D2E/DX2                !
 ! D93   D(4,7,17,20)          -29.0015         estimate D2E/DX2                !
 ! D94   D(4,7,17,30)           89.3434         estimate D2E/DX2                !
 ! D95   D(8,7,17,18)          -32.7974         estimate D2E/DX2                !
 ! D96   D(8,7,17,20)           89.7037         estimate D2E/DX2                !
 ! D97   D(8,7,17,30)         -151.9514         estimate D2E/DX2                !
 ! D98   D(21,7,17,18)          82.3345         estimate D2E/DX2                !
 ! D99   D(21,7,17,20)        -155.1645         estimate D2E/DX2                !
 ! D100  D(21,7,17,30)         -36.8196         estimate D2E/DX2                !
 ! D101  D(4,7,21,44)          -16.7294         estimate D2E/DX2                !
 ! D102  D(8,7,21,44)         -141.3905         estimate D2E/DX2                !
 ! D103  D(17,7,21,44)         107.5764         estimate D2E/DX2                !
 ! D104  D(7,8,9,10)            15.3937         estimate D2E/DX2                !
 ! D105  D(7,8,9,11)          -168.2205         estimate D2E/DX2                !
 ! D106  D(19,8,9,10)         -170.0652         estimate D2E/DX2                !
 ! D107  D(19,8,9,11)            6.3206         estimate D2E/DX2                !
 ! D108  D(7,8,19,18)           -6.3419         estimate D2E/DX2                !
 ! D109  D(9,8,19,18)          178.5582         estimate D2E/DX2                !
 ! D110  D(8,9,10,5)            30.0923         estimate D2E/DX2                !
 ! D111  D(8,9,10,16)         -160.493          estimate D2E/DX2                !
 ! D112  D(11,9,10,5)         -146.1881         estimate D2E/DX2                !
 ! D113  D(11,9,10,16)          23.2266         estimate D2E/DX2                !
 ! D114  D(8,9,11,12)          -32.2624         estimate D2E/DX2                !
 ! D115  D(8,9,11,13)          145.254          estimate D2E/DX2                !
 ! D116  D(10,9,11,12)         143.8332         estimate D2E/DX2                !
 ! D117  D(10,9,11,13)         -38.6504         estimate D2E/DX2                !
 ! D118  D(9,11,13,14)         -62.4943         estimate D2E/DX2                !
 ! D119  D(9,11,13,15)         171.3711         estimate D2E/DX2                !
 ! D120  D(9,11,13,36)          51.848          estimate D2E/DX2                !
 ! D121  D(12,11,13,14)        114.9684         estimate D2E/DX2                !
 ! D122  D(12,11,13,15)        -11.1663         estimate D2E/DX2                !
 ! D123  D(12,11,13,36)       -130.6894         estimate D2E/DX2                !
 ! D124  D(11,13,14,37)        176.6002         estimate D2E/DX2                !
 ! D125  D(11,13,14,38)         62.1828         estimate D2E/DX2                !
 ! D126  D(11,13,14,62)        -61.1251         estimate D2E/DX2                !
 ! D127  D(15,13,14,37)        -58.5484         estimate D2E/DX2                !
 ! D128  D(15,13,14,38)       -172.9658         estimate D2E/DX2                !
 ! D129  D(15,13,14,62)         63.7263         estimate D2E/DX2                !
 ! D130  D(36,13,14,37)         61.4775         estimate D2E/DX2                !
 ! D131  D(36,13,14,38)        -52.9399         estimate D2E/DX2                !
 ! D132  D(36,13,14,62)       -176.2478         estimate D2E/DX2                !
 ! D133  D(11,13,15,39)         58.7858         estimate D2E/DX2                !
 ! D134  D(11,13,15,40)        -60.5808         estimate D2E/DX2                !
 ! D135  D(11,13,15,41)        179.6331         estimate D2E/DX2                !
 ! D136  D(14,13,15,39)        -65.5985         estimate D2E/DX2                !
 ! D137  D(14,13,15,40)        175.035          estimate D2E/DX2                !
 ! D138  D(14,13,15,41)         55.2489         estimate D2E/DX2                !
 ! D139  D(36,13,15,39)        176.6617         estimate D2E/DX2                !
 ! D140  D(36,13,15,40)         57.2952         estimate D2E/DX2                !
 ! D141  D(36,13,15,41)        -62.4909         estimate D2E/DX2                !
 ! D142  D(13,14,62,63)         59.2061         estimate D2E/DX2                !
 ! D143  D(13,14,62,64)        -61.3263         estimate D2E/DX2                !
 ! D144  D(13,14,62,65)        178.8983         estimate D2E/DX2                !
 ! D145  D(37,14,62,63)       -179.6163         estimate D2E/DX2                !
 ! D146  D(37,14,62,64)         59.8513         estimate D2E/DX2                !
 ! D147  D(37,14,62,65)        -59.9242         estimate D2E/DX2                !
 ! D148  D(38,14,62,63)        -63.5385         estimate D2E/DX2                !
 ! D149  D(38,14,62,64)        175.9291         estimate D2E/DX2                !
 ! D150  D(38,14,62,65)         56.1537         estimate D2E/DX2                !
 ! D151  D(7,17,18,19)          30.1231         estimate D2E/DX2                !
 ! D152  D(7,17,18,28)         -84.932          estimate D2E/DX2                !
 ! D153  D(7,17,18,29)         145.0848         estimate D2E/DX2                !
 ! D154  D(20,17,18,19)        -81.3298         estimate D2E/DX2                !
 ! D155  D(20,17,18,28)        163.6151         estimate D2E/DX2                !
 ! D156  D(20,17,18,29)         33.6319         estimate D2E/DX2                !
 ! D157  D(30,17,18,19)        148.9793         estimate D2E/DX2                !
 ! D158  D(30,17,18,28)         33.9242         estimate D2E/DX2                !
 ! D159  D(30,17,18,29)        -96.0589         estimate D2E/DX2                !
 ! D160  D(7,17,20,3)           39.815          estimate D2E/DX2                !
 ! D161  D(7,17,20,42)         161.8874         estimate D2E/DX2                !
 ! D162  D(7,17,20,43)         -77.8258         estimate D2E/DX2                !
 ! D163  D(18,17,20,3)         151.7631         estimate D2E/DX2                !
 ! D164  D(18,17,20,42)        -86.1644         estimate D2E/DX2                !
 ! D165  D(18,17,20,43)         34.1223         estimate D2E/DX2                !
 ! D166  D(30,17,20,3)         -78.4192         estimate D2E/DX2                !
 ! D167  D(30,17,20,42)         43.6533         estimate D2E/DX2                !
 ! D168  D(30,17,20,43)        163.94           estimate D2E/DX2                !
 ! D169  D(17,18,19,8)         -15.5085         estimate D2E/DX2                !
 ! D170  D(28,18,19,8)         103.1938         estimate D2E/DX2                !
 ! D171  D(29,18,19,8)        -137.7863         estimate D2E/DX2                !
 ! D172  D(17,18,28,53)        -72.2519         estimate D2E/DX2                !
 ! D173  D(17,18,28,54)         47.8548         estimate D2E/DX2                !
 ! D174  D(17,18,28,55)        168.6081         estimate D2E/DX2                !
 ! D175  D(19,18,28,53)        175.5411         estimate D2E/DX2                !
 ! D176  D(19,18,28,54)        -64.3522         estimate D2E/DX2                !
 ! D177  D(19,18,28,55)         56.4011         estimate D2E/DX2                !
 ! D178  D(29,18,28,53)         60.1612         estimate D2E/DX2                !
 ! D179  D(29,18,28,54)       -179.7321         estimate D2E/DX2                !
 ! D180  D(29,18,28,55)        -58.9788         estimate D2E/DX2                !
 ! D181  D(17,18,29,56)       -175.3711         estimate D2E/DX2                !
 ! D182  D(17,18,29,57)        -55.2494         estimate D2E/DX2                !
 ! D183  D(17,18,29,58)         65.4774         estimate D2E/DX2                !
 ! D184  D(19,18,29,56)        -62.1824         estimate D2E/DX2                !
 ! D185  D(19,18,29,57)         57.9394         estimate D2E/DX2                !
 ! D186  D(19,18,29,58)        178.6662         estimate D2E/DX2                !
 ! D187  D(28,18,29,56)         54.1351         estimate D2E/DX2                !
 ! D188  D(28,18,29,57)        174.2569         estimate D2E/DX2                !
 ! D189  D(28,18,29,58)        -65.0163         estimate D2E/DX2                !
 ! D190  D(5,22,23,24)          20.8628         estimate D2E/DX2                !
 ! D191  D(5,22,23,25)        -101.5778         estimate D2E/DX2                !
 ! D192  D(5,22,23,47)         133.3641         estimate D2E/DX2                !
 ! D193  D(45,22,23,24)        142.9351         estimate D2E/DX2                !
 ! D194  D(45,22,23,25)         20.4945         estimate D2E/DX2                !
 ! D195  D(45,22,23,47)       -104.5636         estimate D2E/DX2                !
 ! D196  D(46,22,23,24)        -96.3884         estimate D2E/DX2                !
 ! D197  D(46,22,23,25)        141.171          estimate D2E/DX2                !
 ! D198  D(46,22,23,47)         16.1129         estimate D2E/DX2                !
 ! D199  D(22,23,24,4)          -9.2571         estimate D2E/DX2                !
 ! D200  D(25,23,24,4)         120.0761         estimate D2E/DX2                !
 ! D201  D(47,23,24,4)        -125.2913         estimate D2E/DX2                !
 ! D202  D(22,23,25,26)       -173.1437         estimate D2E/DX2                !
 ! D203  D(22,23,25,27)          6.1727         estimate D2E/DX2                !
 ! D204  D(24,23,25,26)         66.3479         estimate D2E/DX2                !
 ! D205  D(24,23,25,27)       -114.3357         estimate D2E/DX2                !
 ! D206  D(47,23,25,26)        -46.7898         estimate D2E/DX2                !
 ! D207  D(47,23,25,27)        132.5266         estimate D2E/DX2                !
 ! D208  D(23,25,26,48)        -55.9292         estimate D2E/DX2                !
 ! D209  D(23,25,26,49)         62.2917         estimate D2E/DX2                !
 ! D210  D(23,25,26,50)       -177.1344         estimate D2E/DX2                !
 ! D211  D(27,25,26,48)        124.7361         estimate D2E/DX2                !
 ! D212  D(27,25,26,49)       -117.043          estimate D2E/DX2                !
 ! D213  D(27,25,26,50)          3.5309         estimate D2E/DX2                !
 ! D214  D(23,25,27,51)        179.9501         estimate D2E/DX2                !
 ! D215  D(23,25,27,52)          1.075          estimate D2E/DX2                !
 ! D216  D(26,25,27,51)         -0.7866         estimate D2E/DX2                !
 ! D217  D(26,25,27,52)       -179.6618         estimate D2E/DX2                !
 --------------------------------------------------------------------------------
 Trust Radius=3.00D-01 FncErr=1.00D-07 GrdErr=1.00D-06
 Number of steps in this run=    390 maximum allowed number of steps=    390.
 GradGradGradGradGradGradGradGradGradGradGradGradGradGradGradGradGradGrad

 Stoichiometry    C26H34O5
 Framework group  C1[X(C26H34O5)]
 Deg. of freedom   189
 Full point group                 C1      NOp   1
 Largest Abelian subgroup         C1      NOp   1
 Largest concise Abelian subgroup C1      NOp   1
                         Standard orientation:                         
 ---------------------------------------------------------------------
 Center     Atomic      Atomic             Coordinates (Angstroms)
 Number     Number       Type             X           Y           Z
 ---------------------------------------------------------------------
      1          6           0       -2.508991    0.314759   -2.694075
      2          6           0       -3.213329    0.902982   -1.719895
      3          6           0       -2.615595    1.045595   -0.339456
      4          6           0       -1.594010   -0.060490    0.079319
      5          6           0       -0.959818   -0.903847   -1.066331
      6          6           0       -1.128044   -0.241528   -2.470260
      7          6           0       -0.542489    0.701707    0.954402
      8          6           0        0.759940    0.976705    0.216966
      9          6           0        1.390516    0.041068   -0.552514
     10          6           0        0.579580   -1.132810   -0.921963
     11          6           0        2.797032    0.267171   -1.045251
     12          8           0        3.170557    1.403522   -1.295329
     13          6           0        3.740702   -0.928615   -1.165203
     14          6           0        3.978044   -1.563774    0.232643
     15          6           0        5.038164   -0.533487   -1.877048
     16          8           0        1.054259   -2.201373   -1.297215
     17          6           0       -1.049297    2.143368    1.173522
     18          6           0        0.256738    2.950009    1.344374
     19          8           0        1.224578    2.185736    0.510731
     20          6           0       -1.881888    2.391855   -0.098799
     21          8           0       -0.221575   -0.010523    2.128800
     22          6           0       -1.736614   -2.233996   -1.005047
     23          6           0       -2.274520   -2.356308    0.423475
     24          8           0       -2.270244   -0.990483    0.944526
     25          6           0       -1.571185   -3.263490    1.421232
     26          6           0       -2.304970   -3.410417    2.735041
     27          6           0       -0.418912   -3.896046    1.181298
     28          6           0        0.775169    2.924388    2.783976
     29          6           0        0.251337    4.366970    0.780882
     30          1           0       -1.674180    2.204705    2.069567
     31          1           0       -3.417824    0.973944    0.406709
     32          6           0       -4.589639    1.476073   -1.934835
     33          1           0       -2.927680    0.238588   -3.696446
     34          1           0       -0.379346    0.553561   -2.592892
     35          1           0       -0.886638   -0.996121   -3.227440
     36          1           0        3.216248   -1.690965   -1.751752
     37          1           0        4.608929   -2.451008    0.088480
     38          1           0        3.019388   -1.930328    0.616633
     39          1           0        5.562007    0.269134   -1.350945
     40          1           0        4.834441   -0.172319   -2.890241
     41          1           0        5.706402   -1.399630   -1.949303
     42          1           0       -2.577887    3.230438    0.000583
     43          1           0       -1.231134    2.612211   -0.953427
     44          1           0       -0.945015   -0.665574    2.216620
     45          1           0       -1.098602   -3.063033   -1.310866
     46          1           0       -2.583260   -2.183593   -1.695417
     47          1           0       -3.332541   -2.650302    0.403818
     48          1           0       -2.492079   -2.435813    3.203674
     49          1           0       -3.290315   -3.873419    2.583080
     50          1           0       -1.743938   -4.028194    3.442074
     51          1           0        0.030413   -4.530616    1.941807
     52          1           0        0.127163   -3.801483    0.249290
     53          1           0        0.135102    3.543145    3.423342
     54          1           0        0.780045    1.905435    3.177802
     55          1           0        1.791791    3.328512    2.821312
     56          1           0        1.244688    4.814937    0.881914
     57          1           0       -0.021220    4.382725   -0.277155
     58          1           0       -0.462721    4.985643    1.335581
     59          1           0       -5.325813    0.995843   -1.275356
     60          1           0       -4.619119    2.550133   -1.704530
     61          1           0       -4.922959    1.345877   -2.969310
     62          6           0        4.627203   -0.637256    1.268001
     63          1           0        4.021263    0.259222    1.444323
     64          1           0        5.622303   -0.305498    0.952023
     65          1           0        4.740743   -1.154692    2.227600
 ---------------------------------------------------------------------
 Rotational constants (GHZ):      0.1892542      0.1447757      0.1186984
 Standard basis: 6-311+G(d) (5D, 7F)
 There are   784 symmetry adapted basis functions of A   symmetry.
 Integral buffers will be    131072 words long.
 Raffenetti 2 integral format.
 Two-electron integral symmetry is turned on.
   784 basis functions,  1286 primitive gaussians,   815 cartesian basis functions
   115 alpha electrons      115 beta electrons
       nuclear repulsion energy      3541.2377551683 Hartrees.
 NAtoms=   65 NActive=   65 NUniq=   65 SFac= 1.00D+00 NAtFMM=   50 NAOKFM=T Big=T
 One-electron integrals computed using PRISM.
 NBasis=   784 RedAO= T  NBF=   784
 NBsUse=   778 1.00D-06 NBFU=   778
 Harris functional with IExCor=  402 diagonalized for initial guess.
 ExpMin= 4.38D-02 ExpMax= 8.59D+03 ExpMxC= 1.30D+03 IAcc=2 IRadAn=         0 AccDes= 0.00D+00
 HarFok:  IExCor=  402 AccDes= 0.00D+00 IRadAn=         0 IDoV= 1
 ScaDFX=  1.000000  1.000000  1.000000  1.000000
 FoFCou: FMM=F IPFlag=           0 FMFlag=      100000 FMFlg1=        2001
         NFxFlg=           0 DoJE=T BraDBF=F KetDBF=T FulRan=T
         Omega=  0.000000  0.000000  1.000000  0.000000  0.000000 ICntrl=     500 IOpCl=  0
         NMat0=    1 NMatS0=    1 NMatT0=    0 NMatD0=    1 NMtDS0=    0 NMtDT0=    0
         I1Cent=           4 NGrid=           0.
 Petite list used in FoFCou.
 Initial guess orbital symmetries:
       Occupied  (A) (A) (A) (A) (A) (A) (A) (A) (A) (A) (A) (A)
                 (A) (A) (A) (A) (A) (A) (A) (A) (A) (A) (A) (A)
                 (A) (A) (A) (A) (A) (A) (A) (A) (A) (A) (A) (A)
                 (A) (A) (A) (A) (A) (A) (A) (A) (A) (A) (A) (A)
                 (A) (A) (A) (A) (A) (A) (A) (A) (A) (A) (A) (A)
                 (A) (A) (A) (A) (A) (A) (A) (A) (A) (A) (A) (A)
                 (A) (A) (A) (A) (A) (A) (A) (A) (A) (A) (A) (A)
                 (A) (A) (A) (A) (A) (A) (A) (A) (A) (A) (A) (A)
                 (A) (A) (A) (A) (A) (A) (A) (A) (A) (A) (A) (A)
                 (A) (A) (A) (A) (A) (A) (A)
       Virtual   (A) (A) (A) (A) (A) (A) (A) (A) (A) (A) (A) (A)
                 (A) (A) (A) (A) (A) (A) (A) (A) (A) (A) (A) (A)
                 (A) (A) (A) (A) (A) (A) (A) (A) (A) (A) (A) (A)
                 (A) (A) (A) (A) (A) (A) (A) (A) (A) (A) (A) (A)
                 (A) (A) (A) (A) (A) (A) (A) (A) (A) (A) (A) (A)
                 (A) (A) (A) (A) (A) (A) (A) (A) (A) (A) (A) (A)
                 (A) (A) (A) (A) (A) (A) (A) (A) (A) (A) (A) (A)
                 (A) (A) (A) (A) (A) (A) (A) (A) (A) (A) (A) (A)
                 (A) (A) (A) (A) (A) (A) (A) (A) (A) (A) (A) (A)
                 (A) (A) (A) (A) (A) (A) (A) (A) (A) (A) (A) (A)
                 (A) (A) (A) (A) (A) (A) (A) (A) (A) (A) (A) (A)
                 (A) (A) (A) (A) (A) (A) (A) (A) (A) (A) (A) (A)
                 (A) (A) (A) (A) (A) (A) (A) (A) (A) (A) (A) (A)
                 (A) (A) (A) (A) (A) (A) (A) (A) (A) (A) (A) (A)
                 (A) (A) (A) (A) (A) (A) (A) (A) (A) (A) (A) (A)
                 (A) (A) (A) (A) (A) (A) (A) (A) (A) (A) (A) (A)
                 (A) (A) (A) (A) (A) (A) (A) (A) (A) (A) (A) (A)
                 (A) (A) (A) (A) (A) (A) (A) (A) (A) (A) (A) (A)
                 (A) (A) (A) (A) (A) (A) (A) (A) (A) (A) (A) (A)
                 (A) (A) (A) (A) (A) (A) (A) (A) (A) (A) (A) (A)
                 (A) (A) (A) (A) (A) (A) (A) (A) (A) (A) (A) (A)
                 (A) (A) (A) (A) (A) (A) (A) (A) (A) (A) (A) (A)
                 (A) (A) (A) (A) (A) (A) (A) (A) (A) (A) (A) (A)
                 (A) (A) (A) (A) (A) (A) (A) (A) (A) (A) (A) (A)
                 (A) (A) (A) (A) (A) (A) (A) (A) (A) (A) (A) (A)
                 (A) (A) (A) (A) (A) (A) (A) (A) (A) (A) (A) (A)
                 (A) (A) (A) (A) (A) (A) (A) (A) (A) (A) (A) (A)
                 (A) (A) (A) (A) (A) (A) (A) (A) (A) (A) (A) (A)
                 (A) (A) (A) (A) (A) (A) (A) (A) (A) (A) (A) (A)
                 (A) (A) (A) (A) (A) (A) (A) (A) (A) (A) (A) (A)
                 (A) (A) (A) (A) (A) (A) (A) (A) (A) (A) (A) (A)
                 (A) (A) (A) (A) (A) (A) (A) (A) (A) (A) (A) (A)
                 (A) (A) (A) (A) (A) (A) (A) (A) (A) (A) (A) (A)
                 (A) (A) (A) (A) (A) (A) (A) (A) (A) (A) (A) (A)
                 (A) (A) (A) (A) (A) (A) (A) (A) (A) (A) (A) (A)
                 (A) (A) (A) (A) (A) (A) (A) (A) (A) (A) (A) (A)
                 (A) (A) (A) (A) (A) (A) (A) (A) (A) (A) (A) (A)
                 (A) (A) (A) (A) (A) (A) (A) (A) (A) (A) (A) (A)
                 (A) (A) (A) (A) (A) (A) (A) (A) (A) (A) (A) (A)
                 (A) (A) (A) (A) (A) (A) (A) (A) (A) (A) (A) (A)
                 (A) (A) (A) (A) (A) (A) (A) (A) (A) (A) (A) (A)
                 (A) (A) (A) (A) (A) (A) (A) (A) (A) (A) (A) (A)
                 (A) (A) (A) (A) (A) (A) (A) (A) (A) (A) (A) (A)
                 (A) (A) (A) (A) (A) (A) (A) (A) (A) (A) (A) (A)
                 (A) (A) (A) (A) (A) (A) (A) (A) (A) (A) (A) (A)
                 (A) (A) (A) (A) (A) (A) (A) (A) (A) (A) (A) (A)
                 (A) (A) (A) (A) (A) (A) (A) (A) (A) (A) (A) (A)
                 (A) (A) (A) (A) (A) (A) (A) (A) (A) (A) (A) (A)
                 (A) (A) (A) (A) (A) (A) (A) (A) (A) (A) (A) (A)
                 (A) (A) (A) (A) (A) (A) (A) (A) (A) (A) (A) (A)
                 (A) (A) (A) (A) (A) (A) (A) (A) (A) (A) (A) (A)
                 (A) (A) (A) (A) (A) (A) (A) (A) (A) (A) (A) (A)
                 (A) (A) (A) (A) (A) (A) (A) (A) (A) (A) (A) (A)
                 (A) (A) (A) (A) (A) (A) (A) (A) (A) (A) (A) (A)
                 (A) (A) (A) (A) (A) (A) (A) (A) (A) (A) (A) (A)
                 (A) (A) (A)
 The electronic state of the initial guess is 1-A.
 Requested convergence on RMS density matrix=1.00D-08 within 128 cycles.
 Requested convergence on MAX density matrix=1.00D-06.
 Requested convergence on             energy=1.00D-06.
 No special actions if energy rises.
 SCF Done:  E(RB3LYP) =  -1387.64711400     A.U. after   16 cycles
             Convg  =    0.9610D-08             -V/T =  2.0043

 **********************************************************************

            Population analysis using the SCF density.

 **********************************************************************

 Orbital symmetries:
       Occupied  (A) (A) (A) (A) (A) (A) (A) (A) (A) (A) (A) (A)
                 (A) (A) (A) (A) (A) (A) (A) (A) (A) (A) (A) (A)
                 (A) (A) (A) (A) (A) (A) (A) (A) (A) (A) (A) (A)
                 (A) (A) (A) (A) (A) (A) (A) (A) (A) (A) (A) (A)
                 (A) (A) (A) (A) (A) (A) (A) (A) (A) (A) (A) (A)
                 (A) (A) (A) (A) (A) (A) (A) (A) (A) (A) (A) (A)
                 (A) (A) (A) (A) (A) (A) (A) (A) (A) (A) (A) (A)
                 (A) (A) (A) (A) (A) (A) (A) (A) (A) (A) (A) (A)
                 (A) (A) (A) (A) (A) (A) (A) (A) (A) (A) (A) (A)
                 (A) (A) (A) (A) (A) (A) (A)
       Virtual   (A) (A) (A) (A) (A) (A) (A) (A) (A) (A) (A) (A)
                 (A) (A) (A) (A) (A) (A) (A) (A) (A) (A) (A) (A)
                 (A) (A) (A) (A) (A) (A) (A) (A) (A) (A) (A) (A)
                 (A) (A) (A) (A) (A) (A) (A) (A) (A) (A) (A) (A)
                 (A) (A) (A) (A) (A) (A) (A) (A) (A) (A) (A) (A)
                 (A) (A) (A) (A) (A) (A) (A) (A) (A) (A) (A) (A)
                 (A) (A) (A) (A) (A) (A) (A) (A) (A) (A) (A) (A)
                 (A) (A) (A) (A) (A) (A) (A) (A) (A) (A) (A) (A)
                 (A) (A) (A) (A) (A) (A) (A) (A) (A) (A) (A) (A)
                 (A) (A) (A) (A) (A) (A) (A) (A) (A) (A) (A) (A)
                 (A) (A) (A) (A) (A) (A) (A) (A) (A) (A) (A) (A)
                 (A) (A) (A) (A) (A) (A) (A) (A) (A) (A) (A) (A)
                 (A) (A) (A) (A) (A) (A) (A) (A) (A) (A) (A) (A)
                 (A) (A) (A) (A) (A) (A) (A) (A) (A) (A) (A) (A)
                 (A) (A) (A) (A) (A) (A) (A) (A) (A) (A) (A) (A)
                 (A) (A) (A) (A) (A) (A) (A) (A) (A) (A) (A) (A)
                 (A) (A) (A) (A) (A) (A) (A) (A) (A) (A) (A) (A)
                 (A) (A) (A) (A) (A) (A) (A) (A) (A) (A) (A) (A)
                 (A) (A) (A) (A) (A) (A) (A) (A) (A) (A) (A) (A)
                 (A) (A) (A) (A) (A) (A) (A) (A) (A) (A) (A) (A)
                 (A) (A) (A) (A) (A) (A) (A) (A) (A) (A) (A) (A)
                 (A) (A) (A) (A) (A) (A) (A) (A) (A) (A) (A) (A)
                 (A) (A) (A) (A) (A) (A) (A) (A) (A) (A) (A) (A)
                 (A) (A) (A) (A) (A) (A) (A) (A) (A) (A) (A) (A)
                 (A) (A) (A) (A) (A) (A) (A) (A) (A) (A) (A) (A)
                 (A) (A) (A) (A) (A) (A) (A) (A) (A) (A) (A) (A)
                 (A) (A) (A) (A) (A) (A) (A) (A) (A) (A) (A) (A)
                 (A) (A) (A) (A) (A) (A) (A) (A) (A) (A) (A) (A)
                 (A) (A) (A) (A) (A) (A) (A) (A) (A) (A) (A) (A)
                 (A) (A) (A) (A) (A) (A) (A) (A) (A) (A) (A) (A)
                 (A) (A) (A) (A) (A) (A) (A) (A) (A) (A) (A) (A)
                 (A) (A) (A) (A) (A) (A) (A) (A) (A) (A) (A) (A)
                 (A) (A) (A) (A) (A) (A) (A) (A) (A) (A) (A) (A)
                 (A) (A) (A) (A) (A) (A) (A) (A) (A) (A) (A) (A)
                 (A) (A) (A) (A) (A) (A) (A) (A) (A) (A) (A) (A)
                 (A) (A) (A) (A) (A) (A) (A) (A) (A) (A) (A) (A)
                 (A) (A) (A) (A) (A) (A) (A) (A) (A) (A) (A) (A)
                 (A) (A) (A) (A) (A) (A) (A) (A) (A) (A) (A) (A)
                 (A) (A) (A) (A) (A) (A) (A) (A) (A) (A) (A) (A)
                 (A) (A) (A) (A) (A) (A) (A) (A) (A) (A) (A) (A)
                 (A) (A) (A) (A) (A) (A) (A) (A) (A) (A) (A) (A)
                 (A) (A) (A) (A) (A) (A) (A) (A) (A) (A) (A) (A)
                 (A) (A) (A) (A) (A) (A) (A) (A) (A) (A) (A) (A)
                 (A) (A) (A) (A) (A) (A) (A) (A) (A) (A) (A) (A)
                 (A) (A) (A) (A) (A) (A) (A) (A) (A) (A) (A) (A)
                 (A) (A) (A) (A) (A) (A) (A) (A) (A) (A) (A) (A)
                 (A) (A) (A) (A) (A) (A) (A) (A) (A) (A) (A) (A)
                 (A) (A) (A) (A) (A) (A) (A) (A) (A) (A) (A) (A)
                 (A) (A) (A) (A) (A) (A) (A) (A) (A) (A) (A) (A)
                 (A) (A) (A) (A) (A) (A) (A) (A) (A) (A) (A) (A)
                 (A) (A) (A) (A) (A) (A) (A) (A) (A) (A) (A) (A)
                 (A) (A) (A) (A) (A) (A) (A) (A) (A) (A) (A) (A)
                 (A) (A) (A) (A) (A) (A) (A) (A) (A) (A) (A) (A)
                 (A) (A) (A) (A) (A) (A) (A) (A) (A) (A) (A) (A)
                 (A) (A) (A) (A) (A) (A) (A) (A) (A) (A) (A) (A)
                 (A) (A) (A)
 The electronic state is 1-A.
 Alpha  occ. eigenvalues --  -19.17913 -19.14948 -19.13390 -19.11187 -19.09852
 Alpha  occ. eigenvalues --  -10.26790 -10.26754 -10.25792 -10.25727 -10.25418
 Alpha  occ. eigenvalues --  -10.25226 -10.24047 -10.21070 -10.19741 -10.19684
 Alpha  occ. eigenvalues --  -10.19241 -10.19082 -10.18969 -10.18864 -10.18373
 Alpha  occ. eigenvalues --  -10.17891 -10.17816 -10.17813 -10.17660 -10.17247
 Alpha  occ. eigenvalues --  -10.16965 -10.16566 -10.16420 -10.15886 -10.14644
 Alpha  occ. eigenvalues --  -10.14249  -1.10515  -1.07142  -1.04488  -1.03436
 Alpha  occ. eigenvalues --   -1.03019  -0.88002  -0.84710  -0.82967  -0.82199
 Alpha  occ. eigenvalues --   -0.80839  -0.79827  -0.77645  -0.75013  -0.74015
 Alpha  occ. eigenvalues --   -0.72909  -0.71586  -0.70726  -0.69590  -0.68973
 Alpha  occ. eigenvalues --   -0.66294  -0.64861  -0.64480  -0.62445  -0.61606
 Alpha  occ. eigenvalues --   -0.60108  -0.59297  -0.57641  -0.55206  -0.54479
 Alpha  occ. eigenvalues --   -0.53652  -0.52876  -0.51816  -0.50876  -0.50156
 Alpha  occ. eigenvalues --   -0.48520  -0.48293  -0.47827  -0.47479  -0.46910
 Alpha  occ. eigenvalues --   -0.45995  -0.45519  -0.45145  -0.44611  -0.43973
 Alpha  occ. eigenvalues --   -0.43860  -0.43197  -0.43164  -0.42612  -0.42060
 Alpha  occ. eigenvalues --   -0.41641  -0.41311  -0.41141  -0.40851  -0.40604
 Alpha  occ. eigenvalues --   -0.39970  -0.39802  -0.39292  -0.39019  -0.38389
 Alpha  occ. eigenvalues --   -0.38223  -0.37841  -0.37690  -0.37533  -0.37182
 Alpha  occ. eigenvalues --   -0.36709  -0.36226  -0.36085  -0.35685  -0.35237
 Alpha  occ. eigenvalues --   -0.34754  -0.34441  -0.33998  -0.33744  -0.33474
 Alpha  occ. eigenvalues --   -0.32519  -0.31764  -0.31433  -0.28763  -0.28659
 Alpha  occ. eigenvalues --   -0.26502  -0.25819  -0.25447  -0.24673  -0.23574
 Alpha virt. eigenvalues --   -0.06293  -0.02496  -0.01575  -0.01086  -0.00609
 Alpha virt. eigenvalues --    0.00224   0.00357   0.00656   0.01788   0.01876
 Alpha virt. eigenvalues --    0.02097   0.02281   0.02784   0.03416   0.03693
 Alpha virt. eigenvalues --    0.03861   0.04009   0.04330   0.04761   0.05000
 Alpha virt. eigenvalues --    0.05248   0.05420   0.05789   0.06044   0.06234
 Alpha virt. eigenvalues --    0.06630   0.06767   0.07029   0.07336   0.07441
 Alpha virt. eigenvalues --    0.07902   0.08199   0.08279   0.08419   0.08673
 Alpha virt. eigenvalues --    0.08886   0.09210   0.09493   0.09759   0.10008
 Alpha virt. eigenvalues --    0.10397   0.10786   0.10948   0.11004   0.11349
 Alpha virt. eigenvalues --    0.11505   0.11987   0.12180   0.12260   0.12671
 Alpha virt. eigenvalues --    0.12778   0.13081   0.13215   0.13352   0.13600
 Alpha virt. eigenvalues --    0.13766   0.13993   0.14275   0.14461   0.14809
 Alpha virt. eigenvalues --    0.15058   0.15336   0.15513   0.16027   0.16351
 Alpha virt. eigenvalues --    0.16505   0.16554   0.17071   0.17116   0.17333
 Alpha virt. eigenvalues --    0.17420   0.17782   0.17913   0.18174   0.18246
 Alpha virt. eigenvalues --    0.18599   0.18792   0.19054   0.19123   0.19257
 Alpha virt. eigenvalues --    0.19493   0.19622   0.19791   0.20109   0.20175
 Alpha virt. eigenvalues --    0.20305   0.20570   0.20806   0.21035   0.21114
 Alpha virt. eigenvalues --    0.21482   0.21678   0.21872   0.22060   0.22175
 Alpha virt. eigenvalues --    0.22292   0.22568   0.22681   0.22844   0.22968
 Alpha virt. eigenvalues --    0.23097   0.23208   0.23484   0.23783   0.24016
 Alpha virt. eigenvalues --    0.24051   0.24275   0.24557   0.24837   0.24975
 Alpha virt. eigenvalues --    0.25085   0.25397   0.25607   0.25728   0.25970
 Alpha virt. eigenvalues --    0.26199   0.26405   0.26599   0.26715   0.27106
 Alpha virt. eigenvalues --    0.27345   0.27488   0.27861   0.27961   0.28230
 Alpha virt. eigenvalues --    0.28567   0.28694   0.28984   0.29260   0.29408
 Alpha virt. eigenvalues --    0.29652   0.30205   0.30535   0.30863   0.31066
 Alpha virt. eigenvalues --    0.31280   0.31760   0.31971   0.32207   0.32532
 Alpha virt. eigenvalues --    0.32716   0.33030   0.33222   0.33307   0.33423
 Alpha virt. eigenvalues --    0.33859   0.33978   0.34253   0.34745   0.35116
 Alpha virt. eigenvalues --    0.35349   0.35581   0.35863   0.36292   0.36389
 Alpha virt. eigenvalues --    0.36529   0.37531   0.37598   0.38204   0.38593
 Alpha virt. eigenvalues --    0.38891   0.38984   0.39233   0.39419   0.40266
 Alpha virt. eigenvalues --    0.40627   0.40999   0.41214   0.41550   0.42277
 Alpha virt. eigenvalues --    0.42521   0.43048   0.43374   0.43556   0.44562
 Alpha virt. eigenvalues --    0.44665   0.44912   0.45032   0.45699   0.45765
 Alpha virt. eigenvalues --    0.46370   0.46842   0.47037   0.47473   0.47676
 Alpha virt. eigenvalues --    0.48314   0.48455   0.48804   0.49051   0.49367
 Alpha virt. eigenvalues --    0.49826   0.50587   0.51068   0.51357   0.51602
 Alpha virt. eigenvalues --    0.52361   0.52575   0.53329   0.53724   0.53962
 Alpha virt. eigenvalues --    0.54505   0.55060   0.55143   0.55917   0.56110
 Alpha virt. eigenvalues --    0.56454   0.56816   0.57301   0.57829   0.58104
 Alpha virt. eigenvalues --    0.58311   0.58654   0.59284   0.59615   0.60100
 Alpha virt. eigenvalues --    0.60565   0.60882   0.61009   0.61413   0.62195
 Alpha virt. eigenvalues --    0.62531   0.63312   0.63656   0.63906   0.64047
 Alpha virt. eigenvalues --    0.64456   0.64813   0.65041   0.65393   0.65984
 Alpha virt. eigenvalues --    0.66476   0.66693   0.67189   0.67525   0.67576
 Alpha virt. eigenvalues --    0.67778   0.68047   0.68279   0.68648   0.69058
 Alpha virt. eigenvalues --    0.69412   0.69771   0.70159   0.70368   0.70585
 Alpha virt. eigenvalues --    0.70684   0.71024   0.71263   0.71664   0.72065
 Alpha virt. eigenvalues --    0.72465   0.72713   0.73057   0.73332   0.73456
 Alpha virt. eigenvalues --    0.73729   0.74264   0.74573   0.74737   0.75115
 Alpha virt. eigenvalues --    0.75613   0.76036   0.76615   0.77088   0.77112
 Alpha virt. eigenvalues --    0.77430   0.77965   0.78324   0.78515   0.78836
 Alpha virt. eigenvalues --    0.79455   0.79807   0.80265   0.80623   0.80870
 Alpha virt. eigenvalues --    0.81595   0.81657   0.81908   0.82394   0.82971
 Alpha virt. eigenvalues --    0.83347   0.83462   0.83652   0.84406   0.84802
 Alpha virt. eigenvalues --    0.85315   0.85881   0.86691   0.87180   0.88317
 Alpha virt. eigenvalues --    0.89498   0.90349   0.90719   0.91535   0.92176
 Alpha virt. eigenvalues --    0.93606   0.93941   0.94654   0.95977   0.96663
 Alpha virt. eigenvalues --    0.97007   0.97386   0.97943   0.98951   0.99592
 Alpha virt. eigenvalues --    0.99683   1.02664   1.03590   1.03912   1.04319
 Alpha virt. eigenvalues --    1.05019   1.06112   1.06796   1.06994   1.08320
 Alpha virt. eigenvalues --    1.10657   1.12114   1.13528   1.14099   1.14585
 Alpha virt. eigenvalues --    1.16033   1.16073   1.17011   1.18281   1.19627
 Alpha virt. eigenvalues --    1.20723   1.21137   1.21622   1.22376   1.22917
 Alpha virt. eigenvalues --    1.24042   1.25844   1.26310   1.26752   1.26910
 Alpha virt. eigenvalues --    1.27723   1.28301   1.29233   1.30409   1.32224
 Alpha virt. eigenvalues --    1.32964   1.33835   1.35198   1.36575   1.36784
 Alpha virt. eigenvalues --    1.37179   1.38328   1.38638   1.39529   1.39933
 Alpha virt. eigenvalues --    1.40354   1.41170   1.41835   1.42839   1.43694
 Alpha virt. eigenvalues --    1.44060   1.44836   1.45663   1.46946   1.47370
 Alpha virt. eigenvalues --    1.49020   1.50238   1.52020   1.52161   1.52528
 Alpha virt. eigenvalues --    1.53930   1.54217   1.54847   1.55304   1.55939
 Alpha virt. eigenvalues --    1.56299   1.57649   1.58007   1.58248   1.58616
 Alpha virt. eigenvalues --    1.59312   1.59721   1.59928   1.60372   1.60946
 Alpha virt. eigenvalues --    1.61461   1.61756   1.61991   1.62599   1.63066
 Alpha virt. eigenvalues --    1.63809   1.64203   1.64324   1.64732   1.65422
 Alpha virt. eigenvalues --    1.65810   1.66057   1.66710   1.66972   1.67485
 Alpha virt. eigenvalues --    1.68218   1.68637   1.68738   1.69053   1.69670
 Alpha virt. eigenvalues --    1.70251   1.70957   1.71451   1.72139   1.72252
 Alpha virt. eigenvalues --    1.72703   1.72979   1.73872   1.74617   1.76203
 Alpha virt. eigenvalues --    1.77140   1.77374   1.78122   1.78694   1.78813
 Alpha virt. eigenvalues --    1.80287   1.80457   1.81348   1.83427   1.83874
 Alpha virt. eigenvalues --    1.84807   1.85200   1.85308   1.86262   1.86475
 Alpha virt. eigenvalues --    1.87500   1.88516   1.89015   1.90958   1.91640
 Alpha virt. eigenvalues --    1.92317   1.92753   1.94174   1.95610   1.96940
 Alpha virt. eigenvalues --    1.97107   1.97797   1.99870   2.00377   2.01892
 Alpha virt. eigenvalues --    2.02695   2.02932   2.03546   2.04582   2.05017
 Alpha virt. eigenvalues --    2.05786   2.06704   2.07935   2.08893   2.09101
 Alpha virt. eigenvalues --    2.10134   2.10693   2.12220   2.13704   2.15122
 Alpha virt. eigenvalues --    2.16666   2.17001   2.18478   2.19204   2.19633
 Alpha virt. eigenvalues --    2.21056   2.22094   2.23784   2.24899   2.25228
 Alpha virt. eigenvalues --    2.26495   2.28758   2.29930   2.31418   2.33537
 Alpha virt. eigenvalues --    2.34140   2.34994   2.35751   2.37870   2.38165
 Alpha virt. eigenvalues --    2.40060   2.43616   2.47536   2.47980   2.50735
 Alpha virt. eigenvalues --    2.51128   2.52718   2.53927   2.54337   2.54773
 Alpha virt. eigenvalues --    2.55261   2.56119   2.56814   2.57119   2.57353
 Alpha virt. eigenvalues --    2.57627   2.58658   2.58960   2.59690   2.60630
 Alpha virt. eigenvalues --    2.61161   2.62164   2.63476   2.64735   2.66291
 Alpha virt. eigenvalues --    2.67554   2.68038   2.68814   2.69513   2.70617
 Alpha virt. eigenvalues --    2.70997   2.71807   2.72199   2.73537   2.74355
 Alpha virt. eigenvalues --    2.74772   2.76095   2.80486   2.81558   2.82974
 Alpha virt. eigenvalues --    2.85745   2.85909   2.86909   2.88550   2.89794
 Alpha virt. eigenvalues --    2.90630   2.91705   2.92978   2.93251   2.93803
 Alpha virt. eigenvalues --    2.95376   2.96833   2.97187   2.97799   2.98231
 Alpha virt. eigenvalues --    2.99325   3.00583   3.02117   3.03199   3.03624
 Alpha virt. eigenvalues --    3.04142   3.04832   3.05728   3.06339   3.07781
 Alpha virt. eigenvalues --    3.08652   3.10655   3.11877   3.12648   3.13761
 Alpha virt. eigenvalues --    3.14064   3.15028   3.16628   3.16819   3.17301
 Alpha virt. eigenvalues --    3.18142   3.18844   3.20495   3.21023   3.21775
 Alpha virt. eigenvalues --    3.22023   3.23246   3.23750   3.24591   3.26165
 Alpha virt. eigenvalues --    3.26674   3.27607   3.28005   3.28905   3.29052
 Alpha virt. eigenvalues --    3.30023   3.31123   3.31328   3.31775   3.33112
 Alpha virt. eigenvalues --    3.34640   3.36382   3.37012   3.37775   3.38859
 Alpha virt. eigenvalues --    3.38966   3.39907   3.40728   3.41436   3.42122
 Alpha virt. eigenvalues --    3.44943   3.46311   3.47354   3.50992   3.52291
 Alpha virt. eigenvalues --    3.52674   3.54106   3.58137   3.60400   3.66437
 Alpha virt. eigenvalues --    3.74475   3.77608   3.78484   3.78790   3.85526
 Alpha virt. eigenvalues --    3.89025   3.92168   3.94557   3.97310   4.01356
 Alpha virt. eigenvalues --    4.02680   4.05428   4.06430   4.09617   4.10551
 Alpha virt. eigenvalues --    4.11676   4.15435   4.17748   4.18614   4.22674
 Alpha virt. eigenvalues --    4.24135   4.25817   4.26680   4.30977   4.33553
 Alpha virt. eigenvalues --    4.44703   4.54969   5.14446   5.15891   5.18850
 Alpha virt. eigenvalues --    5.21832   5.26515   5.28597   5.32971   5.34222
 Alpha virt. eigenvalues --    5.41914   5.42258   5.57340   5.70889   5.73126
 Alpha virt. eigenvalues --    5.80549   5.83559  23.47490  23.48420  23.52032
 Alpha virt. eigenvalues --   23.53404  23.61984  23.64037  23.65138  23.67278
 Alpha virt. eigenvalues --   23.67521  23.70162  23.72546  23.74154  23.75728
 Alpha virt. eigenvalues --   23.78527  23.79584  23.81180  23.82799  23.85395
 Alpha virt. eigenvalues --   23.86600  23.87760  23.90066  23.91338  23.95783
 Alpha virt. eigenvalues --   24.14295  24.21059  24.21753  49.98889  50.00618
 Alpha virt. eigenvalues --   50.02842  50.03527  50.06191
          Condensed to atoms (all electrons):
 Mulliken atomic charges:
              1
     1  C   -0.590220
     2  C    0.916079
     3  C    0.060338
     4  C   -0.107890
     5  C    1.223540
     6  C   -1.278265
     7  C   -1.256350
     8  C    0.405057
     9  C    0.659142
    10  C   -1.120505
    11  C   -0.663929
    12  O   -0.143188
    13  C    0.587988
    14  C   -0.379004
    15  C   -0.789129
    16  O   -0.191752
    17  C   -0.434117
    18  C    0.901641
    19  O    0.220537
    20  C   -1.244119
    21  O   -0.008845
    22  C   -0.651424
    23  C    0.157103
    24  O   -0.033711
    25  C    0.866516
    26  C   -1.067855
    27  C   -1.011873
    28  C   -0.819086
    29  C   -0.596380
    30  H    0.238435
    31  H    0.259177
    32  C   -1.196339
    33  H    0.208843
    34  H    0.264361
    35  H    0.259970
    36  H    0.257380
    37  H    0.218821
    38  H    0.274370
    39  H    0.269410
    40  H    0.257536
    41  H    0.235435
    42  H    0.259474
    43  H    0.294643
    44  H    0.246751
    45  H    0.279424
    46  H    0.258264
    47  H    0.212024
    48  H    0.251242
    49  H    0.261883
    50  H    0.250912
    51  H    0.215172
    52  H    0.254144
    53  H    0.244872
    54  H    0.306762
    55  H    0.261575
    56  H    0.274065
    57  H    0.269290
    58  H    0.260771
    59  H    0.261527
    60  H    0.245981
    61  H    0.251777
    62  C   -1.075819
    63  H    0.270740
    64  H    0.248853
    65  H    0.237976
 Sum of Mulliken atomic charges =   0.00000
 Mulliken charges with hydrogens summed into heavy atoms:
              1
     1  C   -0.381376
     2  C    0.916079
     3  C    0.319515
     4  C   -0.107890
     5  C    1.223540
     6  C   -0.753934
     7  C   -1.256350
     8  C    0.405057
     9  C    0.659142
    10  C   -1.120505
    11  C   -0.663929
    12  O   -0.143188
    13  C    0.845368
    14  C    0.114187
    15  C   -0.026748
    16  O   -0.191752
    17  C   -0.195682
    18  C    0.901641
    19  O    0.220537
    20  C   -0.690003
    21  O    0.237906
    22  C   -0.113736
    23  C    0.369127
    24  O   -0.033711
    25  C    0.866516
    26  C   -0.303819
    27  C   -0.542557
    28  C   -0.005878
    29  C    0.207746
    32  C   -0.437054
    62  C   -0.318249
 Sum of Mulliken charges with hydrogens summed into heavy atoms =   0.00000
 Electronic spatial extent (au):  <R**2>=          11024.8323
 Charge=              0.0000 electrons
 Dipole moment (field-independent basis, Debye):
    X=             -5.6366    Y=              1.1462    Z=              1.2476  Tot=              5.8857
 Quadrupole moment (field-independent basis, Debye-Ang):
   XX=           -190.6049   YY=           -183.2086   ZZ=           -186.6531
   XY=             -7.2896   XZ=              6.0456   YZ=              3.2034
 Traceless Quadrupole moment (field-independent basis, Debye-Ang):
   XX=             -3.7827   YY=              3.6136   ZZ=              0.1691
   XY=             -7.2896   XZ=              6.0456   YZ=              3.2034
 Octapole moment (field-independent basis, Debye-Ang**2):
  XXX=            -41.4578  YYY=             43.9903  ZZZ=             -1.6651  XYY=            -25.7623
  XXY=            -23.1083  XXZ=             11.9682  XZZ=            -17.9944  YZZ=             -1.7392
  YYZ=             45.4043  XYZ=              9.6870
 Hexadecapole moment (field-independent basis, Debye-Ang**3):
 XXXX=          -7373.2293 YYYY=          -4941.7399 ZZZZ=          -2838.3909 XXXY=            -78.7287
 XXXZ=             52.4219 YYYX=             -4.1269 YYYZ=             14.6996 ZZZX=              0.9898
 ZZZY=              8.2612 XXYY=          -2053.7219 XXZZ=          -1714.3712 YYZZ=          -1271.6651
 XXYZ=             35.0848 YYXZ=             11.2096 ZZXY=              7.7434
 N-N= 3.541237755168D+03 E-N=-1.031569360554D+04  KE= 1.381704479734D+03
 Calling FoFJK, ICntrl=      2127 FMM=T ISym2X=0 I1Cent= 0 IOpClX= 0 NMat=1 NMatS=1 NMatT=0.
 ***** Axes restored to original set *****
 -------------------------------------------------------------------
 Center     Atomic                   Forces (Hartrees/Bohr)
 Number     Number              X              Y              Z
 -------------------------------------------------------------------
      1        6          -0.001086309    0.001176511    0.002129833
      2        6           0.001199421   -0.000896004   -0.001791656
      3        6           0.000032046    0.000429257    0.000162673
      4        6          -0.000384862    0.001233799   -0.000589830
      5        6           0.000021243   -0.000275844   -0.000133977
      6        6           0.000369601    0.000109798    0.000067611
      7        6           0.000729098    0.002294706   -0.002628614
      8        6           0.003439079    0.000859394   -0.000133308
      9        6          -0.001535508    0.001485225    0.000605193
     10        6           0.003449525   -0.005971190   -0.003346303
     11        6           0.002030670    0.005628875   -0.000789804
     12        8          -0.002825599   -0.007166764    0.000666125
     13        6           0.000106200    0.000425207   -0.000092972
     14        6          -0.000225822   -0.000421571    0.000344775
     15        6          -0.000185962    0.000083693    0.000151246
     16        8          -0.003249956    0.007779909    0.002594773
     17        6          -0.000154702   -0.000155540    0.000468239
     18        6          -0.000416355    0.001354853    0.000969354
     19        8          -0.001757399   -0.004224083   -0.001109696
     20        6           0.000242261    0.000152941   -0.000459896
     21        8          -0.005322398   -0.002985435    0.000464727
     22        6          -0.000018566   -0.000054002    0.000275171
     23        6          -0.000530838   -0.002241198   -0.000712802
     24        8           0.000240544   -0.000137192   -0.000779371
     25        6           0.001506421   -0.001936589    0.000041588
     26        6          -0.000123980    0.000313579    0.000181687
     27        6          -0.002026737    0.001179354    0.000157607
     28        6          -0.000422640   -0.000054598   -0.000310225
     29        6          -0.000273391   -0.000495312    0.000118127
     30        1           0.000821581   -0.000110973   -0.000964401
     31        1           0.000805159    0.000135094   -0.001113099
     32        6          -0.000257953    0.000214965    0.000157713
     33        1           0.000308851   -0.000017299    0.000836845
     34        1          -0.001061840   -0.001161461   -0.000293990
     35        1          -0.000269983    0.001232224    0.000885004
     36        1           0.000613633    0.000983455    0.000581179
     37        1          -0.001119146    0.000932077    0.000153375
     38        1           0.001565596    0.000139277   -0.000330378
     39        1          -0.000258248   -0.001315621   -0.001267203
     40        1           0.000739953   -0.000600130    0.001352236
     41        1          -0.000744078    0.001270599   -0.000034484
     42        1           0.001104531   -0.001130812   -0.000162265
     43        1          -0.001150096   -0.000103477    0.001103474
     44        1           0.004504635    0.002205735    0.002200142
     45        1          -0.001518396    0.000965971    0.000428303
     46        1           0.001189188   -0.000522760    0.000825277
     47        1           0.001419923    0.000589480   -0.000023150
     48        1           0.000138652   -0.001640749   -0.000412793
     49        1           0.001531462    0.000641362    0.000300426
     50        1          -0.001011300    0.000933279   -0.000904980
     51        1          -0.000341601    0.000526230   -0.000798704
     52        1          -0.000762846   -0.000400540    0.001019436
     53        1           0.001037419   -0.000930981   -0.000634824
     54        1           0.000378355    0.001963322    0.000017715
     55        1          -0.001501201   -0.000598523    0.000284632
     56        1          -0.001612224   -0.000424669   -0.000202340
     57        1           0.000490884    0.000388065    0.001611209
     58        1           0.000996702   -0.000546421   -0.000915710
     59        1           0.001026548    0.000687843   -0.001079438
     60        1          -0.000083174   -0.001568787   -0.000467603
     61        1           0.000296446    0.000304658    0.001629004
     62        6           0.000148485    0.000142671   -0.000281058
     63        1           0.001191528   -0.001242618    0.000301005
[...]
                 (A) (A) (A) (A) (A) (A) (A) (A) (A) (A) (A) (A)
                 (A) (A) (A) (A) (A) (A) (A) (A) (A) (A) (A) (A)
                 (A) (A) (A) (A) (A) (A) (A) (A) (A) (A) (A) (A)
                 (A) (A) (A)
 The electronic state is 1-A.
 Alpha  occ. eigenvalues --  -19.17630 -19.14738 -19.13279 -19.11125 -19.10339
 Alpha  occ. eigenvalues --  -10.26662 -10.26393 -10.25747 -10.25635 -10.25437
 Alpha  occ. eigenvalues --  -10.25312 -10.23934 -10.20949 -10.19588 -10.19516
 Alpha  occ. eigenvalues --  -10.19063 -10.18890 -10.18837 -10.18754 -10.18158
 Alpha  occ. eigenvalues --  -10.17721 -10.17687 -10.17626 -10.17536 -10.17167
 Alpha  occ. eigenvalues --  -10.16880 -10.16563 -10.16548 -10.16066 -10.14751
 Alpha  occ. eigenvalues --  -10.14351  -1.10302  -1.06888  -1.04740  -1.03693
 Alpha  occ. eigenvalues --   -1.03310  -0.87999  -0.84714  -0.83010  -0.82233
 Alpha  occ. eigenvalues --   -0.80865  -0.80089  -0.77667  -0.75018  -0.73972
 Alpha  occ. eigenvalues --   -0.72915  -0.71858  -0.70762  -0.69677  -0.68981
 Alpha  occ. eigenvalues --   -0.66389  -0.64864  -0.64544  -0.62496  -0.61592
 Alpha  occ. eigenvalues --   -0.60062  -0.59466  -0.57652  -0.55273  -0.54551
 Alpha  occ. eigenvalues --   -0.53605  -0.52984  -0.51742  -0.50878  -0.50140
 Alpha  occ. eigenvalues --   -0.48479  -0.48370  -0.47912  -0.47531  -0.46829
 Alpha  occ. eigenvalues --   -0.46000  -0.45542  -0.45223  -0.44862  -0.44076
 Alpha  occ. eigenvalues --   -0.43956  -0.43209  -0.43176  -0.42612  -0.42086
 Alpha  occ. eigenvalues --   -0.41649  -0.41454  -0.41098  -0.40824  -0.40677
 Alpha  occ. eigenvalues --   -0.39947  -0.39780  -0.39272  -0.38992  -0.38321
 Alpha  occ. eigenvalues --   -0.38180  -0.38109  -0.37791  -0.37570  -0.37252
 Alpha  occ. eigenvalues --   -0.36783  -0.36272  -0.36224  -0.35845  -0.35271
 Alpha  occ. eigenvalues --   -0.34685  -0.34404  -0.34122  -0.33772  -0.33417
 Alpha  occ. eigenvalues --   -0.32412  -0.32109  -0.31664  -0.28699  -0.28515
 Alpha  occ. eigenvalues --   -0.26559  -0.25800  -0.25401  -0.24636  -0.23725
 Alpha virt. eigenvalues --   -0.05921  -0.02286  -0.01529  -0.01024  -0.00514
 Alpha virt. eigenvalues --    0.00273   0.00340   0.00706   0.01846   0.01901
 Alpha virt. eigenvalues --    0.02063   0.02268   0.02788   0.03358   0.03641
 Alpha virt. eigenvalues --    0.03860   0.04029   0.04382   0.04602   0.05011
 Alpha virt. eigenvalues --    0.05158   0.05364   0.05832   0.06017   0.06115
 Alpha virt. eigenvalues --    0.06596   0.06838   0.07086   0.07310   0.07549
 Alpha virt. eigenvalues --    0.07903   0.08230   0.08344   0.08453   0.08792
 Alpha virt. eigenvalues --    0.08856   0.09211   0.09432   0.09754   0.10050
 Alpha virt. eigenvalues --    0.10334   0.10694   0.10978   0.11098   0.11337
 Alpha virt. eigenvalues --    0.11612   0.11987   0.12270   0.12369   0.12570
 Alpha virt. eigenvalues --    0.12847   0.13089   0.13189   0.13352   0.13564
 Alpha virt. eigenvalues --    0.13883   0.14019   0.14271   0.14612   0.14869
 Alpha virt. eigenvalues --    0.15165   0.15350   0.15611   0.16023   0.16352
 Alpha virt. eigenvalues --    0.16427   0.16569   0.17094   0.17217   0.17299
 Alpha virt. eigenvalues --    0.17479   0.17763   0.17860   0.18215   0.18285
 Alpha virt. eigenvalues --    0.18645   0.18797   0.18990   0.19221   0.19291
 Alpha virt. eigenvalues --    0.19444   0.19652   0.19948   0.20147   0.20219
 Alpha virt. eigenvalues --    0.20360   0.20568   0.20806   0.20940   0.21102
 Alpha virt. eigenvalues --    0.21464   0.21681   0.21888   0.21911   0.22167
 Alpha virt. eigenvalues --    0.22414   0.22536   0.22735   0.22908   0.23028
 Alpha virt. eigenvalues --    0.23133   0.23324   0.23566   0.23789   0.23871
 Alpha virt. eigenvalues --    0.24155   0.24359   0.24647   0.24892   0.25039
 Alpha virt. eigenvalues --    0.25198   0.25462   0.25679   0.25814   0.25893
 Alpha virt. eigenvalues --    0.26198   0.26441   0.26563   0.26811   0.27101
 Alpha virt. eigenvalues --    0.27472   0.27514   0.27855   0.28108   0.28436
 Alpha virt. eigenvalues --    0.28737   0.28969   0.29030   0.29507   0.29543
 Alpha virt. eigenvalues --    0.29740   0.30269   0.30565   0.31006   0.31116
 Alpha virt. eigenvalues --    0.31377   0.31609   0.31899   0.32235   0.32324
 Alpha virt. eigenvalues --    0.32443   0.33107   0.33331   0.33438   0.33508
 Alpha virt. eigenvalues --    0.33973   0.34152   0.34379   0.35036   0.35378
 Alpha virt. eigenvalues --    0.35668   0.35811   0.35980   0.36278   0.36399
 Alpha virt. eigenvalues --    0.36942   0.37480   0.37773   0.38357   0.38540
 Alpha virt. eigenvalues --    0.38690   0.39191   0.39420   0.39774   0.40450
 Alpha virt. eigenvalues --    0.40700   0.41027   0.41475   0.41608   0.41952
 Alpha virt. eigenvalues --    0.42262   0.42718   0.43575   0.43858   0.44126
 Alpha virt. eigenvalues --    0.44853   0.45037   0.45202   0.45477   0.45756
 Alpha virt. eigenvalues --    0.46124   0.46716   0.47307   0.47430   0.47539
 Alpha virt. eigenvalues --    0.48282   0.48516   0.48554   0.49119   0.49494
 Alpha virt. eigenvalues --    0.50134   0.50794   0.50942   0.51507   0.51695
 Alpha virt. eigenvalues --    0.51990   0.52230   0.53171   0.53394   0.53662
 Alpha virt. eigenvalues --    0.54508   0.54945   0.55659   0.55906   0.56155
 Alpha virt. eigenvalues --    0.56565   0.56780   0.57021   0.57727   0.58255
 Alpha virt. eigenvalues --    0.58681   0.58793   0.59462   0.59783   0.60281
 Alpha virt. eigenvalues --    0.60687   0.60958   0.61103   0.61698   0.62310
 Alpha virt. eigenvalues --    0.62851   0.63255   0.63566   0.63597   0.64155
 Alpha virt. eigenvalues --    0.64610   0.64657   0.65022   0.65628   0.66279
 Alpha virt. eigenvalues --    0.66408   0.66562   0.66810   0.67416   0.67899
 Alpha virt. eigenvalues --    0.68065   0.68302   0.68535   0.68904   0.69049
 Alpha virt. eigenvalues --    0.69350   0.69829   0.70268   0.70523   0.70864
 Alpha virt. eigenvalues --    0.70971   0.71193   0.71473   0.71536   0.72092
 Alpha virt. eigenvalues --    0.72413   0.72800   0.73008   0.73211   0.73521
 Alpha virt. eigenvalues --    0.73906   0.74517   0.74628   0.74914   0.75233
 Alpha virt. eigenvalues --    0.75369   0.75603   0.76590   0.76900   0.77119
 Alpha virt. eigenvalues --    0.77322   0.77990   0.78355   0.78887   0.79043
 Alpha virt. eigenvalues --    0.79360   0.79596   0.80220   0.80736   0.81007
 Alpha virt. eigenvalues --    0.81524   0.81722   0.81953   0.82345   0.83268
 Alpha virt. eigenvalues --    0.83313   0.83586   0.84072   0.84477   0.84703
 Alpha virt. eigenvalues --    0.85527   0.85931   0.86645   0.87066   0.88634
 Alpha virt. eigenvalues --    0.89622   0.90294   0.91042   0.91383   0.92251
 Alpha virt. eigenvalues --    0.93211   0.94027   0.94433   0.95204   0.96161
 Alpha virt. eigenvalues --    0.96773   0.97773   0.98397   0.98909   0.99880
 Alpha virt. eigenvalues --    0.99974   1.02311   1.03109   1.03585   1.04377
 Alpha virt. eigenvalues --    1.05553   1.06450   1.06897   1.06955   1.07853
 Alpha virt. eigenvalues --    1.10273   1.12632   1.13836   1.14319   1.15004
 Alpha virt. eigenvalues --    1.15621   1.16888   1.17706   1.18688   1.20288
 Alpha virt. eigenvalues --    1.20672   1.21383   1.21962   1.22358   1.23319
 Alpha virt. eigenvalues --    1.24405   1.26109   1.26289   1.26362   1.27042
 Alpha virt. eigenvalues --    1.28567   1.28853   1.29002   1.31101   1.32298
 Alpha virt. eigenvalues --    1.32706   1.33434   1.34604   1.36074   1.37274
 Alpha virt. eigenvalues --    1.37576   1.38149   1.38760   1.38899   1.39547
 Alpha virt. eigenvalues --    1.40441   1.41095   1.41589   1.42828   1.43520
 Alpha virt. eigenvalues --    1.44006   1.44555   1.45509   1.46517   1.47431
 Alpha virt. eigenvalues --    1.49164   1.50480   1.51700   1.52386   1.52677
 Alpha virt. eigenvalues --    1.53891   1.54170   1.54574   1.55024   1.55993
 Alpha virt. eigenvalues --    1.56594   1.57784   1.58273   1.58512   1.58718
 Alpha virt. eigenvalues --    1.59210   1.59612   1.59926   1.60238   1.61209
 Alpha virt. eigenvalues --    1.61475   1.61967   1.62244   1.62751   1.63168
 Alpha virt. eigenvalues --    1.63807   1.64383   1.64482   1.64741   1.65633
 Alpha virt. eigenvalues --    1.65899   1.65915   1.66892   1.67100   1.67569
 Alpha virt. eigenvalues --    1.68111   1.68606   1.68851   1.69559   1.70044
 Alpha virt. eigenvalues --    1.70580   1.70892   1.71334   1.72320   1.72472
 Alpha virt. eigenvalues --    1.72871   1.73231   1.73893   1.75157   1.76921
 Alpha virt. eigenvalues --    1.77129   1.77594   1.78292   1.78424   1.79072
 Alpha virt. eigenvalues --    1.80960   1.81173   1.81946   1.83507   1.83928
 Alpha virt. eigenvalues --    1.84729   1.85515   1.85687   1.86589   1.86747
 Alpha virt. eigenvalues --    1.87843   1.88340   1.89603   1.90883   1.91870
 Alpha virt. eigenvalues --    1.92107   1.93843   1.94337   1.95924   1.97375
 Alpha virt. eigenvalues --    1.97680   1.98064   1.99519   2.00294   2.02227
 Alpha virt. eigenvalues --    2.02670   2.03013   2.03686   2.04549   2.05419
 Alpha virt. eigenvalues --    2.05759   2.06032   2.08012   2.08573   2.09464
 Alpha virt. eigenvalues --    2.09883   2.10596   2.12664   2.13830   2.15137
 Alpha virt. eigenvalues --    2.17022   2.17627   2.18698   2.19749   2.19798
 Alpha virt. eigenvalues --    2.21394   2.21989   2.24476   2.24962   2.25608
 Alpha virt. eigenvalues --    2.27002   2.29239   2.30441   2.32013   2.34103
 Alpha virt. eigenvalues --    2.34525   2.35352   2.36209   2.38117   2.38292
 Alpha virt. eigenvalues --    2.40473   2.43824   2.47446   2.48455   2.50103
 Alpha virt. eigenvalues --    2.51272   2.52716   2.53272   2.54360   2.55005
 Alpha virt. eigenvalues --    2.55241   2.56184   2.56457   2.57064   2.57303
 Alpha virt. eigenvalues --    2.58016   2.58653   2.59143   2.59878   2.60799
 Alpha virt. eigenvalues --    2.61265   2.62001   2.63822   2.64794   2.66387
 Alpha virt. eigenvalues --    2.67780   2.67993   2.68729   2.69761   2.70716
 Alpha virt. eigenvalues --    2.70925   2.71972   2.72330   2.73699   2.74171
 Alpha virt. eigenvalues --    2.75240   2.76297   2.80302   2.81979   2.83395
 Alpha virt. eigenvalues --    2.85714   2.86279   2.87126   2.88788   2.89517
 Alpha virt. eigenvalues --    2.90496   2.91775   2.92158   2.93291   2.93622
 Alpha virt. eigenvalues --    2.95343   2.96517   2.97646   2.97981   2.98612
 Alpha virt. eigenvalues --    2.99469   3.01101   3.02231   3.03304   3.03813
 Alpha virt. eigenvalues --    3.04320   3.05074   3.06293   3.06883   3.07814
 Alpha virt. eigenvalues --    3.08860   3.11295   3.11996   3.12883   3.14162
 Alpha virt. eigenvalues --    3.14634   3.15478   3.16772   3.16840   3.17714
 Alpha virt. eigenvalues --    3.18251   3.19294   3.20465   3.21148   3.21932
 Alpha virt. eigenvalues --    3.22605   3.23563   3.23929   3.24696   3.26504
 Alpha virt. eigenvalues --    3.27045   3.27221   3.28325   3.28914   3.29555
 Alpha virt. eigenvalues --    3.30986   3.31697   3.31950   3.32506   3.33543
 Alpha virt. eigenvalues --    3.34914   3.36634   3.37577   3.37731   3.38963
 Alpha virt. eigenvalues --    3.40034   3.40689   3.41343   3.42055   3.42463
 Alpha virt. eigenvalues --    3.45309   3.46938   3.47806   3.51157   3.52563
 Alpha virt. eigenvalues --    3.52809   3.54612   3.58536   3.60973   3.66559
 Alpha virt. eigenvalues --    3.75072   3.78037   3.78981   3.79833   3.85805
 Alpha virt. eigenvalues --    3.89232   3.92893   3.95426   3.98196   4.01944
 Alpha virt. eigenvalues --    4.03043   4.05646   4.06840   4.09898   4.10751
 Alpha virt. eigenvalues --    4.12080   4.15475   4.17909   4.18623   4.22462
 Alpha virt. eigenvalues --    4.24061   4.26121   4.27087   4.29034   4.32672
 Alpha virt. eigenvalues --    4.44939   4.55818   5.13968   5.17137   5.18460
 Alpha virt. eigenvalues --    5.21762   5.26785   5.28637   5.32739   5.33838
 Alpha virt. eigenvalues --    5.41618   5.41937   5.57103   5.71194   5.73409
 Alpha virt. eigenvalues --    5.79344   5.84312  23.47276  23.48661  23.52026
 Alpha virt. eigenvalues --   23.52835  23.62120  23.64425  23.65403  23.67451
 Alpha virt. eigenvalues --   23.67761  23.70450  23.72691  23.74243  23.76067
 Alpha virt. eigenvalues --   23.78779  23.79745  23.81440  23.83552  23.85764
 Alpha virt. eigenvalues --   23.87239  23.87941  23.90263  23.91826  23.96674
 Alpha virt. eigenvalues --   24.17374  24.22127  24.23184  49.98985  50.00598
 Alpha virt. eigenvalues --   50.02935  50.03222  50.06658
          Condensed to atoms (all electrons):
 Mulliken atomic charges:
              1
     1  C   -0.646376
     2  C    0.948984
     3  C    0.003641
     4  C   -0.093553
     5  C    1.256872
     6  C   -1.233863
     7  C   -1.285838
     8  C    0.364183
     9  C    0.808035
    10  C   -0.971780
    11  C   -0.815905
    12  O   -0.149613
    13  C    0.554823
    14  C   -0.366611
    15  C   -0.873279
    16  O   -0.208451
    17  C   -0.358521
    18  C    0.864560
    19  O    0.207860
    20  C   -1.238096
    21  O   -0.002405
    22  C   -0.500608
    23  C    0.052657
    24  O   -0.030072
    25  C    0.920211
    26  C   -1.059707
    27  C   -1.050585
    28  C   -0.888961
    29  C   -0.623527
    30  H    0.237597
    31  H    0.260104
    32  C   -1.183256
    33  H    0.208136
    34  H    0.269379
    35  H    0.262374
    36  H    0.270640
    37  H    0.221705
    38  H    0.262412
    39  H    0.269424
    40  H    0.260846
    41  H    0.237141
    42  H    0.259209
    43  H    0.294765
    44  H    0.246924
    45  H    0.271531
    46  H    0.256798
    47  H    0.213834
    48  H    0.252190
    49  H    0.262240
    50  H    0.251124
    51  H    0.216524
    52  H    0.247912
    53  H    0.248911
    54  H    0.310449
    55  H    0.264059
    56  H    0.273585
    57  H    0.271917
    58  H    0.262002
    59  H    0.261724
    60  H    0.246187
    61  H    0.251521
    62  C   -1.088608
    63  H    0.273209
    64  H    0.250441
    65  H    0.240972
 Sum of Mulliken atomic charges =   0.00000
 Mulliken charges with hydrogens summed into heavy atoms:
              1
     1  C   -0.438240
     2  C    0.948984
     3  C    0.263745
     4  C   -0.093553
     5  C    1.256872
     6  C   -0.702110
     7  C   -1.285838
     8  C    0.364183
     9  C    0.808035
    10  C   -0.971780
    11  C   -0.815905
    12  O   -0.149613
    13  C    0.825463
    14  C    0.117507
    15  C   -0.105868
    16  O   -0.208451
    17  C   -0.120924
    18  C    0.864560
    19  O    0.207860
    20  C   -0.684121
    21  O    0.244519
    22  C    0.027722
    23  C    0.266491
    24  O   -0.030072
    25  C    0.920211
    26  C   -0.294153
    27  C   -0.586149
    28  C   -0.065542
    29  C    0.183977
    32  C   -0.423824
    62  C   -0.323987
 Sum of Mulliken charges with hydrogens summed into heavy atoms =   0.00000
 Electronic spatial extent (au):  <R**2>=          11006.2042
 Charge=              0.0000 electrons
 Dipole moment (field-independent basis, Debye):
    X=             -5.1617    Y=              1.4277    Z=              1.7406  Tot=              5.6312
 Quadrupole moment (field-independent basis, Debye-Ang):
   XX=           -189.0684   YY=           -181.9376   ZZ=           -188.5133
   XY=             -6.1993   XZ=              7.3292   YZ=              2.9220
 Traceless Quadrupole moment (field-independent basis, Debye-Ang):
   XX=             -2.5619   YY=              4.5688   ZZ=             -2.0069
   XY=             -6.1993   XZ=              7.3292   YZ=              2.9220
 Octapole moment (field-independent basis, Debye-Ang**2):
  XXX=            -33.8010  YYY=             45.9646  ZZZ=              2.2012  XYY=            -17.7880
  XXY=            -20.8686  XXZ=             14.8061  XZZ=            -22.6374  YZZ=             -3.6883
  YYZ=             44.3392  XYZ=             12.3246
 Hexadecapole moment (field-independent basis, Debye-Ang**3):
 XXXX=          -7354.9414 YYYY=          -4889.1939 ZZZZ=          -2837.4658 XXXY=            -66.3166
 XXXZ=             57.0436 YYYX=             -1.5376 YYYZ=              6.0952 ZZZX=              9.2204
 ZZZY=              9.4449 XXYY=          -2036.0475 XXZZ=          -1725.1523 YYZZ=          -1271.8549
 XXYZ=             34.1434 YYXZ=              7.8061 ZZXY=              4.7266
 N-N= 3.541897199667D+03 E-N=-1.031717333291D+04  KE= 1.381915896012D+03
 1\1\GINC-B0805\FOpt\RB3LYP\6-311+G(d)\C26H34O5\CAOFEI\13-Apr-2021\0\\#
  opt b3lyp/6-311+g(d) geom=connectivity\\Title Card Required\\0,1\C,-2
 .5670552121,0.3413477005,-2.6716404623\C,-3.2398666763,0.9236141769,-1
 .6762220497\C,-2.6019893497,1.0469074666,-0.314093779\C,-1.590775655,-
 0.0801835979,0.0727015908\C,-0.9914079588,-0.9117507368,-1.1004916218\
 C,-1.1860786073,-0.2256338784,-2.4879333281\C,-0.5188179608,0.66197762
 86,0.9417927966\C,0.7831273161,0.9132733001,0.2013931642\C,1.371399504
 3,-0.0053796512,-0.6063947906\C,0.546875337,-1.1574775521,-1.001105526
 4\C,2.7646203347,0.2104327324,-1.1513119529\O,3.0628336606,1.293517186
 2,-1.6144524628\C,3.7561219013,-0.9459787905,-1.0751636678\C,3.9738620
 525,-1.3890332681,0.395837597\C,5.0571161283,-0.6179212197,-1.81038611
 54\O,1.0083043087,-2.2057257718,-1.427753587\C,-0.9948087046,2.1105516
 684,1.1677345602\C,0.3239307902,2.8951360169,1.3373347296\O,1.28744021
 98,2.0987344394,0.5241486394\C,-1.8367155337,2.3759241091,-0.091713124
 4\O,-0.2071163721,-0.0423614333,2.1274722755\C,-1.7823051697,-2.233894
 2039,-1.0465378599\C,-2.3023990829,-2.3747382013,0.3838465459\O,-2.261
 3519062,-1.0191902732,0.9319420454\C,-1.6055626455,-3.318878669,1.3495
 13738\C,-2.2994625725,-3.4522501181,2.6838381045\C,-0.4945050034,-3.99
 66808281,1.0596782633\C,0.8257517501,2.8900843347,2.7803362489\C,0.343
 8973945,4.3011275874,0.7524082114\H,-1.6096470303,2.1779232805,2.06788
 27172\H,-3.3830757733,0.9898664604,0.4526047855\C,-4.6147318147,1.5106
 038402,-1.8444058541\H,-3.011008199,0.2766100802,-3.6625808063\H,-0.43
 66448623,0.5644605706,-2.618095294\H,-0.9671308983,-0.9667599091,-3.26
 1685868\H,3.263017693,-1.7901258105,-1.5687743836\H,4.6009155418,-2.28
 77667437,0.3789998661\H,3.0134096276,-1.7022264236,0.8162526524\H,5.55
 25476625,0.2627771932,-1.3987003292\H,4.8711004872,-0.4128511624,-2.86
 69364017\H,5.7491936889,-1.4630609711,-1.7469853986\H,-2.5108738724,3.
 2280807885,0.0167301851\H,-1.1983724293,2.5811885275,-0.9564096001\H,-
 0.9121322668,-0.7050504101,2.231915866\H,-1.1633557471,-3.0654352311,-
 1.3752234711\H,-2.6351370021,-2.1674455791,-1.7240843112\H,-3.36498650
 23,-2.643215203,0.3734659803\H,-2.4318379474,-2.4812578025,3.171750994
 6\H,-3.3050435935,-3.8720381027,2.5597865532\H,-1.7442780274,-4.101212
 197,3.3632933608\H,-0.0451613536,-4.6621685803,1.791127828\H,0.0183166
 102,-3.9150646161,0.1096503719\H,0.18466913,3.521836381,3.4020143167\H
 ,0.8240575353,1.8828752414,3.1964485899\H,1.8413466487,3.2899200436,2.
 825540893\H,1.3356320116,4.7433170288,0.8674415278\H,0.0959613864,4.30
 69807565,-0.3092570677\H,-0.3736180491,4.9359833526,1.2797534301\H,-5.
 3361281487,1.0260011777,-1.1760577535\H,-4.6291991717,2.5782355957,-1.
 5955120861\H,-4.9774954443,1.4032113787,-2.8689797782\C,4.6121076838,-
 0.337877323,1.3091600458\H,4.0117129527,0.575133838,1.3631315252\H,5.6
 12002615,-0.0530377989,0.9715620286\H,4.7101585712,-0.7250318241,2.327
 5157024\\Version=EM64L-G09RevB.01\State=1-A\HF=-1387.6480263\RMSD=5.69
 3e-09\RMSF=5.667e-06\Dipole=-2.059727,0.4605128,0.6737095\Quadrupole=-
 1.5622921,2.9079721,-1.34568,-4.9156814,5.2840921,2.4314287\PG=C01 [X(
 C26H34O5)]\\@


 ONE BIG VICE IN A MAN IS APT TO KEEP OUT MANY SMALLER ONES.

                           -- BRET HARTE
 Job cpu time:  1 days 12 hours 19 minutes  5.6 seconds.
 File lengths (MBytes):  RWF=    372 Int=      0 D2E=      0 Chk=     38 Scr=      1
 Normal termination of Gaussian 09 at Tue Apr 13 19:54:13 2021.
