 Entering Gaussian System, Link 0=g09
 Initial command:
 /public/software/g09/g09/l1.exe /tmp/Gau-485.inp -scrdir=/tmp/
 Entering Link 1 = /public/software/g09/g09/l1.exe PID=       486.
  
 Copyright (c) 1988,1990,1992,1993,1995,1998,2003,2009,2010,
            Gaussian, Inc.  All Rights Reserved.
  
 This is part of the Gaussian(R) 09 program.  It is based on
 the Gaussian(R) 03 system (copyright 2003, Gaussian, Inc.),
 the Gaussian(R) 98 system (copyright 1998, Gaussian, Inc.),
 the Gaussian(R) 94 system (copyright 1995, Gaussian, Inc.),
 the Gaussian 92(TM) system (copyright 1992, Gaussian, Inc.),
 the Gaussian 90(TM) system (copyright 1990, Gaussian, Inc.),
 the Gaussian 88(TM) system (copyright 1988, Gaussian, Inc.),
 the Gaussian 86(TM) system (copyright 1986, Carnegie Mellon
 University), and the Gaussian 82(TM) system (copyright 1983,
 Carnegie Mellon University). Gaussian is a federally registered
 trademark of Gaussian, Inc.
  
 This software contains proprietary and confidential information,
 including trade secrets, belonging to Gaussian, Inc.
  
 This software is provided under written license and may be
 used, copied, transmitted, or stored only in accord with that
 written license.
  
 The following legend is applicable only to US Government
 contracts under FAR:
  
                    RESTRICTED RIGHTS LEGEND
  
 Use, reproduction and disclosure by the US Government is
 subject to restrictions as set forth in subparagraphs (a)
 and (c) of the Commercial Computer Software - Restricted
 Rights clause in FAR 52.227-19.
  
 Gaussian, Inc.
 340 Quinnipiac St., Bldg. 40, Wallingford CT 06492
  
  
 ---------------------------------------------------------------
 Warning -- This program may not be used in any manner that
 competes with the business of Gaussian, Inc. or will provide
 assistance to any competitor of Gaussian, Inc.  The licensee
 of this program is prohibited from giving any competitor of
 Gaussian, Inc. access to this program.  By using this program,
 the user acknowledges that Gaussian, Inc. is engaged in the
 business of creating and licensing software in the field of
 computational chemistry and represents and warrants to the
 licensee that it is not a competitor of Gaussian, Inc. and that
 it will not use this program in any manner prohibited above.
 ---------------------------------------------------------------
  

 Cite this work as:
 Gaussian 09, Revision B.01,
 M. J. Frisch, G. W. Trucks, H. B. Schlegel, G. E. Scuseria, 
 M. A. Robb, J. R. Cheeseman, G. Scalmani, V. Barone, B. Mennucci, 
 G. A. Petersson, H. Nakatsuji, M. Caricato, X. Li, H. P. Hratchian, 
 A. F. Izmaylov, J. Bloino, G. Zheng, J. L. Sonnenberg, M. Hada, 
 M. Ehara, K. Toyota, R. Fukuda, J. Hasegawa, M. Ishida, T. Nakajima, 
 Y. Honda, O. Kitao, H. Nakai, T. Vreven, J. A. Montgomery, Jr., 
 J. E. Peralta, F. Ogliaro, M. Bearpark, J. J. Heyd, E. Brothers, 
 K. N. Kudin, V. N. Staroverov, T. Keith, R. Kobayashi, J. Normand, 
 K. Raghavachari, A. Rendell, J. C. Burant, S. S. Iyengar, J. Tomasi, 
 M. Cossi, N. Rega, J. M. Millam, M. Klene, J. E. Knox, J. B. Cross, 
 V. Bakken, C. Adamo, J. Jaramillo, R. Gomperts, R. E. Stratmann, 
 O. Yazyev, A. J. Austin, R. Cammi, C. Pomelli, J. W. Ochterski, 
 R. L. Martin, K. Morokuma, V. G. Zakrzewski, G. A. Voth, 
 P. Salvador, J. J. Dannenberg, S. Dapprich, A. D. Daniels, 
 O. Farkas, J. B. Foresman, J. V. Ortiz, J. Cioslowski, 
 and D. J. Fox, Gaussian, Inc., Wallingford CT, 2010.
 
 ******************************************
 Gaussian 09:  EM64L-G09RevB.01 12-Aug-2010
                13-Apr-2021 
 ******************************************
 %mem=600MW
 %nprocshared=10
 Will use up to   10 processors via shared memory.
 ----------------------------------------
 # opt b3lyp/6-311+g(d) geom=connectivity
 ----------------------------------------
 1/14=-1,18=20,19=15,26=3,38=1,57=2/1,3;
 2/9=110,12=2,17=6,18=5,40=1/2;
 3/5=4,6=6,7=11,11=2,16=1,25=1,30=1,71=1,74=-5/1,2,3;
 4//1;
 5/5=2,38=5/2;
 6/7=2,8=2,9=2,10=2,28=1/1;
 7//1,2,3,16;
 1/14=-1,18=20,19=15/3(2);
 2/9=110/2;
 99//99;
 2/9=110/2;
 3/5=4,6=6,7=11,11=2,16=1,25=1,30=1,71=1,74=-5/1,2,3;
 4/5=5,16=3/1;
 5/5=2,38=5/2;
 7//1,2,3,16;
 1/14=-1,18=20,19=15/3(-5);
 2/9=110/2;
 6/7=2,8=2,9=2,10=2,19=2,28=1/1;
 99/9=1/99;
 -------------------
 Title Card Required
 -------------------
 Symbolic Z-matrix:
 Charge =  0 Multiplicity = 1
 C                     2.0362    0.15453   2.75855 
 C                     2.64156   1.11259   2.04596 
 C                     2.12293   1.47289   0.6727 
 C                     1.40335   0.32701  -0.11148 
 C                     0.91899  -0.90352   0.72125 
 C                     0.83673  -0.59892   2.24719 
 C                     0.26841   1.04533  -0.90026 
 C                    -1.10614   0.85607  -0.2649 
 C                    -1.55586  -0.35751   0.1823 
 C                    -0.51161  -1.39678   0.32268 
 C                    -3.00772  -0.56801   0.49881 
 O                    -3.73026   0.39872   0.70272 
 C                    -3.58657  -1.98734   0.57304 
 C                    -5.04026  -2.00839   0.06663 
 C                    -3.50055  -2.47168   2.03658 
 O                    -0.73166  -2.60135   0.30235 
 C                     0.45019   2.56792  -0.72917 
 C                    -0.99111   3.10678  -0.84981 
 O                    -1.80499   1.98189  -0.31296 
 C                     1.12613   2.66219   0.65296 
 O                     0.18172   0.59851  -2.23765 
 C                     1.97278  -1.99755   0.41054 
 C                     3.00006  -1.32581  -0.52287 
 O                     2.29737  -0.21362  -1.09529 
 C                     3.58557  -2.2193   -1.59118 
 C                     4.35653  -3.40397  -1.06167 
 C                     3.45491  -1.97093  -2.89614 
 C                    -1.41653   3.3241   -2.30383 
 C                    -1.33507   4.3165    0.01306 
 H                     1.0963    2.97322  -1.51324 
 H                     2.97096   1.75311   0.03308 
 C                     3.82096   1.89637   2.5601 
 H                     2.39396  -0.08389   3.75912 
 H                     0.72049  -1.55075   2.77713 
 H                    -0.07733  -0.02592   2.4582 
 H                    -2.97232  -2.65355  -0.03735 
 H                    -5.45185  -3.00679   0.26752 
 H                    -5.63057  -1.29432   0.65164 
 H                    -2.46495  -2.51131   2.38882 
 H                    -3.91829  -3.48108   2.12361 
 H                    -4.06952  -1.80663   2.69666 
 H                     0.38967   2.53603   1.45557 
 H                     1.62304   3.62261   0.82052 
 H                     0.97396   0.03971  -2.36956 
 H                     1.47755  -2.8403   -0.07769 
 H                     2.4496   -2.37275   1.31988 
 H                     3.83067  -0.92554   0.08216 
 H                     3.71183  -4.08099  -0.48629 
 H                     5.16213  -3.08468  -0.38598 
 H                     4.80596  -3.97763  -1.87707 
 H                     3.89307  -2.63238  -3.63874 
 H                     2.92074  -1.10396  -3.26869 
 H                    -2.49467   3.50651  -2.35255 
 H                    -0.89972   4.19764  -2.71747 
 H                    -1.17358   2.4535   -2.91727 
 H                    -0.75354   5.18528  -0.31447 
 H                    -1.12777   4.13635   1.07073 
 H                    -2.39774   4.55704  -0.08779 
 H                     4.11028   1.57516   3.56566 
 H                     4.69234   1.78222   1.9004 
 H                     3.60056   2.97205   2.60092 
 C                    -5.1816   -1.69041  -1.42589 
 H                    -6.22794  -1.76104  -1.74507 
 H                    -4.59818  -2.38814  -2.03981 
 H                    -4.83622  -0.67488  -1.64696 
 

 GradGradGradGradGradGradGradGradGradGradGradGradGradGradGradGradGradGrad
 Berny optimization.
 Initialization pass.
                           ----------------------------
                           !    Initial Parameters    !
                           ! (Angstroms and Degrees)  !
 --------------------------                            --------------------------
 ! Name  Definition              Value          Derivative Info.                !
 --------------------------------------------------------------------------------
 ! R1    R(1,2)                  1.3387         estimate D2E/DX2                !
 ! R2    R(1,6)                  1.506          estimate D2E/DX2                !
 ! R3    R(1,33)                 1.089          estimate D2E/DX2                !
 ! R4    R(2,3)                  1.5115         estimate D2E/DX2                !
 ! R5    R(2,32)                 1.5065         estimate D2E/DX2                !
 ! R6    R(3,4)                  1.5639         estimate D2E/DX2                !
 ! R7    R(3,20)                 1.5519         estimate D2E/DX2                !
 ! R8    R(3,31)                 1.0985         estimate D2E/DX2                !
 ! R9    R(4,5)                  1.5628         estimate D2E/DX2                !
 ! R10   R(4,7)                  1.5576         estimate D2E/DX2                !
 ! R11   R(4,24)                 1.4351         estimate D2E/DX2                !
 ! R12   R(5,6)                  1.5582         estimate D2E/DX2                !
 ! R13   R(5,10)                 1.5649         estimate D2E/DX2                !
 ! R14   R(5,22)                 1.5505         estimate D2E/DX2                !
 ! R15   R(6,34)                 1.0956         estimate D2E/DX2                !
 ! R16   R(6,35)                 1.0993         estimate D2E/DX2                !
 ! R17   R(7,8)                  1.5261         estimate D2E/DX2                !
 ! R18   R(7,17)                 1.5429         estimate D2E/DX2                !
 ! R19   R(7,21)                 1.4127         estimate D2E/DX2                !
 ! R20   R(8,9)                  1.3693         estimate D2E/DX2                !
 ! R21   R(8,19)                 1.326          estimate D2E/DX2                !
 ! R22   R(9,10)                 1.4799         estimate D2E/DX2                !
 ! R23   R(9,11)                 1.5008         estimate D2E/DX2                !
 ! R24   R(10,16)                1.2247         estimate D2E/DX2                !
 ! R25   R(11,12)                1.224          estimate D2E/DX2                !
 ! R26   R(11,13)                1.5346         estimate D2E/DX2                !
 ! R27   R(13,14)                1.5395         estimate D2E/DX2                !
 ! R28   R(13,15)                1.544          estimate D2E/DX2                !
 ! R29   R(13,36)                1.0926         estimate D2E/DX2                !
 ! R30   R(14,37)                1.0984         estimate D2E/DX2                !
 ! R31   R(14,38)                1.0957         estimate D2E/DX2                !
 ! R32   R(14,62)                1.5325         estimate D2E/DX2                !
 ! R33   R(15,39)                1.0946         estimate D2E/DX2                !
 ! R34   R(15,40)                1.0959         estimate D2E/DX2                !
 ! R35   R(15,41)                1.0962         estimate D2E/DX2                !
 ! R36   R(17,18)                1.5435         estimate D2E/DX2                !
 ! R37   R(17,20)                1.5415         estimate D2E/DX2                !
 ! R38   R(17,30)                1.0938         estimate D2E/DX2                !
 ! R39   R(18,19)                1.4886         estimate D2E/DX2                !
 ! R40   R(18,28)                1.5305         estimate D2E/DX2                !
 ! R41   R(18,29)                1.5252         estimate D2E/DX2                !
 ! R42   R(20,42)                1.0966         estimate D2E/DX2                !
 ! R43   R(20,43)                1.0943         estimate D2E/DX2                !
 ! R44   R(21,44)                0.9784         estimate D2E/DX2                !
 ! R45   R(22,23)                1.542          estimate D2E/DX2                !
 ! R46   R(22,45)                1.0926         estimate D2E/DX2                !
 ! R47   R(22,46)                1.0932         estimate D2E/DX2                !
 ! R48   R(23,24)                1.4347         estimate D2E/DX2                !
 ! R49   R(23,25)                1.5108         estimate D2E/DX2                !
 ! R50   R(23,47)                1.1028         estimate D2E/DX2                !
 ! R51   R(24,44)                1.8546         estimate D2E/DX2                !
 ! R52   R(25,26)                1.5094         estimate D2E/DX2                !
 ! R53   R(25,27)                1.3348         estimate D2E/DX2                !
 ! R54   R(26,48)                1.0977         estimate D2E/DX2                !
 ! R55   R(26,49)                1.0989         estimate D2E/DX2                !
 ! R56   R(26,50)                1.0936         estimate D2E/DX2                !
 ! R57   R(27,51)                1.0867         estimate D2E/DX2                !
 ! R58   R(27,52)                1.0843         estimate D2E/DX2                !
 ! R59   R(28,53)                1.0945         estimate D2E/DX2                !
 ! R60   R(28,54)                1.096          estimate D2E/DX2                !
 ! R61   R(28,55)                1.0924         estimate D2E/DX2                !
 ! R62   R(29,56)                1.0955         estimate D2E/DX2                !
 ! R63   R(29,57)                1.0927         estimate D2E/DX2                !
 ! R64   R(29,58)                1.0942         estimate D2E/DX2                !
 ! R65   R(32,59)                1.0946         estimate D2E/DX2                !
 ! R66   R(32,60)                1.0989         estimate D2E/DX2                !
 ! R67   R(32,61)                1.0988         estimate D2E/DX2                !
 ! R68   R(62,63)                1.0962         estimate D2E/DX2                !
 ! R69   R(62,64)                1.0973         estimate D2E/DX2                !
 ! R70   R(62,65)                1.0952         estimate D2E/DX2                !
 ! A1    A(2,1,6)              122.5122         estimate D2E/DX2                !
 ! A2    A(2,1,33)             119.8141         estimate D2E/DX2                !
 ! A3    A(6,1,33)             117.6521         estimate D2E/DX2                !
 ! A4    A(1,2,3)              119.9369         estimate D2E/DX2                !
 ! A5    A(1,2,32)             123.0028         estimate D2E/DX2                !
 ! A6    A(3,2,32)             117.0432         estimate D2E/DX2                !
 ! A7    A(2,3,4)              116.0266         estimate D2E/DX2                !
 ! A8    A(2,3,20)             114.4953         estimate D2E/DX2                !
 ! A9    A(2,3,31)             108.9607         estimate D2E/DX2                !
 ! A10   A(4,3,20)             105.0457         estimate D2E/DX2                !
 ! A11   A(4,3,31)             104.4864         estimate D2E/DX2                !
 ! A12   A(20,3,31)            107.0341         estimate D2E/DX2                !
 ! A13   A(3,4,5)              116.8952         estimate D2E/DX2                !
 ! A14   A(3,4,7)              104.5536         estimate D2E/DX2                !
 ! A15   A(3,4,24)             109.459          estimate D2E/DX2                !
 ! A16   A(5,4,7)              114.0248         estimate D2E/DX2                !
 ! A17   A(5,4,24)             105.1731         estimate D2E/DX2                !
 ! A18   A(7,4,24)             106.2895         estimate D2E/DX2                !
 ! A19   A(4,5,6)              112.5972         estimate D2E/DX2                !
 ! A20   A(4,5,10)             113.3171         estimate D2E/DX2                !
 ! A21   A(4,5,22)             103.7789         estimate D2E/DX2                !
 ! A22   A(6,5,10)             105.2351         estimate D2E/DX2                !
 ! A23   A(6,5,22)             111.7199         estimate D2E/DX2                !
 ! A24   A(10,5,22)            110.3585         estimate D2E/DX2                !
 ! A25   A(1,6,5)              112.8474         estimate D2E/DX2                !
 ! A26   A(1,6,34)             110.7888         estimate D2E/DX2                !
 ! A27   A(1,6,35)             109.6536         estimate D2E/DX2                !
 ! A28   A(5,6,34)             108.0256         estimate D2E/DX2                !
 ! A29   A(5,6,35)             109.4979         estimate D2E/DX2                !
 ! A30   A(34,6,35)            105.7708         estimate D2E/DX2                !
 ! A31   A(4,7,8)              112.8458         estimate D2E/DX2                !
 ! A32   A(4,7,17)             108.2454         estimate D2E/DX2                !
 ! A33   A(4,7,21)             112.2254         estimate D2E/DX2                !
 ! A34   A(8,7,17)             100.5055         estimate D2E/DX2                !
 ! A35   A(8,7,21)             107.4362         estimate D2E/DX2                !
 ! A36   A(17,7,21)            115.1079         estimate D2E/DX2                !
 ! A37   A(7,8,9)              122.7998         estimate D2E/DX2                !
 ! A38   A(7,8,19)             110.7525         estimate D2E/DX2                !
 ! A39   A(9,8,19)             126.2447         estimate D2E/DX2                !
 ! A40   A(8,9,10)             114.9361         estimate D2E/DX2                !
 ! A41   A(8,9,11)             120.724          estimate D2E/DX2                !
 ! A42   A(10,9,11)            124.3394         estimate D2E/DX2                !
 ! A43   A(5,10,9)             116.6074         estimate D2E/DX2                !
 ! A44   A(5,10,16)            118.5889         estimate D2E/DX2                !
 ! A45   A(9,10,16)            124.2186         estimate D2E/DX2                !
 ! A46   A(9,11,12)            119.6968         estimate D2E/DX2                !
 ! A47   A(9,11,13)            120.3193         estimate D2E/DX2                !
 ! A48   A(12,11,13)           119.9834         estimate D2E/DX2                !
 ! A49   A(11,13,14)           110.6647         estimate D2E/DX2                !
 ! A50   A(11,13,15)           108.3582         estimate D2E/DX2                !
 ! A51   A(11,13,36)           108.9575         estimate D2E/DX2                !
 ! A52   A(14,13,15)           111.1079         estimate D2E/DX2                !
 ! A53   A(14,13,36)           109.8013         estimate D2E/DX2                !
 ! A54   A(15,13,36)           107.8758         estimate D2E/DX2                !
 ! A55   A(13,14,37)           107.8232         estimate D2E/DX2                !
 ! A56   A(13,14,38)           108.9154         estimate D2E/DX2                !
 ! A57   A(13,14,62)           113.8659         estimate D2E/DX2                !
 ! A58   A(37,14,38)           107.027          estimate D2E/DX2                !
 ! A59   A(37,14,62)           109.3988         estimate D2E/DX2                !
 ! A60   A(38,14,62)           109.5766         estimate D2E/DX2                !
 ! A61   A(13,15,39)           111.6606         estimate D2E/DX2                !
 ! A62   A(13,15,40)           110.0582         estimate D2E/DX2                !
 ! A63   A(13,15,41)           110.5811         estimate D2E/DX2                !
 ! A64   A(39,15,40)           107.5627         estimate D2E/DX2                !
 ! A65   A(39,15,41)           108.6173         estimate D2E/DX2                !
 ! A66   A(40,15,41)           108.2474         estimate D2E/DX2                !
 ! A67   A(7,17,18)            103.0529         estimate D2E/DX2                !
 ! A68   A(7,17,20)            102.2069         estimate D2E/DX2                !
 ! A69   A(7,17,30)            110.8393         estimate D2E/DX2                !
 ! A70   A(18,17,20)           117.2721         estimate D2E/DX2                !
 ! A71   A(18,17,30)           111.4814         estimate D2E/DX2                !
 ! A72   A(20,17,30)           111.1634         estimate D2E/DX2                !
 ! A73   A(17,18,19)           102.623          estimate D2E/DX2                !
 ! A74   A(17,18,28)           112.5439         estimate D2E/DX2                !
 ! A75   A(17,18,29)           116.3134         estimate D2E/DX2                !
 ! A76   A(19,18,28)           107.334          estimate D2E/DX2                !
 ! A77   A(19,18,29)           105.7853         estimate D2E/DX2                !
 ! A78   A(28,18,29)           111.2334         estimate D2E/DX2                !
 ! A79   A(8,19,18)            111.5009         estimate D2E/DX2                !
 ! A80   A(3,20,17)            104.2523         estimate D2E/DX2                !
 ! A81   A(3,20,42)            109.5054         estimate D2E/DX2                !
 ! A82   A(3,20,43)            112.2713         estimate D2E/DX2                !
 ! A83   A(17,20,42)           110.7772         estimate D2E/DX2                !
 ! A84   A(17,20,43)           112.961          estimate D2E/DX2                !
 ! A85   A(42,20,43)           107.0905         estimate D2E/DX2                !
 ! A86   A(7,21,44)            104.986          estimate D2E/DX2                !
 ! A87   A(5,22,23)            105.4684         estimate D2E/DX2                !
 ! A88   A(5,22,45)            109.0102         estimate D2E/DX2                !
 ! A89   A(5,22,46)            111.8349         estimate D2E/DX2                !
 ! A90   A(23,22,45)           111.5596         estimate D2E/DX2                !
 ! A91   A(23,22,46)           111.2513         estimate D2E/DX2                !
 ! A92   A(45,22,46)           107.7385         estimate D2E/DX2                !
 ! A93   A(22,23,24)           104.6506         estimate D2E/DX2                !
 ! A94   A(22,23,25)           115.3784         estimate D2E/DX2                !
 ! A95   A(22,23,47)           109.1343         estimate D2E/DX2                !
 ! A96   A(24,23,25)           111.4782         estimate D2E/DX2                !
 ! A97   A(24,23,47)           107.8428         estimate D2E/DX2                !
 ! A98   A(25,23,47)           108.102          estimate D2E/DX2                !
 ! A99   A(4,24,23)            108.8834         estimate D2E/DX2                !
 ! A100  A(23,25,26)           114.4606         estimate D2E/DX2                !
 ! A101  A(23,25,27)           122.9117         estimate D2E/DX2                !
 ! A102  A(26,25,27)           122.6166         estimate D2E/DX2                !
 ! A103  A(25,26,48)           111.5899         estimate D2E/DX2                !
 ! A104  A(25,26,49)           111.2309         estimate D2E/DX2                !
 ! A105  A(25,26,50)           111.1036         estimate D2E/DX2                !
 ! A106  A(48,26,49)           106.7063         estimate D2E/DX2                !
 ! A107  A(48,26,50)           107.9778         estimate D2E/DX2                !
 ! A108  A(49,26,50)           108.0356         estimate D2E/DX2                !
 ! A109  A(25,27,51)           121.0211         estimate D2E/DX2                !
 ! A110  A(25,27,52)           122.201          estimate D2E/DX2                !
 ! A111  A(51,27,52)           116.7753         estimate D2E/DX2                !
 ! A112  A(18,28,53)           109.8613         estimate D2E/DX2                !
 ! A113  A(18,28,54)           109.916          estimate D2E/DX2                !
 ! A114  A(18,28,55)           111.0096         estimate D2E/DX2                !
 ! A115  A(53,28,54)           108.3519         estimate D2E/DX2                !
 ! A116  A(53,28,55)           109.0801         estimate D2E/DX2                !
 ! A117  A(54,28,55)           108.566          estimate D2E/DX2                !
 ! A118  A(18,29,56)           109.8851         estimate D2E/DX2                !
 ! A119  A(18,29,57)           111.965          estimate D2E/DX2                !
 ! A120  A(18,29,58)           109.952          estimate D2E/DX2                !
 ! A121  A(56,29,57)           108.6271         estimate D2E/DX2                !
 ! A122  A(56,29,58)           108.2777         estimate D2E/DX2                !
 ! A123  A(57,29,58)           108.04           estimate D2E/DX2                !
 ! A124  A(2,32,59)            111.5789         estimate D2E/DX2                !
 ! A125  A(2,32,60)            111.2144         estimate D2E/DX2                !
 ! A126  A(2,32,61)            111.4059         estimate D2E/DX2                !
 ! A127  A(59,32,60)           108.1459         estimate D2E/DX2                !
 ! A128  A(59,32,61)           107.8292         estimate D2E/DX2                !
 ! A129  A(60,32,61)           106.4427         estimate D2E/DX2                !
 ! A130  A(14,62,63)           110.9907         estimate D2E/DX2                !
 ! A131  A(14,62,64)           111.3399         estimate D2E/DX2                !
 ! A132  A(14,62,65)           111.0931         estimate D2E/DX2                !
 ! A133  A(63,62,64)           107.6753         estimate D2E/DX2                !
 ! A134  A(63,62,65)           107.5765         estimate D2E/DX2                !
 ! A135  A(64,62,65)           107.9991         estimate D2E/DX2                !
 ! D1    D(6,1,2,3)              0.0072         estimate D2E/DX2                !
 ! D2    D(6,1,2,32)           178.4561         estimate D2E/DX2                !
 ! D3    D(33,1,2,3)          -178.2618         estimate D2E/DX2                !
 ! D4    D(33,1,2,32)            0.1872         estimate D2E/DX2                !
 ! D5    D(2,1,6,5)             37.8129         estimate D2E/DX2                !
 ! D6    D(2,1,6,34)           159.0867         estimate D2E/DX2                !
 ! D7    D(2,1,6,35)           -84.5357         estimate D2E/DX2                !
 ! D8    D(33,1,6,5)          -143.8827         estimate D2E/DX2                !
 ! D9    D(33,1,6,34)          -22.6089         estimate D2E/DX2                !
 ! D10   D(33,1,6,35)           93.7687         estimate D2E/DX2                !
 ! D11   D(1,2,3,4)            -28.4729         estimate D2E/DX2                !
 ! D12   D(1,2,3,20)            94.207          estimate D2E/DX2                !
 ! D13   D(1,2,3,31)          -145.9966         estimate D2E/DX2                !
 ! D14   D(32,2,3,4)           152.9875         estimate D2E/DX2                !
 ! D15   D(32,2,3,20)          -84.3326         estimate D2E/DX2                !
 ! D16   D(32,2,3,31)           35.4638         estimate D2E/DX2                !
 ! D17   D(1,2,32,59)            0.497          estimate D2E/DX2                !
 ! D18   D(1,2,32,60)          121.3459         estimate D2E/DX2                !
 ! D19   D(1,2,32,61)         -120.0799         estimate D2E/DX2                !
 ! D20   D(3,2,32,59)          178.988          estimate D2E/DX2                !
 ! D21   D(3,2,32,60)          -60.1631         estimate D2E/DX2                !
 ! D22   D(3,2,32,61)           58.411          estimate D2E/DX2                !
 ! D23   D(2,3,4,5)             17.582          estimate D2E/DX2                !
 ! D24   D(2,3,4,7)            144.6906         estimate D2E/DX2                !
 ! D25   D(2,3,4,24)          -101.7894         estimate D2E/DX2                !
 ! D26   D(20,3,4,5)          -109.9388         estimate D2E/DX2                !
 ! D27   D(20,3,4,7)            17.1698         estimate D2E/DX2                !
 ! D28   D(20,3,4,24)          130.6898         estimate D2E/DX2                !
 ! D29   D(31,3,4,5)           137.5571         estimate D2E/DX2                !
 ! D30   D(31,3,4,7)           -95.3344         estimate D2E/DX2                !
 ! D31   D(31,3,4,24)           18.1857         estimate D2E/DX2                !
 ! D32   D(2,3,20,17)         -164.148          estimate D2E/DX2                !
 ! D33   D(2,3,20,42)          -45.5762         estimate D2E/DX2                !
 ! D34   D(2,3,20,43)           73.2385         estimate D2E/DX2                !
 ! D35   D(4,3,20,17)          -35.7018         estimate D2E/DX2                !
 ! D36   D(4,3,20,42)           82.87           estimate D2E/DX2                !
 ! D37   D(4,3,20,43)         -158.3153         estimate D2E/DX2                !
 ! D38   D(31,3,20,17)          74.9858         estimate D2E/DX2                !
 ! D39   D(31,3,20,42)        -166.4424         estimate D2E/DX2                !
 ! D40   D(31,3,20,43)         -47.6277         estimate D2E/DX2                !
 ! D41   D(3,4,5,6)             17.835          estimate D2E/DX2                !
 ! D42   D(3,4,5,10)           137.132          estimate D2E/DX2                !
 ! D43   D(3,4,5,22)          -103.1482         estimate D2E/DX2                !
 ! D44   D(7,4,5,6)           -104.4804         estimate D2E/DX2                !
 ! D45   D(7,4,5,10)            14.8166         estimate D2E/DX2                !
 ! D46   D(7,4,5,22)           134.5364         estimate D2E/DX2                !
 ! D47   D(24,4,5,6)           139.4751         estimate D2E/DX2                !
 ! D48   D(24,4,5,10)         -101.2279         estimate D2E/DX2                !
 ! D49   D(24,4,5,22)           18.4919         estimate D2E/DX2                !
 ! D50   D(3,4,7,8)           -102.8899         estimate D2E/DX2                !
 ! D51   D(3,4,7,17)             7.4269         estimate D2E/DX2                !
 ! D52   D(3,4,7,21)           135.5498         estimate D2E/DX2                !
 ! D53   D(5,4,7,8)             25.9691         estimate D2E/DX2                !
 ! D54   D(5,4,7,17)           136.2859         estimate D2E/DX2                !
 ! D55   D(5,4,7,21)           -95.5912         estimate D2E/DX2                !
 ! D56   D(24,4,7,8)           141.3606         estimate D2E/DX2                !
 ! D57   D(24,4,7,17)         -108.3225         estimate D2E/DX2                !
 ! D58   D(24,4,7,21)           19.8004         estimate D2E/DX2                !
 ! D59   D(3,4,24,23)           92.2333         estimate D2E/DX2                !
 ! D60   D(5,4,24,23)          -34.1304         estimate D2E/DX2                !
 ! D61   D(7,4,24,23)         -155.3773         estimate D2E/DX2                !
 ! D62   D(4,5,6,1)            -44.2847         estimate D2E/DX2                !
 ! D63   D(4,5,6,34)          -167.1134         estimate D2E/DX2                !
 ! D64   D(4,5,6,35)            78.1512         estimate D2E/DX2                !
 ! D65   D(10,5,6,1)          -168.1818         estimate D2E/DX2                !
 ! D66   D(10,5,6,34)           68.9895         estimate D2E/DX2                !
 ! D67   D(10,5,6,35)          -45.7459         estimate D2E/DX2                !
 ! D68   D(22,5,6,1)            72.0422         estimate D2E/DX2                !
 ! D69   D(22,5,6,34)          -50.7866         estimate D2E/DX2                !
 ! D70   D(22,5,6,35)         -165.522          estimate D2E/DX2                !
 ! D71   D(4,5,10,9)           -46.7988         estimate D2E/DX2                !
 ! D72   D(4,5,10,16)          141.5973         estimate D2E/DX2                !
 ! D73   D(6,5,10,9)            76.6405         estimate D2E/DX2                !
 ! D74   D(6,5,10,16)          -94.9634         estimate D2E/DX2                !
 ! D75   D(22,5,10,9)         -162.6846         estimate D2E/DX2                !
 ! D76   D(22,5,10,16)          25.7115         estimate D2E/DX2                !
 ! D77   D(4,5,22,23)            1.8359         estimate D2E/DX2                !
 ! D78   D(4,5,22,45)         -118.0725         estimate D2E/DX2                !
 ! D79   D(4,5,22,46)          122.9021         estimate D2E/DX2                !
 ! D80   D(6,5,22,23)         -119.7354         estimate D2E/DX2                !
 ! D81   D(6,5,22,45)          120.3562         estimate D2E/DX2                !
 ! D82   D(6,5,22,46)            1.3307         estimate D2E/DX2                !
 ! D83   D(10,5,22,23)         123.5513         estimate D2E/DX2                !
 ! D84   D(10,5,22,45)           3.6429         estimate D2E/DX2                !
 ! D85   D(10,5,22,46)        -115.3825         estimate D2E/DX2                !
 ! D86   D(4,7,8,9)            -45.2748         estimate D2E/DX2                !
 ! D87   D(4,7,8,19)           139.6098         estimate D2E/DX2                !
 ! D88   D(17,7,8,9)          -160.3405         estimate D2E/DX2                !
 ! D89   D(17,7,8,19)           24.5441         estimate D2E/DX2                !
 ! D90   D(21,7,8,9)            78.9567         estimate D2E/DX2                !
 ! D91   D(21,7,8,19)          -96.1587         estimate D2E/DX2                !
 ! D92   D(4,7,17,18)         -151.1387         estimate D2E/DX2                !
 ! D93   D(4,7,17,20)          -29.0382         estimate D2E/DX2                !
 ! D94   D(4,7,17,30)           89.4895         estimate D2E/DX2                !
 ! D95   D(8,7,17,18)          -32.6551         estimate D2E/DX2                !
 ! D96   D(8,7,17,20)           89.4453         estimate D2E/DX2                !
 ! D97   D(8,7,17,30)         -152.0269         estimate D2E/DX2                !
 ! D98   D(21,7,17,18)          82.3974         estimate D2E/DX2                !
 ! D99   D(21,7,17,20)        -155.5021         estimate D2E/DX2                !
 ! D100  D(21,7,17,30)         -36.9743         estimate D2E/DX2                !
 ! D101  D(4,7,21,44)           -9.1284         estimate D2E/DX2                !
 ! D102  D(8,7,21,44)         -133.7356         estimate D2E/DX2                !
 ! D103  D(17,7,21,44)         115.2729         estimate D2E/DX2                !
 ! D104  D(7,8,9,10)            14.6745         estimate D2E/DX2                !
 ! D105  D(7,8,9,11)          -165.5675         estimate D2E/DX2                !
 ! D106  D(19,8,9,10)         -170.9914         estimate D2E/DX2                !
 ! D107  D(19,8,9,11)            8.7666         estimate D2E/DX2                !
 ! D108  D(7,8,19,18)           -5.4036         estimate D2E/DX2                !
 ! D109  D(9,8,19,18)          179.6878         estimate D2E/DX2                !
 ! D110  D(8,9,10,5)            32.3051         estimate D2E/DX2                !
 ! D111  D(8,9,10,16)         -156.6147         estimate D2E/DX2                !
 ! D112  D(11,9,10,5)         -147.4429         estimate D2E/DX2                !
 ! D113  D(11,9,10,16)          23.6373         estimate D2E/DX2                !
 ! D114  D(8,9,11,12)          -19.2905         estimate D2E/DX2                !
 ! D115  D(8,9,11,13)          160.9567         estimate D2E/DX2                !
 ! D116  D(10,9,11,12)         160.4437         estimate D2E/DX2                !
 ! D117  D(10,9,11,13)         -19.3092         estimate D2E/DX2                !
 ! D118  D(9,11,13,14)        -145.7793         estimate D2E/DX2                !
 ! D119  D(9,11,13,15)          92.1688         estimate D2E/DX2                !
 ! D120  D(9,11,13,36)         -24.9574         estimate D2E/DX2                !
 ! D121  D(12,11,13,14)         34.4686         estimate D2E/DX2                !
 ! D122  D(12,11,13,15)        -87.5833         estimate D2E/DX2                !
 ! D123  D(12,11,13,36)        155.2905         estimate D2E/DX2                !
 ! D124  D(11,13,14,37)       -172.3402         estimate D2E/DX2                !
 ! D125  D(11,13,14,38)        -56.5346         estimate D2E/DX2                !
 ! D126  D(11,13,14,62)         66.0756         estimate D2E/DX2                !
 ! D127  D(15,13,14,37)        -51.9145         estimate D2E/DX2                !
 ! D128  D(15,13,14,38)         63.891          estimate D2E/DX2                !
 ! D129  D(15,13,14,62)       -173.4988         estimate D2E/DX2                !
 ! D130  D(36,13,14,37)         67.3404         estimate D2E/DX2                !
 ! D131  D(36,13,14,38)       -176.854          estimate D2E/DX2                !
 ! D132  D(36,13,14,62)        -54.2439         estimate D2E/DX2                !
 ! D133  D(11,13,15,39)        -61.265          estimate D2E/DX2                !
 ! D134  D(11,13,15,40)        179.3518         estimate D2E/DX2                !
 ! D135  D(11,13,15,41)         59.8028         estimate D2E/DX2                !
 ! D136  D(14,13,15,39)        176.9547         estimate D2E/DX2                !
 ! D137  D(14,13,15,40)         57.5714         estimate D2E/DX2                !
 ! D138  D(14,13,15,41)        -61.9776         estimate D2E/DX2                !
 ! D139  D(36,13,15,39)         56.5539         estimate D2E/DX2                !
 ! D140  D(36,13,15,40)        -62.8294         estimate D2E/DX2                !
 ! D141  D(36,13,15,41)        177.6216         estimate D2E/DX2                !
 ! D142  D(13,14,62,63)        177.5262         estimate D2E/DX2                !
 ! D143  D(13,14,62,64)         57.5898         estimate D2E/DX2                !
 ! D144  D(13,14,62,65)        -62.8259         estimate D2E/DX2                !
 ! D145  D(37,14,62,63)         56.82           estimate D2E/DX2                !
 ! D146  D(37,14,62,64)        -63.1164         estimate D2E/DX2                !
 ! D147  D(37,14,62,65)        176.4678         estimate D2E/DX2                !
 ! D148  D(38,14,62,63)        -60.2269         estimate D2E/DX2                !
 ! D149  D(38,14,62,64)        179.8367         estimate D2E/DX2                !
 ! D150  D(38,14,62,65)         59.4209         estimate D2E/DX2                !
 ! D151  D(7,17,18,19)          30.4519         estimate D2E/DX2                !
 ! D152  D(7,17,18,28)         -84.6068         estimate D2E/DX2                !
 ! D153  D(7,17,18,29)         145.3966         estimate D2E/DX2                !
 ! D154  D(20,17,18,19)        -80.8766         estimate D2E/DX2                !
 ! D155  D(20,17,18,28)        164.0647         estimate D2E/DX2                !
 ! D156  D(20,17,18,29)         34.0681         estimate D2E/DX2                !
 ! D157  D(30,17,18,19)        149.3781         estimate D2E/DX2                !
 ! D158  D(30,17,18,28)         34.3193         estimate D2E/DX2                !
 ! D159  D(30,17,18,29)        -95.6773         estimate D2E/DX2                !
 ! D160  D(7,17,20,3)           39.4754         estimate D2E/DX2                !
 ! D161  D(7,17,20,42)         -78.2242         estimate D2E/DX2                !
 ! D162  D(7,17,20,43)         161.6358         estimate D2E/DX2                !
 ! D163  D(18,17,20,3)         151.2834         estimate D2E/DX2                !
 ! D164  D(18,17,20,42)         33.5839         estimate D2E/DX2                !
 ! D165  D(18,17,20,43)        -86.5561         estimate D2E/DX2                !
 ! D166  D(30,17,20,3)         -78.8224         estimate D2E/DX2                !
 ! D167  D(30,17,20,42)        163.4781         estimate D2E/DX2                !
 ! D168  D(30,17,20,43)         43.3381         estimate D2E/DX2                !
 ! D169  D(17,18,19,8)         -16.2777         estimate D2E/DX2                !
 ! D170  D(28,18,19,8)         102.5043         estimate D2E/DX2                !
 ! D171  D(29,18,19,8)        -138.6468         estimate D2E/DX2                !
 ! D172  D(17,18,28,53)        168.5024         estimate D2E/DX2                !
 ! D173  D(17,18,28,54)        -72.3581         estimate D2E/DX2                !
 ! D174  D(17,18,28,55)         47.7687         estimate D2E/DX2                !
 ! D175  D(19,18,28,53)         56.3274         estimate D2E/DX2                !
 ! D176  D(19,18,28,54)        175.4668         estimate D2E/DX2                !
 ! D177  D(19,18,28,55)        -64.4063         estimate D2E/DX2                !
 ! D178  D(29,18,28,53)        -58.9501         estimate D2E/DX2                !
 ! D179  D(29,18,28,54)         60.1894         estimate D2E/DX2                !
 ! D180  D(29,18,28,55)       -179.6838         estimate D2E/DX2                !
 ! D181  D(17,18,29,56)         65.7494         estimate D2E/DX2                !
 ! D182  D(17,18,29,57)        -55.056          estimate D2E/DX2                !
 ! D183  D(17,18,29,58)       -175.1655         estimate D2E/DX2                !
 ! D184  D(19,18,29,56)        178.9            estimate D2E/DX2                !
 ! D185  D(19,18,29,57)         58.0946         estimate D2E/DX2                !
 ! D186  D(19,18,29,58)        -62.0148         estimate D2E/DX2                !
 ! D187  D(28,18,29,56)        -64.8679         estimate D2E/DX2                !
 ! D188  D(28,18,29,57)        174.3267         estimate D2E/DX2                !
 ! D189  D(28,18,29,58)         54.2172         estimate D2E/DX2                !
 ! D190  D(5,22,23,24)         -21.5303         estimate D2E/DX2                !
 ! D191  D(5,22,23,25)        -144.4108         estimate D2E/DX2                !
 ! D192  D(5,22,23,47)          93.679          estimate D2E/DX2                !
 ! D193  D(45,22,23,24)         96.6823         estimate D2E/DX2                !
 ! D194  D(45,22,23,25)        -26.1981         estimate D2E/DX2                !
 ! D195  D(45,22,23,47)       -148.1084         estimate D2E/DX2                !
 ! D196  D(46,22,23,24)       -142.976          estimate D2E/DX2                !
 ! D197  D(46,22,23,25)         94.1435         estimate D2E/DX2                !
 ! D198  D(46,22,23,47)        -27.7668         estimate D2E/DX2                !
 ! D199  D(22,23,24,4)          35.2308         estimate D2E/DX2                !
 ! D200  D(25,23,24,4)         160.6054         estimate D2E/DX2                !
 ! D201  D(47,23,24,4)         -80.8775         estimate D2E/DX2                !
 ! D202  D(22,23,25,26)        -61.5763         estimate D2E/DX2                !
 ! D203  D(22,23,25,27)        119.6098         estimate D2E/DX2                !
 ! D204  D(24,23,25,26)        179.2485         estimate D2E/DX2                !
 ! D205  D(24,23,25,27)          0.4346         estimate D2E/DX2                !
 ! D206  D(47,23,25,26)         60.8866         estimate D2E/DX2                !
 ! D207  D(47,23,25,27)       -117.9273         estimate D2E/DX2                !
 ! D208  D(23,25,26,48)         62.8776         estimate D2E/DX2                !
 ! D209  D(23,25,26,49)        -56.1613         estimate D2E/DX2                !
 ! D210  D(23,25,26,50)       -176.5567         estimate D2E/DX2                !
 ! D211  D(27,25,26,48)       -118.3045         estimate D2E/DX2                !
 ! D212  D(27,25,26,49)        122.6566         estimate D2E/DX2                !
 ! D213  D(27,25,26,50)          2.2611         estimate D2E/DX2                !
 ! D214  D(23,25,27,51)        179.7048         estimate D2E/DX2                !
 ! D215  D(23,25,27,52)          0.3022         estimate D2E/DX2                !
 ! D216  D(26,25,27,51)          0.9865         estimate D2E/DX2                !
 ! D217  D(26,25,27,52)       -178.4161         estimate D2E/DX2                !
 --------------------------------------------------------------------------------
 Trust Radius=3.00D-01 FncErr=1.00D-07 GrdErr=1.00D-06
 Number of steps in this run=    390 maximum allowed number of steps=    390.
 GradGradGradGradGradGradGradGradGradGradGradGradGradGradGradGradGradGrad

 Stoichiometry    C26H34O5
 Framework group  C1[X(C26H34O5)]
 Deg. of freedom   189
 Full point group                 C1      NOp   1
 Largest Abelian subgroup         C1      NOp   1
 Largest concise Abelian subgroup C1      NOp   1
                         Standard orientation:                         
 ---------------------------------------------------------------------
 Center     Atomic      Atomic             Coordinates (Angstroms)
 Number     Number       Type             X           Y           Z
 ---------------------------------------------------------------------
      1          6           0        2.036202    0.154528    2.758549
      2          6           0        2.641564    1.112587    2.045960
      3          6           0        2.122930    1.472886    0.672699
      4          6           0        1.403346    0.327014   -0.111475
      5          6           0        0.918993   -0.903524    0.721253
      6          6           0        0.836732   -0.598915    2.247192
      7          6           0        0.268414    1.045332   -0.900263
      8          6           0       -1.106138    0.856070   -0.264897
      9          6           0       -1.555860   -0.357511    0.182303
     10          6           0       -0.511611   -1.396777    0.322682
     11          6           0       -3.007721   -0.568013    0.498810
     12          8           0       -3.730261    0.398720    0.702720
     13          6           0       -3.586574   -1.987344    0.573040
     14          6           0       -5.040263   -2.008389    0.066626
     15          6           0       -3.500547   -2.471683    2.036576
     16          8           0       -0.731658   -2.601353    0.302353
     17          6           0        0.450185    2.567918   -0.729168
     18          6           0       -0.991112    3.106785   -0.849805
     19          8           0       -1.804992    1.981893   -0.312962
     20          6           0        1.126130    2.662190    0.652962
     21          8           0        0.181724    0.598512   -2.237650
     22          6           0        1.972778   -1.997554    0.410539
     23          6           0        3.000055   -1.325813   -0.522868
     24          8           0        2.297372   -0.213623   -1.095286
     25          6           0        3.585565   -2.219299   -1.591181
     26          6           0        4.356526   -3.403967   -1.061668
     27          6           0        3.454913   -1.970933   -2.896136
     28          6           0       -1.416528    3.324103   -2.303832
     29          6           0       -1.335067    4.316497    0.013059
     30          1           0        1.096304    2.973220   -1.513238
     31          1           0        2.970961    1.753112    0.033078
     32          6           0        3.820958    1.896374    2.560097
     33          1           0        2.393956   -0.083886    3.759117
     34          1           0        0.720490   -1.550754    2.777130
     35          1           0       -0.077329   -0.025920    2.458195
     36          1           0       -2.972323   -2.653551   -0.037346
     37          1           0       -5.451854   -3.006790    0.267518
     38          1           0       -5.630571   -1.294322    0.651639
     39          1           0       -2.464952   -2.511312    2.388818
     40          1           0       -3.918292   -3.481075    2.123608
     41          1           0       -4.069516   -1.806632    2.696659
     42          1           0        0.389669    2.536030    1.455574
     43          1           0        1.623038    3.622606    0.820517
     44          1           0        0.973959    0.039708   -2.369559
     45          1           0        1.477550   -2.840296   -0.077690
     46          1           0        2.449600   -2.372748    1.319881
     47          1           0        3.830668   -0.925535    0.082163
     48          1           0        3.711827   -4.080990   -0.486293
     49          1           0        5.162128   -3.084677   -0.385979
     50          1           0        4.805959   -3.977627   -1.877072
     51          1           0        3.893071   -2.632375   -3.638741
     52          1           0        2.920739   -1.103955   -3.268692
     53          1           0       -2.494670    3.506505   -2.352551
     54          1           0       -0.899715    4.197641   -2.717465
     55          1           0       -1.173578    2.453501   -2.917272
     56          1           0       -0.753543    5.185276   -0.314469
     57          1           0       -1.127773    4.136348    1.070727
     58          1           0       -2.397736    4.557041   -0.087789
     59          1           0        4.110282    1.575162    3.565659
     60          1           0        4.692339    1.782223    1.900397
     61          1           0        3.600561    2.972050    2.600922
     62          6           0       -5.181599   -1.690414   -1.425891
     63          1           0       -6.227941   -1.761042   -1.745068
     64          1           0       -4.598185   -2.388141   -2.039806
     65          1           0       -4.836221   -0.674882   -1.646958
 ---------------------------------------------------------------------
 Rotational constants (GHZ):      0.1928229      0.1303107      0.1063105
 Standard basis: 6-311+G(d) (5D, 7F)
 There are   784 symmetry adapted basis functions of A   symmetry.
 Integral buffers will be    131072 words long.
 Raffenetti 2 integral format.
 Two-electron integral symmetry is turned on.
   784 basis functions,  1286 primitive gaussians,   815 cartesian basis functions
   115 alpha electrons      115 beta electrons
       nuclear repulsion energy      3489.6512939835 Hartrees.
 NAtoms=   65 NActive=   65 NUniq=   65 SFac= 1.00D+00 NAtFMM=   50 NAOKFM=T Big=T
 One-electron integrals computed using PRISM.
 NBasis=   784 RedAO= T  NBF=   784
 NBsUse=   778 1.00D-06 NBFU=   778
 Harris functional with IExCor=  402 diagonalized for initial guess.
 ExpMin= 4.38D-02 ExpMax= 8.59D+03 ExpMxC= 1.30D+03 IAcc=2 IRadAn=         0 AccDes= 0.00D+00
 HarFok:  IExCor=  402 AccDes= 0.00D+00 IRadAn=         0 IDoV= 1
 ScaDFX=  1.000000  1.000000  1.000000  1.000000
 FoFCou: FMM=F IPFlag=           0 FMFlag=      100000 FMFlg1=        2001
         NFxFlg=           0 DoJE=T BraDBF=F KetDBF=T FulRan=T
         Omega=  0.000000  0.000000  1.000000  0.000000  0.000000 ICntrl=     500 IOpCl=  0
         NMat0=    1 NMatS0=    1 NMatT0=    0 NMatD0=    1 NMtDS0=    0 NMtDT0=    0
         I1Cent=           4 NGrid=           0.
 Petite list used in FoFCou.
 Initial guess orbital symmetries:
       Occupied  (A) (A) (A) (A) (A) (A) (A) (A) (A) (A) (A) (A)
                 (A) (A) (A) (A) (A) (A) (A) (A) (A) (A) (A) (A)
                 (A) (A) (A) (A) (A) (A) (A) (A) (A) (A) (A) (A)
                 (A) (A) (A) (A) (A) (A) (A) (A) (A) (A) (A) (A)
                 (A) (A) (A) (A) (A) (A) (A) (A) (A) (A) (A) (A)
                 (A) (A) (A) (A) (A) (A) (A) (A) (A) (A) (A) (A)
                 (A) (A) (A) (A) (A) (A) (A) (A) (A) (A) (A) (A)
                 (A) (A) (A) (A) (A) (A) (A) (A) (A) (A) (A) (A)
                 (A) (A) (A) (A) (A) (A) (A) (A) (A) (A) (A) (A)
                 (A) (A) (A) (A) (A) (A) (A)
       Virtual   (A) (A) (A) (A) (A) (A) (A) (A) (A) (A) (A) (A)
                 (A) (A) (A) (A) (A) (A) (A) (A) (A) (A) (A) (A)
                 (A) (A) (A) (A) (A) (A) (A) (A) (A) (A) (A) (A)
                 (A) (A) (A) (A) (A) (A) (A) (A) (A) (A) (A) (A)
                 (A) (A) (A) (A) (A) (A) (A) (A) (A) (A) (A) (A)
                 (A) (A) (A) (A) (A) (A) (A) (A) (A) (A) (A) (A)
                 (A) (A) (A) (A) (A) (A) (A) (A) (A) (A) (A) (A)
                 (A) (A) (A) (A) (A) (A) (A) (A) (A) (A) (A) (A)
                 (A) (A) (A) (A) (A) (A) (A) (A) (A) (A) (A) (A)
                 (A) (A) (A) (A) (A) (A) (A) (A) (A) (A) (A) (A)
                 (A) (A) (A) (A) (A) (A) (A) (A) (A) (A) (A) (A)
                 (A) (A) (A) (A) (A) (A) (A) (A) (A) (A) (A) (A)
                 (A) (A) (A) (A) (A) (A) (A) (A) (A) (A) (A) (A)
                 (A) (A) (A) (A) (A) (A) (A) (A) (A) (A) (A) (A)
                 (A) (A) (A) (A) (A) (A) (A) (A) (A) (A) (A) (A)
                 (A) (A) (A) (A) (A) (A) (A) (A) (A) (A) (A) (A)
                 (A) (A) (A) (A) (A) (A) (A) (A) (A) (A) (A) (A)
                 (A) (A) (A) (A) (A) (A) (A) (A) (A) (A) (A) (A)
                 (A) (A) (A) (A) (A) (A) (A) (A) (A) (A) (A) (A)
                 (A) (A) (A) (A) (A) (A) (A) (A) (A) (A) (A) (A)
                 (A) (A) (A) (A) (A) (A) (A) (A) (A) (A) (A) (A)
                 (A) (A) (A) (A) (A) (A) (A) (A) (A) (A) (A) (A)
                 (A) (A) (A) (A) (A) (A) (A) (A) (A) (A) (A) (A)
                 (A) (A) (A) (A) (A) (A) (A) (A) (A) (A) (A) (A)
                 (A) (A) (A) (A) (A) (A) (A) (A) (A) (A) (A) (A)
                 (A) (A) (A) (A) (A) (A) (A) (A) (A) (A) (A) (A)
                 (A) (A) (A) (A) (A) (A) (A) (A) (A) (A) (A) (A)
                 (A) (A) (A) (A) (A) (A) (A) (A) (A) (A) (A) (A)
                 (A) (A) (A) (A) (A) (A) (A) (A) (A) (A) (A) (A)
                 (A) (A) (A) (A) (A) (A) (A) (A) (A) (A) (A) (A)
                 (A) (A) (A) (A) (A) (A) (A) (A) (A) (A) (A) (A)
                 (A) (A) (A) (A) (A) (A) (A) (A) (A) (A) (A) (A)
                 (A) (A) (A) (A) (A) (A) (A) (A) (A) (A) (A) (A)
                 (A) (A) (A) (A) (A) (A) (A) (A) (A) (A) (A) (A)
                 (A) (A) (A) (A) (A) (A) (A) (A) (A) (A) (A) (A)
                 (A) (A) (A) (A) (A) (A) (A) (A) (A) (A) (A) (A)
                 (A) (A) (A) (A) (A) (A) (A) (A) (A) (A) (A) (A)
                 (A) (A) (A) (A) (A) (A) (A) (A) (A) (A) (A) (A)
                 (A) (A) (A) (A) (A) (A) (A) (A) (A) (A) (A) (A)
                 (A) (A) (A) (A) (A) (A) (A) (A) (A) (A) (A) (A)
                 (A) (A) (A) (A) (A) (A) (A) (A) (A) (A) (A) (A)
                 (A) (A) (A) (A) (A) (A) (A) (A) (A) (A) (A) (A)
                 (A) (A) (A) (A) (A) (A) (A) (A) (A) (A) (A) (A)
                 (A) (A) (A) (A) (A) (A) (A) (A) (A) (A) (A) (A)
                 (A) (A) (A) (A) (A) (A) (A) (A) (A) (A) (A) (A)
                 (A) (A) (A) (A) (A) (A) (A) (A) (A) (A) (A) (A)
                 (A) (A) (A) (A) (A) (A) (A) (A) (A) (A) (A) (A)
                 (A) (A) (A) (A) (A) (A) (A) (A) (A) (A) (A) (A)
                 (A) (A) (A) (A) (A) (A) (A) (A) (A) (A) (A) (A)
                 (A) (A) (A) (A) (A) (A) (A) (A) (A) (A) (A) (A)
                 (A) (A) (A) (A) (A) (A) (A) (A) (A) (A) (A) (A)
                 (A) (A) (A) (A) (A) (A) (A) (A) (A) (A) (A) (A)
                 (A) (A) (A) (A) (A) (A) (A) (A) (A) (A) (A) (A)
                 (A) (A) (A) (A) (A) (A) (A) (A) (A) (A) (A) (A)
                 (A) (A) (A) (A) (A) (A) (A) (A) (A) (A) (A) (A)
                 (A) (A) (A)
 The electronic state of the initial guess is 1-A.
 Requested convergence on RMS density matrix=1.00D-08 within 128 cycles.
 Requested convergence on MAX density matrix=1.00D-06.
 Requested convergence on             energy=1.00D-06.
 No special actions if energy rises.
 SCF Done:  E(RB3LYP) =  -1387.64903609     A.U. after   17 cycles
             Convg  =    0.6763D-08             -V/T =  2.0043

 **********************************************************************

            Population analysis using the SCF density.

 **********************************************************************

 Orbital symmetries:
       Occupied  (A) (A) (A) (A) (A) (A) (A) (A) (A) (A) (A) (A)
                 (A) (A) (A) (A) (A) (A) (A) (A) (A) (A) (A) (A)
                 (A) (A) (A) (A) (A) (A) (A) (A) (A) (A) (A) (A)
                 (A) (A) (A) (A) (A) (A) (A) (A) (A) (A) (A) (A)
                 (A) (A) (A) (A) (A) (A) (A) (A) (A) (A) (A) (A)
                 (A) (A) (A) (A) (A) (A) (A) (A) (A) (A) (A) (A)
                 (A) (A) (A) (A) (A) (A) (A) (A) (A) (A) (A) (A)
                 (A) (A) (A) (A) (A) (A) (A) (A) (A) (A) (A) (A)
                 (A) (A) (A) (A) (A) (A) (A) (A) (A) (A) (A) (A)
                 (A) (A) (A) (A) (A) (A) (A)
       Virtual   (A) (A) (A) (A) (A) (A) (A) (A) (A) (A) (A) (A)
                 (A) (A) (A) (A) (A) (A) (A) (A) (A) (A) (A) (A)
                 (A) (A) (A) (A) (A) (A) (A) (A) (A) (A) (A) (A)
                 (A) (A) (A) (A) (A) (A) (A) (A) (A) (A) (A) (A)
                 (A) (A) (A) (A) (A) (A) (A) (A) (A) (A) (A) (A)
                 (A) (A) (A) (A) (A) (A) (A) (A) (A) (A) (A) (A)
                 (A) (A) (A) (A) (A) (A) (A) (A) (A) (A) (A) (A)
                 (A) (A) (A) (A) (A) (A) (A) (A) (A) (A) (A) (A)
                 (A) (A) (A) (A) (A) (A) (A) (A) (A) (A) (A) (A)
                 (A) (A) (A) (A) (A) (A) (A) (A) (A) (A) (A) (A)
                 (A) (A) (A) (A) (A) (A) (A) (A) (A) (A) (A) (A)
                 (A) (A) (A) (A) (A) (A) (A) (A) (A) (A) (A) (A)
                 (A) (A) (A) (A) (A) (A) (A) (A) (A) (A) (A) (A)
                 (A) (A) (A) (A) (A) (A) (A) (A) (A) (A) (A) (A)
                 (A) (A) (A) (A) (A) (A) (A) (A) (A) (A) (A) (A)
                 (A) (A) (A) (A) (A) (A) (A) (A) (A) (A) (A) (A)
                 (A) (A) (A) (A) (A) (A) (A) (A) (A) (A) (A) (A)
                 (A) (A) (A) (A) (A) (A) (A) (A) (A) (A) (A) (A)
                 (A) (A) (A) (A) (A) (A) (A) (A) (A) (A) (A) (A)
                 (A) (A) (A) (A) (A) (A) (A) (A) (A) (A) (A) (A)
                 (A) (A) (A) (A) (A) (A) (A) (A) (A) (A) (A) (A)
                 (A) (A) (A) (A) (A) (A) (A) (A) (A) (A) (A) (A)
                 (A) (A) (A) (A) (A) (A) (A) (A) (A) (A) (A) (A)
                 (A) (A) (A) (A) (A) (A) (A) (A) (A) (A) (A) (A)
                 (A) (A) (A) (A) (A) (A) (A) (A) (A) (A) (A) (A)
                 (A) (A) (A) (A) (A) (A) (A) (A) (A) (A) (A) (A)
                 (A) (A) (A) (A) (A) (A) (A) (A) (A) (A) (A) (A)
                 (A) (A) (A) (A) (A) (A) (A) (A) (A) (A) (A) (A)
                 (A) (A) (A) (A) (A) (A) (A) (A) (A) (A) (A) (A)
                 (A) (A) (A) (A) (A) (A) (A) (A) (A) (A) (A) (A)
                 (A) (A) (A) (A) (A) (A) (A) (A) (A) (A) (A) (A)
                 (A) (A) (A) (A) (A) (A) (A) (A) (A) (A) (A) (A)
                 (A) (A) (A) (A) (A) (A) (A) (A) (A) (A) (A) (A)
                 (A) (A) (A) (A) (A) (A) (A) (A) (A) (A) (A) (A)
                 (A) (A) (A) (A) (A) (A) (A) (A) (A) (A) (A) (A)
                 (A) (A) (A) (A) (A) (A) (A) (A) (A) (A) (A) (A)
                 (A) (A) (A) (A) (A) (A) (A) (A) (A) (A) (A) (A)
                 (A) (A) (A) (A) (A) (A) (A) (A) (A) (A) (A) (A)
                 (A) (A) (A) (A) (A) (A) (A) (A) (A) (A) (A) (A)
                 (A) (A) (A) (A) (A) (A) (A) (A) (A) (A) (A) (A)
                 (A) (A) (A) (A) (A) (A) (A) (A) (A) (A) (A) (A)
                 (A) (A) (A) (A) (A) (A) (A) (A) (A) (A) (A) (A)
                 (A) (A) (A) (A) (A) (A) (A) (A) (A) (A) (A) (A)
                 (A) (A) (A) (A) (A) (A) (A) (A) (A) (A) (A) (A)
                 (A) (A) (A) (A) (A) (A) (A) (A) (A) (A) (A) (A)
                 (A) (A) (A) (A) (A) (A) (A) (A) (A) (A) (A) (A)
                 (A) (A) (A) (A) (A) (A) (A) (A) (A) (A) (A) (A)
                 (A) (A) (A) (A) (A) (A) (A) (A) (A) (A) (A) (A)
                 (A) (A) (A) (A) (A) (A) (A) (A) (A) (A) (A) (A)
                 (A) (A) (A) (A) (A) (A) (A) (A) (A) (A) (A) (A)
                 (A) (A) (A) (A) (A) (A) (A) (A) (A) (A) (A) (A)
                 (A) (A) (A) (A) (A) (A) (A) (A) (A) (A) (A) (A)
                 (A) (A) (A) (A) (A) (A) (A) (A) (A) (A) (A) (A)
                 (A) (A) (A) (A) (A) (A) (A) (A) (A) (A) (A) (A)
                 (A) (A) (A) (A) (A) (A) (A) (A) (A) (A) (A) (A)
                 (A) (A) (A)
 The electronic state is 1-A.
 Alpha  occ. eigenvalues --  -19.18119 -19.15410 -19.13669 -19.11169 -19.09468
 Alpha  occ. eigenvalues --  -10.26940 -10.26719 -10.25931 -10.25892 -10.25788
 Alpha  occ. eigenvalues --  -10.25093 -10.24276 -10.21117 -10.20022 -10.19943
 Alpha  occ. eigenvalues --  -10.19520 -10.19377 -10.19338 -10.19141 -10.18480
 Alpha  occ. eigenvalues --  -10.18165 -10.18105 -10.17908 -10.17790 -10.17736
 Alpha  occ. eigenvalues --  -10.16992 -10.16702 -10.16197 -10.15229 -10.14983
 Alpha  occ. eigenvalues --  -10.14153  -1.10734  -1.08071  -1.04528  -1.03950
 Alpha  occ. eigenvalues --   -1.02747  -0.88225  -0.84793  -0.83210  -0.82418
 Alpha  occ. eigenvalues --   -0.81097  -0.79498  -0.77766  -0.75013  -0.74202
 Alpha  occ. eigenvalues --   -0.73218  -0.71833  -0.70827  -0.69948  -0.69363
 Alpha  occ. eigenvalues --   -0.65918  -0.64838  -0.64193  -0.62402  -0.61939
 Alpha  occ. eigenvalues --   -0.60199  -0.59486  -0.57920  -0.55831  -0.54592
 Alpha  occ. eigenvalues --   -0.53931  -0.52896  -0.52219  -0.51076  -0.50524
 Alpha  occ. eigenvalues --   -0.49067  -0.48358  -0.48086  -0.47565  -0.47143
 Alpha  occ. eigenvalues --   -0.46310  -0.45254  -0.45200  -0.44573  -0.43495
 Alpha  occ. eigenvalues --   -0.43361  -0.43125  -0.42876  -0.42669  -0.42360
 Alpha  occ. eigenvalues --   -0.41764  -0.41583  -0.41262  -0.41036  -0.40850
 Alpha  occ. eigenvalues --   -0.40309  -0.40110  -0.39990  -0.39491  -0.39293
 Alpha  occ. eigenvalues --   -0.38588  -0.38252  -0.37921  -0.37554  -0.37270
 Alpha  occ. eigenvalues --   -0.36757  -0.36224  -0.35716  -0.35618  -0.35300
 Alpha  occ. eigenvalues --   -0.34966  -0.34702  -0.33978  -0.33557  -0.32727
 Alpha  occ. eigenvalues --   -0.32574  -0.31905  -0.31435  -0.29728  -0.28892
 Alpha  occ. eigenvalues --   -0.26259  -0.25842  -0.25522  -0.24721  -0.23433
 Alpha virt. eigenvalues --   -0.06395  -0.02815  -0.01702  -0.01088  -0.00657
 Alpha virt. eigenvalues --    0.00114   0.00481   0.00654   0.01501   0.01740
 Alpha virt. eigenvalues --    0.01965   0.02240   0.03110   0.03263   0.03588
 Alpha virt. eigenvalues --    0.03637   0.03899   0.04364   0.04629   0.04971
 Alpha virt. eigenvalues --    0.05072   0.05430   0.05701   0.05917   0.06345
 Alpha virt. eigenvalues --    0.06456   0.07009   0.07064   0.07214   0.07442
 Alpha virt. eigenvalues --    0.07682   0.07775   0.08176   0.08406   0.08483
 Alpha virt. eigenvalues --    0.08616   0.09040   0.09185   0.09391   0.09632
 Alpha virt. eigenvalues --    0.09838   0.10216   0.10560   0.10855   0.11044
 Alpha virt. eigenvalues --    0.11216   0.11760   0.11971   0.12273   0.12461
 Alpha virt. eigenvalues --    0.12626   0.12736   0.12966   0.13187   0.13370
 Alpha virt. eigenvalues --    0.13524   0.13620   0.13921   0.14236   0.14288
 Alpha virt. eigenvalues --    0.14471   0.14538   0.15494   0.15799   0.16130
 Alpha virt. eigenvalues --    0.16279   0.16300   0.16735   0.16897   0.17067
 Alpha virt. eigenvalues --    0.17249   0.17695   0.17802   0.18113   0.18319
 Alpha virt. eigenvalues --    0.18541   0.18634   0.18836   0.18865   0.18981
 Alpha virt. eigenvalues --    0.19380   0.19487   0.19619   0.19859   0.19960
 Alpha virt. eigenvalues --    0.20140   0.20183   0.20477   0.20859   0.20940
 Alpha virt. eigenvalues --    0.20980   0.21269   0.21821   0.21910   0.21973
 Alpha virt. eigenvalues --    0.22266   0.22371   0.22564   0.22717   0.22954
 Alpha virt. eigenvalues --    0.23171   0.23384   0.23455   0.23637   0.24041
 Alpha virt. eigenvalues --    0.24111   0.24266   0.24497   0.24534   0.24740
 Alpha virt. eigenvalues --    0.25032   0.25197   0.25577   0.25785   0.25923
 Alpha virt. eigenvalues --    0.26253   0.26411   0.26827   0.26971   0.27223
 Alpha virt. eigenvalues --    0.27351   0.27600   0.27747   0.28152   0.28258
 Alpha virt. eigenvalues --    0.28635   0.28863   0.29195   0.29299   0.29711
 Alpha virt. eigenvalues --    0.29812   0.30195   0.30271   0.30382   0.30772
 Alpha virt. eigenvalues --    0.31059   0.31224   0.31717   0.31773   0.31952
 Alpha virt. eigenvalues --    0.32381   0.32847   0.33028   0.33226   0.33383
 Alpha virt. eigenvalues --    0.33708   0.33888   0.34403   0.34477   0.34805
 Alpha virt. eigenvalues --    0.35271   0.35368   0.35859   0.36084   0.36556
 Alpha virt. eigenvalues --    0.36918   0.37318   0.37511   0.37699   0.38150
 Alpha virt. eigenvalues --    0.38409   0.38727   0.38777   0.39042   0.40143
 Alpha virt. eigenvalues --    0.40293   0.40843   0.41316   0.41399   0.41803
 Alpha virt. eigenvalues --    0.42186   0.42401   0.42814   0.43455   0.43796
 Alpha virt. eigenvalues --    0.44041   0.44269   0.44459   0.45284   0.45433
 Alpha virt. eigenvalues --    0.45810   0.45976   0.46046   0.46472   0.47169
 Alpha virt. eigenvalues --    0.47770   0.48095   0.48226   0.49158   0.49554
 Alpha virt. eigenvalues --    0.49854   0.50265   0.50896   0.51274   0.51312
 Alpha virt. eigenvalues --    0.51676   0.52356   0.52975   0.53438   0.53730
 Alpha virt. eigenvalues --    0.53885   0.54403   0.55148   0.55555   0.55902
 Alpha virt. eigenvalues --    0.56419   0.56819   0.56937   0.57327   0.57675
 Alpha virt. eigenvalues --    0.58158   0.58339   0.58891   0.59128   0.59187
 Alpha virt. eigenvalues --    0.59681   0.59777   0.60253   0.60753   0.61371
 Alpha virt. eigenvalues --    0.61831   0.62352   0.62810   0.62959   0.63506
 Alpha virt. eigenvalues --    0.63631   0.64494   0.64689   0.65086   0.65787
 Alpha virt. eigenvalues --    0.66131   0.66498   0.66642   0.66876   0.67359
 Alpha virt. eigenvalues --    0.67796   0.67912   0.68304   0.68434   0.68609
 Alpha virt. eigenvalues --    0.69285   0.69607   0.69863   0.70020   0.70348
 Alpha virt. eigenvalues --    0.70734   0.70925   0.71339   0.71411   0.71549
 Alpha virt. eigenvalues --    0.71761   0.71938   0.72271   0.72956   0.73495
 Alpha virt. eigenvalues --    0.73884   0.73954   0.74324   0.74610   0.75202
 Alpha virt. eigenvalues --    0.75317   0.75870   0.76031   0.76445   0.76863
 Alpha virt. eigenvalues --    0.77223   0.77631   0.78031   0.78328   0.78781
 Alpha virt. eigenvalues --    0.79267   0.79564   0.80136   0.80277   0.80464
 Alpha virt. eigenvalues --    0.81053   0.81271   0.81743   0.82081   0.82472
 Alpha virt. eigenvalues --    0.82788   0.83645   0.83871   0.84643   0.85102
 Alpha virt. eigenvalues --    0.85673   0.86167   0.87121   0.87726   0.88009
 Alpha virt. eigenvalues --    0.88777   0.89879   0.90332   0.90941   0.92554
 Alpha virt. eigenvalues --    0.92782   0.93236   0.94064   0.94914   0.95472
 Alpha virt. eigenvalues --    0.96331   0.96821   0.98013   0.98781   0.98999
 Alpha virt. eigenvalues --    1.00272   1.00616   1.02311   1.04112   1.04485
 Alpha virt. eigenvalues --    1.04763   1.06020   1.07211   1.08748   1.09974
 Alpha virt. eigenvalues --    1.10845   1.11160   1.12010   1.13507   1.13879
 Alpha virt. eigenvalues --    1.15027   1.15544   1.16308   1.16451   1.18245
 Alpha virt. eigenvalues --    1.18340   1.19926   1.20288   1.21441   1.23039
 Alpha virt. eigenvalues --    1.23545   1.24206   1.24628   1.26120   1.27056
 Alpha virt. eigenvalues --    1.28017   1.28564   1.29239   1.30509   1.30863
 Alpha virt. eigenvalues --    1.31283   1.31837   1.33713   1.34294   1.34853
 Alpha virt. eigenvalues --    1.35378   1.36092   1.37269   1.37674   1.39281
 Alpha virt. eigenvalues --    1.39940   1.40520   1.40850   1.42126   1.42869
 Alpha virt. eigenvalues --    1.44021   1.44393   1.45948   1.46888   1.47834
 Alpha virt. eigenvalues --    1.48406   1.49401   1.50422   1.50562   1.51188
 Alpha virt. eigenvalues --    1.52316   1.52955   1.54098   1.54539   1.55319
 Alpha virt. eigenvalues --    1.55978   1.56277   1.56985   1.57558   1.57655
 Alpha virt. eigenvalues --    1.58278   1.58708   1.59269   1.59922   1.60579
 Alpha virt. eigenvalues --    1.60854   1.61354   1.61487   1.61845   1.62088
 Alpha virt. eigenvalues --    1.62912   1.62972   1.63528   1.64046   1.64549
 Alpha virt. eigenvalues --    1.64905   1.65308   1.65835   1.66185   1.66508
 Alpha virt. eigenvalues --    1.67318   1.67757   1.68220   1.68566   1.69314
 Alpha virt. eigenvalues --    1.70412   1.70661   1.71480   1.72073   1.72286
 Alpha virt. eigenvalues --    1.72686   1.73201   1.73696   1.74446   1.74792
 Alpha virt. eigenvalues --    1.75738   1.76487   1.77366   1.78044   1.79396
 Alpha virt. eigenvalues --    1.79618   1.80815   1.81380   1.82193   1.83030
 Alpha virt. eigenvalues --    1.83492   1.84506   1.84952   1.86123   1.86554
 Alpha virt. eigenvalues --    1.87706   1.88400   1.88715   1.90186   1.90252
 Alpha virt. eigenvalues --    1.91964   1.92729   1.93230   1.93834   1.96001
 Alpha virt. eigenvalues --    1.96642   1.97529   1.98080   1.99223   2.00515
 Alpha virt. eigenvalues --    2.00946   2.01601   2.03564   2.04796   2.05338
 Alpha virt. eigenvalues --    2.05635   2.06952   2.07382   2.08978   2.09471
 Alpha virt. eigenvalues --    2.09636   2.12204   2.12457   2.13650   2.14711
 Alpha virt. eigenvalues --    2.16198   2.17452   2.19546   2.20151   2.20723
 Alpha virt. eigenvalues --    2.21588   2.23318   2.24073   2.24885   2.25416
 Alpha virt. eigenvalues --    2.27052   2.27391   2.30098   2.30682   2.32689
 Alpha virt. eigenvalues --    2.33797   2.34552   2.36209   2.37136   2.38480
 Alpha virt. eigenvalues --    2.39748   2.43323   2.46924   2.48072   2.50320
 Alpha virt. eigenvalues --    2.51942   2.52612   2.53455   2.53694   2.54555
 Alpha virt. eigenvalues --    2.54630   2.55120   2.55768   2.56148   2.57076
 Alpha virt. eigenvalues --    2.57404   2.57920   2.59028   2.59829   2.60673
 Alpha virt. eigenvalues --    2.61847   2.62961   2.63293   2.63823   2.65297
 Alpha virt. eigenvalues --    2.66407   2.66610   2.67631   2.69132   2.70039
 Alpha virt. eigenvalues --    2.70368   2.71159   2.71557   2.72612   2.73190
 Alpha virt. eigenvalues --    2.74488   2.75175   2.78169   2.79061   2.80044
 Alpha virt. eigenvalues --    2.84772   2.86690   2.86750   2.89744   2.89834
 Alpha virt. eigenvalues --    2.91298   2.91471   2.93379   2.93790   2.95467
 Alpha virt. eigenvalues --    2.95690   2.96541   2.97288   2.98117   2.98928
 Alpha virt. eigenvalues --    3.00310   3.00938   3.01645   3.02300   3.02830
 Alpha virt. eigenvalues --    3.03536   3.04244   3.04384   3.05083   3.06621
 Alpha virt. eigenvalues --    3.07608   3.08448   3.10277   3.11153   3.11775
 Alpha virt. eigenvalues --    3.12610   3.13647   3.15064   3.15292   3.17122
 Alpha virt. eigenvalues --    3.18120   3.19314   3.20088   3.20575   3.21604
 Alpha virt. eigenvalues --    3.22944   3.23383   3.23526   3.24770   3.25791
 Alpha virt. eigenvalues --    3.26465   3.26508   3.28578   3.28979   3.29495
 Alpha virt. eigenvalues --    3.30137   3.31337   3.31786   3.32463   3.33238
 Alpha virt. eigenvalues --    3.34936   3.35875   3.36469   3.37619   3.38348
 Alpha virt. eigenvalues --    3.38886   3.39151   3.39797   3.41446   3.42892
 Alpha virt. eigenvalues --    3.45339   3.45884   3.47319   3.51440   3.52237
 Alpha virt. eigenvalues --    3.52926   3.53254   3.57194   3.60658   3.65374
 Alpha virt. eigenvalues --    3.74592   3.76018   3.77073   3.80761   3.85806
 Alpha virt. eigenvalues --    3.90154   3.92691   3.94014   3.97147   4.01355
 Alpha virt. eigenvalues --    4.02028   4.05722   4.06424   4.07931   4.09641
 Alpha virt. eigenvalues --    4.11505   4.15630   4.17342   4.18514   4.21543
 Alpha virt. eigenvalues --    4.23346   4.24245   4.27121   4.31850   4.36346
 Alpha virt. eigenvalues --    4.44586   4.53981   5.13790   5.15433   5.15771
 Alpha virt. eigenvalues --    5.19732   5.23038   5.27637   5.31219   5.32564
 Alpha virt. eigenvalues --    5.43442   5.44417   5.57102   5.71802   5.73208
 Alpha virt. eigenvalues --    5.81283   5.82519  23.46012  23.49757  23.51895
 Alpha virt. eigenvalues --   23.53236  23.62524  23.63748  23.65032  23.66241
 Alpha virt. eigenvalues --   23.67460  23.70062  23.72081  23.74072  23.75882
 Alpha virt. eigenvalues --   23.78556  23.79260  23.79919  23.83365  23.84691
 Alpha virt. eigenvalues --   23.85291  23.88254  23.89240  23.91079  23.94963
 Alpha virt. eigenvalues --   24.12603  24.20623  24.21318  49.97414  50.00226
 Alpha virt. eigenvalues --   50.01609  50.04304  50.05252
          Condensed to atoms (all electrons):
 Mulliken atomic charges:
              1
     1  C   -0.630981
     2  C    0.926306
     3  C    0.025420
     4  C    0.687864
     5  C    1.315726
     6  C   -1.391927
     7  C   -1.117212
     8  C    0.083508
     9  C    0.386664
    10  C   -0.875490
    11  C   -0.350145
    12  O   -0.216167
    13  C    0.409899
    14  C   -0.146856
    15  C   -1.117485
    16  O   -0.173748
    17  C   -0.722336
    18  C    1.165775
    19  O    0.238534
    20  C   -1.487139
    21  O   -0.048159
    22  C   -0.763371
    23  C   -0.322410
    24  O   -0.007707
    25  C    0.932907
    26  C   -1.168880
    27  C   -0.772262
    28  C   -0.715375
    29  C   -0.641316
    30  H    0.238057
    31  H    0.264433
    32  C   -1.216510
    33  H    0.206940
    34  H    0.257259
    35  H    0.261268
    36  H    0.254400
    37  H    0.210367
    38  H    0.259794
    39  H    0.273378
    40  H    0.241404
    41  H    0.267191
    42  H    0.294658
    43  H    0.263688
    44  H    0.271904
    45  H    0.295041
    46  H    0.260297
    47  H    0.255181
    48  H    0.263041
    49  H    0.252104
    50  H    0.260380
    51  H    0.220705
    52  H    0.229761
    53  H    0.262332
    54  H    0.244711
    55  H    0.310802
    56  H    0.258428
    57  H    0.264979
    58  H    0.272837
    59  H    0.250328
    60  H    0.259382
    61  H    0.249120
    62  C   -0.997140
    63  H    0.240218
    64  H    0.234601
    65  H    0.261027
 Sum of Mulliken atomic charges =   0.00000
 Mulliken charges with hydrogens summed into heavy atoms:
              1
     1  C   -0.424041
     2  C    0.926306
     3  C    0.289853
     4  C    0.687864
     5  C    1.315726
     6  C   -0.873401
     7  C   -1.117212
     8  C    0.083508
     9  C    0.386664
    10  C   -0.875490
    11  C   -0.350145
    12  O   -0.216167
    13  C    0.664299
    14  C    0.323305
    15  C   -0.335512
    16  O   -0.173748
    17  C   -0.484279
    18  C    1.165775
    19  O    0.238534
    20  C   -0.928793
    21  O    0.223745
    22  C   -0.208033
    23  C   -0.067229
    24  O   -0.007707
    25  C    0.932907
    26  C   -0.393356
    27  C   -0.321795
    28  C    0.102470
    29  C    0.154929
    32  C   -0.457681
    62  C   -0.261295
 Sum of Mulliken charges with hydrogens summed into heavy atoms =   0.00000
 Electronic spatial extent (au):  <R**2>=          11870.1275
 Charge=              0.0000 electrons
 Dipole moment (field-independent basis, Debye):
    X=              5.8240    Y=              2.6905    Z=              1.1580  Tot=              6.5191
 Quadrupole moment (field-independent basis, Debye-Ang):
   XX=           -195.2137   YY=           -178.0413   ZZ=           -187.6830
   XY=             -0.4110   XZ=              5.6203   YZ=             -2.3957
 Traceless Quadrupole moment (field-independent basis, Debye-Ang):
   XX=             -8.2343   YY=              8.9380   ZZ=             -0.7037
   XY=             -0.4110   XZ=              5.6203   YZ=             -2.3957
 Octapole moment (field-independent basis, Debye-Ang**2):
  XXX=             63.8541  YYY=             70.2455  ZZZ=              1.4015  XYY=             15.9148
  XXY=            -32.4632  XXZ=             -5.7720  XZZ=             11.7744  YZZ=             -3.1933
  YYZ=            -18.6069  XYZ=             15.7178
 Hexadecapole moment (field-independent basis, Debye-Ang**3):
 XXXX=          -8784.8546 YYYY=          -4979.5219 ZZZZ=          -2657.0938 XXXY=             -2.0990
 XXXZ=             81.5392 YYYX=            -96.7138 YYYZ=            -36.5066 ZZZX=            -19.1336
 ZZZY=             -3.2962 XXYY=          -2171.5240 XXZZ=          -1878.9443 YYZZ=          -1280.1387
 XXYZ=              8.9228 YYXZ=            -19.2692 ZZXY=            -41.0433
 N-N= 3.489651293983D+03 E-N=-1.021222063005D+04  KE= 1.381711678685D+03
 Calling FoFJK, ICntrl=      2127 FMM=T ISym2X=0 I1Cent= 0 IOpClX= 0 NMat=1 NMatS=1 NMatT=0.
 ***** Axes restored to original set *****
 -------------------------------------------------------------------
 Center     Atomic                   Forces (Hartrees/Bohr)
 Number     Number              X              Y              Z
 -------------------------------------------------------------------
      1        6           0.000963448    0.001970842   -0.001551353
      2        6          -0.001095376   -0.001551768    0.001541526
      3        6           0.000039482    0.000359142   -0.000068863
      4        6          -0.000145436    0.000854506    0.000580980
      5        6           0.000074764   -0.000425692   -0.000273795
      6        6          -0.000501864   -0.000060514   -0.000177054
      7        6          -0.001273982    0.001512464    0.002859700
      8        6          -0.003363667    0.000527301   -0.000127277
      9        6           0.001012779    0.001637445   -0.000260532
     10        6          -0.001673183   -0.007238372    0.000940253
     11        6          -0.003943033    0.004995891    0.000779985
     12        8           0.004973262   -0.006293673   -0.000501244
     13        6          -0.000165610    0.000117073   -0.000246773
     14        6          -0.000066358    0.000090538    0.000133802
     15        6           0.000075051    0.000357449    0.000112585
     16        8           0.001161839    0.008462743   -0.000098363
     17        6           0.000149896   -0.000013790   -0.000428197
     18        6           0.000254054    0.001588839   -0.000641945
     19        8           0.002575780   -0.004199480    0.000331927
     20        6          -0.000225017   -0.000011436    0.000424896
     21        8           0.005420558   -0.002687444   -0.000199968
     22        6           0.000114633   -0.000243909   -0.000173260
     23        6           0.000803485   -0.001493304    0.000184978
     24        8          -0.000121898   -0.000606133    0.000987365
     25        6           0.000396133    0.000410490   -0.001339527
     26        6          -0.000035686   -0.000152756    0.000342338
     27        6           0.000199275   -0.000308658    0.001668441
     28        6           0.000373837   -0.000043232    0.000318631
     29        6           0.000329185   -0.000359384   -0.000196192
     30        1          -0.000859859   -0.000503561    0.000812120
     31        1          -0.000813304   -0.000269655    0.001022793
     32        6           0.000127638    0.000240375   -0.000044006
     33        1          -0.000274194    0.000153325   -0.000813392
     34        1           0.000025806    0.001519169   -0.000528008
     35        1           0.001301093   -0.000926850    0.000182232
     36        1          -0.000940210    0.000739283    0.000619624
     37        1           0.000413219    0.001303651   -0.000019121
     38        1           0.000180372   -0.001490046   -0.000612102
     39        1          -0.001672411   -0.000162890   -0.000021868
     40        1           0.000779028    0.001429633    0.000067199
     41        1           0.000770767   -0.001284090   -0.000656416
     42        1           0.001238988    0.000396917   -0.000968534
     43        1          -0.000836707   -0.001330140   -0.000221508
     44        1          -0.004258842    0.002328392   -0.002252567
     45        1           0.001229277    0.001060447    0.000826294
     46        1          -0.000723567    0.000332365   -0.001291967
     47        1          -0.000890530   -0.000326471   -0.001250431
     48        1           0.001082870    0.000917257   -0.000911650
     49        1          -0.001099292   -0.000603812   -0.001053965
     50        1          -0.000551046    0.000723400    0.001424833
     51        1          -0.000399410    0.000631324    0.000608217
     52        1           0.000525482   -0.000962944    0.000288627
     53        1           0.001591764   -0.000197710   -0.000244610
     54        1          -0.000827703   -0.001256250    0.000300726
     55        1          -0.000783555    0.001763327    0.000402699
     56        1          -0.000896768   -0.000959287    0.000658452
     57        1          -0.000489360    0.000642390   -0.001509733
     58        1           0.001663531   -0.000117545    0.000264111
     59        1          -0.000251797    0.000670968   -0.001543619
     60        1          -0.001185821    0.000179255    0.001067735
     61        1           0.000436932   -0.001595011    0.000050643
     62        6           0.000327941    0.000030151    0.000048070
     63        1           0.001517901    0.000176115    0.000191056
[...]
                 (A) (A) (A) (A) (A) (A) (A) (A) (A) (A) (A) (A)
                 (A) (A) (A) (A) (A) (A) (A) (A) (A) (A) (A) (A)
                 (A) (A) (A)
 The electronic state is 1-A.
 Alpha  occ. eigenvalues --  -19.17844 -19.15200 -19.13572 -19.10951 -19.10159
 Alpha  occ. eigenvalues --  -10.26617 -10.26504 -10.25892 -10.25822 -10.25702
 Alpha  occ. eigenvalues --  -10.25349 -10.24106 -10.20982 -10.19841 -10.19826
 Alpha  occ. eigenvalues --  -10.19341 -10.19255 -10.19151 -10.18858 -10.18246
 Alpha  occ. eigenvalues --  -10.17967 -10.17882 -10.17865 -10.17665 -10.17631
 Alpha  occ. eigenvalues --  -10.16959 -10.16611 -10.16409 -10.15456 -10.14750
 Alpha  occ. eigenvalues --  -10.14563  -1.10547  -1.07826  -1.04640  -1.03854
 Alpha  occ. eigenvalues --   -1.03559  -0.88188  -0.84799  -0.83255  -0.82449
 Alpha  occ. eigenvalues --   -0.81099  -0.79771  -0.77818  -0.74998  -0.74161
 Alpha  occ. eigenvalues --   -0.73199  -0.72055  -0.70896  -0.69996  -0.69372
 Alpha  occ. eigenvalues --   -0.65972  -0.64809  -0.64287  -0.62426  -0.61929
 Alpha  occ. eigenvalues --   -0.60223  -0.59655  -0.57950  -0.55882  -0.54608
 Alpha  occ. eigenvalues --   -0.53883  -0.53054  -0.52071  -0.51179  -0.50424
 Alpha  occ. eigenvalues --   -0.49174  -0.48619  -0.47982  -0.47546  -0.47031
 Alpha  occ. eigenvalues --   -0.46255  -0.45302  -0.45148  -0.44532  -0.43517
 Alpha  occ. eigenvalues --   -0.43467  -0.43298  -0.42954  -0.42762  -0.42404
 Alpha  occ. eigenvalues --   -0.41796  -0.41505  -0.41230  -0.40966  -0.40782
 Alpha  occ. eigenvalues --   -0.40674  -0.40264  -0.39943  -0.39514  -0.39275
 Alpha  occ. eigenvalues --   -0.38568  -0.38341  -0.38212  -0.37484  -0.37106
 Alpha  occ. eigenvalues --   -0.36688  -0.36186  -0.35740  -0.35590  -0.35380
 Alpha  occ. eigenvalues --   -0.34916  -0.34673  -0.34071  -0.33535  -0.33301
 Alpha  occ. eigenvalues --   -0.32480  -0.32086  -0.31507  -0.29619  -0.28858
 Alpha  occ. eigenvalues --   -0.26264  -0.25797  -0.25522  -0.24628  -0.23712
 Alpha virt. eigenvalues --   -0.06044  -0.02573  -0.01611  -0.00995  -0.00608
 Alpha virt. eigenvalues --    0.00211   0.00445   0.00760   0.01554   0.01715
 Alpha virt. eigenvalues --    0.01987   0.02126   0.03221   0.03302   0.03465
 Alpha virt. eigenvalues --    0.03666   0.03926   0.04263   0.04567   0.04821
 Alpha virt. eigenvalues --    0.05158   0.05368   0.05672   0.05810   0.06322
 Alpha virt. eigenvalues --    0.06587   0.06835   0.07139   0.07227   0.07351
 Alpha virt. eigenvalues --    0.07642   0.07781   0.08229   0.08405   0.08512
 Alpha virt. eigenvalues --    0.08626   0.09114   0.09163   0.09462   0.09730
 Alpha virt. eigenvalues --    0.09883   0.10327   0.10591   0.10875   0.11035
 Alpha virt. eigenvalues --    0.11210   0.11866   0.12062   0.12296   0.12522
 Alpha virt. eigenvalues --    0.12650   0.12779   0.12961   0.13366   0.13418
 Alpha virt. eigenvalues --    0.13599   0.13774   0.13849   0.14211   0.14504
 Alpha virt. eigenvalues --    0.14593   0.14865   0.15363   0.15446   0.16201
 Alpha virt. eigenvalues --    0.16238   0.16350   0.16702   0.16879   0.17056
 Alpha virt. eigenvalues --    0.17387   0.17618   0.17801   0.18181   0.18354
 Alpha virt. eigenvalues --    0.18612   0.18631   0.18869   0.18987   0.19014
 Alpha virt. eigenvalues --    0.19206   0.19260   0.19680   0.19845   0.20080
 Alpha virt. eigenvalues --    0.20156   0.20365   0.20586   0.20851   0.21153
 Alpha virt. eigenvalues --    0.21250   0.21384   0.21894   0.21956   0.22108
 Alpha virt. eigenvalues --    0.22268   0.22389   0.22431   0.22862   0.22983
 Alpha virt. eigenvalues --    0.23139   0.23310   0.23595   0.23720   0.23993
 Alpha virt. eigenvalues --    0.24232   0.24383   0.24486   0.24685   0.24740
 Alpha virt. eigenvalues --    0.24935   0.25274   0.25452   0.25618   0.26209
 Alpha virt. eigenvalues --    0.26310   0.26676   0.26904   0.26951   0.27157
 Alpha virt. eigenvalues --    0.27438   0.27910   0.28071   0.28149   0.28523
 Alpha virt. eigenvalues --    0.28597   0.28920   0.29209   0.29464   0.29560
 Alpha virt. eigenvalues --    0.29748   0.29981   0.30417   0.30653   0.30825
 Alpha virt. eigenvalues --    0.31066   0.31501   0.31723   0.31954   0.32224
 Alpha virt. eigenvalues --    0.32419   0.32602   0.32957   0.33259   0.33435
 Alpha virt. eigenvalues --    0.33700   0.33980   0.34557   0.34811   0.35189
 Alpha virt. eigenvalues --    0.35480   0.36047   0.36104   0.36308   0.36620
 Alpha virt. eigenvalues --    0.36812   0.37184   0.37564   0.38036   0.38200
 Alpha virt. eigenvalues --    0.38366   0.38609   0.39111   0.39714   0.40024
 Alpha virt. eigenvalues --    0.40756   0.40912   0.41153   0.41583   0.41805
 Alpha virt. eigenvalues --    0.42062   0.42618   0.42737   0.43382   0.44122
 Alpha virt. eigenvalues --    0.44131   0.44254   0.44555   0.45118   0.45452
 Alpha virt. eigenvalues --    0.45945   0.46404   0.46620   0.46649   0.47158
 Alpha virt. eigenvalues --    0.47404   0.48148   0.48389   0.48631   0.49484
 Alpha virt. eigenvalues --    0.49696   0.50006   0.50350   0.50788   0.51540
 Alpha virt. eigenvalues --    0.51659   0.51951   0.52419   0.52994   0.53564
 Alpha virt. eigenvalues --    0.53803   0.54279   0.54803   0.55404   0.55826
 Alpha virt. eigenvalues --    0.56293   0.56691   0.56988   0.57357   0.57632
 Alpha virt. eigenvalues --    0.58171   0.58461   0.58590   0.58794   0.59003
 Alpha virt. eigenvalues --    0.59446   0.59946   0.60448   0.61058   0.61208
 Alpha virt. eigenvalues --    0.61938   0.62414   0.62649   0.62926   0.63384
 Alpha virt. eigenvalues --    0.63644   0.64272   0.64766   0.65364   0.65616
 Alpha virt. eigenvalues --    0.66183   0.66723   0.66972   0.67153   0.67686
 Alpha virt. eigenvalues --    0.67973   0.68365   0.68483   0.68924   0.69082
 Alpha virt. eigenvalues --    0.69284   0.69479   0.69564   0.69824   0.70546
 Alpha virt. eigenvalues --    0.70866   0.71017   0.71244   0.71433   0.71822
 Alpha virt. eigenvalues --    0.72153   0.72523   0.72823   0.73118   0.73608
 Alpha virt. eigenvalues --    0.73902   0.74370   0.74536   0.74787   0.74926
 Alpha virt. eigenvalues --    0.75685   0.75859   0.76148   0.76943   0.77216
 Alpha virt. eigenvalues --    0.77565   0.77911   0.78241   0.78350   0.78763
 Alpha virt. eigenvalues --    0.79082   0.79430   0.79884   0.80318   0.80858
 Alpha virt. eigenvalues --    0.81132   0.81696   0.81906   0.82115   0.82644
 Alpha virt. eigenvalues --    0.82796   0.83408   0.84454   0.84888   0.85198
 Alpha virt. eigenvalues --    0.85616   0.86372   0.86833   0.87777   0.88140
 Alpha virt. eigenvalues --    0.89355   0.89740   0.90257   0.91350   0.91520
 Alpha virt. eigenvalues --    0.92904   0.93263   0.93844   0.94415   0.94798
 Alpha virt. eigenvalues --    0.95194   0.97121   0.97572   0.98294   0.99119
 Alpha virt. eigenvalues --    0.99720   1.01920   1.02544   1.03955   1.05218
 Alpha virt. eigenvalues --    1.05638   1.06097   1.07058   1.08598   1.10222
 Alpha virt. eigenvalues --    1.11179   1.11961   1.12841   1.13555   1.14203
 Alpha virt. eigenvalues --    1.14779   1.15987   1.16458   1.17168   1.17344
 Alpha virt. eigenvalues --    1.18644   1.19558   1.20575   1.22258   1.23098
 Alpha virt. eigenvalues --    1.23747   1.24223   1.25149   1.26256   1.27342
 Alpha virt. eigenvalues --    1.27948   1.29329   1.29842   1.30077   1.30562
 Alpha virt. eigenvalues --    1.32659   1.33609   1.33750   1.34600   1.35344
 Alpha virt. eigenvalues --    1.35450   1.36575   1.36793   1.37726   1.38243
 Alpha virt. eigenvalues --    1.39597   1.39824   1.40562   1.42123   1.42918
 Alpha virt. eigenvalues --    1.43838   1.44979   1.45228   1.46145   1.47703
 Alpha virt. eigenvalues --    1.48408   1.49082   1.49371   1.50658   1.51757
 Alpha virt. eigenvalues --    1.52303   1.52965   1.54042   1.55267   1.55504
 Alpha virt. eigenvalues --    1.56121   1.56353   1.57470   1.57562   1.57723
 Alpha virt. eigenvalues --    1.58488   1.58813   1.59855   1.60091   1.60410
 Alpha virt. eigenvalues --    1.61208   1.61469   1.61933   1.62270   1.62653
 Alpha virt. eigenvalues --    1.62907   1.63591   1.64134   1.64777   1.64856
 Alpha virt. eigenvalues --    1.65155   1.65712   1.65928   1.66521   1.66773
 Alpha virt. eigenvalues --    1.67391   1.67831   1.68543   1.68997   1.69413
 Alpha virt. eigenvalues --    1.70378   1.70906   1.71169   1.72210   1.72349
 Alpha virt. eigenvalues --    1.72953   1.73429   1.73752   1.74667   1.75279
 Alpha virt. eigenvalues --    1.75719   1.76810   1.77343   1.78683   1.79249
 Alpha virt. eigenvalues --    1.80491   1.80663   1.81686   1.82740   1.83204
 Alpha virt. eigenvalues --    1.83762   1.84877   1.84941   1.85503   1.86311
 Alpha virt. eigenvalues --    1.87548   1.88291   1.89565   1.90673   1.90916
 Alpha virt. eigenvalues --    1.92482   1.93153   1.93589   1.93907   1.95740
 Alpha virt. eigenvalues --    1.97600   1.97974   1.99033   1.99701   2.00717
 Alpha virt. eigenvalues --    2.01034   2.02504   2.03648   2.04494   2.05400
 Alpha virt. eigenvalues --    2.05724   2.06536   2.07146   2.09168   2.09528
 Alpha virt. eigenvalues --    2.10056   2.11172   2.12924   2.14357   2.15009
 Alpha virt. eigenvalues --    2.16210   2.17770   2.19964   2.20719   2.21600
 Alpha virt. eigenvalues --    2.22178   2.22784   2.24362   2.25621   2.27027
 Alpha virt. eigenvalues --    2.27292   2.27654   2.30085   2.31339   2.32244
 Alpha virt. eigenvalues --    2.33733   2.34852   2.36171   2.37608   2.38941
 Alpha virt. eigenvalues --    2.40171   2.43310   2.47024   2.48127   2.49627
 Alpha virt. eigenvalues --    2.51306   2.52386   2.52886   2.53442   2.54112
 Alpha virt. eigenvalues --    2.54635   2.54766   2.55334   2.56313   2.57203
 Alpha virt. eigenvalues --    2.58038   2.58392   2.59608   2.60318   2.60777
 Alpha virt. eigenvalues --    2.62243   2.63040   2.63520   2.63950   2.66009
 Alpha virt. eigenvalues --    2.66323   2.67053   2.67566   2.68889   2.69589
 Alpha virt. eigenvalues --    2.70541   2.70911   2.72320   2.72432   2.73562
 Alpha virt. eigenvalues --    2.74616   2.75080   2.78226   2.78876   2.81175
 Alpha virt. eigenvalues --    2.84827   2.86244   2.86723   2.89922   2.90300
 Alpha virt. eigenvalues --    2.91590   2.92784   2.93638   2.94337   2.95482
 Alpha virt. eigenvalues --    2.95805   2.96683   2.97632   2.98201   2.99052
 Alpha virt. eigenvalues --    3.00535   3.01206   3.02122   3.02638   3.03101
 Alpha virt. eigenvalues --    3.03743   3.04043   3.04678   3.05539   3.06045
 Alpha virt. eigenvalues --    3.07471   3.09031   3.10345   3.11300   3.13013
 Alpha virt. eigenvalues --    3.13307   3.14267   3.15105   3.15834   3.17404
 Alpha virt. eigenvalues --    3.18667   3.19780   3.20257   3.21331   3.22244
 Alpha virt. eigenvalues --    3.22437   3.23552   3.24218   3.25269   3.26259
 Alpha virt. eigenvalues --    3.26780   3.27358   3.28353   3.29739   3.30160
 Alpha virt. eigenvalues --    3.30386   3.32209   3.32232   3.32919   3.34400
 Alpha virt. eigenvalues --    3.35567   3.36083   3.36701   3.37753   3.38998
 Alpha virt. eigenvalues --    3.39355   3.40138   3.40501   3.42471   3.43487
 Alpha virt. eigenvalues --    3.45893   3.46816   3.47781   3.51984   3.52216
 Alpha virt. eigenvalues --    3.53595   3.53673   3.57987   3.60886   3.64410
 Alpha virt. eigenvalues --    3.75629   3.76811   3.78245   3.80948   3.85909
 Alpha virt. eigenvalues --    3.91308   3.93506   3.94748   3.98267   4.01839
 Alpha virt. eigenvalues --    4.02617   4.06094   4.06458   4.08965   4.10356
 Alpha virt. eigenvalues --    4.11861   4.14950   4.17392   4.18158   4.21405
 Alpha virt. eigenvalues --    4.23022   4.24296   4.27130   4.29908   4.32894
 Alpha virt. eigenvalues --    4.45052   4.55574   5.13908   5.14909   5.16921
 Alpha virt. eigenvalues --    5.19932   5.23220   5.29959   5.32113   5.33069
 Alpha virt. eigenvalues --    5.41033   5.44314   5.56822   5.71767   5.73325
 Alpha virt. eigenvalues --    5.79670   5.83775  23.45869  23.49881  23.52002
 Alpha virt. eigenvalues --   23.53609  23.62767  23.64396  23.65374  23.66579
 Alpha virt. eigenvalues --   23.67841  23.70551  23.72245  23.73520  23.76313
 Alpha virt. eigenvalues --   23.78577  23.79505  23.79926  23.83748  23.85343
 Alpha virt. eigenvalues --   23.86025  23.88628  23.88829  23.91049  23.95864
 Alpha virt. eigenvalues --   24.15959  24.21603  24.22873  49.97414  50.00362
 Alpha virt. eigenvalues --   50.01888  50.03884  50.06212
          Condensed to atoms (all electrons):
 Mulliken atomic charges:
              1
     1  C   -0.569320
     2  C    1.048653
     3  C   -0.035145
     4  C    0.340108
     5  C    1.204670
     6  C   -1.369915
     7  C   -1.079032
     8  C    0.243462
     9  C    0.794300
    10  C   -1.006428
    11  C   -0.308326
    12  O   -0.184200
    13  C    0.392858
    14  C   -0.343429
    15  C   -1.105881
    16  O   -0.179364
    17  C   -0.376662
    18  C    0.802977
    19  O    0.216777
    20  C   -1.524024
    21  O   -0.069491
    22  C   -0.640133
    23  C   -0.403890
    24  O    0.001568
    25  C    0.929973
    26  C   -1.177287
    27  C   -0.751444
    28  C   -0.811497
    29  C   -0.624171
    30  H    0.238486
    31  H    0.265203
    32  C   -1.207476
    33  H    0.206163
    34  H    0.259926
    35  H    0.261560
    36  H    0.235882
    37  H    0.217821
    38  H    0.262824
    39  H    0.276682
    40  H    0.234199
    41  H    0.267179
    42  H    0.292962
    43  H    0.263122
    44  H    0.284567
    45  H    0.292221
    46  H    0.258586
    47  H    0.257817
    48  H    0.264665
    49  H    0.252729
    50  H    0.260540
    51  H    0.221002
    52  H    0.229199
    53  H    0.265419
    54  H    0.250140
    55  H    0.311738
    56  H    0.260960
    57  H    0.270552
    58  H    0.273893
    59  H    0.250431
    60  H    0.259491
    61  H    0.248383
    62  C   -0.950095
    63  H    0.246013
    64  H    0.241242
    65  H    0.260264
 Sum of Mulliken atomic charges =   0.00000
 Mulliken charges with hydrogens summed into heavy atoms:
              1
     1  C   -0.363158
     2  C    1.048653
     3  C    0.230058
     4  C    0.340108
     5  C    1.204670
     6  C   -0.848430
     7  C   -1.079032
     8  C    0.243462
     9  C    0.794300
    10  C   -1.006428
    11  C   -0.308326
    12  O   -0.184200
    13  C    0.628741
    14  C    0.137216
    15  C   -0.327820
    16  O   -0.179364
    17  C   -0.138177
    18  C    0.802977
    19  O    0.216777
    20  C   -0.967940
    21  O    0.215076
    22  C   -0.089326
    23  C   -0.146073
    24  O    0.001568
    25  C    0.929973
    26  C   -0.399352
    27  C   -0.301243
    28  C    0.015800
    29  C    0.181235
    32  C   -0.449171
    62  C   -0.202576
 Sum of Mulliken charges with hydrogens summed into heavy atoms =   0.00000
 Electronic spatial extent (au):  <R**2>=          11772.1221
 Charge=              0.0000 electrons
 Dipole moment (field-independent basis, Debye):
    X=             -5.2618    Y=              2.9721    Z=              0.0275  Tot=              6.0433
 Quadrupole moment (field-independent basis, Debye-Ang):
   XX=           -191.4089   YY=           -178.5293   ZZ=           -189.7740
   XY=              1.4345   XZ=              9.3172   YZ=              1.0676
 Traceless Quadrupole moment (field-independent basis, Debye-Ang):
   XX=             -4.8382   YY=              8.0414   ZZ=             -3.2032
   XY=              1.4345   XZ=              9.3172   YZ=              1.0676
 Octapole moment (field-independent basis, Debye-Ang**2):
  XXX=            -48.6708  YYY=             69.2780  ZZZ=             -1.1930  XYY=             -9.0142
  XXY=            -30.4937  XXZ=             18.2817  XZZ=            -18.7643  YZZ=             -4.2134
  YYZ=             20.8583  XYZ=             13.7770
 Hexadecapole moment (field-independent basis, Debye-Ang**3):
 XXXX=          -8680.6395 YYYY=          -4887.7712 ZZZZ=          -2629.5769 XXXY=             23.8364
 XXXZ=            125.7149 YYYX=             88.0516 YYYZ=             18.6818 ZZZX=            -11.3470
 ZZZY=              7.7079 XXYY=          -2135.7421 XXZZ=          -1899.4964 YYZZ=          -1262.1441
 XXYZ=            -16.6890 YYXZ=            -11.3923 ZZXY=             34.0820
 N-N= 3.494221124168D+03 E-N=-1.022153378735D+04  KE= 1.381926427407D+03
 1\1\GINC-B0802\FOpt\RB3LYP\6-311+G(d)\C26H34O5\CAOFEI\13-Apr-2021\0\\#
  opt b3lyp/6-311+g(d) geom=connectivity\\Title Card Required\\0,1\C,2.
 2140643403,0.2575190226,2.727097738\C,2.7376527235,1.1986255497,1.9377
 658593\C,2.1139309054,1.4859057224,0.5933285027\C,1.3789438615,0.29012
 09724,-0.0967283099\C,0.9723061909,-0.9105298467,0.822109423\C,1.00198
 53547,-0.541908933,2.3356129593\C,0.1897781038,0.9547581477,-0.8509157
 866\C,-1.1446951101,0.7592706429,-0.1447224387\C,-1.5291821759,-0.4246
 697406,0.4025013653\C,-0.4752262104,-1.4383495847,0.5806001156\C,-2.94
 76692661,-0.6537546113,0.8450578504\O,-3.5633638746,0.23765302,1.39782
 13675\C,-3.6154206547,-2.0051971695,0.5655441731\C,-4.9609490087,-1.79
 02062057,-0.1547680398\C,-3.8105853774,-2.7558986239,1.8954979482\O,-0
 .6991718823,-2.628764441,0.728324897\C,0.3400029541,2.484401153,-0.742
 6610989\C,-1.1165506832,2.9901040389,-0.8173970786\O,-1.8865315869,1.8
 54800686,-0.2322564599\C,1.0852498713,2.6447048396,0.5949640158\O,0.04
 74825369,0.47526457,-2.1755449153\C,2.013613308,-2.0065592441,0.477870
 9813\C,2.9915862967,-1.3438407991,-0.5074303932\O,2.2314390123,-0.2815
 836104,-1.100961936\C,3.5846287729,-2.2589422376,-1.5495747551\C,4.401
 3693309,-3.394217544,-0.9864974677\C,3.4206566794,-2.0694105654,-2.858
 3052413\C,-1.5982041218,3.1815831952,-2.2546377596\C,-1.4473510814,4.2
 050722418,0.0391160441\H,0.9357071531,2.8723488354,-1.5714956819\H,2.9
 075445436,1.7628632088,-0.1112254198\C,3.9265145829,2.0336372097,2.329
 8839806\H,2.6481617815,0.0686047956,3.706444974\H,0.9460746337,-1.4703
 949214,2.9093332019\H,0.0946134674,0.0174728993,2.5960473052\H,-2.9570
 599615,-2.6002060868,-0.0700260973\H,-5.4571107214,-2.7650503239,-0.22
 85236726\H,-5.6009116561,-1.1608000873,0.4711356591\H,-2.8546575319,-2
 .9585595762,2.3829949474\H,-4.3009085788,-3.7170418694,1.7162487878\H,
 -4.4353673835,-2.1751353007,2.5791292754\H,0.4028468867,2.5279375633,1
 .4422249112\H,1.5619686226,3.6212486318,0.7017862402\H,0.8291995662,-0
 .0737458852,-2.3548318712\H,1.508172989,-2.8570224504,0.0193674718\H,2
 .5284068561,-2.3730039396,1.3669939531\H,3.8212928657,-0.8890843756,0.
 0547304147\H,3.7877781928,-4.0719260352,-0.3835195926\H,5.1991703981,-
 3.0249191403,-0.3314957847\H,4.8645303515,-3.9802701676,-1.7818907351\
 H,3.8669780716,-2.7434229565,-3.5825612283\H,2.8486552,-1.239008335,-3
 .2530477436\H,-2.6763585933,3.3568201748,-2.2677967578\H,-1.1076188265
 ,4.0515347391,-2.700670987\H,-1.3750849216,2.308936693,-2.8680158114\H
 ,-0.8859667362,5.0749606125,-0.3128691628\H,-1.2112084939,4.0431229931
 ,1.0910112932\H,-2.5117587735,4.4372765093,-0.0332273236\H,4.296613936
 5,1.7689274969,3.3226652694\H,4.7506171302,1.9120047104,1.6169285724\H
 ,3.6806261888,3.1019118225,2.339788734\C,-4.8356263457,-1.1781768402,-
 1.5525824322\H,-5.8147895971,-1.0999100227,-2.0340716735\H,-4.19742786
 31,-1.7865686362,-2.2015280615\H,-4.4100486429,-0.1711025903,-1.518194
 5149\\Version=EM64L-G09RevB.01\State=1-A\HF=-1387.6500864\RMSD=7.823e-
 09\RMSF=3.082e-06\Dipole=2.1044363,1.1057337,-0.041016\Quadrupole=-3.5
 584958,6.0040185,-2.4455227,-0.6831984,6.9184347,-1.1187237\PG=C01 [X(
 C26H34O5)]\\@


 I CLAIM NOT TO HAVE CONTROLLED EVENTS,
 BUT CONFESS PLAINLY THAT EVENTS HAVE CONTROLLED ME.

                                         A. LINCOLN
 Job cpu time:  1 days 15 hours  3 minutes 59.2 seconds.
 File lengths (MBytes):  RWF=    372 Int=      0 D2E=      0 Chk=     38 Scr=      1
 Normal termination of Gaussian 09 at Tue Apr 13 20:40:41 2021.
