 Entering Gaussian System, Link 0=g09
 Initial command:
 /public/software/g09/g09/l1.exe /tmp/Gau-1799.inp -scrdir=/tmp/
 Entering Link 1 = /public/software/g09/g09/l1.exe PID=      1802.
  
 Copyright (c) 1988,1990,1992,1993,1995,1998,2003,2009,2010,
            Gaussian, Inc.  All Rights Reserved.
  
 This is part of the Gaussian(R) 09 program.  It is based on
 the Gaussian(R) 03 system (copyright 2003, Gaussian, Inc.),
 the Gaussian(R) 98 system (copyright 1998, Gaussian, Inc.),
 the Gaussian(R) 94 system (copyright 1995, Gaussian, Inc.),
 the Gaussian 92(TM) system (copyright 1992, Gaussian, Inc.),
 the Gaussian 90(TM) system (copyright 1990, Gaussian, Inc.),
 the Gaussian 88(TM) system (copyright 1988, Gaussian, Inc.),
 the Gaussian 86(TM) system (copyright 1986, Carnegie Mellon
 University), and the Gaussian 82(TM) system (copyright 1983,
 Carnegie Mellon University). Gaussian is a federally registered
 trademark of Gaussian, Inc.
  
 This software contains proprietary and confidential information,
 including trade secrets, belonging to Gaussian, Inc.
  
 This software is provided under written license and may be
 used, copied, transmitted, or stored only in accord with that
 written license.
  
 The following legend is applicable only to US Government
 contracts under FAR:
  
                    RESTRICTED RIGHTS LEGEND
  
 Use, reproduction and disclosure by the US Government is
 subject to restrictions as set forth in subparagraphs (a)
 and (c) of the Commercial Computer Software - Restricted
 Rights clause in FAR 52.227-19.
  
 Gaussian, Inc.
 340 Quinnipiac St., Bldg. 40, Wallingford CT 06492
  
  
 ---------------------------------------------------------------
 Warning -- This program may not be used in any manner that
 competes with the business of Gaussian, Inc. or will provide
 assistance to any competitor of Gaussian, Inc.  The licensee
 of this program is prohibited from giving any competitor of
 Gaussian, Inc. access to this program.  By using this program,
 the user acknowledges that Gaussian, Inc. is engaged in the
 business of creating and licensing software in the field of
 computational chemistry and represents and warrants to the
 licensee that it is not a competitor of Gaussian, Inc. and that
 it will not use this program in any manner prohibited above.
 ---------------------------------------------------------------
  

 Cite this work as:
 Gaussian 09, Revision B.01,
 M. J. Frisch, G. W. Trucks, H. B. Schlegel, G. E. Scuseria, 
 M. A. Robb, J. R. Cheeseman, G. Scalmani, V. Barone, B. Mennucci, 
 G. A. Petersson, H. Nakatsuji, M. Caricato, X. Li, H. P. Hratchian, 
 A. F. Izmaylov, J. Bloino, G. Zheng, J. L. Sonnenberg, M. Hada, 
 M. Ehara, K. Toyota, R. Fukuda, J. Hasegawa, M. Ishida, T. Nakajima, 
 Y. Honda, O. Kitao, H. Nakai, T. Vreven, J. A. Montgomery, Jr., 
 J. E. Peralta, F. Ogliaro, M. Bearpark, J. J. Heyd, E. Brothers, 
 K. N. Kudin, V. N. Staroverov, T. Keith, R. Kobayashi, J. Normand, 
 K. Raghavachari, A. Rendell, J. C. Burant, S. S. Iyengar, J. Tomasi, 
 M. Cossi, N. Rega, J. M. Millam, M. Klene, J. E. Knox, J. B. Cross, 
 V. Bakken, C. Adamo, J. Jaramillo, R. Gomperts, R. E. Stratmann, 
 O. Yazyev, A. J. Austin, R. Cammi, C. Pomelli, J. W. Ochterski, 
 R. L. Martin, K. Morokuma, V. G. Zakrzewski, G. A. Voth, 
 P. Salvador, J. J. Dannenberg, S. Dapprich, A. D. Daniels, 
 O. Farkas, J. B. Foresman, J. V. Ortiz, J. Cioslowski, 
 and D. J. Fox, Gaussian, Inc., Wallingford CT, 2010.
 
 ******************************************
 Gaussian 09:  EM64L-G09RevB.01 12-Aug-2010
                 2-Feb-2021 
 ******************************************
 %mem=600MW
 %nprocshared=10
 Will use up to   10 processors via shared memory.
 --------------------------------------
 # opt b3lyp/6-31g(d) geom=connectivity
 --------------------------------------
 1/14=-1,18=20,19=15,26=3,38=1,57=2/1,3;
 2/9=110,12=2,17=6,18=5,40=1/2;
 3/5=1,6=6,7=1,11=2,16=1,25=1,30=1,71=1,74=-5/1,2,3;
 4//1;
 5/5=2,38=5/2;
 6/7=2,8=2,9=2,10=2,28=1/1;
 7//1,2,3,16;
 1/14=-1,18=20,19=15/3(2);
 2/9=110/2;
 99//99;
 2/9=110/2;
 3/5=1,6=6,7=1,11=2,16=1,25=1,30=1,71=1,74=-5/1,2,3;
 4/5=5,16=3/1;
 5/5=2,38=5/2;
 7//1,2,3,16;
 1/14=-1,18=20,19=15/3(-5);
 2/9=110/2;
 6/7=2,8=2,9=2,10=2,19=2,28=1/1;
 99/9=1/99;
 -------------------
 Title Card Required
 -------------------
 Symbolic Z-matrix:
 Charge =  0 Multiplicity = 1
 C                     4.01469  -1.49634  -0.90763 
 C                     3.63948  -0.16495  -1.10646 
 C                     2.32674   0.18405  -1.43232 
 C                     1.33199  -0.79175  -1.57626 
 C                     1.70022  -2.13399  -1.4197 
 C                     3.0284   -2.47947  -1.08489 
 C                    -0.07053  -0.44825  -1.86702 
 C                    -0.93655  -1.45706  -2.05926 
 O                    -0.56691  -2.8124   -1.96813 
 C                     0.69021  -3.19724  -1.61935 
 C                    -0.52908   0.99659  -1.89027 
 C                    -2.05836   1.1622   -1.71123 
 C                    -2.76721   0.19149  -2.67389 
 C                    -2.39655  -1.26149  -2.366 
 C                     5.42721  -1.86571  -0.54735 
 O                     3.41779  -3.78728  -0.91594 
 O                     4.51366   0.88055  -0.99841 
 O                     0.99841  -4.37875  -1.48599 
 O                    -2.54522   0.81597  -0.39663 
 C                    -1.9287    1.41932   0.75721 
 C                    -3.04974   1.77424   1.75463 
 C                    -2.47131   2.29262   3.08511 
 C                    -1.32181   1.49187   3.59826 
 C                    -0.64296   0.6176    2.83558 
 C                    -0.96829   0.39149   1.38802 
 O                    -3.91665   2.80174   1.24215 
 O                    -3.49823   2.27749   4.07469 
 C                     0.49562  -0.12586   3.44615 
 O                     0.93107  -1.08239   2.58657 
 O                     0.96478   0.10893   4.54857 
 C                     2.0366   -1.8445    3.07296 
 C                    -2.50777   2.58689  -2.07274 
 O                    -2.05411   3.03096  -3.2604 
 O                    -3.23332   3.29893  -1.39306 
 H                     2.11303   1.24017  -1.57361 
 H                    -0.20518   1.42422  -2.84826 
 H                    -0.02144   1.5754   -1.11322 
 H                    -2.50126   0.42166  -3.71425 
 H                    -3.85709   0.29842  -2.59809 
 H                    -2.9805   -1.61532  -1.50717 
 H                    -2.68096  -1.88655  -3.22083 
 H                     5.75988  -1.28633   0.3206 
 H                     5.53805  -2.9199   -0.2776 
 H                     6.09254  -1.66488  -1.39321 
 H                     2.64991  -4.38047  -1.07902 
 H                     5.41076   0.54571  -0.83962 
 H                    -1.40181   2.33915   0.47569 
 H                    -3.69463   0.90245   1.92332 
 H                    -2.15487   3.33741   2.97962 
 H                    -1.04659   1.65297   4.63933 
 H                    -0.03579   0.40657   0.81764 
 H                    -1.38535  -0.61762   1.27094 
 H                    -3.9088    2.74215   0.26333 
 H                    -4.26064   2.7198    3.65314 
 H                     2.29328  -2.58971   2.31494 
 H                     2.90559  -1.19834   3.23149 
 H                     1.76687  -2.36749   3.99576 
 H                    -2.44857   3.92504  -3.35789 
 

 GradGradGradGradGradGradGradGradGradGradGradGradGradGradGradGradGradGrad
 Berny optimization.
 Initialization pass.
                           ----------------------------
                           !    Initial Parameters    !
                           ! (Angstroms and Degrees)  !
 --------------------------                            --------------------------
 ! Name  Definition              Value          Derivative Info.                !
 --------------------------------------------------------------------------------
 ! R1    R(1,2)                  1.3975         estimate D2E/DX2                !
 ! R2    R(1,6)                  1.4038         estimate D2E/DX2                !
 ! R3    R(1,15)                 1.5038         estimate D2E/DX2                !
 ! R4    R(2,3)                  1.3969         estimate D2E/DX2                !
 ! R5    R(2,17)                 1.3671         estimate D2E/DX2                !
 ! R6    R(3,4)                  1.4009         estimate D2E/DX2                !
 ! R7    R(3,35)                 1.0867         estimate D2E/DX2                !
 ! R8    R(4,5)                  1.4006         estimate D2E/DX2                !
 ! R9    R(4,7)                  1.473          estimate D2E/DX2                !
 ! R10   R(5,6)                  1.4126         estimate D2E/DX2                !
 ! R11   R(5,10)                 1.48           estimate D2E/DX2                !
 ! R12   R(6,16)                 1.375          estimate D2E/DX2                !
 ! R13   R(7,8)                  1.3434         estimate D2E/DX2                !
 ! R14   R(7,11)                 1.516          estimate D2E/DX2                !
 ! R15   R(8,9)                  1.4078         estimate D2E/DX2                !
 ! R16   R(8,14)                 1.5046         estimate D2E/DX2                !
 ! R17   R(9,10)                 1.3602         estimate D2E/DX2                !
 ! R18   R(10,18)                1.2283         estimate D2E/DX2                !
 ! R19   R(11,12)                1.5486         estimate D2E/DX2                !
 ! R20   R(11,36)                1.098          estimate D2E/DX2                !
 ! R21   R(11,37)                1.0939         estimate D2E/DX2                !
 ! R22   R(12,13)                1.5399         estimate D2E/DX2                !
 ! R23   R(12,19)                1.444          estimate D2E/DX2                !
 ! R24   R(12,32)                1.537          estimate D2E/DX2                !
 ! R25   R(13,14)                1.5308         estimate D2E/DX2                !
 ! R26   R(13,38)                1.0982         estimate D2E/DX2                !
 ! R27   R(13,39)                1.0977         estimate D2E/DX2                !
 ! R28   R(14,40)                1.0972         estimate D2E/DX2                !
 ! R29   R(14,41)                1.0965         estimate D2E/DX2                !
 ! R30   R(15,42)                1.0953         estimate D2E/DX2                !
 ! R31   R(15,43)                1.0938         estimate D2E/DX2                !
 ! R32   R(15,44)                1.0948         estimate D2E/DX2                !
 ! R33   R(16,45)                0.9839         estimate D2E/DX2                !
 ! R34   R(17,46)                0.9706         estimate D2E/DX2                !
 ! R35   R(18,45)                1.7009         estimate D2E/DX2                !
 ! R36   R(19,20)                1.4406         estimate D2E/DX2                !
 ! R37   R(20,21)                1.5419         estimate D2E/DX2                !
 ! R38   R(20,25)                1.5417         estimate D2E/DX2                !
 ! R39   R(20,47)                1.0968         estimate D2E/DX2                !
 ! R40   R(21,22)                1.5406         estimate D2E/DX2                !
 ! R41   R(21,26)                1.4387         estimate D2E/DX2                !
 ! R42   R(21,48)                1.0974         estimate D2E/DX2                !
 ! R43   R(22,23)                1.4919         estimate D2E/DX2                !
 ! R44   R(22,27)                1.4262         estimate D2E/DX2                !
 ! R45   R(22,49)                1.0967         estimate D2E/DX2                !
 ! R46   R(23,24)                1.3442         estimate D2E/DX2                !
 ! R47   R(23,50)                1.0888         estimate D2E/DX2                !
 ! R48   R(24,25)                1.5008         estimate D2E/DX2                !
 ! R49   R(24,28)                1.4906         estimate D2E/DX2                !
 ! R50   R(25,51)                1.0932         estimate D2E/DX2                !
 ! R51   R(25,52)                1.0981         estimate D2E/DX2                !
 ! R52   R(26,53)                0.9807         estimate D2E/DX2                !
 ! R53   R(27,54)                0.977          estimate D2E/DX2                !
 ! R54   R(28,29)                1.3577         estimate D2E/DX2                !
 ! R55   R(28,30)                1.2209         estimate D2E/DX2                !
 ! R56   R(29,31)                1.4281         estimate D2E/DX2                !
 ! R57   R(31,55)                1.0935         estimate D2E/DX2                !
 ! R58   R(31,56)                1.0944         estimate D2E/DX2                !
 ! R59   R(31,57)                1.0945         estimate D2E/DX2                !
 ! R60   R(32,33)                1.3467         estimate D2E/DX2                !
 ! R61   R(32,34)                1.2229         estimate D2E/DX2                !
 ! R62   R(33,58)                0.9821         estimate D2E/DX2                !
 ! R63   R(34,53)                1.8735         estimate D2E/DX2                !
 ! A1    A(2,1,6)              117.4264         estimate D2E/DX2                !
 ! A2    A(2,1,15)             121.3517         estimate D2E/DX2                !
 ! A3    A(6,1,15)             121.2085         estimate D2E/DX2                !
 ! A4    A(1,2,3)              121.57           estimate D2E/DX2                !
 ! A5    A(1,2,17)             123.0705         estimate D2E/DX2                !
 ! A6    A(3,2,17)             115.3594         estimate D2E/DX2                !
 ! A7    A(2,3,4)              121.1486         estimate D2E/DX2                !
 ! A8    A(2,3,35)             117.2541         estimate D2E/DX2                !
 ! A9    A(4,3,35)             121.5966         estimate D2E/DX2                !
 ! A10   A(3,4,5)              117.993          estimate D2E/DX2                !
 ! A11   A(3,4,7)              122.2747         estimate D2E/DX2                !
 ! A12   A(5,4,7)              119.7282         estimate D2E/DX2                !
 ! A13   A(4,5,6)              120.5346         estimate D2E/DX2                !
 ! A14   A(4,5,10)             119.6018         estimate D2E/DX2                !
 ! A15   A(6,5,10)             119.8613         estimate D2E/DX2                !
 ! A16   A(1,6,5)              121.2801         estimate D2E/DX2                !
 ! A17   A(1,6,16)             116.8485         estimate D2E/DX2                !
 ! A18   A(5,6,16)             121.8714         estimate D2E/DX2                !
 ! A19   A(4,7,8)              117.837          estimate D2E/DX2                !
 ! A20   A(4,7,11)             120.8825         estimate D2E/DX2                !
 ! A21   A(8,7,11)             121.2322         estimate D2E/DX2                !
 ! A22   A(7,8,9)              122.9869         estimate D2E/DX2                !
 ! A23   A(7,8,14)             123.8558         estimate D2E/DX2                !
 ! A24   A(9,8,14)             113.1477         estimate D2E/DX2                !
 ! A25   A(8,9,10)             122.1173         estimate D2E/DX2                !
 ! A26   A(5,10,9)             117.5193         estimate D2E/DX2                !
 ! A27   A(5,10,18)            120.3418         estimate D2E/DX2                !
 ! A28   A(9,10,18)            122.1334         estimate D2E/DX2                !
 ! A29   A(7,11,12)            113.5051         estimate D2E/DX2                !
 ! A30   A(7,11,36)            107.1781         estimate D2E/DX2                !
 ! A31   A(7,11,37)            110.6728         estimate D2E/DX2                !
 ! A32   A(12,11,36)           110.5205         estimate D2E/DX2                !
 ! A33   A(12,11,37)           108.637          estimate D2E/DX2                !
 ! A34   A(36,11,37)           106.0708         estimate D2E/DX2                !
 ! A35   A(11,12,13)           108.3538         estimate D2E/DX2                !
 ! A36   A(11,12,19)           114.3661         estimate D2E/DX2                !
 ! A37   A(11,12,32)           111.1418         estimate D2E/DX2                !
 ! A38   A(13,12,19)           105.2347         estimate D2E/DX2                !
 ! A39   A(13,12,32)           107.6178         estimate D2E/DX2                !
 ! A40   A(19,12,32)           109.7424         estimate D2E/DX2                !
 ! A41   A(12,13,14)           111.1689         estimate D2E/DX2                !
 ! A42   A(12,13,38)           110.4022         estimate D2E/DX2                !
 ! A43   A(12,13,39)           110.6372         estimate D2E/DX2                !
 ! A44   A(14,13,38)           109.3188         estimate D2E/DX2                !
 ! A45   A(14,13,39)           108.6008         estimate D2E/DX2                !
 ! A46   A(38,13,39)           106.5852         estimate D2E/DX2                !
 ! A47   A(8,14,13)            113.5359         estimate D2E/DX2                !
 ! A48   A(8,14,40)            108.3577         estimate D2E/DX2                !
 ! A49   A(8,14,41)            109.6649         estimate D2E/DX2                !
 ! A50   A(13,14,40)           109.5525         estimate D2E/DX2                !
 ! A51   A(13,14,41)           108.7516         estimate D2E/DX2                !
 ! A52   A(40,14,41)           106.7595         estimate D2E/DX2                !
 ! A53   A(1,15,42)            110.1943         estimate D2E/DX2                !
 ! A54   A(1,15,43)            113.0169         estimate D2E/DX2                !
 ! A55   A(1,15,44)            109.9182         estimate D2E/DX2                !
 ! A56   A(42,15,43)           106.4766         estimate D2E/DX2                !
 ! A57   A(42,15,44)           109.3077         estimate D2E/DX2                !
 ! A58   A(43,15,44)           107.8046         estimate D2E/DX2                !
 ! A59   A(6,16,45)            109.3932         estimate D2E/DX2                !
 ! A60   A(2,17,46)            109.8842         estimate D2E/DX2                !
 ! A61   A(12,19,20)           118.9766         estimate D2E/DX2                !
 ! A62   A(19,20,21)           107.6592         estimate D2E/DX2                !
 ! A63   A(19,20,25)           108.3662         estimate D2E/DX2                !
 ! A64   A(19,20,47)           110.5633         estimate D2E/DX2                !
 ! A65   A(21,20,25)           109.9805         estimate D2E/DX2                !
 ! A66   A(21,20,47)           108.7994         estimate D2E/DX2                !
 ! A67   A(25,20,47)           111.4006         estimate D2E/DX2                !
 ! A68   A(20,21,22)           111.2919         estimate D2E/DX2                !
 ! A69   A(20,21,26)           111.8423         estimate D2E/DX2                !
 ! A70   A(20,21,48)           110.1091         estimate D2E/DX2                !
 ! A71   A(22,21,26)           107.0706         estimate D2E/DX2                !
 ! A72   A(22,21,48)           110.8044         estimate D2E/DX2                !
 ! A73   A(26,21,48)           105.5453         estimate D2E/DX2                !
 ! A74   A(21,22,23)           113.9363         estimate D2E/DX2                !
 ! A75   A(21,22,27)           108.9843         estimate D2E/DX2                !
 ! A76   A(21,22,49)           110.2307         estimate D2E/DX2                !
 ! A77   A(23,22,27)           108.0851         estimate D2E/DX2                !
 ! A78   A(23,22,49)           108.7883         estimate D2E/DX2                !
 ! A79   A(27,22,49)           106.5343         estimate D2E/DX2                !
 ! A80   A(22,23,24)           122.8911         estimate D2E/DX2                !
 ! A81   A(22,23,50)           116.3729         estimate D2E/DX2                !
 ! A82   A(24,23,50)           120.7353         estimate D2E/DX2                !
 ! A83   A(23,24,25)           122.3961         estimate D2E/DX2                !
 ! A84   A(23,24,28)           118.5387         estimate D2E/DX2                !
 ! A85   A(25,24,28)           119.0463         estimate D2E/DX2                !
 ! A86   A(20,25,24)           115.4203         estimate D2E/DX2                !
 ! A87   A(20,25,51)           107.9815         estimate D2E/DX2                !
 ! A88   A(20,25,52)           109.4164         estimate D2E/DX2                !
 ! A89   A(24,25,51)           108.4363         estimate D2E/DX2                !
 ! A90   A(24,25,52)           108.8805         estimate D2E/DX2                !
 ! A91   A(51,25,52)           106.3198         estimate D2E/DX2                !
 ! A92   A(21,26,53)           107.8973         estimate D2E/DX2                !
 ! A93   A(22,27,54)           104.9334         estimate D2E/DX2                !
 ! A94   A(24,28,29)           109.6964         estimate D2E/DX2                !
 ! A95   A(24,28,30)           124.5743         estimate D2E/DX2                !
 ! A96   A(29,28,30)           125.7256         estimate D2E/DX2                !
 ! A97   A(28,29,31)           114.1171         estimate D2E/DX2                !
 ! A98   A(29,31,55)           108.0161         estimate D2E/DX2                !
 ! A99   A(29,31,56)           110.4211         estimate D2E/DX2                !
 ! A100  A(29,31,57)           110.5719         estimate D2E/DX2                !
 ! A101  A(55,31,56)           108.4435         estimate D2E/DX2                !
 ! A102  A(55,31,57)           108.4617         estimate D2E/DX2                !
 ! A103  A(56,31,57)           110.8347         estimate D2E/DX2                !
 ! A104  A(12,32,33)           114.493          estimate D2E/DX2                !
 ! A105  A(12,32,34)           125.6253         estimate D2E/DX2                !
 ! A106  A(33,32,34)           119.8709         estimate D2E/DX2                !
 ! A107  A(32,33,58)           104.6225         estimate D2E/DX2                !
 ! D1    D(6,1,2,3)              1.7575         estimate D2E/DX2                !
 ! D2    D(6,1,2,17)          -178.2781         estimate D2E/DX2                !
 ! D3    D(15,1,2,3)          -179.5583         estimate D2E/DX2                !
 ! D4    D(15,1,2,17)            0.4061         estimate D2E/DX2                !
 ! D5    D(2,1,6,5)             -1.4908         estimate D2E/DX2                !
 ! D6    D(2,1,6,16)           178.5689         estimate D2E/DX2                !
 ! D7    D(15,1,6,5)           179.823          estimate D2E/DX2                !
 ! D8    D(15,1,6,16)           -0.1173         estimate D2E/DX2                !
 ! D9    D(2,1,15,42)           52.3778         estimate D2E/DX2                !
 ! D10   D(2,1,15,43)          171.3638         estimate D2E/DX2                !
 ! D11   D(2,1,15,44)          -68.1524         estimate D2E/DX2                !
 ! D12   D(6,1,15,42)         -128.9878         estimate D2E/DX2                !
 ! D13   D(6,1,15,43)          -10.0017         estimate D2E/DX2                !
 ! D14   D(6,1,15,44)          110.482          estimate D2E/DX2                !
 ! D15   D(1,2,3,4)             -0.1607         estimate D2E/DX2                !
 ! D16   D(1,2,3,35)          -179.857          estimate D2E/DX2                !
 ! D17   D(17,2,3,4)           179.8724         estimate D2E/DX2                !
 ! D18   D(17,2,3,35)            0.176          estimate D2E/DX2                !
 ! D19   D(1,2,17,46)            4.4381         estimate D2E/DX2                !
 ! D20   D(3,2,17,46)         -175.5955         estimate D2E/DX2                !
 ! D21   D(2,3,4,5)             -1.7193         estimate D2E/DX2                !
 ! D22   D(2,3,4,7)            177.5415         estimate D2E/DX2                !
 ! D23   D(35,3,4,5)           177.9638         estimate D2E/DX2                !
 ! D24   D(35,3,4,7)            -2.7754         estimate D2E/DX2                !
 ! D25   D(3,4,5,6)              1.9668         estimate D2E/DX2                !
 ! D26   D(3,4,5,10)          -177.4782         estimate D2E/DX2                !
 ! D27   D(7,4,5,6)           -177.3135         estimate D2E/DX2                !
 ! D28   D(7,4,5,10)             3.2415         estimate D2E/DX2                !
 ! D29   D(3,4,7,8)            176.4484         estimate D2E/DX2                !
 ! D30   D(3,4,7,11)            -6.0489         estimate D2E/DX2                !
 ! D31   D(5,4,7,8)             -4.3031         estimate D2E/DX2                !
 ! D32   D(5,4,7,11)           173.1995         estimate D2E/DX2                !
 ! D33   D(4,5,6,1)             -0.3706         estimate D2E/DX2                !
 ! D34   D(4,5,6,16)           179.5667         estimate D2E/DX2                !
 ! D35   D(10,5,6,1)           179.073          estimate D2E/DX2                !
 ! D36   D(10,5,6,16)           -0.9897         estimate D2E/DX2                !
 ! D37   D(4,5,10,9)             0.809          estimate D2E/DX2                !
 ! D38   D(4,5,10,18)          179.9744         estimate D2E/DX2                !
 ! D39   D(6,5,10,9)          -178.6398         estimate D2E/DX2                !
 ! D40   D(6,5,10,18)            0.5256         estimate D2E/DX2                !
 ! D41   D(1,6,16,45)         -179.0993         estimate D2E/DX2                !
 ! D42   D(5,6,16,45)            0.9607         estimate D2E/DX2                !
 ! D43   D(4,7,8,9)              1.3136         estimate D2E/DX2                !
 ! D44   D(4,7,8,14)          -179.8931         estimate D2E/DX2                !
 ! D45   D(11,7,8,9)          -176.1798         estimate D2E/DX2                !
 ! D46   D(11,7,8,14)            2.6135         estimate D2E/DX2                !
 ! D47   D(4,7,11,12)         -159.6115         estimate D2E/DX2                !
 ! D48   D(4,7,11,36)           78.0746         estimate D2E/DX2                !
 ! D49   D(4,7,11,37)          -37.1606         estimate D2E/DX2                !
 ! D50   D(8,7,11,12)           17.8058         estimate D2E/DX2                !
 ! D51   D(8,7,11,36)         -104.5081         estimate D2E/DX2                !
 ! D52   D(8,7,11,37)          140.2567         estimate D2E/DX2                !
 ! D53   D(7,8,9,10)             2.9267         estimate D2E/DX2                !
 ! D54   D(14,8,9,10)         -175.9834         estimate D2E/DX2                !
 ! D55   D(7,8,14,13)            9.7471         estimate D2E/DX2                !
 ! D56   D(7,8,14,40)         -112.2006         estimate D2E/DX2                !
 ! D57   D(7,8,14,41)          131.6177         estimate D2E/DX2                !
 ! D58   D(9,8,14,13)         -171.3537         estimate D2E/DX2                !
 ! D59   D(9,8,14,40)           66.6986         estimate D2E/DX2                !
 ! D60   D(9,8,14,41)          -49.483          estimate D2E/DX2                !
 ! D61   D(8,9,10,5)            -3.9205         estimate D2E/DX2                !
 ! D62   D(8,9,10,18)          176.93           estimate D2E/DX2                !
 ! D63   D(7,11,12,13)         -48.4307         estimate D2E/DX2                !
 ! D64   D(7,11,12,19)          68.5818         estimate D2E/DX2                !
 ! D65   D(7,11,12,32)        -166.4777         estimate D2E/DX2                !
 ! D66   D(36,11,12,13)         72.0119         estimate D2E/DX2                !
 ! D67   D(36,11,12,19)       -170.9756         estimate D2E/DX2                !
 ! D68   D(36,11,12,32)        -46.0351         estimate D2E/DX2                !
 ! D69   D(37,11,12,13)       -172.0009         estimate D2E/DX2                !
 ! D70   D(37,11,12,19)        -54.9884         estimate D2E/DX2                !
 ! D71   D(37,11,12,32)         69.9521         estimate D2E/DX2                !
 ! D72   D(11,12,13,14)         60.8535         estimate D2E/DX2                !
 ! D73   D(11,12,13,38)        -60.6495         estimate D2E/DX2                !
 ! D74   D(11,12,13,39)       -178.3925         estimate D2E/DX2                !
 ! D75   D(19,12,13,14)        -61.8889         estimate D2E/DX2                !
 ! D76   D(19,12,13,38)        176.6081         estimate D2E/DX2                !
 ! D77   D(19,12,13,39)         58.8651         estimate D2E/DX2                !
 ! D78   D(32,12,13,14)       -178.8773         estimate D2E/DX2                !
 ! D79   D(32,12,13,38)         59.6198         estimate D2E/DX2                !
 ! D80   D(32,12,13,39)        -58.1232         estimate D2E/DX2                !
 ! D81   D(11,12,19,20)         52.5027         estimate D2E/DX2                !
 ! D82   D(13,12,19,20)        171.2934         estimate D2E/DX2                !
 ! D83   D(32,12,19,20)        -73.1743         estimate D2E/DX2                !
 ! D84   D(11,12,32,33)         49.7063         estimate D2E/DX2                !
 ! D85   D(11,12,32,34)       -131.4999         estimate D2E/DX2                !
 ! D86   D(13,12,32,33)        -68.785          estimate D2E/DX2                !
 ! D87   D(13,12,32,34)        110.0087         estimate D2E/DX2                !
 ! D88   D(19,12,32,33)        177.2053         estimate D2E/DX2                !
 ! D89   D(19,12,32,34)         -4.0009         estimate D2E/DX2                !
 ! D90   D(12,13,14,8)         -41.8979         estimate D2E/DX2                !
 ! D91   D(12,13,14,40)         79.3831         estimate D2E/DX2                !
 ! D92   D(12,13,14,41)       -164.2753         estimate D2E/DX2                !
 ! D93   D(38,13,14,8)          80.2358         estimate D2E/DX2                !
 ! D94   D(38,13,14,40)       -158.4832         estimate D2E/DX2                !
 ! D95   D(38,13,14,41)        -42.1417         estimate D2E/DX2                !
 ! D96   D(39,13,14,8)        -163.8436         estimate D2E/DX2                !
 ! D97   D(39,13,14,40)        -42.5626         estimate D2E/DX2                !
 ! D98   D(39,13,14,41)         73.779          estimate D2E/DX2                !
 ! D99   D(12,19,20,21)        139.2904         estimate D2E/DX2                !
 ! D100  D(12,19,20,25)       -101.7928         estimate D2E/DX2                !
 ! D101  D(12,19,20,47)         20.5635         estimate D2E/DX2                !
 ! D102  D(19,20,21,22)        174.0878         estimate D2E/DX2                !
 ! D103  D(19,20,21,26)        -66.2007         estimate D2E/DX2                !
 ! D104  D(19,20,21,48)         50.8145         estimate D2E/DX2                !
 ! D105  D(25,20,21,22)         56.2092         estimate D2E/DX2                !
 ! D106  D(25,20,21,26)        175.9208         estimate D2E/DX2                !
 ! D107  D(25,20,21,48)        -67.064          estimate D2E/DX2                !
 ! D108  D(47,20,21,22)        -66.0605         estimate D2E/DX2                !
 ! D109  D(47,20,21,26)         53.6511         estimate D2E/DX2                !
 ! D110  D(47,20,21,48)        170.6662         estimate D2E/DX2                !
 ! D111  D(19,20,25,24)       -157.7081         estimate D2E/DX2                !
 ! D112  D(19,20,25,51)         80.7995         estimate D2E/DX2                !
 ! D113  D(19,20,25,52)        -34.5186         estimate D2E/DX2                !
 ! D114  D(21,20,25,24)        -40.2682         estimate D2E/DX2                !
 ! D115  D(21,20,25,51)       -161.7606         estimate D2E/DX2                !
 ! D116  D(21,20,25,52)         82.9213         estimate D2E/DX2                !
 ! D117  D(47,20,25,24)         80.4475         estimate D2E/DX2                !
 ! D118  D(47,20,25,51)        -41.0449         estimate D2E/DX2                !
 ! D119  D(47,20,25,52)       -156.363          estimate D2E/DX2                !
 ! D120  D(20,21,22,23)        -44.3913         estimate D2E/DX2                !
 ! D121  D(20,21,22,27)       -165.1809         estimate D2E/DX2                !
 ! D122  D(20,21,22,49)         78.2338         estimate D2E/DX2                !
 ! D123  D(26,21,22,23)       -166.8973         estimate D2E/DX2                !
 ! D124  D(26,21,22,27)         72.3131         estimate D2E/DX2                !
 ! D125  D(26,21,22,49)        -44.2723         estimate D2E/DX2                !
 ! D126  D(48,21,22,23)         78.4837         estimate D2E/DX2                !
 ! D127  D(48,21,22,27)        -42.3058         estimate D2E/DX2                !
 ! D128  D(48,21,22,49)       -158.8912         estimate D2E/DX2                !
 ! D129  D(20,21,26,53)         28.0145         estimate D2E/DX2                !
 ! D130  D(22,21,26,53)        150.1769         estimate D2E/DX2                !
 ! D131  D(48,21,26,53)        -91.7189         estimate D2E/DX2                !
 ! D132  D(21,22,23,24)         15.5061         estimate D2E/DX2                !
 ! D133  D(21,22,23,50)       -164.793          estimate D2E/DX2                !
 ! D134  D(27,22,23,24)        136.7966         estimate D2E/DX2                !
 ! D135  D(27,22,23,50)        -43.5025         estimate D2E/DX2                !
 ! D136  D(49,22,23,24)       -107.9054         estimate D2E/DX2                !
 ! D137  D(49,22,23,50)         71.7955         estimate D2E/DX2                !
 ! D138  D(21,22,27,54)        -49.1931         estimate D2E/DX2                !
 ! D139  D(23,22,27,54)       -173.5054         estimate D2E/DX2                !
 ! D140  D(49,22,27,54)         69.7272         estimate D2E/DX2                !
 ! D141  D(22,23,24,25)          1.2416         estimate D2E/DX2                !
 ! D142  D(22,23,24,28)        179.6451         estimate D2E/DX2                !
 ! D143  D(50,23,24,25)       -178.4466         estimate D2E/DX2                !
 ! D144  D(50,23,24,28)         -0.0432         estimate D2E/DX2                !
 ! D145  D(23,24,25,20)         11.9593         estimate D2E/DX2                !
 ! D146  D(23,24,25,51)        133.2063         estimate D2E/DX2                !
 ! D147  D(23,24,25,52)       -111.5132         estimate D2E/DX2                !
 ! D148  D(28,24,25,20)       -166.4364         estimate D2E/DX2                !
 ! D149  D(28,24,25,51)        -45.1894         estimate D2E/DX2                !
 ! D150  D(28,24,25,52)         70.0912         estimate D2E/DX2                !
 ! D151  D(23,24,28,29)        171.6712         estimate D2E/DX2                !
 ! D152  D(23,24,28,30)         -8.9959         estimate D2E/DX2                !
 ! D153  D(25,24,28,29)         -9.8708         estimate D2E/DX2                !
 ! D154  D(25,24,28,30)        169.4621         estimate D2E/DX2                !
 ! D155  D(24,28,29,31)        179.2753         estimate D2E/DX2                !
 ! D156  D(30,28,29,31)         -0.0482         estimate D2E/DX2                !
 ! D157  D(28,29,31,55)        179.116          estimate D2E/DX2                !
 ! D158  D(28,29,31,56)        -62.4544         estimate D2E/DX2                !
 ! D159  D(28,29,31,57)         60.5779         estimate D2E/DX2                !
 ! D160  D(12,32,33,58)        177.9915         estimate D2E/DX2                !
 ! D161  D(34,32,33,58)         -0.8778         estimate D2E/DX2                !
 --------------------------------------------------------------------------------
 Trust Radius=3.00D-01 FncErr=1.00D-07 GrdErr=1.00D-06
 Number of steps in this run=    341 maximum allowed number of steps=    348.
 GradGradGradGradGradGradGradGradGradGradGradGradGradGradGradGradGradGrad

 Stoichiometry    C23H24O11
 Framework group  C1[X(C23H24O11)]
 Deg. of freedom   168
 Full point group                 C1      NOp   1
 Largest Abelian subgroup         C1      NOp   1
 Largest concise Abelian subgroup C1      NOp   1
                         Standard orientation:                         
 ---------------------------------------------------------------------
 Center     Atomic      Atomic             Coordinates (Angstroms)
 Number     Number       Type             X           Y           Z
 ---------------------------------------------------------------------
      1          6           0       -4.265790    0.254922    1.163139
      2          6           0       -3.261099   -0.042510    2.087818
      3          6           0       -2.093011   -0.708694    1.709614
      4          6           0       -1.884172   -1.109063    0.383517
      5          6           0       -2.898857   -0.854190   -0.547691
      6          6           0       -4.075241   -0.175261   -0.159497
      7          6           0       -0.639959   -1.765385   -0.053264
      8          6           0       -0.562873   -2.177767   -1.329439
      9          8           0       -1.600653   -1.985518   -2.261072
     10          6           0       -2.739610   -1.311946   -1.946109
     11          6           0        0.534113   -1.916363    0.893903
     12          6           0        1.883571   -2.153090    0.172016
     13          6           0        1.685405   -3.266046   -0.873687
     14          6           0        0.640085   -2.864229   -1.917328
     15          6           0       -5.517047    0.981025    1.573754
     16          8           0       -5.084591    0.097055   -1.052583
     17          8           0       -3.342756    0.290773    3.411139
     18          8           0       -3.621108   -1.096139   -2.773828
     19          8           0        2.368610   -1.014893   -0.572521
     20          6           0        2.475714    0.259171    0.091373
     21          6           0        3.789686    0.919345   -0.372515
     22          6           0        3.918553    2.353810    0.174452
     23          6           0        2.667345    3.158758    0.063132
     24          6           0        1.464544    2.608841   -0.177140
     25          6           0        1.273081    1.127937   -0.327736
     26          8           0        4.944162    0.189584    0.079772
     27          8           0        4.947298    3.033123   -0.542679
     28          6           0        0.276033    3.504510   -0.261440
     29          8           0       -0.801176    2.796531   -0.687852
     30          8           0        0.281066    4.691205    0.025434
     31          6           0       -2.001602    3.563784   -0.787249
     32          6           0        2.963618   -2.627493    1.157329
     33          8           0        2.588442   -3.652636    1.945912
     34          8           0        4.093584   -2.169344    1.250432
     35          1           0       -1.359116   -0.906373    2.486366
     36          1           0        0.304061   -2.754786    1.564459
     37          1           0        0.629974   -1.034365    1.533769
     38          1           0        1.371737   -4.198501   -0.385617
     39          1           0        2.629316   -3.484620   -1.389687
     40          1           0        1.096438   -2.191152   -2.653855
     41          1           0        0.323284   -3.761343   -2.462447
     42          1           0       -5.261458    1.903858    2.105484
     43          1           0       -6.139411    1.274996    0.723692
     44          1           0       -6.121494    0.342819    2.226304
     45          1           0       -4.844719   -0.262748   -1.936387
     46          1           0       -4.209563    0.684863    3.599448
     47          1           0        2.512540    0.124795    1.179272
     48          1           0        3.848628    0.913268   -1.468344
     49          1           0        4.232437    2.332314    1.225098
     50          1           0        2.771381    4.234830    0.192630
     51          1           0        0.412846    0.827361    0.276225
     52          1           0        1.009714    0.907937   -1.370891
     53          1           0        4.686109   -0.751307    0.179003
     54          1           0        5.709006    2.421356   -0.530221
     55          1           0       -2.794866    2.905029   -1.151378
     56          1           0       -2.293034    3.945998    0.196008
     57          1           0       -1.876240    4.383169   -1.501892
     58          1           0        3.384485   -3.855717    2.484024
 ---------------------------------------------------------------------
 Rotational constants (GHZ):      0.1575526      0.0957743      0.0751356
 Standard basis: 6-31G(d) (6D, 7F)
 There are   558 symmetry adapted basis functions of A   symmetry.
 Integral buffers will be    131072 words long.
 Raffenetti 2 integral format.
 Two-electron integral symmetry is turned on.
   558 basis functions,  1048 primitive gaussians,   558 cartesian basis functions
   125 alpha electrons      125 beta electrons
       nuclear repulsion energy      3853.6414753749 Hartrees.
 NAtoms=   58 NActive=   58 NUniq=   58 SFac= 1.00D+00 NAtFMM=   50 NAOKFM=T Big=T
 One-electron integrals computed using PRISM.
 NBasis=   558 RedAO= T  NBF=   558
 NBsUse=   558 1.00D-06 NBFU=   558
 Harris functional with IExCor=  402 diagonalized for initial guess.
 ExpMin= 1.61D-01 ExpMax= 5.48D+03 ExpMxC= 8.25D+02 IAcc=1 IRadAn=         1 AccDes= 0.00D+00
 HarFok:  IExCor=  402 AccDes= 0.00D+00 IRadAn=         1 IDoV= 1
 ScaDFX=  1.000000  1.000000  1.000000  1.000000
 FoFCou: FMM=F IPFlag=           0 FMFlag=      100000 FMFlg1=        2001
         NFxFlg=           0 DoJE=T BraDBF=F KetDBF=T FulRan=T
         Omega=  0.000000  0.000000  1.000000  0.000000  0.000000 ICntrl=     500 IOpCl=  0
         NMat0=    1 NMatS0=    1 NMatT0=    0 NMatD0=    1 NMtDS0=    0 NMtDT0=    0
         I1Cent=           4 NGrid=           0.
 Petite list used in FoFCou.
 Initial guess orbital symmetries:
       Occupied  (A) (A) (A) (A) (A) (A) (A) (A) (A) (A) (A) (A)
                 (A) (A) (A) (A) (A) (A) (A) (A) (A) (A) (A) (A)
                 (A) (A) (A) (A) (A) (A) (A) (A) (A) (A) (A) (A)
                 (A) (A) (A) (A) (A) (A) (A) (A) (A) (A) (A) (A)
                 (A) (A) (A) (A) (A) (A) (A) (A) (A) (A) (A) (A)
                 (A) (A) (A) (A) (A) (A) (A) (A) (A) (A) (A) (A)
                 (A) (A) (A) (A) (A) (A) (A) (A) (A) (A) (A) (A)
                 (A) (A) (A) (A) (A) (A) (A) (A) (A) (A) (A) (A)
                 (A) (A) (A) (A) (A) (A) (A) (A) (A) (A) (A) (A)
                 (A) (A) (A) (A) (A) (A) (A) (A) (A) (A) (A) (A)
                 (A) (A) (A) (A) (A)
       Virtual   (A) (A) (A) (A) (A) (A) (A) (A) (A) (A) (A) (A)
                 (A) (A) (A) (A) (A) (A) (A) (A) (A) (A) (A) (A)
                 (A) (A) (A) (A) (A) (A) (A) (A) (A) (A) (A) (A)
                 (A) (A) (A) (A) (A) (A) (A) (A) (A) (A) (A) (A)
                 (A) (A) (A) (A) (A) (A) (A) (A) (A) (A) (A) (A)
                 (A) (A) (A) (A) (A) (A) (A) (A) (A) (A) (A) (A)
                 (A) (A) (A) (A) (A) (A) (A) (A) (A) (A) (A) (A)
                 (A) (A) (A) (A) (A) (A) (A) (A) (A) (A) (A) (A)
                 (A) (A) (A) (A) (A) (A) (A) (A) (A) (A) (A) (A)
                 (A) (A) (A) (A) (A) (A) (A) (A) (A) (A) (A) (A)
                 (A) (A) (A) (A) (A) (A) (A) (A) (A) (A) (A) (A)
                 (A) (A) (A) (A) (A) (A) (A) (A) (A) (A) (A) (A)
                 (A) (A) (A) (A) (A) (A) (A) (A) (A) (A) (A) (A)
                 (A) (A) (A) (A) (A) (A) (A) (A) (A) (A) (A) (A)
                 (A) (A) (A) (A) (A) (A) (A) (A) (A) (A) (A) (A)
                 (A) (A) (A) (A) (A) (A) (A) (A) (A) (A) (A) (A)
                 (A) (A) (A) (A) (A) (A) (A) (A) (A) (A) (A) (A)
                 (A) (A) (A) (A) (A) (A) (A) (A) (A) (A) (A) (A)
                 (A) (A) (A) (A) (A) (A) (A) (A) (A) (A) (A) (A)
                 (A) (A) (A) (A) (A) (A) (A) (A) (A) (A) (A) (A)
                 (A) (A) (A) (A) (A) (A) (A) (A) (A) (A) (A) (A)
                 (A) (A) (A) (A) (A) (A) (A) (A) (A) (A) (A) (A)
                 (A) (A) (A) (A) (A) (A) (A) (A) (A) (A) (A) (A)
                 (A) (A) (A) (A) (A) (A) (A) (A) (A) (A) (A) (A)
                 (A) (A) (A) (A) (A) (A) (A) (A) (A) (A) (A) (A)
                 (A) (A) (A) (A) (A) (A) (A) (A) (A) (A) (A) (A)
                 (A) (A) (A) (A) (A) (A) (A) (A) (A) (A) (A) (A)
                 (A) (A) (A) (A) (A) (A) (A) (A) (A) (A) (A) (A)
                 (A) (A) (A) (A) (A) (A) (A) (A) (A) (A) (A) (A)
                 (A) (A) (A) (A) (A) (A) (A) (A) (A) (A) (A) (A)
                 (A) (A) (A) (A) (A) (A) (A) (A) (A) (A) (A) (A)
                 (A) (A) (A) (A) (A) (A) (A) (A) (A) (A) (A) (A)
                 (A) (A) (A) (A) (A) (A) (A) (A) (A) (A) (A) (A)
                 (A) (A) (A) (A) (A) (A) (A) (A) (A) (A) (A) (A)
                 (A) (A) (A) (A) (A) (A) (A) (A) (A) (A) (A) (A)
                 (A) (A) (A) (A) (A) (A) (A) (A) (A) (A) (A) (A)
                 (A)
 The electronic state of the initial guess is 1-A.
 Requested convergence on RMS density matrix=1.00D-08 within 128 cycles.
 Requested convergence on MAX density matrix=1.00D-06.
 Requested convergence on             energy=1.00D-06.
 No special actions if energy rises.
 Integral accuracy reduced to 1.0D-05 until final iterations.
 Initial convergence to 1.0D-05 achieved.  Increase integral accuracy.
 SCF Done:  E(RB3LYP) =  -1718.35993351     A.U. after   15 cycles
             Convg  =    0.4200D-08             -V/T =  2.0091

 **********************************************************************

            Population analysis using the SCF density.

 **********************************************************************

 Orbital symmetries:
       Occupied  (A) (A) (A) (A) (A) (A) (A) (A) (A) (A) (A) (A)
                 (A) (A) (A) (A) (A) (A) (A) (A) (A) (A) (A) (A)
                 (A) (A) (A) (A) (A) (A) (A) (A) (A) (A) (A) (A)
                 (A) (A) (A) (A) (A) (A) (A) (A) (A) (A) (A) (A)
                 (A) (A) (A) (A) (A) (A) (A) (A) (A) (A) (A) (A)
                 (A) (A) (A) (A) (A) (A) (A) (A) (A) (A) (A) (A)
                 (A) (A) (A) (A) (A) (A) (A) (A) (A) (A) (A) (A)
                 (A) (A) (A) (A) (A) (A) (A) (A) (A) (A) (A) (A)
                 (A) (A) (A) (A) (A) (A) (A) (A) (A) (A) (A) (A)
                 (A) (A) (A) (A) (A) (A) (A) (A) (A) (A) (A) (A)
                 (A) (A) (A) (A) (A)
       Virtual   (A) (A) (A) (A) (A) (A) (A) (A) (A) (A) (A) (A)
                 (A) (A) (A) (A) (A) (A) (A) (A) (A) (A) (A) (A)
                 (A) (A) (A) (A) (A) (A) (A) (A) (A) (A) (A) (A)
                 (A) (A) (A) (A) (A) (A) (A) (A) (A) (A) (A) (A)
                 (A) (A) (A) (A) (A) (A) (A) (A) (A) (A) (A) (A)
                 (A) (A) (A) (A) (A) (A) (A) (A) (A) (A) (A) (A)
                 (A) (A) (A) (A) (A) (A) (A) (A) (A) (A) (A) (A)
                 (A) (A) (A) (A) (A) (A) (A) (A) (A) (A) (A) (A)
                 (A) (A) (A) (A) (A) (A) (A) (A) (A) (A) (A) (A)
                 (A) (A) (A) (A) (A) (A) (A) (A) (A) (A) (A) (A)
                 (A) (A) (A) (A) (A) (A) (A) (A) (A) (A) (A) (A)
                 (A) (A) (A) (A) (A) (A) (A) (A) (A) (A) (A) (A)
                 (A) (A) (A) (A) (A) (A) (A) (A) (A) (A) (A) (A)
                 (A) (A) (A) (A) (A) (A) (A) (A) (A) (A) (A) (A)
                 (A) (A) (A) (A) (A) (A) (A) (A) (A) (A) (A) (A)
                 (A) (A) (A) (A) (A) (A) (A) (A) (A) (A) (A) (A)
                 (A) (A) (A) (A) (A) (A) (A) (A) (A) (A) (A) (A)
                 (A) (A) (A) (A) (A) (A) (A) (A) (A) (A) (A) (A)
                 (A) (A) (A) (A) (A) (A) (A) (A) (A) (A) (A) (A)
                 (A) (A) (A) (A) (A) (A) (A) (A) (A) (A) (A) (A)
                 (A) (A) (A) (A) (A) (A) (A) (A) (A) (A) (A) (A)
                 (A) (A) (A) (A) (A) (A) (A) (A) (A) (A) (A) (A)
                 (A) (A) (A) (A) (A) (A) (A) (A) (A) (A) (A) (A)
                 (A) (A) (A) (A) (A) (A) (A) (A) (A) (A) (A) (A)
                 (A) (A) (A) (A) (A) (A) (A) (A) (A) (A) (A) (A)
                 (A) (A) (A) (A) (A) (A) (A) (A) (A) (A) (A) (A)
                 (A) (A) (A) (A) (A) (A) (A) (A) (A) (A) (A) (A)
                 (A) (A) (A) (A) (A) (A) (A) (A) (A) (A) (A) (A)
                 (A) (A) (A) (A) (A) (A) (A) (A) (A) (A) (A) (A)
                 (A) (A) (A) (A) (A) (A) (A) (A) (A) (A) (A) (A)
                 (A) (A) (A) (A) (A) (A) (A) (A) (A) (A) (A) (A)
                 (A) (A) (A) (A) (A) (A) (A) (A) (A) (A) (A) (A)
                 (A) (A) (A) (A) (A) (A) (A) (A) (A) (A) (A) (A)
                 (A) (A) (A) (A) (A) (A) (A) (A) (A) (A) (A) (A)
                 (A) (A) (A) (A) (A) (A) (A) (A) (A) (A) (A) (A)
                 (A) (A) (A) (A) (A) (A) (A) (A) (A) (A) (A) (A)
                 (A)
 The electronic state is 1-A.
 Alpha  occ. eigenvalues --  -19.23394 -19.22994 -19.19942 -19.19491 -19.17903
 Alpha  occ. eigenvalues --  -19.17811 -19.17116 -19.14884 -19.13417 -19.13157
 Alpha  occ. eigenvalues --  -19.12384 -10.35573 -10.33696 -10.31247 -10.29568
 Alpha  occ. eigenvalues --  -10.27912 -10.27273 -10.27147 -10.25392 -10.23809
 Alpha  occ. eigenvalues --  -10.23601 -10.23223 -10.22791 -10.22791 -10.22311
 Alpha  occ. eigenvalues --  -10.22277 -10.21876 -10.21084 -10.20878 -10.20427
 Alpha  occ. eigenvalues --  -10.20130 -10.19765 -10.19668 -10.19423  -1.14519
 Alpha  occ. eigenvalues --   -1.12531  -1.09870  -1.07911  -1.06119  -1.05863
 Alpha  occ. eigenvalues --   -1.04213  -1.03125  -1.01656  -1.00966  -0.98916
 Alpha  occ. eigenvalues --   -0.88507  -0.86613  -0.83920  -0.81501  -0.79548
 Alpha  occ. eigenvalues --   -0.77812  -0.76418  -0.75386  -0.74241  -0.71348
 Alpha  occ. eigenvalues --   -0.71187  -0.69956  -0.66877  -0.65944  -0.64592
 Alpha  occ. eigenvalues --   -0.63279  -0.62603  -0.61881  -0.59556  -0.58154
 Alpha  occ. eigenvalues --   -0.57564  -0.55524  -0.54479  -0.53725  -0.53309
 Alpha  occ. eigenvalues --   -0.52854  -0.51504  -0.50935  -0.50335  -0.49843
 Alpha  occ. eigenvalues --   -0.49413  -0.48633  -0.48227  -0.47843  -0.47495
 Alpha  occ. eigenvalues --   -0.46843  -0.46736  -0.46208  -0.45775  -0.45217
 Alpha  occ. eigenvalues --   -0.45126  -0.44439  -0.43550  -0.43387  -0.42814
 Alpha  occ. eigenvalues --   -0.42560  -0.42346  -0.41578  -0.41532  -0.40912
 Alpha  occ. eigenvalues --   -0.40418  -0.40054  -0.39874  -0.39327  -0.39138
 Alpha  occ. eigenvalues --   -0.38694  -0.38124  -0.38004  -0.37652  -0.37506
 Alpha  occ. eigenvalues --   -0.36239  -0.35654  -0.35513  -0.35415  -0.35012
 Alpha  occ. eigenvalues --   -0.34055  -0.33699  -0.33357  -0.32424  -0.30285
 Alpha  occ. eigenvalues --   -0.30139  -0.29260  -0.28544  -0.27213  -0.26979
 Alpha  occ. eigenvalues --   -0.26843  -0.25373  -0.24737  -0.23931  -0.22481
 Alpha virt. eigenvalues --   -0.04746  -0.03771  -0.03605  -0.03023   0.03001
 Alpha virt. eigenvalues --    0.04440   0.04990   0.05553   0.06596   0.07247
 Alpha virt. eigenvalues --    0.07917   0.09460   0.09821   0.10548   0.10825
 Alpha virt. eigenvalues --    0.11667   0.11948   0.12570   0.12855   0.13409
 Alpha virt. eigenvalues --    0.13709   0.14094   0.14257   0.14758   0.15456
 Alpha virt. eigenvalues --    0.15705   0.16149   0.16602   0.16797   0.16968
 Alpha virt. eigenvalues --    0.17266   0.17621   0.17742   0.18120   0.18892
 Alpha virt. eigenvalues --    0.19635   0.19964   0.20135   0.20647   0.21050
 Alpha virt. eigenvalues --    0.22452   0.22966   0.23485   0.23979   0.24139
 Alpha virt. eigenvalues --    0.24859   0.25299   0.26141   0.26924   0.27122
 Alpha virt. eigenvalues --    0.28252   0.28991   0.29657   0.30813   0.31784
 Alpha virt. eigenvalues --    0.32428   0.33145   0.34091   0.36301   0.37524
 Alpha virt. eigenvalues --    0.39130   0.39619   0.40335   0.40651   0.42510
 Alpha virt. eigenvalues --    0.42653   0.44752   0.46411   0.47358   0.48942
 Alpha virt. eigenvalues --    0.49452   0.50046   0.50615   0.50732   0.51694
 Alpha virt. eigenvalues --    0.52291   0.52809   0.53604   0.54131   0.54456
 Alpha virt. eigenvalues --    0.54654   0.55190   0.56176   0.56310   0.56792
 Alpha virt. eigenvalues --    0.57088   0.58043   0.58319   0.58495   0.58926
 Alpha virt. eigenvalues --    0.59479   0.59855   0.60729   0.60967   0.61277
 Alpha virt. eigenvalues --    0.62149   0.62618   0.62962   0.63722   0.64149
 Alpha virt. eigenvalues --    0.64493   0.65366   0.65692   0.66089   0.67177
 Alpha virt. eigenvalues --    0.67685   0.68028   0.68980   0.69680   0.70147
 Alpha virt. eigenvalues --    0.70987   0.71422   0.71676   0.72525   0.73442
 Alpha virt. eigenvalues --    0.73629   0.74058   0.74309   0.75052   0.75314
 Alpha virt. eigenvalues --    0.75645   0.76038   0.76699   0.76994   0.78693
 Alpha virt. eigenvalues --    0.78915   0.79352   0.80422   0.81851   0.82615
 Alpha virt. eigenvalues --    0.82877   0.83257   0.83768   0.83940   0.84600
 Alpha virt. eigenvalues --    0.85114   0.85706   0.86000   0.86811   0.87073
 Alpha virt. eigenvalues --    0.87492   0.88448   0.88669   0.89395   0.90223
 Alpha virt. eigenvalues --    0.90392   0.90935   0.91390   0.92177   0.92721
 Alpha virt. eigenvalues --    0.93113   0.93666   0.93731   0.94695   0.94781
 Alpha virt. eigenvalues --    0.95528   0.95830   0.97184   0.97840   0.98009
 Alpha virt. eigenvalues --    0.98506   0.99153   0.99534   1.00087   1.00342
 Alpha virt. eigenvalues --    1.00880   1.01539   1.02368   1.02824   1.03586
 Alpha virt. eigenvalues --    1.03681   1.04965   1.05245   1.07044   1.07639
 Alpha virt. eigenvalues --    1.08408   1.08662   1.09540   1.09984   1.11593
 Alpha virt. eigenvalues --    1.11825   1.12357   1.13730   1.15502   1.16623
 Alpha virt. eigenvalues --    1.17095   1.18517   1.18856   1.20560   1.20965
 Alpha virt. eigenvalues --    1.21439   1.21941   1.22978   1.23829   1.24619
 Alpha virt. eigenvalues --    1.25066   1.26180   1.26846   1.27363   1.28043
 Alpha virt. eigenvalues --    1.28853   1.31221   1.31668   1.33137   1.33599
 Alpha virt. eigenvalues --    1.34392   1.35713   1.36361   1.37102   1.37388
 Alpha virt. eigenvalues --    1.38087   1.38878   1.39575   1.40224   1.40753
 Alpha virt. eigenvalues --    1.41786   1.42136   1.42902   1.43437   1.44564
 Alpha virt. eigenvalues --    1.45226   1.45807   1.47350   1.48754   1.49559
 Alpha virt. eigenvalues --    1.51110   1.51663   1.54381   1.55956   1.58743
 Alpha virt. eigenvalues --    1.59949   1.61543   1.61896   1.62615   1.63621
 Alpha virt. eigenvalues --    1.66014   1.66534   1.67408   1.67753   1.68769
 Alpha virt. eigenvalues --    1.69416   1.69939   1.70260   1.70637   1.70989
 Alpha virt. eigenvalues --    1.71878   1.72751   1.73225   1.73841   1.74181
 Alpha virt. eigenvalues --    1.74428   1.75513   1.76199   1.76355   1.77089
 Alpha virt. eigenvalues --    1.77321   1.78229   1.79217   1.79662   1.80233
 Alpha virt. eigenvalues --    1.80805   1.81252   1.82301   1.82657   1.83094
 Alpha virt. eigenvalues --    1.84062   1.84411   1.84881   1.85689   1.85876
 Alpha virt. eigenvalues --    1.86709   1.87399   1.88416   1.88500   1.89269
 Alpha virt. eigenvalues --    1.89785   1.90528   1.90943   1.91891   1.93090
 Alpha virt. eigenvalues --    1.93245   1.93998   1.94335   1.95316   1.95652
 Alpha virt. eigenvalues --    1.96529   1.97647   1.98349   1.98930   1.99678
 Alpha virt. eigenvalues --    2.00324   2.00777   2.01831   2.03012   2.03606
 Alpha virt. eigenvalues --    2.04604   2.04930   2.05463   2.06112   2.06339
 Alpha virt. eigenvalues --    2.07214   2.08755   2.09641   2.10918   2.11806
 Alpha virt. eigenvalues --    2.12724   2.13192   2.13638   2.14791   2.15647
 Alpha virt. eigenvalues --    2.18338   2.19706   2.20788   2.21375   2.23056
 Alpha virt. eigenvalues --    2.23822   2.24431   2.26433   2.27094   2.27272
 Alpha virt. eigenvalues --    2.27616   2.28886   2.29651   2.30058   2.30277
 Alpha virt. eigenvalues --    2.30705   2.31672   2.32661   2.33925   2.34580
 Alpha virt. eigenvalues --    2.35231   2.35966   2.36222   2.37657   2.37933
 Alpha virt. eigenvalues --    2.38375   2.39417   2.40941   2.42007   2.42335
 Alpha virt. eigenvalues --    2.43529   2.44431   2.44906   2.46569   2.47957
 Alpha virt. eigenvalues --    2.48465   2.49013   2.50881   2.51973   2.53044
 Alpha virt. eigenvalues --    2.54336   2.55228   2.56010   2.56406   2.58217
 Alpha virt. eigenvalues --    2.59743   2.60561   2.61093   2.63452   2.64413
 Alpha virt. eigenvalues --    2.65457   2.66299   2.66929   2.68976   2.69505
 Alpha virt. eigenvalues --    2.70405   2.71289   2.73315   2.73850   2.75892
 Alpha virt. eigenvalues --    2.76435   2.76886   2.77281   2.79005   2.81043
 Alpha virt. eigenvalues --    2.82536   2.83681   2.85949   2.86684   2.90624
 Alpha virt. eigenvalues --    2.91400   2.93289   2.94601   2.95737   2.95961
 Alpha virt. eigenvalues --    2.98657   3.01018   3.01785   3.04040   3.04910
 Alpha virt. eigenvalues --    3.06563   3.10262   3.12281   3.16460   3.17785
 Alpha virt. eigenvalues --    3.22547   3.23477   3.40555   3.49203   3.78079
 Alpha virt. eigenvalues --    3.84101   3.95923   3.96716   3.99701   3.99823
 Alpha virt. eigenvalues --    4.05150   4.08333   4.09424   4.15540   4.16892
 Alpha virt. eigenvalues --    4.17665   4.20507   4.22679   4.23644   4.25428
 Alpha virt. eigenvalues --    4.26757   4.32502   4.33396   4.36885   4.38318
 Alpha virt. eigenvalues --    4.39355   4.44781   4.48023   4.50078   4.52679
 Alpha virt. eigenvalues --    4.54073   4.56996   4.59728   4.64717   4.72558
 Alpha virt. eigenvalues --    4.74351   4.78626   4.87083
          Condensed to atoms (all electrons):
 Mulliken atomic charges:
              1
     1  C    0.113872
     2  C    0.296870
     3  C   -0.273124
     4  C    0.127362
     5  C   -0.061882
     6  C    0.228718
     7  C    0.070015
     8  C    0.283759
     9  O   -0.513456
    10  C    0.640143
    11  C   -0.373445
    12  C    0.237701
    13  C   -0.304738
    14  C   -0.339794
    15  C   -0.573727
    16  O   -0.673880
    17  O   -0.641544
    18  O   -0.534745
    19  O   -0.537414
    20  C    0.080807
    21  C    0.117233
    22  C    0.106213
    23  C   -0.136617
    24  C    0.050631
    25  C   -0.350311
    26  O   -0.700802
    27  O   -0.644068
    28  C    0.601254
    29  O   -0.459937
    30  O   -0.491381
    31  C   -0.224477
    32  C    0.601524
    33  O   -0.563802
    34  O   -0.480991
    35  H    0.137139
    36  H    0.190908
    37  H    0.172494
    38  H    0.171209
    39  H    0.170587
    40  H    0.192599
    41  H    0.174670
    42  H    0.156167
    43  H    0.207877
    44  H    0.166780
    45  H    0.450817
    46  H    0.420303
    47  H    0.138794
    48  H    0.138686
    49  H    0.142786
    50  H    0.177958
    51  H    0.164455
    52  H    0.175040
    53  H    0.434820
    54  H    0.407042
    55  H    0.171065
    56  H    0.166136
    57  H    0.171983
    58  H    0.423717
 Sum of Mulliken atomic charges =   0.00000
 Mulliken charges with hydrogens summed into heavy atoms:
              1
     1  C    0.113872
     2  C    0.296870
     3  C   -0.135985
     4  C    0.127362
     5  C   -0.061882
     6  C    0.228718
     7  C    0.070015
     8  C    0.283759
     9  O   -0.513456
    10  C    0.640143
    11  C   -0.010043
    12  C    0.237701
    13  C    0.037058
    14  C    0.027475
    15  C   -0.042903
    16  O   -0.223063
    17  O   -0.221242
    18  O   -0.534745
    19  O   -0.537414
    20  C    0.219601
    21  C    0.255918
    22  C    0.248999
    23  C    0.041341
    24  C    0.050631
    25  C   -0.010816
    26  O   -0.265983
    27  O   -0.237026
    28  C    0.601254
    29  O   -0.459937
    30  O   -0.491381
    31  C    0.284708
    32  C    0.601524
    33  O   -0.140084
    34  O   -0.480991
 Sum of Mulliken charges with hydrogens summed into heavy atoms =   0.00000
 Electronic spatial extent (au):  <R**2>=          14927.0193
 Charge=              0.0000 electrons
 Dipole moment (field-independent basis, Debye):
    X=             -1.9134    Y=             -5.5122    Z=              3.8831  Tot=              7.0089
 Quadrupole moment (field-independent basis, Debye-Ang):
   XX=           -202.1255   YY=           -197.3071   ZZ=           -191.6845
   XY=            -26.4171   XZ=            -10.6102   YZ=             -3.2929
 Traceless Quadrupole moment (field-independent basis, Debye-Ang):
   XX=             -5.0865   YY=             -0.2680   ZZ=              5.3545
   XY=            -26.4171   XZ=            -10.6102   YZ=             -3.2929
 Octapole moment (field-independent basis, Debye-Ang**2):
  XXX=            -86.0087  YYY=           -164.5509  ZZZ=             41.3167  XYY=              3.7126
  XXY=             -1.2357  XXZ=             94.2616  XZZ=             25.5603  YZZ=              1.9136
  YYZ=             12.0844  XYZ=             -6.2431
 Hexadecapole moment (field-independent basis, Debye-Ang**3):
 XXXX=         -10885.3743 YYYY=          -6161.4539 ZZZZ=          -2265.9461 XXXY=           -337.9231
 XXXZ=           -334.5507 YYYX=           -457.4383 YYYZ=            -92.5158 ZZZX=            -69.8533
 ZZZY=            -89.6719 XXYY=          -2669.9726 XXZZ=          -1988.9166 YYZZ=          -1237.0277
 XXYZ=            -11.5452 YYXZ=            142.6248 ZZXY=           -198.6751
 N-N= 3.853641475375D+03 E-N=-1.172044037485D+04  KE= 1.702866811134D+03
 Calling FoFJK, ICntrl=      2127 FMM=T ISym2X=0 I1Cent= 0 IOpClX= 0 NMat=1 NMatS=1 NMatT=0.
 ***** Axes restored to original set *****
 -------------------------------------------------------------------
 Center     Atomic                   Forces (Hartrees/Bohr)
 Number     Number              X              Y              Z
 -------------------------------------------------------------------
      1        6          -0.000895197   -0.008568791    0.000887184
      2        6          -0.003816086    0.006080049   -0.002223181
      3        6          -0.007377561    0.005900488   -0.000951380
      4        6           0.003057358    0.022493080    0.000097660
      5        6          -0.020431629   -0.017435848   -0.004248760
      6        6           0.008244020   -0.023505771    0.002896682
      7        6           0.012004119   -0.008294163    0.007964606
      8        6          -0.002044761   -0.007813686   -0.001951367
      9        8          -0.009555121    0.008283131   -0.002329056
     10        6           0.035430406    0.015968805    0.008355290
     11        6           0.002670130   -0.001959111   -0.003217317
     12        6          -0.003637529   -0.003208476    0.002898825
     13        6          -0.002793558   -0.004248602   -0.004155593
     14        6           0.000697632   -0.010291771    0.004457125
     15        6           0.000019094   -0.000059911    0.001804748
     16        8           0.005282593    0.021730111    0.000397762
     17        8           0.000123551   -0.005031475    0.000229558
     18        8          -0.024579973   -0.004957705   -0.006146024
     19        8           0.005141012    0.008494177   -0.018586903
     20        6          -0.005038117   -0.009488591    0.014843071
     21        6          -0.003165198    0.016237693   -0.017140218
     22        6          -0.011486640   -0.002921085    0.001649391
     23        6           0.002726035   -0.005460813   -0.000391261
     24        6          -0.002641575    0.011027860    0.007432553
     25        6           0.003493040   -0.000847545   -0.007025074
     26        8           0.006349833   -0.002885927    0.003844691
     27        8          -0.007303491    0.000503741    0.001572671
     28        6          -0.005188782    0.010166493    0.003443307
     29        8           0.004376624   -0.000120851    0.007691866
     30        8           0.000148623   -0.009615235   -0.011599484
     31        6           0.007379265   -0.008372340   -0.000778718
     32        6          -0.006940661    0.013371723    0.009516603
     33        8           0.000609150   -0.000852683   -0.001096410
     34        8           0.004739304   -0.010355152   -0.005335929
     35        1           0.000370061   -0.001900726    0.000496526
     36        1          -0.004385362    0.004701842    0.001564554
     37        1           0.002039120   -0.001355983    0.000032329
     38        1           0.002023388    0.003235774    0.003427254
     39        1           0.002020397    0.001430082    0.001743550
     40        1          -0.000079771   -0.001241199   -0.000331299
     41        1           0.000459871   -0.001935146    0.000703059
     42        1           0.003791454    0.002175143    0.000554269
     43        1          -0.003668197    0.001589785   -0.002841088
     44        1           0.005090332    0.000131733    0.000219641
     45        1          -0.006625077    0.005384305   -0.001655047
     46        1          -0.000849685   -0.000606527    0.000452638
     47        1          -0.000516929    0.000239644    0.001048259
     48        1           0.008755541   -0.006805764    0.005715343
     49        1           0.003623922    0.002805061   -0.008938080
     50        1           0.000091104   -0.001908590   -0.001405769
     51        1           0.001027203   -0.004395327   -0.000315533
     52        1          -0.000871170    0.001655041   -0.002900141
     53        1           0.000071692    0.001274209    0.005501909
     54        1           0.003364887   -0.000809231    0.003042569
     55        1          -0.004238946    0.002712017   -0.002651207
     56        1          -0.001416350   -0.000112200    0.003760020
     57        1           0.001737628    0.003339632    0.001389716
     58        1           0.002588977   -0.003565394   -0.001420390
 -------------------------------------------------------------------
 Cartesian Forces:  Max     0.035430406 RMS     0.007285325

 GradGradGradGradGradGradGradGradGradGradGradGradGradGradGradGradGradGrad
 Berny optimization.
 Internal  Forces:  Max     0.027364601 RMS     0.004474711
 Search for a local minimum.
 Step number   1 out of a maximum of  341
 All quantities printed in internal units (Hartrees-Bohrs-Radians)
 Mixed Optimization -- RFO/linear search
 Second derivative matrix not updated -- first step.
 ITU=  0
     Eigenvalues ---    0.00276   0.00489   0.00492   0.00527   0.00562
     Eigenvalues ---    0.00715   0.00758   0.00890   0.01110   0.01161
     Eigenvalues ---    0.01178   0.01230   0.01269   0.01318   0.01320
     Eigenvalues ---    0.01345   0.01353   0.01367   0.01424   0.01512
     Eigenvalues ---    0.01649   0.01709   0.01755   0.01807   0.01911
     Eigenvalues ---    0.01982   0.02023   0.02036   0.02101   0.02110
     Eigenvalues ---    0.02126   0.02127   0.02251   0.02397   0.02798
     Eigenvalues ---    0.02959   0.03167   0.03411   0.03687   0.04032
     Eigenvalues ---    0.04269   0.04681   0.04836   0.04927   0.04989
     Eigenvalues ---    0.05180   0.05400   0.05699   0.05729   0.05776
     Eigenvalues ---    0.06045   0.06414   0.06953   0.07070   0.07217
     Eigenvalues ---    0.07321   0.07815   0.08074   0.08198   0.08272
     Eigenvalues ---    0.09395   0.09522   0.09544   0.09828   0.10027
     Eigenvalues ---    0.10112   0.10503   0.11491   0.11847   0.14285
     Eigenvalues ---    0.14602   0.15658   0.16000   0.16000   0.16000
     Eigenvalues ---    0.16000   0.16000   0.16000   0.16000   0.16000
     Eigenvalues ---    0.16000   0.16000   0.16000   0.16012   0.16717
     Eigenvalues ---    0.16745   0.18684   0.19447   0.19793   0.21747
     Eigenvalues ---    0.23050   0.23520   0.24331   0.24937   0.24989
     Eigenvalues ---    0.24989   0.24992   0.24993   0.24996   0.24998
     Eigenvalues ---    0.24999   0.24999   0.24999   0.25000   0.25000
     Eigenvalues ---    0.25000   0.25000   0.26924   0.27044   0.27457
     Eigenvalues ---    0.27546   0.27850   0.28560   0.28732   0.30343
     Eigenvalues ---    0.31303   0.31579   0.31980   0.32588   0.32667
     Eigenvalues ---    0.33384   0.33881   0.33888   0.33908   0.33935
     Eigenvalues ---    0.33968   0.33998   0.34040   0.34045   0.34071
     Eigenvalues ---    0.34207   0.34269   0.34303   0.34304   0.34370
     Eigenvalues ---    0.34379   0.34407   0.34444   0.34671   0.34950
     Eigenvalues ---    0.35191   0.37778   0.38383   0.39437   0.39730
     Eigenvalues ---    0.40852   0.41258   0.41540   0.43226   0.44392
     Eigenvalues ---    0.45240   0.45482   0.45974   0.49719   0.50183
     Eigenvalues ---    0.50208   0.50658   0.50982   0.51541   0.51963
     Eigenvalues ---    0.52613   0.53249   0.53408   0.54016   0.55734
     Eigenvalues ---    0.91577   0.93230   0.94991
 RFO step:  Lambda=-2.51343506D-02 EMin= 2.76394281D-03
 Linear search not attempted -- first point.
 Iteration  1 RMS(Cart)=  0.09616351 RMS(Int)=  0.00220012
 Iteration  2 RMS(Cart)=  0.00597341 RMS(Int)=  0.00040450
 Iteration  3 RMS(Cart)=  0.00001367 RMS(Int)=  0.00040447
 Iteration  4 RMS(Cart)=  0.00000003 RMS(Int)=  0.00040447
 Variable       Old X    -DE/DX   Delta X   Delta X   Delta X     New X
                                 (Linear)    (Quad)   (Total)
    R1        2.64082   0.00613   0.00000   0.01163   0.01193   2.65276
    R2        2.65285  -0.00104   0.00000  -0.00242  -0.00251   2.65034
    R3        2.84181   0.00391   0.00000   0.01132   0.01132   2.85313
    R4        2.63972   0.00200   0.00000   0.00336   0.00375   2.64347
    R5        2.58342  -0.00472   0.00000  -0.00874  -0.00874   2.57468
    R6        2.64726  -0.00444   0.00000  -0.00904  -0.00895   2.63832
    R7        2.05366  -0.00198   0.00000  -0.00526  -0.00526   2.04839
    R8        2.64676   0.01145   0.00000   0.02672   0.02608   2.67284
    R9        2.78349  -0.00953   0.00000  -0.02386  -0.02378   2.75971
   R10        2.66948   0.00134   0.00000   0.00506   0.00359   2.67307
   R11        2.79684  -0.01008   0.00000  -0.02486  -0.02612   2.77072
   R12        2.59832  -0.02736   0.00000  -0.05170  -0.05195   2.54637
   R13        2.53859   0.00335   0.00000   0.00577   0.00615   2.54474
   R14        2.86489  -0.00226   0.00000  -0.00610  -0.00610   2.85879
   R15        2.66035  -0.02050   0.00000  -0.04568  -0.04533   2.61501
   R16        2.84336  -0.00636   0.00000  -0.01767  -0.01771   2.82565
   R17        2.57039  -0.00241   0.00000  -0.00530  -0.00535   2.56504
   R18        2.32116  -0.00115   0.00000  -0.00140  -0.00128   2.31987
   R19        2.92645  -0.00181   0.00000  -0.00786  -0.00780   2.91865
   R20        2.07485  -0.00083   0.00000  -0.00227  -0.00227   2.07257
   R21        2.06710   0.00025   0.00000   0.00068   0.00068   2.06779
   R22        2.91008   0.00078   0.00000   0.00267   0.00266   2.91273
   R23        2.72874  -0.01468   0.00000  -0.03417  -0.03507   2.69367
   R24        2.90453  -0.00257   0.00000  -0.00763  -0.00795   2.89658
   R25        2.89279   0.00335   0.00000   0.00921   0.00922   2.90200
   R26        2.07532  -0.00208   0.00000  -0.00572  -0.00572   2.06961
   R27        2.07440  -0.00174   0.00000  -0.00479  -0.00479   2.06961
   R28        2.07334   0.00018   0.00000   0.00051   0.00051   2.07384
   R29        2.07210   0.00043   0.00000   0.00119   0.00119   2.07329
   R30        2.06982   0.00274   0.00000   0.00746   0.00746   2.07727
   R31        2.06695  -0.00260   0.00000  -0.00706  -0.00706   2.05989
   R32        2.06878   0.00295   0.00000   0.00802   0.00802   2.07680
   R33        1.85935   0.00491   0.00000   0.00827   0.00930   1.86864
   R34        1.83422  -0.00050   0.00000  -0.00090  -0.00090   1.83332
   R35        3.21424   0.00340   0.00000   0.02782   0.02896   3.24320
   R36        2.72243   0.00456   0.00000   0.01134   0.01084   2.73327
   R37        2.91382  -0.00578   0.00000  -0.01539  -0.01634   2.89749
   R38        2.91333   0.00100   0.00000   0.00270   0.00267   2.91599
   R39        2.07262  -0.00032   0.00000  -0.00086  -0.00086   2.07176
   R40        2.91132  -0.00702   0.00000  -0.02261  -0.02262   2.88871
   R41        2.71880  -0.00787   0.00000  -0.01896  -0.01868   2.70011
   R42        2.07384   0.00114   0.00000   0.00312   0.00312   2.07697
   R43        2.81934   0.00325   0.00000   0.00901   0.00911   2.82845
   R44        2.69513   0.00604   0.00000   0.01371   0.01371   2.70885
   R45        2.07254   0.00458   0.00000   0.01252   0.01252   2.08506
   R46        2.54017  -0.00397   0.00000  -0.00719  -0.00702   2.53315
   R47        2.05757  -0.00160   0.00000  -0.00428  -0.00428   2.05329
   R48        2.83611   0.00781   0.00000   0.02169   0.02177   2.85788
   R49        2.81683   0.00366   0.00000   0.01019   0.01019   2.82702
   R50        2.06588   0.00098   0.00000   0.00265   0.00265   2.06853
   R51        2.07520  -0.00088   0.00000  -0.00242  -0.00242   2.07278
   R52        1.85320  -0.00421   0.00000  -0.00862  -0.00777   1.84543
   R53        1.84634  -0.00431   0.00000  -0.00791  -0.00791   1.83844
   R54        2.56574  -0.00164   0.00000  -0.00292  -0.00292   2.56282
   R55        2.30714  -0.01227   0.00000  -0.01258  -0.01258   2.29456
   R56        2.69879   0.00457   0.00000   0.01044   0.01044   2.70922
   R57        2.06648  -0.00100   0.00000  -0.00272  -0.00272   2.06376
   R58        2.06820  -0.00065   0.00000  -0.00176  -0.00176   2.06645
   R59        2.06821  -0.00085   0.00000  -0.00232  -0.00232   2.06589
   R60        2.54485   0.00184   0.00000   0.00315   0.00315   2.54801
   R61        2.31088  -0.01097   0.00000  -0.01162  -0.01113   2.29975
   R62        1.85587  -0.00414   0.00000  -0.00775  -0.00775   1.84813
   R63        3.54034   0.00156   0.00000   0.01376   0.01467   3.55500
    A1        2.04948  -0.00062   0.00000  -0.00176  -0.00221   2.04727
    A2        2.11799  -0.00087   0.00000  -0.00337  -0.00315   2.11483
    A3        2.11549   0.00149   0.00000   0.00522   0.00544   2.12093
    A4        2.12180   0.00414   0.00000   0.01468   0.01471   2.13650
    A5        2.14799  -0.00702   0.00000  -0.02533  -0.02535   2.12263
    A6        2.01340   0.00288   0.00000   0.01065   0.01063   2.02403
    A7        2.11444  -0.00584   0.00000  -0.02180  -0.02198   2.09246
    A8        2.04647   0.00289   0.00000   0.01070   0.01078   2.05725
    A9        2.12226   0.00296   0.00000   0.01108   0.01117   2.13343
   A10        2.05937   0.00570   0.00000   0.02189   0.02145   2.08082
   A11        2.13410   0.00397   0.00000   0.00818   0.00903   2.14313
   A12        2.08965  -0.00967   0.00000  -0.03001  -0.03044   2.05921
   A13        2.10372  -0.00375   0.00000  -0.01487  -0.01398   2.08974
   A14        2.08745   0.00264   0.00000   0.01077   0.01167   2.09912
   A15        2.09197   0.00111   0.00000   0.00410   0.00230   2.09428
   A16        2.11674   0.00039   0.00000   0.00217   0.00229   2.11902
   A17        2.03939   0.00502   0.00000   0.01363   0.01545   2.05484
   A18        2.12706  -0.00541   0.00000  -0.01580  -0.01774   2.10932
   A19        2.05664   0.00434   0.00000   0.01726   0.01720   2.07384
   A20        2.10980  -0.00111   0.00000  -0.00620  -0.00620   2.10359
   A21        2.11590  -0.00320   0.00000  -0.01062  -0.01061   2.10529
   A22        2.14653   0.00140   0.00000   0.00160   0.00179   2.14831
   A23        2.16169   0.00820   0.00000   0.03330   0.03318   2.19487
   A24        1.97480  -0.00960   0.00000  -0.03486  -0.03493   1.93987
   A25        2.13135   0.00078   0.00000  -0.00109  -0.00155   2.12980
   A26        2.05110   0.00053   0.00000   0.00212   0.00194   2.05304
   A27        2.10036   0.02580   0.00000   0.09630   0.09508   2.19544
   A28        2.13163  -0.02633   0.00000  -0.09845  -0.09705   2.03458
   A29        1.98104  -0.00180   0.00000  -0.01031  -0.01017   1.97087
   A30        1.87061   0.00535   0.00000   0.04249   0.04243   1.91304
   A31        1.93161  -0.00157   0.00000  -0.01284  -0.01282   1.91879
   A32        1.92895  -0.00449   0.00000  -0.03198  -0.03184   1.89711
   A33        1.89607   0.00298   0.00000   0.01633   0.01625   1.91232
   A34        1.85129  -0.00049   0.00000  -0.00385  -0.00376   1.84753
   A35        1.89113   0.00249   0.00000   0.01273   0.01238   1.90351
   A36        1.99607   0.00104   0.00000   0.00152   0.00207   1.99813
   A37        1.93979  -0.00234   0.00000  -0.00727  -0.00687   1.93292
   A38        1.83669  -0.00300   0.00000  -0.01751  -0.01722   1.81947
   A39        1.87829   0.00085   0.00000   0.00264   0.00298   1.88127
   A40        1.91537   0.00100   0.00000   0.00766   0.00649   1.92186
   A41        1.94026   0.00055   0.00000   0.00107   0.00118   1.94144
   A42        1.92688  -0.00362   0.00000  -0.02701  -0.02707   1.89981
   A43        1.93098  -0.00082   0.00000  -0.01332  -0.01334   1.91764
   A44        1.90797   0.00311   0.00000   0.02209   0.02206   1.93003
   A45        1.89544  -0.00022   0.00000   0.00653   0.00641   1.90185
   A46        1.86026   0.00110   0.00000   0.01196   0.01153   1.87179
   A47        1.98158  -0.00645   0.00000  -0.02859  -0.02853   1.95304
   A48        1.89120   0.00153   0.00000   0.00783   0.00796   1.89916
   A49        1.91401   0.00110   0.00000  -0.00360  -0.00351   1.91050
   A50        1.91205   0.00280   0.00000   0.01656   0.01657   1.92862
   A51        1.89807   0.00288   0.00000   0.01456   0.01435   1.91242
   A52        1.86330  -0.00162   0.00000  -0.00558  -0.00574   1.85757
   A53        1.92325   0.00374   0.00000   0.02222   0.02212   1.94537
   A54        1.97252  -0.00707   0.00000  -0.03928  -0.03904   1.93348
   A55        1.91843   0.00584   0.00000   0.03062   0.03054   1.94897
   A56        1.85837   0.00202   0.00000   0.01252   0.01273   1.87110
   A57        1.90778  -0.00436   0.00000  -0.02133  -0.02173   1.88605
   A58        1.88154  -0.00048   0.00000  -0.00628  -0.00604   1.87551
   A59        1.90927  -0.01946   0.00000  -0.10118  -0.10211   1.80716
   A60        1.91784  -0.00156   0.00000  -0.00845  -0.00845   1.90939
   A61        2.07653   0.01131   0.00000   0.04296   0.04207   2.11860
   A62        1.87901  -0.00127   0.00000  -0.00618  -0.00715   1.87186
   A63        1.89135   0.00040   0.00000   0.00754   0.00797   1.89932
   A64        1.92969   0.00046   0.00000  -0.00236  -0.00233   1.92736
   A65        1.91952   0.00302   0.00000   0.01693   0.01735   1.93687
   A66        1.89891  -0.00213   0.00000  -0.01266  -0.01298   1.88593
   A67        1.94431  -0.00046   0.00000  -0.00311  -0.00291   1.94139
   A68        1.94241   0.00386   0.00000   0.01490   0.01496   1.95737
   A69        1.95202   0.00414   0.00000   0.02976   0.02916   1.98117
   A70        1.92177  -0.00407   0.00000  -0.02912  -0.02992   1.89185
   A71        1.86874  -0.00754   0.00000  -0.03744  -0.03702   1.83171
   A72        1.93390  -0.00196   0.00000  -0.03704  -0.03695   1.89696
   A73        1.84211   0.00555   0.00000   0.06052   0.06042   1.90253
   A74        1.98856  -0.00175   0.00000  -0.00864  -0.00894   1.97963
   A75        1.90213   0.00338   0.00000   0.01834   0.01839   1.92053
   A76        1.92389  -0.00460   0.00000  -0.04220  -0.04233   1.88156
   A77        1.88644  -0.00083   0.00000   0.00172   0.00196   1.88840
   A78        1.89871   0.00190   0.00000   0.00351   0.00258   1.90130
   A79        1.85937   0.00225   0.00000   0.03100   0.03123   1.89060
   A80        2.14485   0.00121   0.00000   0.00723   0.00721   2.15206
   A81        2.03109   0.00092   0.00000   0.00460   0.00461   2.03570
   A82        2.10723  -0.00213   0.00000  -0.01185  -0.01185   2.09538
   A83        2.13622   0.00108   0.00000   0.00514   0.00504   2.14126
   A84        2.06889  -0.00269   0.00000  -0.01024  -0.01028   2.05861
   A85        2.07775   0.00164   0.00000   0.00558   0.00554   2.08329
   A86        2.01446  -0.00542   0.00000  -0.02033  -0.02060   1.99387
   A87        1.88463   0.00391   0.00000   0.02973   0.03000   1.91463
   A88        1.90968  -0.00120   0.00000  -0.02135  -0.02130   1.88838
   A89        1.89257   0.00167   0.00000   0.01079   0.01099   1.90356
   A90        1.90032   0.00329   0.00000   0.01642   0.01602   1.91634
[...]
     50          1           0        3.377424    3.960678    0.297847
     51          1           0        0.487195    0.934504    0.198766
     52          1           0        1.227876    0.944699   -1.379313
     53          1           0        4.591358   -1.230736    0.127611
     54          1           0        6.083478    1.711503    0.033905
     55          1           0       -2.255494    3.578126   -1.172381
     56          1           0       -1.545873    4.711758    0.027246
     57          1           0       -1.073661    4.830427   -1.683019
     58          1           0        2.796226   -4.276435    2.346389
 ---------------------------------------------------------------------
 Rotational constants (GHZ):      0.1544117      0.0917336      0.0721935

 **********************************************************************

            Population analysis using the SCF density.

 **********************************************************************

 Orbital symmetries:
       Occupied  (A) (A) (A) (A) (A) (A) (A) (A) (A) (A) (A) (A)
                 (A) (A) (A) (A) (A) (A) (A) (A) (A) (A) (A) (A)
                 (A) (A) (A) (A) (A) (A) (A) (A) (A) (A) (A) (A)
                 (A) (A) (A) (A) (A) (A) (A) (A) (A) (A) (A) (A)
                 (A) (A) (A) (A) (A) (A) (A) (A) (A) (A) (A) (A)
                 (A) (A) (A) (A) (A) (A) (A) (A) (A) (A) (A) (A)
                 (A) (A) (A) (A) (A) (A) (A) (A) (A) (A) (A) (A)
                 (A) (A) (A) (A) (A) (A) (A) (A) (A) (A) (A) (A)
                 (A) (A) (A) (A) (A) (A) (A) (A) (A) (A) (A) (A)
                 (A) (A) (A) (A) (A) (A) (A) (A) (A) (A) (A) (A)
                 (A) (A) (A) (A) (A)
       Virtual   (A) (A) (A) (A) (A) (A) (A) (A) (A) (A) (A) (A)
                 (A) (A) (A) (A) (A) (A) (A) (A) (A) (A) (A) (A)
                 (A) (A) (A) (A) (A) (A) (A) (A) (A) (A) (A) (A)
                 (A) (A) (A) (A) (A) (A) (A) (A) (A) (A) (A) (A)
                 (A) (A) (A) (A) (A) (A) (A) (A) (A) (A) (A) (A)
                 (A) (A) (A) (A) (A) (A) (A) (A) (A) (A) (A) (A)
                 (A) (A) (A) (A) (A) (A) (A) (A) (A) (A) (A) (A)
                 (A) (A) (A) (A) (A) (A) (A) (A) (A) (A) (A) (A)
                 (A) (A) (A) (A) (A) (A) (A) (A) (A) (A) (A) (A)
                 (A) (A) (A) (A) (A) (A) (A) (A) (A) (A) (A) (A)
                 (A) (A) (A) (A) (A) (A) (A) (A) (A) (A) (A) (A)
                 (A) (A) (A) (A) (A) (A) (A) (A) (A) (A) (A) (A)
                 (A) (A) (A) (A) (A) (A) (A) (A) (A) (A) (A) (A)
                 (A) (A) (A) (A) (A) (A) (A) (A) (A) (A) (A) (A)
                 (A) (A) (A) (A) (A) (A) (A) (A) (A) (A) (A) (A)
                 (A) (A) (A) (A) (A) (A) (A) (A) (A) (A) (A) (A)
                 (A) (A) (A) (A) (A) (A) (A) (A) (A) (A) (A) (A)
                 (A) (A) (A) (A) (A) (A) (A) (A) (A) (A) (A) (A)
                 (A) (A) (A) (A) (A) (A) (A) (A) (A) (A) (A) (A)
                 (A) (A) (A) (A) (A) (A) (A) (A) (A) (A) (A) (A)
                 (A) (A) (A) (A) (A) (A) (A) (A) (A) (A) (A) (A)
                 (A) (A) (A) (A) (A) (A) (A) (A) (A) (A) (A) (A)
                 (A) (A) (A) (A) (A) (A) (A) (A) (A) (A) (A) (A)
                 (A) (A) (A) (A) (A) (A) (A) (A) (A) (A) (A) (A)
                 (A) (A) (A) (A) (A) (A) (A) (A) (A) (A) (A) (A)
                 (A) (A) (A) (A) (A) (A) (A) (A) (A) (A) (A) (A)
                 (A) (A) (A) (A) (A) (A) (A) (A) (A) (A) (A) (A)
                 (A) (A) (A) (A) (A) (A) (A) (A) (A) (A) (A) (A)
                 (A) (A) (A) (A) (A) (A) (A) (A) (A) (A) (A) (A)
                 (A) (A) (A) (A) (A) (A) (A) (A) (A) (A) (A) (A)
                 (A) (A) (A) (A) (A) (A) (A) (A) (A) (A) (A) (A)
                 (A) (A) (A) (A) (A) (A) (A) (A) (A) (A) (A) (A)
                 (A) (A) (A) (A) (A) (A) (A) (A) (A) (A) (A) (A)
                 (A) (A) (A) (A) (A) (A) (A) (A) (A) (A) (A) (A)
                 (A) (A) (A) (A) (A) (A) (A) (A) (A) (A) (A) (A)
                 (A) (A) (A) (A) (A) (A) (A) (A) (A) (A) (A) (A)
                 (A)
 The electronic state is 1-A.
 Alpha  occ. eigenvalues --  -19.23172 -19.22473 -19.20076 -19.19104 -19.17785
 Alpha  occ. eigenvalues --  -19.17722 -19.17582 -19.14704 -19.13701 -19.13278
 Alpha  occ. eigenvalues --  -19.12903 -10.35183 -10.33229 -10.31097 -10.29001
 Alpha  occ. eigenvalues --  -10.27564 -10.27509 -10.27423 -10.25508 -10.23842
 Alpha  occ. eigenvalues --  -10.23794 -10.23289 -10.23017 -10.22154 -10.21901
 Alpha  occ. eigenvalues --  -10.21799 -10.21534 -10.21167 -10.20832 -10.20688
 Alpha  occ. eigenvalues --  -10.20323 -10.19928 -10.19831 -10.19740  -1.14241
 Alpha  occ. eigenvalues --   -1.12901  -1.09772  -1.08345  -1.07144  -1.06457
 Alpha  occ. eigenvalues --   -1.04578  -1.03302  -1.02410  -1.00765  -0.99897
 Alpha  occ. eigenvalues --   -0.88324  -0.86376  -0.84117  -0.81398  -0.79370
 Alpha  occ. eigenvalues --   -0.77688  -0.76745  -0.75609  -0.74351  -0.71428
 Alpha  occ. eigenvalues --   -0.71353  -0.69670  -0.66939  -0.66502  -0.64831
 Alpha  occ. eigenvalues --   -0.63322  -0.62665  -0.61926  -0.59273  -0.58067
 Alpha  occ. eigenvalues --   -0.57740  -0.55712  -0.54799  -0.53938  -0.53340
 Alpha  occ. eigenvalues --   -0.52867  -0.51582  -0.51152  -0.50528  -0.50147
 Alpha  occ. eigenvalues --   -0.49589  -0.48544  -0.47984  -0.47795  -0.47437
 Alpha  occ. eigenvalues --   -0.46813  -0.46663  -0.46252  -0.45720  -0.45174
 Alpha  occ. eigenvalues --   -0.45092  -0.44257  -0.43707  -0.43325  -0.42814
 Alpha  occ. eigenvalues --   -0.42574  -0.42325  -0.41823  -0.41652  -0.41007
 Alpha  occ. eigenvalues --   -0.40403  -0.40286  -0.40007  -0.39713  -0.39198
 Alpha  occ. eigenvalues --   -0.38839  -0.38369  -0.38057  -0.37742  -0.37485
 Alpha  occ. eigenvalues --   -0.36269  -0.35705  -0.35589  -0.35497  -0.35002
 Alpha  occ. eigenvalues --   -0.34364  -0.34071  -0.33032  -0.32433  -0.30443
 Alpha  occ. eigenvalues --   -0.29969  -0.29265  -0.28830  -0.27492  -0.26961
 Alpha  occ. eigenvalues --   -0.26718  -0.25978  -0.24865  -0.23980  -0.22306
 Alpha virt. eigenvalues --   -0.05093  -0.03782  -0.03422  -0.02660   0.03322
 Alpha virt. eigenvalues --    0.04627   0.05224   0.05682   0.07355   0.07476
 Alpha virt. eigenvalues --    0.07820   0.09648   0.10816   0.11145   0.11364
 Alpha virt. eigenvalues --    0.12059   0.12271   0.12830   0.13080   0.13343
 Alpha virt. eigenvalues --    0.13781   0.14082   0.14695   0.15114   0.15493
 Alpha virt. eigenvalues --    0.15994   0.16405   0.16721   0.16930   0.17287
 Alpha virt. eigenvalues --    0.17512   0.17734   0.17893   0.18186   0.18922
 Alpha virt. eigenvalues --    0.19751   0.20102   0.20452   0.21042   0.21223
 Alpha virt. eigenvalues --    0.22171   0.22692   0.23680   0.24084   0.24253
 Alpha virt. eigenvalues --    0.25414   0.25824   0.26245   0.27247   0.27305
 Alpha virt. eigenvalues --    0.28641   0.29959   0.30317   0.30674   0.31993
 Alpha virt. eigenvalues --    0.32612   0.32874   0.33945   0.36376   0.37894
 Alpha virt. eigenvalues --    0.39073   0.39837   0.40230   0.40783   0.42660
 Alpha virt. eigenvalues --    0.43041   0.44942   0.46670   0.47799   0.49310
 Alpha virt. eigenvalues --    0.49649   0.50246   0.50850   0.51106   0.51821
 Alpha virt. eigenvalues --    0.52027   0.52628   0.53365   0.53443   0.54580
 Alpha virt. eigenvalues --    0.54735   0.55101   0.55564   0.56266   0.56796
 Alpha virt. eigenvalues --    0.57072   0.57421   0.58110   0.58512   0.58864
 Alpha virt. eigenvalues --    0.59449   0.60212   0.60634   0.61371   0.61557
 Alpha virt. eigenvalues --    0.61826   0.62356   0.62710   0.63264   0.63500
 Alpha virt. eigenvalues --    0.64523   0.65395   0.65726   0.66230   0.66953
 Alpha virt. eigenvalues --    0.67443   0.67778   0.68954   0.69342   0.70068
 Alpha virt. eigenvalues --    0.70847   0.71018   0.71717   0.72483   0.73627
 Alpha virt. eigenvalues --    0.73769   0.73860   0.74431   0.74741   0.75189
 Alpha virt. eigenvalues --    0.75593   0.75882   0.77369   0.77619   0.79057
 Alpha virt. eigenvalues --    0.79183   0.79750   0.80624   0.81790   0.82386
 Alpha virt. eigenvalues --    0.82687   0.83481   0.83654   0.84482   0.84534
 Alpha virt. eigenvalues --    0.84902   0.85145   0.85860   0.86416   0.86724
 Alpha virt. eigenvalues --    0.87777   0.88517   0.88895   0.89158   0.90238
 Alpha virt. eigenvalues --    0.90749   0.91168   0.91308   0.91978   0.92743
 Alpha virt. eigenvalues --    0.92843   0.93594   0.94179   0.94814   0.95215
 Alpha virt. eigenvalues --    0.95797   0.96066   0.96792   0.97640   0.98226
 Alpha virt. eigenvalues --    0.98968   0.99284   0.99547   1.00043   1.00286
 Alpha virt. eigenvalues --    1.00630   1.01138   1.02176   1.02496   1.02902
 Alpha virt. eigenvalues --    1.03535   1.03936   1.05301   1.07055   1.07573
 Alpha virt. eigenvalues --    1.07988   1.08824   1.09308   1.10106   1.11426
 Alpha virt. eigenvalues --    1.11659   1.12181   1.14381   1.15151   1.17497
 Alpha virt. eigenvalues --    1.18130   1.18963   1.19902   1.20882   1.21054
 Alpha virt. eigenvalues --    1.21955   1.22570   1.23404   1.23614   1.25450
 Alpha virt. eigenvalues --    1.25794   1.26716   1.27314   1.28206   1.28629
 Alpha virt. eigenvalues --    1.29446   1.31326   1.33413   1.33576   1.34121
 Alpha virt. eigenvalues --    1.35270   1.35564   1.35991   1.36846   1.37288
 Alpha virt. eigenvalues --    1.38028   1.38341   1.39925   1.40497   1.40761
 Alpha virt. eigenvalues --    1.41975   1.42550   1.42700   1.43477   1.44733
 Alpha virt. eigenvalues --    1.45018   1.45342   1.46243   1.49096   1.50548
 Alpha virt. eigenvalues --    1.51949   1.52490   1.56105   1.56630   1.59894
 Alpha virt. eigenvalues --    1.60335   1.61425   1.62275   1.63763   1.64006
 Alpha virt. eigenvalues --    1.65831   1.66644   1.67691   1.68405   1.68892
 Alpha virt. eigenvalues --    1.69774   1.69993   1.70404   1.70529   1.71723
 Alpha virt. eigenvalues --    1.71898   1.72405   1.72977   1.73431   1.74138
 Alpha virt. eigenvalues --    1.74538   1.75431   1.75708   1.76159   1.76902
 Alpha virt. eigenvalues --    1.77635   1.78187   1.79134   1.80108   1.80197
 Alpha virt. eigenvalues --    1.80634   1.81411   1.82357   1.83304   1.83612
 Alpha virt. eigenvalues --    1.84074   1.84431   1.84855   1.85544   1.85827
 Alpha virt. eigenvalues --    1.87189   1.87450   1.88405   1.88975   1.89878
 Alpha virt. eigenvalues --    1.90504   1.90891   1.91295   1.91539   1.92345
 Alpha virt. eigenvalues --    1.93484   1.94868   1.95065   1.95197   1.96145
 Alpha virt. eigenvalues --    1.97078   1.97829   1.98567   1.99379   1.99688
 Alpha virt. eigenvalues --    2.00187   2.00794   2.02149   2.03435   2.03630
 Alpha virt. eigenvalues --    2.04321   2.04657   2.05014   2.05657   2.06582
 Alpha virt. eigenvalues --    2.08174   2.09389   2.09645   2.11637   2.11936
 Alpha virt. eigenvalues --    2.12500   2.13640   2.14224   2.15941   2.16297
 Alpha virt. eigenvalues --    2.18584   2.20458   2.20880   2.21532   2.22570
 Alpha virt. eigenvalues --    2.23929   2.25107   2.26090   2.26801   2.27520
 Alpha virt. eigenvalues --    2.27765   2.28089   2.29231   2.29467   2.29822
 Alpha virt. eigenvalues --    2.31250   2.31906   2.32909   2.33601   2.34651
 Alpha virt. eigenvalues --    2.35110   2.35563   2.37766   2.38732   2.38971
 Alpha virt. eigenvalues --    2.39246   2.39977   2.41885   2.42448   2.42724
 Alpha virt. eigenvalues --    2.43345   2.44728   2.46839   2.46952   2.47456
 Alpha virt. eigenvalues --    2.47956   2.48880   2.50750   2.51805   2.54168
 Alpha virt. eigenvalues --    2.54947   2.55517   2.56104   2.56738   2.57931
 Alpha virt. eigenvalues --    2.59449   2.60506   2.60940   2.63438   2.64827
 Alpha virt. eigenvalues --    2.66611   2.66866   2.68587   2.69285   2.69551
 Alpha virt. eigenvalues --    2.70835   2.71347   2.73738   2.74610   2.76524
 Alpha virt. eigenvalues --    2.77492   2.77777   2.78308   2.80737   2.81091
 Alpha virt. eigenvalues --    2.82647   2.83776   2.86489   2.86851   2.90396
 Alpha virt. eigenvalues --    2.91657   2.93122   2.95461   2.96159   2.97084
 Alpha virt. eigenvalues --    2.98741   3.00752   3.02694   3.05037   3.06100
 Alpha virt. eigenvalues --    3.07178   3.11357   3.12641   3.17114   3.17865
 Alpha virt. eigenvalues --    3.23215   3.23768   3.43514   3.49867   3.81366
 Alpha virt. eigenvalues --    3.84484   3.95306   3.96759   3.98852   3.99587
 Alpha virt. eigenvalues --    4.05728   4.09190   4.09706   4.15395   4.16802
 Alpha virt. eigenvalues --    4.18304   4.21324   4.22350   4.25042   4.25457
 Alpha virt. eigenvalues --    4.26300   4.32080   4.34459   4.35708   4.38799
 Alpha virt. eigenvalues --    4.39707   4.44795   4.48107   4.51589   4.54229
 Alpha virt. eigenvalues --    4.54452   4.57002   4.60330   4.65292   4.72197
 Alpha virt. eigenvalues --    4.74147   4.78942   4.87336
          Condensed to atoms (all electrons):
 Mulliken atomic charges:
              1
     1  C    0.109374
     2  C    0.301357
     3  C   -0.274661
     4  C    0.144955
     5  C   -0.059929
     6  C    0.237064
     7  C    0.053624
     8  C    0.288932
     9  O   -0.498433
    10  C    0.601099
    11  C   -0.376695
    12  C    0.237422
    13  C   -0.302376
    14  C   -0.339584
    15  C   -0.585953
    16  O   -0.659567
    17  O   -0.637404
    18  O   -0.536387
    19  O   -0.538724
    20  C    0.090046
    21  C    0.127988
    22  C    0.110409
    23  C   -0.147718
    24  C    0.054624
    25  C   -0.352606
    26  O   -0.692537
    27  O   -0.643034
    28  C    0.595733
    29  O   -0.467165
    30  O   -0.491446
    31  C   -0.217777
    32  C    0.598584
    33  O   -0.566821
    34  O   -0.475801
    35  H    0.140857
    36  H    0.192131
    37  H    0.167235
    38  H    0.166894
    39  H    0.168573
    40  H    0.194028
    41  H    0.175957
    42  H    0.161713
    43  H    0.209980
    44  H    0.162879
    45  H    0.449459
    46  H    0.422965
    47  H    0.132244
    48  H    0.129914
    49  H    0.134477
    50  H    0.181699
    51  H    0.168895
    52  H    0.174375
    53  H    0.437264
    54  H    0.411131
    55  H    0.166912
    56  H    0.169321
    57  H    0.172568
    58  H    0.421935
 Sum of Mulliken atomic charges =   0.00000
 Mulliken charges with hydrogens summed into heavy atoms:
              1
     1  C    0.109374
     2  C    0.301357
     3  C   -0.133804
     4  C    0.144955
     5  C   -0.059929
     6  C    0.237064
     7  C    0.053624
     8  C    0.288932
     9  O   -0.498433
    10  C    0.601099
    11  C   -0.017329
    12  C    0.237422
    13  C    0.033091
    14  C    0.030402
    15  C   -0.051381
    16  O   -0.210108
    17  O   -0.214439
    18  O   -0.536387
    19  O   -0.538724
    20  C    0.222290
    21  C    0.257902
    22  C    0.244886
    23  C    0.033981
    24  C    0.054624
    25  C   -0.009337
    26  O   -0.255273
    27  O   -0.231903
    28  C    0.595733
    29  O   -0.467165
    30  O   -0.491446
    31  C    0.291025
    32  C    0.598584
    33  O   -0.144886
    34  O   -0.475801
 Sum of Mulliken charges with hydrogens summed into heavy atoms =   0.00000
 Electronic spatial extent (au):  <R**2>=          15464.1409
 Charge=              0.0000 electrons
 Dipole moment (field-independent basis, Debye):
    X=             -2.6735    Y=             -4.9127    Z=              3.9600  Tot=              6.8530
 Quadrupole moment (field-independent basis, Debye-Ang):
   XX=           -207.9044   YY=           -193.4978   ZZ=           -191.7759
   XY=            -26.4128   XZ=            -12.1710   YZ=             -3.3469
 Traceless Quadrupole moment (field-independent basis, Debye-Ang):
   XX=            -10.1784   YY=              4.2282   ZZ=              5.9502
   XY=            -26.4128   XZ=            -12.1710   YZ=             -3.3469
 Octapole moment (field-independent basis, Debye-Ang**2):
  XXX=            -98.5760  YYY=           -162.9858  ZZZ=             41.1087  XYY=            -25.9237
  XXY=             -0.6546  XXZ=            103.2229  XZZ=             29.4198  YZZ=              0.6417
  YYZ=             13.4271  XYZ=            -12.5319
 Hexadecapole moment (field-independent basis, Debye-Ang**3):
 XXXX=         -11484.1648 YYYY=          -6088.7337 ZZZZ=          -2327.8054 XXXY=           -328.8605
 XXXZ=           -364.4928 YYYX=           -578.0430 YYYZ=           -159.7339 ZZZX=           -104.0897
 ZZZY=            -82.3118 XXYY=          -2898.4327 XXZZ=          -2123.4776 YYZZ=          -1220.4030
 XXYZ=             29.6162 YYXZ=            122.7052 ZZXY=           -185.2920
 N-N= 3.821913315555D+03 E-N=-1.165706691465D+04  KE= 1.703108226841D+03
 1\1\GINC-B0803\FOpt\RB3LYP\6-31G(d)\C23H24O11\CAOFEI\02-Feb-2021\0\\# 
 opt b3lyp/6-31g(d) geom=connectivity\\Title Card Required\\0,1\C,4.137
 125525,-1.4861063913,-1.2123224524\C,3.7227287605,-0.144163914,-1.2569
 357999\C,2.3874435021,0.2319248716,-1.4442626951\C,1.4084420479,-0.747
 8891042,-1.5981808031\C,1.7909731058,-2.1170329442,-1.5665147843\C,3.1
 548405963,-2.4743553235,-1.3699055075\C,-0.0015749121,-0.4430307895,-1
 .7957125\C,-0.8707181692,-1.4610868879,-1.9758085042\O,-0.4910525852,-
 2.7779673635,-1.9506727348\C,0.8102766807,-3.1613742122,-1.7377226182\
 C,-0.481164114,0.9933265582,-1.8101707439\C,-2.0134710786,1.1348934585
 ,-1.6645834863\C,-2.7127672771,0.1166223929,-2.5990629335\C,-2.3432854
 323,-1.3167561532,-2.2066428272\C,5.5870911466,-1.8505301191,-1.006686
 0552\O,3.536890253,-3.7612948471,-1.3308941322\O,4.6149854996,0.872798
 6397,-1.1185830247\O,1.0340223381,-4.3708911991,-1.7198559577\O,-2.516
 1385431,0.8366135793,-0.3724692483\C,-1.9278936278,1.4100329922,0.8153
 219867\C,-3.081350997,1.8099101609,1.7392682459\C,-2.534657305,2.41628
 97062,3.0358440579\C,-1.4959514048,1.5410422398,3.6665876641\C,-0.7914
 971353,0.6374812898,2.9693324206\C,-1.0205571992,0.3688083477,1.495098
 5333\O,-3.9446886706,2.78426925,1.1893505323\O,-3.5830209995,2.6415139
 692,3.9673897239\C,0.2323384533,-0.1605368197,3.7056694665\O,0.8095176
 817,-1.0875067412,2.9017718326\O,0.528484868,-0.0242677851,4.876181308
 4\C,1.799002997,-1.9150175246,3.5316175172\C,-2.4993170983,2.533807519
 2,-2.0902816662\O,-1.9065132883,2.9762661499,-3.219346153\O,-3.3730318
 22,3.1668073103,-1.5352385032\H,2.1570231259,1.2896770976,-1.473780104
 6\H,-0.1725226223,1.4804986222,-2.7415616393\H,0.0090317458,1.55504067
 15,-1.0075078696\H,-2.4075098084,0.3231975619,-3.630474494\H,-3.796330
 594,0.2563450976,-2.532629364\H,-2.8816019978,-1.6121353341,-1.2977820
 537\H,-2.6501142347,-2.0151881762,-2.9941820054\H,5.9762218066,-1.4696
 930804,-0.0512261627\H,5.706088312,-2.9346098908,-0.997141332\H,6.2280
 110138,-1.458637289,-1.8097998784\H,2.719397089,-4.3122160957,-1.46291
 04506\H,5.5052404863,0.5078290668,-0.9952819879\H,-1.3647300369,2.3168
 143256,0.5546251615\H,-3.64121882,0.8957885621,1.9990733947\H,-2.06622
 52924,3.3820450085,2.7667568682\H,-1.3042935946,1.6725633231,4.7279595
 719\H,-0.0603093815,0.2975309575,0.9752592509\H,-1.4914138857,-0.61532
 26194,1.3723498228\H,-3.9736424119,2.6750666899,0.2198600703\H,-4.2607
 866166,3.1357586509,3.4752072205\H,2.1598105173,-2.5851611233,2.750725
 5315\H,2.6161252965,-1.3043199788,3.9250390746\H,1.3561896168,-2.48366
 54641,4.3537319089\H,-2.3279515496,3.8301930905,-3.437890692\\Version=
 EM64L-G09RevB.01\State=1-A\HF=-1718.3756464\RMSD=7.131e-09\RMSF=4.212e
 -06\Dipole=1.05789,0.9056022,-2.3087059\Quadrupole=13.4499956,-4.98255
 07,-8.4674449,2.9990646,11.6101054,-15.3151125\PG=C01 [X(C23H24O11)]\\
 @


 VIRTUE IS LEARNED AT YOUR MOTHER'S KNEE,
 VICES ARE PICKED UP AT SOME OTHER JOINT.
 Job cpu time:  0 days  4 hours 34 minutes 26.3 seconds.
 File lengths (MBytes):  RWF=    201 Int=      0 D2E=      0 Chk=     21 Scr=      1
 Normal termination of Gaussian 09 at Tue Feb  2 11:41:53 2021.
