 Entering Gaussian System, Link 0=g09
 Initial command:
 /public/software/g09/g09/l1.exe /tmp/Gau-11046.inp -scrdir=/tmp/
 Entering Link 1 = /public/software/g09/g09/l1.exe PID=     11047.
  
 Copyright (c) 1988,1990,1992,1993,1995,1998,2003,2009,2010,
            Gaussian, Inc.  All Rights Reserved.
  
 This is part of the Gaussian(R) 09 program.  It is based on
 the Gaussian(R) 03 system (copyright 2003, Gaussian, Inc.),
 the Gaussian(R) 98 system (copyright 1998, Gaussian, Inc.),
 the Gaussian(R) 94 system (copyright 1995, Gaussian, Inc.),
 the Gaussian 92(TM) system (copyright 1992, Gaussian, Inc.),
 the Gaussian 90(TM) system (copyright 1990, Gaussian, Inc.),
 the Gaussian 88(TM) system (copyright 1988, Gaussian, Inc.),
 the Gaussian 86(TM) system (copyright 1986, Carnegie Mellon
 University), and the Gaussian 82(TM) system (copyright 1983,
 Carnegie Mellon University). Gaussian is a federally registered
 trademark of Gaussian, Inc.
  
 This software contains proprietary and confidential information,
 including trade secrets, belonging to Gaussian, Inc.
  
 This software is provided under written license and may be
 used, copied, transmitted, or stored only in accord with that
 written license.
  
 The following legend is applicable only to US Government
 contracts under FAR:
  
                    RESTRICTED RIGHTS LEGEND
  
 Use, reproduction and disclosure by the US Government is
 subject to restrictions as set forth in subparagraphs (a)
 and (c) of the Commercial Computer Software - Restricted
 Rights clause in FAR 52.227-19.
  
 Gaussian, Inc.
 340 Quinnipiac St., Bldg. 40, Wallingford CT 06492
  
  
 ---------------------------------------------------------------
 Warning -- This program may not be used in any manner that
 competes with the business of Gaussian, Inc. or will provide
 assistance to any competitor of Gaussian, Inc.  The licensee
 of this program is prohibited from giving any competitor of
 Gaussian, Inc. access to this program.  By using this program,
 the user acknowledges that Gaussian, Inc. is engaged in the
 business of creating and licensing software in the field of
 computational chemistry and represents and warrants to the
 licensee that it is not a competitor of Gaussian, Inc. and that
 it will not use this program in any manner prohibited above.
 ---------------------------------------------------------------
  

 Cite this work as:
 Gaussian 09, Revision B.01,
 M. J. Frisch, G. W. Trucks, H. B. Schlegel, G. E. Scuseria, 
 M. A. Robb, J. R. Cheeseman, G. Scalmani, V. Barone, B. Mennucci, 
 G. A. Petersson, H. Nakatsuji, M. Caricato, X. Li, H. P. Hratchian, 
 A. F. Izmaylov, J. Bloino, G. Zheng, J. L. Sonnenberg, M. Hada, 
 M. Ehara, K. Toyota, R. Fukuda, J. Hasegawa, M. Ishida, T. Nakajima, 
 Y. Honda, O. Kitao, H. Nakai, T. Vreven, J. A. Montgomery, Jr., 
 J. E. Peralta, F. Ogliaro, M. Bearpark, J. J. Heyd, E. Brothers, 
 K. N. Kudin, V. N. Staroverov, T. Keith, R. Kobayashi, J. Normand, 
 K. Raghavachari, A. Rendell, J. C. Burant, S. S. Iyengar, J. Tomasi, 
 M. Cossi, N. Rega, J. M. Millam, M. Klene, J. E. Knox, J. B. Cross, 
 V. Bakken, C. Adamo, J. Jaramillo, R. Gomperts, R. E. Stratmann, 
 O. Yazyev, A. J. Austin, R. Cammi, C. Pomelli, J. W. Ochterski, 
 R. L. Martin, K. Morokuma, V. G. Zakrzewski, G. A. Voth, 
 P. Salvador, J. J. Dannenberg, S. Dapprich, A. D. Daniels, 
 O. Farkas, J. B. Foresman, J. V. Ortiz, J. Cioslowski, 
 and D. J. Fox, Gaussian, Inc., Wallingford CT, 2010.
 
 ******************************************
 Gaussian 09:  EM64L-G09RevB.01 12-Aug-2010
                 2-Feb-2021 
 ******************************************
 %mem=600MW
 %nprocshared=10
 Will use up to   10 processors via shared memory.
 --------------------------------------
 # opt b3lyp/6-31g(d) geom=connectivity
 --------------------------------------
 1/14=-1,18=20,19=15,26=3,38=1,57=2/1,3;
 2/9=110,12=2,17=6,18=5,40=1/2;
 3/5=1,6=6,7=1,11=2,16=1,25=1,30=1,71=1,74=-5/1,2,3;
 4//1;
 5/5=2,38=5/2;
 6/7=2,8=2,9=2,10=2,28=1/1;
 7//1,2,3,16;
 1/14=-1,18=20,19=15/3(2);
 2/9=110/2;
 99//99;
 2/9=110/2;
 3/5=1,6=6,7=1,11=2,16=1,25=1,30=1,71=1,74=-5/1,2,3;
 4/5=5,16=3/1;
 5/5=2,38=5/2;
 7//1,2,3,16;
 1/14=-1,18=20,19=15/3(-5);
 2/9=110/2;
 6/7=2,8=2,9=2,10=2,19=2,28=1/1;
 99/9=1/99;
 -------------------
 Title Card Required
 -------------------
 Symbolic Z-matrix:
 Charge =  0 Multiplicity = 1
 C                     5.47619  -0.7965    2.82469 
 C                     4.4941    0.11062   3.23287 
 C                     3.44543   0.48305   2.38805 
 C                     3.33611  -0.04164   1.09341 
 C                     4.31944  -0.94279   0.66449 
 C                     5.37633  -1.3165    1.5246 
 C                     2.23837   0.33179   0.1841 
 C                     2.25008  -0.18299  -1.05575 
 O                     3.23738  -1.07897  -1.50629 
 C                     4.25428  -1.49814  -0.70594 
 C                     1.13779   1.26673   0.64645 
 C                    -0.10818   1.32014  -0.28758 
 C                     0.38207   1.37102  -1.74585 
 C                     1.22868   0.14919  -2.10522 
 C                     6.60099  -1.19312   3.74073 
 O                     6.35427  -2.19966   1.13151 
 O                     4.48707   0.69436   4.46929 
 O                     5.10147  -2.29847  -1.09383 
 O                    -0.85797   0.1251    0.01022 
 C                    -1.98026  -0.22987  -0.81857 
 C                    -2.384    -1.65358  -0.39796 
 C                    -3.52778  -2.17946  -1.27938 
 C                    -4.61708  -1.17807  -1.49168 
 C                    -4.47847   0.13151  -1.20912 
 C                    -3.18974   0.70695  -0.67392 
 O                    -1.25617  -2.53806  -0.52163 
 O                    -4.10037  -3.33227  -0.66723 
 C                    -5.57525   1.11996  -1.42249 
 O                    -6.72441   0.51633  -1.81224 
 O                    -5.42293   2.3222   -1.26021 
 C                    -7.81476   1.41491  -2.01684 
 C                    -0.8511    2.59959   0.14977 
 O                    -0.62096   3.67487  -0.62784 
 O                    -1.58059   2.7085    1.12371 
 H                     2.72267   1.19698   2.77509 
 H                     1.57349   2.26988   0.75268 
 H                     0.79281   0.95017   1.64023 
 H                     0.99133   2.27144  -1.9056 
 H                    -0.45688   1.45308  -2.4462 
 H                     0.59088  -0.72794  -2.26123 
 H                     1.73315   0.34494  -3.05921 
 H                     7.27978  -1.92662   3.29662 
 H                     7.19891  -0.31347   4.00124 
 H                     6.19897  -1.64147   4.65546 
 H                     6.17641  -2.49532   0.21037 
 H                     5.24217   0.37609   4.98891 
 H                    -1.65581  -0.27214  -1.86366 
 H                    -2.66592  -1.67732   0.66277 
 H                    -3.1424   -2.49981  -2.25468 
 H                    -5.54593  -1.57362  -1.89612 
 H                    -2.96001   1.64132  -1.19879 
 H                    -3.33753   0.96155   0.38253 
 H                    -0.52804  -2.08463  -0.05118 
 H                    -3.34514  -3.91757  -0.46551 
 H                    -8.68642   0.82709  -2.31754 
 H                    -8.05659   1.94289  -1.08904 
 H                    -7.58204   2.12376  -2.81769 
 H                    -1.16787   4.38396  -0.22374 
 

 GradGradGradGradGradGradGradGradGradGradGradGradGradGradGradGradGradGrad
 Berny optimization.
 Initialization pass.
                           ----------------------------
                           !    Initial Parameters    !
                           ! (Angstroms and Degrees)  !
 --------------------------                            --------------------------
 ! Name  Definition              Value          Derivative Info.                !
 --------------------------------------------------------------------------------
 ! R1    R(1,2)                  1.3978         estimate D2E/DX2                !
 ! R2    R(1,6)                  1.4038         estimate D2E/DX2                !
 ! R3    R(1,15)                 1.5039         estimate D2E/DX2                !
 ! R4    R(2,3)                  1.3972         estimate D2E/DX2                !
 ! R5    R(2,17)                 1.3673         estimate D2E/DX2                !
 ! R6    R(3,4)                  1.4012         estimate D2E/DX2                !
 ! R7    R(3,35)                 1.0871         estimate D2E/DX2                !
 ! R8    R(4,5)                  1.4011         estimate D2E/DX2                !
 ! R9    R(4,7)                  1.4735         estimate D2E/DX2                !
 ! R10   R(5,6)                  1.413          estimate D2E/DX2                !
 ! R11   R(5,10)                 1.4801         estimate D2E/DX2                !
 ! R12   R(6,16)                 1.3751         estimate D2E/DX2                !
 ! R13   R(7,8)                  1.3425         estimate D2E/DX2                !
 ! R14   R(7,11)                 1.5163         estimate D2E/DX2                !
 ! R15   R(8,9)                  1.4073         estimate D2E/DX2                !
 ! R16   R(8,14)                 1.5017         estimate D2E/DX2                !
 ! R17   R(9,10)                 1.3603         estimate D2E/DX2                !
 ! R18   R(10,18)                1.2283         estimate D2E/DX2                !
 ! R19   R(11,12)                1.5581         estimate D2E/DX2                !
 ! R20   R(11,36)                1.0988         estimate D2E/DX2                !
 ! R21   R(11,37)                1.0985         estimate D2E/DX2                !
 ! R22   R(12,13)                1.5393         estimate D2E/DX2                !
 ! R23   R(12,19)                1.4419         estimate D2E/DX2                !
 ! R24   R(12,32)                1.5428         estimate D2E/DX2                !
 ! R25   R(13,14)                1.5293         estimate D2E/DX2                !
 ! R26   R(13,38)                1.0989         estimate D2E/DX2                !
 ! R27   R(13,39)                1.0959         estimate D2E/DX2                !
 ! R28   R(14,40)                1.0957         estimate D2E/DX2                !
 ! R29   R(14,41)                1.0968         estimate D2E/DX2                !
 ! R30   R(15,42)                1.0936         estimate D2E/DX2                !
 ! R31   R(15,43)                1.0951         estimate D2E/DX2                !
 ! R32   R(15,44)                1.0952         estimate D2E/DX2                !
 ! R33   R(16,45)                0.9836         estimate D2E/DX2                !
 ! R34   R(17,46)                0.9703         estimate D2E/DX2                !
 ! R35   R(18,45)                1.7015         estimate D2E/DX2                !
 ! R36   R(19,20)                1.4396         estimate D2E/DX2                !
 ! R37   R(20,21)                1.5385         estimate D2E/DX2                !
 ! R38   R(20,25)                1.5367         estimate D2E/DX2                !
 ! R39   R(20,47)                1.0951         estimate D2E/DX2                !
 ! R40   R(21,22)                1.5368         estimate D2E/DX2                !
 ! R41   R(21,26)                1.4386         estimate D2E/DX2                !
 ! R42   R(21,48)                1.0978         estimate D2E/DX2                !
 ! R43   R(22,23)                1.4948         estimate D2E/DX2                !
 ! R44   R(22,27)                1.4253         estimate D2E/DX2                !
 ! R45   R(22,49)                1.0965         estimate D2E/DX2                !
 ! R46   R(23,24)                1.3469         estimate D2E/DX2                !
 ! R47   R(23,50)                1.0876         estimate D2E/DX2                !
 ! R48   R(24,25)                1.5094         estimate D2E/DX2                !
 ! R49   R(24,28)                1.4918         estimate D2E/DX2                !
 ! R50   R(25,51)                1.096          estimate D2E/DX2                !
 ! R51   R(25,52)                1.0967         estimate D2E/DX2                !
 ! R52   R(26,53)                0.9783         estimate D2E/DX2                !
 ! R53   R(27,54)                0.9765         estimate D2E/DX2                !
 ! R54   R(28,29)                1.3553         estimate D2E/DX2                !
 ! R55   R(28,30)                1.2227         estimate D2E/DX2                !
 ! R56   R(29,31)                1.4276         estimate D2E/DX2                !
 ! R57   R(31,55)                1.0935         estimate D2E/DX2                !
 ! R58   R(31,56)                1.0946         estimate D2E/DX2                !
 ! R59   R(31,57)                1.0945         estimate D2E/DX2                !
 ! R60   R(32,33)                1.3468         estimate D2E/DX2                !
 ! R61   R(32,34)                1.2217         estimate D2E/DX2                !
 ! R62   R(33,58)                0.9824         estimate D2E/DX2                !
 ! A1    A(2,1,6)              117.4417         estimate D2E/DX2                !
 ! A2    A(2,1,15)             121.2492         estimate D2E/DX2                !
 ! A3    A(6,1,15)             121.3081         estimate D2E/DX2                !
 ! A4    A(1,2,3)              121.5831         estimate D2E/DX2                !
 ! A5    A(1,2,17)             123.0052         estimate D2E/DX2                !
 ! A6    A(3,2,17)             115.4116         estimate D2E/DX2                !
 ! A7    A(2,3,4)              121.1594         estimate D2E/DX2                !
 ! A8    A(2,3,35)             117.3074         estimate D2E/DX2                !
 ! A9    A(4,3,35)             121.5329         estimate D2E/DX2                !
 ! A10   A(3,4,5)              117.9664         estimate D2E/DX2                !
 ! A11   A(3,4,7)              122.2345         estimate D2E/DX2                !
 ! A12   A(5,4,7)              119.7974         estimate D2E/DX2                !
 ! A13   A(4,5,6)              120.5796         estimate D2E/DX2                !
 ! A14   A(4,5,10)             119.5965         estimate D2E/DX2                !
 ! A15   A(6,5,10)             119.822          estimate D2E/DX2                !
 ! A16   A(1,6,5)              121.265          estimate D2E/DX2                !
 ! A17   A(1,6,16)             116.8765         estimate D2E/DX2                !
 ! A18   A(5,6,16)             121.8583         estimate D2E/DX2                !
 ! A19   A(4,7,8)              117.7892         estimate D2E/DX2                !
 ! A20   A(4,7,11)             120.5853         estimate D2E/DX2                !
 ! A21   A(8,7,11)             121.6255         estimate D2E/DX2                !
 ! A22   A(7,8,9)              123.0866         estimate D2E/DX2                !
 ! A23   A(7,8,14)             123.6878         estimate D2E/DX2                !
 ! A24   A(9,8,14)             113.2208         estimate D2E/DX2                !
 ! A25   A(8,9,10)             122.1597         estimate D2E/DX2                !
 ! A26   A(5,10,9)             117.5201         estimate D2E/DX2                !
 ! A27   A(5,10,18)            120.4313         estimate D2E/DX2                !
 ! A28   A(9,10,18)            122.0459         estimate D2E/DX2                !
 ! A29   A(7,11,12)            114.7573         estimate D2E/DX2                !
 ! A30   A(7,11,36)            107.7325         estimate D2E/DX2                !
 ! A31   A(7,11,37)            109.0319         estimate D2E/DX2                !
 ! A32   A(12,11,36)           110.1052         estimate D2E/DX2                !
 ! A33   A(12,11,37)           107.5205         estimate D2E/DX2                !
 ! A34   A(36,11,37)           107.4654         estimate D2E/DX2                !
 ! A35   A(11,12,13)           108.3215         estimate D2E/DX2                !
 ! A36   A(11,12,19)           105.2849         estimate D2E/DX2                !
 ! A37   A(11,12,32)           104.097          estimate D2E/DX2                !
 ! A38   A(13,12,19)           112.8722         estimate D2E/DX2                !
 ! A39   A(13,12,32)           113.2351         estimate D2E/DX2                !
 ! A40   A(19,12,32)           112.2338         estimate D2E/DX2                !
 ! A41   A(12,13,14)           111.871          estimate D2E/DX2                !
 ! A42   A(12,13,38)           109.9623         estimate D2E/DX2                !
 ! A43   A(12,13,39)           111.3504         estimate D2E/DX2                !
 ! A44   A(14,13,38)           108.2746         estimate D2E/DX2                !
 ! A45   A(14,13,39)           109.4771         estimate D2E/DX2                !
 ! A46   A(38,13,39)           105.6752         estimate D2E/DX2                !
 ! A47   A(8,14,13)            112.895          estimate D2E/DX2                !
 ! A48   A(8,14,40)            108.5638         estimate D2E/DX2                !
 ! A49   A(8,14,41)            109.5433         estimate D2E/DX2                !
 ! A50   A(13,14,40)           110.5366         estimate D2E/DX2                !
 ! A51   A(13,14,41)           108.447          estimate D2E/DX2                !
 ! A52   A(40,14,41)           106.6654         estimate D2E/DX2                !
 ! A53   A(1,15,42)            113.1885         estimate D2E/DX2                !
 ! A54   A(1,15,43)            109.9644         estimate D2E/DX2                !
 ! A55   A(1,15,44)            110.0101         estimate D2E/DX2                !
 ! A56   A(42,15,43)           107.246          estimate D2E/DX2                !
 ! A57   A(42,15,44)           107.0048         estimate D2E/DX2                !
 ! A58   A(43,15,44)           109.3049         estimate D2E/DX2                !
 ! A59   A(6,16,45)            109.3998         estimate D2E/DX2                !
 ! A60   A(2,17,46)            109.8909         estimate D2E/DX2                !
 ! A61   A(12,19,20)           119.3969         estimate D2E/DX2                !
 ! A62   A(19,20,21)           105.9844         estimate D2E/DX2                !
 ! A63   A(19,20,25)           114.147          estimate D2E/DX2                !
 ! A64   A(19,20,47)           109.1457         estimate D2E/DX2                !
 ! A65   A(21,20,25)           109.3821         estimate D2E/DX2                !
 ! A66   A(21,20,47)           107.6344         estimate D2E/DX2                !
 ! A67   A(25,20,47)           110.2762         estimate D2E/DX2                !
 ! A68   A(20,21,22)           110.8048         estimate D2E/DX2                !
 ! A69   A(20,21,26)           109.8589         estimate D2E/DX2                !
 ! A70   A(20,21,48)           110.5835         estimate D2E/DX2                !
 ! A71   A(22,21,26)           108.8924         estimate D2E/DX2                !
 ! A72   A(22,21,48)           110.8332         estimate D2E/DX2                !
 ! A73   A(26,21,48)           105.7296         estimate D2E/DX2                !
 ! A74   A(21,22,23)           113.2402         estimate D2E/DX2                !
 ! A75   A(21,22,27)           109.2344         estimate D2E/DX2                !
 ! A76   A(21,22,49)           110.3979         estimate D2E/DX2                !
 ! A77   A(23,22,27)           108.0644         estimate D2E/DX2                !
 ! A78   A(23,22,49)           108.9962         estimate D2E/DX2                !
 ! A79   A(27,22,49)           106.6723         estimate D2E/DX2                !
 ! A80   A(22,23,24)           123.1325         estimate D2E/DX2                !
 ! A81   A(22,23,50)           115.5655         estimate D2E/DX2                !
 ! A82   A(24,23,50)           121.3019         estimate D2E/DX2                !
 ! A83   A(23,24,25)           122.2035         estimate D2E/DX2                !
 ! A84   A(23,24,28)           122.5866         estimate D2E/DX2                !
 ! A85   A(25,24,28)           115.2024         estimate D2E/DX2                !
 ! A86   A(20,25,24)           113.9667         estimate D2E/DX2                !
 ! A87   A(20,25,51)           108.0384         estimate D2E/DX2                !
 ! A88   A(20,25,52)           109.7712         estimate D2E/DX2                !
 ! A89   A(24,25,51)           109.5217         estimate D2E/DX2                !
 ! A90   A(24,25,52)           108.3609         estimate D2E/DX2                !
 ! A91   A(51,25,52)           106.9562         estimate D2E/DX2                !
 ! A92   A(21,26,53)           104.9036         estimate D2E/DX2                !
 ! A93   A(22,27,54)           105.236          estimate D2E/DX2                !
 ! A94   A(24,28,29)           111.6787         estimate D2E/DX2                !
 ! A95   A(24,28,30)           122.7476         estimate D2E/DX2                !
 ! A96   A(29,28,30)           125.5735         estimate D2E/DX2                !
 ! A97   A(28,29,31)           114.1078         estimate D2E/DX2                !
 ! A98   A(29,31,55)           108.0506         estimate D2E/DX2                !
 ! A99   A(29,31,56)           110.5405         estimate D2E/DX2                !
 ! A100  A(29,31,57)           110.4933         estimate D2E/DX2                !
 ! A101  A(55,31,56)           108.4381         estimate D2E/DX2                !
 ! A102  A(55,31,57)           108.4467         estimate D2E/DX2                !
 ! A103  A(56,31,57)           110.7809         estimate D2E/DX2                !
 ! A104  A(12,32,33)           114.592          estimate D2E/DX2                !
 ! A105  A(12,32,34)           125.9763         estimate D2E/DX2                !
 ! A106  A(33,32,34)           119.4159         estimate D2E/DX2                !
 ! A107  A(32,33,58)           104.1012         estimate D2E/DX2                !
 ! D1    D(6,1,2,3)              0.4279         estimate D2E/DX2                !
 ! D2    D(6,1,2,17)          -179.4583         estimate D2E/DX2                !
 ! D3    D(15,1,2,3)          -179.9403         estimate D2E/DX2                !
 ! D4    D(15,1,2,17)            0.1736         estimate D2E/DX2                !
 ! D5    D(2,1,6,5)             -0.3416         estimate D2E/DX2                !
 ! D6    D(2,1,6,16)           179.5044         estimate D2E/DX2                !
 ! D7    D(15,1,6,5)          -179.9733         estimate D2E/DX2                !
 ! D8    D(15,1,6,16)           -0.1273         estimate D2E/DX2                !
 ! D9    D(2,1,15,42)          178.6501         estimate D2E/DX2                !
 ! D10   D(2,1,15,43)          -61.4317         estimate D2E/DX2                !
 ! D11   D(2,1,15,44)           59.0073         estimate D2E/DX2                !
 ! D12   D(6,1,15,42)           -1.7323         estimate D2E/DX2                !
 ! D13   D(6,1,15,43)          118.1859         estimate D2E/DX2                !
 ! D14   D(6,1,15,44)         -121.3751         estimate D2E/DX2                !
 ! D15   D(1,2,3,4)              0.0658         estimate D2E/DX2                !
 ! D16   D(1,2,3,35)          -179.7302         estimate D2E/DX2                !
 ! D17   D(17,2,3,4)           179.9601         estimate D2E/DX2                !
 ! D18   D(17,2,3,35)            0.164          estimate D2E/DX2                !
 ! D19   D(1,2,17,46)           -0.5146         estimate D2E/DX2                !
 ! D20   D(3,2,17,46)          179.5928         estimate D2E/DX2                !
 ! D21   D(2,3,4,5)             -0.6425         estimate D2E/DX2                !
 ! D22   D(2,3,4,7)            179.8346         estimate D2E/DX2                !
 ! D23   D(35,3,4,5)           179.1449         estimate D2E/DX2                !
 ! D24   D(35,3,4,7)            -0.378          estimate D2E/DX2                !
 ! D25   D(3,4,5,6)              0.7225         estimate D2E/DX2                !
 ! D26   D(3,4,5,10)          -178.7759         estimate D2E/DX2                !
 ! D27   D(7,4,5,6)           -179.7425         estimate D2E/DX2                !
 ! D28   D(7,4,5,10)             0.7591         estimate D2E/DX2                !
 ! D29   D(3,4,7,8)            177.3594         estimate D2E/DX2                !
 ! D30   D(3,4,7,11)            -2.6795         estimate D2E/DX2                !
 ! D31   D(5,4,7,8)             -2.155          estimate D2E/DX2                !
 ! D32   D(5,4,7,11)           177.806          estimate D2E/DX2                !
 ! D33   D(4,5,6,1)             -0.2375         estimate D2E/DX2                !
 ! D34   D(4,5,6,16)           179.9242         estimate D2E/DX2                !
 ! D35   D(10,5,6,1)           179.2598         estimate D2E/DX2                !
 ! D36   D(10,5,6,16)           -0.5785         estimate D2E/DX2                !
 ! D37   D(4,5,10,9)             1.2394         estimate D2E/DX2                !
 ! D38   D(4,5,10,18)         -179.3453         estimate D2E/DX2                !
 ! D39   D(6,5,10,9)          -178.2628         estimate D2E/DX2                !
 ! D40   D(6,5,10,18)            1.1525         estimate D2E/DX2                !
 ! D41   D(1,6,16,45)          179.7957         estimate D2E/DX2                !
 ! D42   D(5,6,16,45)           -0.3593         estimate D2E/DX2                !
 ! D43   D(4,7,8,9)              1.5858         estimate D2E/DX2                !
 ! D44   D(4,7,8,14)          -177.5604         estimate D2E/DX2                !
 ! D45   D(11,7,8,9)          -178.3749         estimate D2E/DX2                !
 ! D46   D(11,7,8,14)            2.479          estimate D2E/DX2                !
 ! D47   D(4,7,11,12)         -166.8512         estimate D2E/DX2                !
 ! D48   D(4,7,11,36)           70.1322         estimate D2E/DX2                !
 ! D49   D(4,7,11,37)          -46.2031         estimate D2E/DX2                !
 ! D50   D(8,7,11,12)           13.1083         estimate D2E/DX2                !
 ! D51   D(8,7,11,36)         -109.9082         estimate D2E/DX2                !
 ! D52   D(8,7,11,37)          133.7564         estimate D2E/DX2                !
 ! D53   D(7,8,9,10)             0.4862         estimate D2E/DX2                !
 ! D54   D(14,8,9,10)          179.7131         estimate D2E/DX2                !
 ! D55   D(7,8,14,13)           13.9251         estimate D2E/DX2                !
 ! D56   D(7,8,14,40)         -108.9995         estimate D2E/DX2                !
 ! D57   D(7,8,14,41)          134.8821         estimate D2E/DX2                !
 ! D58   D(9,8,14,13)         -165.2964         estimate D2E/DX2                !
 ! D59   D(9,8,14,40)           71.779          estimate D2E/DX2                !
 ! D60   D(9,8,14,41)          -44.3394         estimate D2E/DX2                !
 ! D61   D(8,9,10,5)            -1.908          estimate D2E/DX2                !
 ! D62   D(8,9,10,18)          178.6868         estimate D2E/DX2                !
 ! D63   D(7,11,12,13)         -42.9195         estimate D2E/DX2                !
 ! D64   D(7,11,12,19)          78.0739         estimate D2E/DX2                !
 ! D65   D(7,11,12,32)        -163.6921         estimate D2E/DX2                !
 ! D66   D(36,11,12,13)         78.8143         estimate D2E/DX2                !
 ! D67   D(36,11,12,19)       -160.1923         estimate D2E/DX2                !
 ! D68   D(36,11,12,32)        -41.9584         estimate D2E/DX2                !
 ! D69   D(37,11,12,13)       -164.3963         estimate D2E/DX2                !
 ! D70   D(37,11,12,19)        -43.4029         estimate D2E/DX2                !
 ! D71   D(37,11,12,32)         74.831          estimate D2E/DX2                !
 ! D72   D(11,12,13,14)         59.5624         estimate D2E/DX2                !
 ! D73   D(11,12,13,38)        -60.7884         estimate D2E/DX2                !
 ! D74   D(11,12,13,39)       -177.5718         estimate D2E/DX2                !
 ! D75   D(19,12,13,14)        -56.6105         estimate D2E/DX2                !
 ! D76   D(19,12,13,38)       -176.9613         estimate D2E/DX2                !
 ! D77   D(19,12,13,39)         66.2553         estimate D2E/DX2                !
 ! D78   D(32,12,13,14)        174.4842         estimate D2E/DX2                !
 ! D79   D(32,12,13,38)         54.1334         estimate D2E/DX2                !
 ! D80   D(32,12,13,39)        -62.65           estimate D2E/DX2                !
 ! D81   D(11,12,19,20)       -171.2666         estimate D2E/DX2                !
 ! D82   D(13,12,19,20)        -53.2993         estimate D2E/DX2                !
 ! D83   D(32,12,19,20)         76.1212         estimate D2E/DX2                !
 ! D84   D(11,12,32,33)         98.8366         estimate D2E/DX2                !
 ! D85   D(11,12,32,34)        -79.6932         estimate D2E/DX2                !
 ! D86   D(13,12,32,33)        -18.5849         estimate D2E/DX2                !
 ! D87   D(13,12,32,34)        162.8853         estimate D2E/DX2                !
 ! D88   D(19,12,32,33)       -147.8168         estimate D2E/DX2                !
 ! D89   D(19,12,32,34)         33.6535         estimate D2E/DX2                !
 ! D90   D(12,13,14,8)         -45.6438         estimate D2E/DX2                !
 ! D91   D(12,13,14,40)         76.1756         estimate D2E/DX2                !
 ! D92   D(12,13,14,41)       -167.2223         estimate D2E/DX2                !
 ! D93   D(38,13,14,8)          75.6869         estimate D2E/DX2                !
 ! D94   D(38,13,14,40)       -162.4937         estimate D2E/DX2                !
 ! D95   D(38,13,14,41)        -45.8916         estimate D2E/DX2                !
 ! D96   D(39,13,14,8)        -169.5672         estimate D2E/DX2                !
 ! D97   D(39,13,14,40)        -47.7478         estimate D2E/DX2                !
 ! D98   D(39,13,14,41)         68.8543         estimate D2E/DX2                !
 ! D99   D(12,19,20,21)        169.9707         estimate D2E/DX2                !
 ! D100  D(12,19,20,25)        -69.5828         estimate D2E/DX2                !
 ! D101  D(12,19,20,47)         54.311          estimate D2E/DX2                !
 ! D102  D(19,20,21,22)       -176.5164         estimate D2E/DX2                !
 ! D103  D(19,20,21,26)        -56.1509         estimate D2E/DX2                !
 ! D104  D(19,20,21,48)         60.1787         estimate D2E/DX2                !
 ! D105  D(25,20,21,22)         59.9881         estimate D2E/DX2                !
 ! D106  D(25,20,21,26)       -179.6464         estimate D2E/DX2                !
 ! D107  D(25,20,21,48)        -63.3168         estimate D2E/DX2                !
 ! D108  D(47,20,21,22)        -59.8343         estimate D2E/DX2                !
 ! D109  D(47,20,21,26)         60.5312         estimate D2E/DX2                !
 ! D110  D(47,20,21,48)        176.8609         estimate D2E/DX2                !
 ! D111  D(19,20,25,24)       -163.0395         estimate D2E/DX2                !
 ! D112  D(19,20,25,51)         74.9981         estimate D2E/DX2                !
 ! D113  D(19,20,25,52)        -41.2968         estimate D2E/DX2                !
 ! D114  D(21,20,25,24)        -44.5089         estimate D2E/DX2                !
 ! D115  D(21,20,25,51)       -166.4713         estimate D2E/DX2                !
 ! D116  D(21,20,25,52)         77.2338         estimate D2E/DX2                !
 ! D117  D(47,20,25,24)         73.6766         estimate D2E/DX2                !
 ! D118  D(47,20,25,51)        -48.2858         estimate D2E/DX2                !
 ! D119  D(47,20,25,52)       -164.5806         estimate D2E/DX2                !
 ! D120  D(20,21,22,23)        -44.9699         estimate D2E/DX2                !
 ! D121  D(20,21,22,27)       -165.4509         estimate D2E/DX2                !
 ! D122  D(20,21,22,49)         77.553          estimate D2E/DX2                !
 ! D123  D(26,21,22,23)       -165.9089         estimate D2E/DX2                !
 ! D124  D(26,21,22,27)         73.6101         estimate D2E/DX2                !
 ! D125  D(26,21,22,49)        -43.3861         estimate D2E/DX2                !
 ! D126  D(48,21,22,23)         78.1909         estimate D2E/DX2                !
 ! D127  D(48,21,22,27)        -42.2901         estimate D2E/DX2                !
 ! D128  D(48,21,22,49)       -159.2863         estimate D2E/DX2                !
 ! D129  D(20,21,26,53)         50.3365         estimate D2E/DX2                !
 ! D130  D(22,21,26,53)        171.8537         estimate D2E/DX2                !
 ! D131  D(48,21,26,53)        -69.0086         estimate D2E/DX2                !
 ! D132  D(21,22,23,24)         14.3904         estimate D2E/DX2                !
 ! D133  D(21,22,23,50)       -165.6748         estimate D2E/DX2                !
 ! D134  D(27,22,23,24)        135.5335         estimate D2E/DX2                !
 ! D135  D(27,22,23,50)        -44.5316         estimate D2E/DX2                !
 ! D136  D(49,22,23,24)       -108.9078         estimate D2E/DX2                !
 ! D137  D(49,22,23,50)         71.027          estimate D2E/DX2                !
 ! D138  D(21,22,27,54)        -50.8184         estimate D2E/DX2                !
 ! D139  D(23,22,27,54)       -174.4179         estimate D2E/DX2                !
 ! D140  D(49,22,27,54)         68.5115         estimate D2E/DX2                !
 ! D141  D(22,23,24,25)          1.2081         estimate D2E/DX2                !
 ! D142  D(22,23,24,28)       -179.8342         estimate D2E/DX2                !
 ! D143  D(50,23,24,25)       -178.7232         estimate D2E/DX2                !
 ! D144  D(50,23,24,28)          0.2346         estimate D2E/DX2                !
 ! D145  D(23,24,25,20)         14.6758         estimate D2E/DX2                !
 ! D146  D(23,24,25,51)        135.8168         estimate D2E/DX2                !
 ! D147  D(23,24,25,52)       -107.8431         estimate D2E/DX2                !
 ! D148  D(28,24,25,20)       -164.3537         estimate D2E/DX2                !
 ! D149  D(28,24,25,51)        -43.2127         estimate D2E/DX2                !
 ! D150  D(28,24,25,52)         73.1274         estimate D2E/DX2                !
 ! D151  D(23,24,28,29)          5.3304         estimate D2E/DX2                !
 ! D152  D(23,24,28,30)       -174.5014         estimate D2E/DX2                !
 ! D153  D(25,24,28,29)       -175.6442         estimate D2E/DX2                !
 ! D154  D(25,24,28,30)          4.524          estimate D2E/DX2                !
 ! D155  D(24,28,29,31)        179.3248         estimate D2E/DX2                !
 ! D156  D(30,28,29,31)         -0.8492         estimate D2E/DX2                !
 ! D157  D(28,29,31,55)       -179.4973         estimate D2E/DX2                !
 ! D158  D(28,29,31,56)        -60.9851         estimate D2E/DX2                !
 ! D159  D(28,29,31,57)         62.007          estimate D2E/DX2                !
 ! D160  D(12,32,33,58)        179.3237         estimate D2E/DX2                !
 ! D161  D(34,32,33,58)         -2.0422         estimate D2E/DX2                !
 --------------------------------------------------------------------------------
 Trust Radius=3.00D-01 FncErr=1.00D-07 GrdErr=1.00D-06
 Number of steps in this run=    340 maximum allowed number of steps=    348.
 GradGradGradGradGradGradGradGradGradGradGradGradGradGradGradGradGradGrad

 Stoichiometry    C23H24O11
 Framework group  C1[X(C23H24O11)]
 Deg. of freedom   168
 Full point group                 C1      NOp   1
 Largest Abelian subgroup         C1      NOp   1
 Largest concise Abelian subgroup C1      NOp   1
                         Standard orientation:                         
 ---------------------------------------------------------------------
 Center     Atomic      Atomic             Coordinates (Angstroms)
 Number     Number       Type             X           Y           Z
 ---------------------------------------------------------------------
      1          6           0       -5.955309    0.371263   -1.080424
      2          6           0       -5.033687    1.365399   -1.421434
      3          6           0       -3.748210    1.390202   -0.874545
      4          6           0       -3.330495    0.414366    0.040108
      5          6           0       -4.246552   -0.582096    0.401879
      6          6           0       -5.544429   -0.602303   -0.156324
      7          6           0       -1.979571    0.415686    0.628610
      8          6           0       -1.691512   -0.530241    1.536700
      9          8           0       -2.604442   -1.530106    1.920569
     10          6           0       -3.852376   -1.615015    1.385977
     11          6           0       -0.957894    1.456077    0.212793
     12          6           0        0.502889    1.151840    0.661417
     13          6           0        0.467380    0.646760    2.115080
     14          6           0       -0.377227   -0.620179    2.257510
     15          6           0       -7.336628    0.351027   -1.674683
     16          8           0       -6.463643   -1.568541    0.178730
     17          8           0       -5.316993    2.373836   -2.300241
     18          8           0       -4.639125   -2.502622    1.705182
     19          8           0        0.986064    0.158550   -0.265342
     20          6           0        2.250262   -0.483808   -0.017155
     21          6           0        2.342011   -1.642240   -1.025374
     22          6           0        3.621592   -2.462712   -0.799130
     23          6           0        4.836569   -1.616272   -0.594690
     24          6           0        4.778570   -0.297214   -0.328667
     25          6           0        3.467911    0.438027   -0.187338
     26          8           0        1.202008   -2.507697   -0.880447
     27          8           0        3.850179   -3.297891   -1.931284
     28          6           0        5.999422    0.536847   -0.130293
     29          8           0        7.131948   -0.169417   -0.365724
     30          8           0        5.950604    1.711009    0.207145
     31          6           0        8.333457    0.584786   -0.205350
     32          6           0        1.233240    2.501632    0.503743
     33          8           0        1.368649    3.202395    1.645872
     34          8           0        1.655660    2.971217   -0.542012
     35          1           0       -3.089630    2.197533   -1.184981
     36          1           0       -1.283140    2.424752    0.616909
     37          1           0       -0.956887    1.539386   -0.882592
     38          1           0        0.042458    1.419641    2.770497
     39          1           0        1.477215    0.457520    2.496501
     40          1           0        0.169336   -1.491063    1.878962
     41          1           0       -0.555586   -0.800231    3.324598
     42          1           0       -7.939207   -0.496023   -1.334940
     43          1           0       -7.875414    1.263816   -1.399584
     44          1           0       -7.274160    0.282426   -2.765898
     45          1           0       -6.062188   -2.190978    0.826001
     46          1           0       -6.222782    2.276026   -2.634103
     47          1           0        2.240994   -0.918657    0.987872
     48          1           0        2.298511   -1.262567   -2.054516
     49          1           0        3.501111   -3.128510    0.063749
     50          1           0        5.788946   -2.135510   -0.673228
     51          1           0        3.513477    1.104079    0.681914
     52          1           0        3.331410    1.073694   -1.070543
     53          1           0        0.427893   -1.909898   -0.902158
     54          1           0        3.004921   -3.763231   -2.081754
     55          1           0        9.178515   -0.073128   -0.426197
     56          1           0        8.356142    1.424761   -0.906762
     57          1           0        8.429597    0.937609    0.826275
     58          1           0        1.854742    4.011699    1.373940
 ---------------------------------------------------------------------
 Rotational constants (GHZ):      0.2496238      0.0539323      0.0502714
 Standard basis: 6-31G(d) (6D, 7F)
 There are   558 symmetry adapted basis functions of A   symmetry.
 Integral buffers will be    131072 words long.
 Raffenetti 2 integral format.
 Two-electron integral symmetry is turned on.
   558 basis functions,  1048 primitive gaussians,   558 cartesian basis functions
   125 alpha electrons      125 beta electrons
       nuclear repulsion energy      3656.4830986178 Hartrees.
 NAtoms=   58 NActive=   58 NUniq=   58 SFac= 1.00D+00 NAtFMM=   50 NAOKFM=T Big=T
 One-electron integrals computed using PRISM.
 NBasis=   558 RedAO= T  NBF=   558
 NBsUse=   558 1.00D-06 NBFU=   558
 Harris functional with IExCor=  402 diagonalized for initial guess.
 ExpMin= 1.61D-01 ExpMax= 5.48D+03 ExpMxC= 8.25D+02 IAcc=1 IRadAn=         1 AccDes= 0.00D+00
 HarFok:  IExCor=  402 AccDes= 0.00D+00 IRadAn=         1 IDoV= 1
 ScaDFX=  1.000000  1.000000  1.000000  1.000000
 FoFCou: FMM=F IPFlag=           0 FMFlag=      100000 FMFlg1=        2001
         NFxFlg=           0 DoJE=T BraDBF=F KetDBF=T FulRan=T
         Omega=  0.000000  0.000000  1.000000  0.000000  0.000000 ICntrl=     500 IOpCl=  0
         NMat0=    1 NMatS0=    1 NMatT0=    0 NMatD0=    1 NMtDS0=    0 NMtDT0=    0
         I1Cent=           4 NGrid=           0.
 Petite list used in FoFCou.
 Initial guess orbital symmetries:
       Occupied  (A) (A) (A) (A) (A) (A) (A) (A) (A) (A) (A) (A)
                 (A) (A) (A) (A) (A) (A) (A) (A) (A) (A) (A) (A)
                 (A) (A) (A) (A) (A) (A) (A) (A) (A) (A) (A) (A)
                 (A) (A) (A) (A) (A) (A) (A) (A) (A) (A) (A) (A)
                 (A) (A) (A) (A) (A) (A) (A) (A) (A) (A) (A) (A)
                 (A) (A) (A) (A) (A) (A) (A) (A) (A) (A) (A) (A)
                 (A) (A) (A) (A) (A) (A) (A) (A) (A) (A) (A) (A)
                 (A) (A) (A) (A) (A) (A) (A) (A) (A) (A) (A) (A)
                 (A) (A) (A) (A) (A) (A) (A) (A) (A) (A) (A) (A)
                 (A) (A) (A) (A) (A) (A) (A) (A) (A) (A) (A) (A)
                 (A) (A) (A) (A) (A)
       Virtual   (A) (A) (A) (A) (A) (A) (A) (A) (A) (A) (A) (A)
                 (A) (A) (A) (A) (A) (A) (A) (A) (A) (A) (A) (A)
                 (A) (A) (A) (A) (A) (A) (A) (A) (A) (A) (A) (A)
                 (A) (A) (A) (A) (A) (A) (A) (A) (A) (A) (A) (A)
                 (A) (A) (A) (A) (A) (A) (A) (A) (A) (A) (A) (A)
                 (A) (A) (A) (A) (A) (A) (A) (A) (A) (A) (A) (A)
                 (A) (A) (A) (A) (A) (A) (A) (A) (A) (A) (A) (A)
                 (A) (A) (A) (A) (A) (A) (A) (A) (A) (A) (A) (A)
                 (A) (A) (A) (A) (A) (A) (A) (A) (A) (A) (A) (A)
                 (A) (A) (A) (A) (A) (A) (A) (A) (A) (A) (A) (A)
                 (A) (A) (A) (A) (A) (A) (A) (A) (A) (A) (A) (A)
                 (A) (A) (A) (A) (A) (A) (A) (A) (A) (A) (A) (A)
                 (A) (A) (A) (A) (A) (A) (A) (A) (A) (A) (A) (A)
                 (A) (A) (A) (A) (A) (A) (A) (A) (A) (A) (A) (A)
                 (A) (A) (A) (A) (A) (A) (A) (A) (A) (A) (A) (A)
                 (A) (A) (A) (A) (A) (A) (A) (A) (A) (A) (A) (A)
                 (A) (A) (A) (A) (A) (A) (A) (A) (A) (A) (A) (A)
                 (A) (A) (A) (A) (A) (A) (A) (A) (A) (A) (A) (A)
                 (A) (A) (A) (A) (A) (A) (A) (A) (A) (A) (A) (A)
                 (A) (A) (A) (A) (A) (A) (A) (A) (A) (A) (A) (A)
                 (A) (A) (A) (A) (A) (A) (A) (A) (A) (A) (A) (A)
                 (A) (A) (A) (A) (A) (A) (A) (A) (A) (A) (A) (A)
                 (A) (A) (A) (A) (A) (A) (A) (A) (A) (A) (A) (A)
                 (A) (A) (A) (A) (A) (A) (A) (A) (A) (A) (A) (A)
                 (A) (A) (A) (A) (A) (A) (A) (A) (A) (A) (A) (A)
                 (A) (A) (A) (A) (A) (A) (A) (A) (A) (A) (A) (A)
                 (A) (A) (A) (A) (A) (A) (A) (A) (A) (A) (A) (A)
                 (A) (A) (A) (A) (A) (A) (A) (A) (A) (A) (A) (A)
                 (A) (A) (A) (A) (A) (A) (A) (A) (A) (A) (A) (A)
                 (A) (A) (A) (A) (A) (A) (A) (A) (A) (A) (A) (A)
                 (A) (A) (A) (A) (A) (A) (A) (A) (A) (A) (A) (A)
                 (A) (A) (A) (A) (A) (A) (A) (A) (A) (A) (A) (A)
                 (A) (A) (A) (A) (A) (A) (A) (A) (A) (A) (A) (A)
                 (A) (A) (A) (A) (A) (A) (A) (A) (A) (A) (A) (A)
                 (A) (A) (A) (A) (A) (A) (A) (A) (A) (A) (A) (A)
                 (A) (A) (A) (A) (A) (A) (A) (A) (A) (A) (A) (A)
                 (A)
 The electronic state of the initial guess is 1-A.
 Requested convergence on RMS density matrix=1.00D-08 within 128 cycles.
 Requested convergence on MAX density matrix=1.00D-06.
 Requested convergence on             energy=1.00D-06.
 No special actions if energy rises.
 Integral accuracy reduced to 1.0D-05 until final iterations.
 Initial convergence to 1.0D-05 achieved.  Increase integral accuracy.
 SCF Done:  E(RB3LYP) =  -1718.35556974     A.U. after   15 cycles
             Convg  =    0.3930D-08             -V/T =  2.0091

 **********************************************************************

            Population analysis using the SCF density.

 **********************************************************************

 Orbital symmetries:
       Occupied  (A) (A) (A) (A) (A) (A) (A) (A) (A) (A) (A) (A)
                 (A) (A) (A) (A) (A) (A) (A) (A) (A) (A) (A) (A)
                 (A) (A) (A) (A) (A) (A) (A) (A) (A) (A) (A) (A)
                 (A) (A) (A) (A) (A) (A) (A) (A) (A) (A) (A) (A)
                 (A) (A) (A) (A) (A) (A) (A) (A) (A) (A) (A) (A)
                 (A) (A) (A) (A) (A) (A) (A) (A) (A) (A) (A) (A)
                 (A) (A) (A) (A) (A) (A) (A) (A) (A) (A) (A) (A)
                 (A) (A) (A) (A) (A) (A) (A) (A) (A) (A) (A) (A)
                 (A) (A) (A) (A) (A) (A) (A) (A) (A) (A) (A) (A)
                 (A) (A) (A) (A) (A) (A) (A) (A) (A) (A) (A) (A)
                 (A) (A) (A) (A) (A)
       Virtual   (A) (A) (A) (A) (A) (A) (A) (A) (A) (A) (A) (A)
                 (A) (A) (A) (A) (A) (A) (A) (A) (A) (A) (A) (A)
                 (A) (A) (A) (A) (A) (A) (A) (A) (A) (A) (A) (A)
                 (A) (A) (A) (A) (A) (A) (A) (A) (A) (A) (A) (A)
                 (A) (A) (A) (A) (A) (A) (A) (A) (A) (A) (A) (A)
                 (A) (A) (A) (A) (A) (A) (A) (A) (A) (A) (A) (A)
                 (A) (A) (A) (A) (A) (A) (A) (A) (A) (A) (A) (A)
                 (A) (A) (A) (A) (A) (A) (A) (A) (A) (A) (A) (A)
                 (A) (A) (A) (A) (A) (A) (A) (A) (A) (A) (A) (A)
                 (A) (A) (A) (A) (A) (A) (A) (A) (A) (A) (A) (A)
                 (A) (A) (A) (A) (A) (A) (A) (A) (A) (A) (A) (A)
                 (A) (A) (A) (A) (A) (A) (A) (A) (A) (A) (A) (A)
                 (A) (A) (A) (A) (A) (A) (A) (A) (A) (A) (A) (A)
                 (A) (A) (A) (A) (A) (A) (A) (A) (A) (A) (A) (A)
                 (A) (A) (A) (A) (A) (A) (A) (A) (A) (A) (A) (A)
                 (A) (A) (A) (A) (A) (A) (A) (A) (A) (A) (A) (A)
                 (A) (A) (A) (A) (A) (A) (A) (A) (A) (A) (A) (A)
                 (A) (A) (A) (A) (A) (A) (A) (A) (A) (A) (A) (A)
                 (A) (A) (A) (A) (A) (A) (A) (A) (A) (A) (A) (A)
                 (A) (A) (A) (A) (A) (A) (A) (A) (A) (A) (A) (A)
                 (A) (A) (A) (A) (A) (A) (A) (A) (A) (A) (A) (A)
                 (A) (A) (A) (A) (A) (A) (A) (A) (A) (A) (A) (A)
                 (A) (A) (A) (A) (A) (A) (A) (A) (A) (A) (A) (A)
                 (A) (A) (A) (A) (A) (A) (A) (A) (A) (A) (A) (A)
                 (A) (A) (A) (A) (A) (A) (A) (A) (A) (A) (A) (A)
                 (A) (A) (A) (A) (A) (A) (A) (A) (A) (A) (A) (A)
                 (A) (A) (A) (A) (A) (A) (A) (A) (A) (A) (A) (A)
                 (A) (A) (A) (A) (A) (A) (A) (A) (A) (A) (A) (A)
                 (A) (A) (A) (A) (A) (A) (A) (A) (A) (A) (A) (A)
                 (A) (A) (A) (A) (A) (A) (A) (A) (A) (A) (A) (A)
                 (A) (A) (A) (A) (A) (A) (A) (A) (A) (A) (A) (A)
                 (A) (A) (A) (A) (A) (A) (A) (A) (A) (A) (A) (A)
                 (A) (A) (A) (A) (A) (A) (A) (A) (A) (A) (A) (A)
                 (A) (A) (A) (A) (A) (A) (A) (A) (A) (A) (A) (A)
                 (A) (A) (A) (A) (A) (A) (A) (A) (A) (A) (A) (A)
                 (A) (A) (A) (A) (A) (A) (A) (A) (A) (A) (A) (A)
                 (A)
 The electronic state is 1-A.
 Alpha  occ. eigenvalues --  -19.22540 -19.21614 -19.19961 -19.19431 -19.18178
 Alpha  occ. eigenvalues --  -19.16533 -19.15264 -19.15233 -19.14572 -19.14410
 Alpha  occ. eigenvalues --  -19.14203 -10.33647 -10.33220 -10.32127 -10.28861
 Alpha  occ. eigenvalues --  -10.27402 -10.26732 -10.26611 -10.25547 -10.24943
 Alpha  occ. eigenvalues --  -10.24469 -10.24416 -10.22269 -10.22126 -10.21861
 Alpha  occ. eigenvalues --  -10.21557 -10.21517 -10.21494 -10.20933 -10.20590
 Alpha  occ. eigenvalues --  -10.20347 -10.19706 -10.19634 -10.19094  -1.12642
 Alpha  occ. eigenvalues --   -1.12096  -1.10549  -1.07396  -1.06042  -1.05320
 Alpha  occ. eigenvalues --   -1.03112  -1.02629  -1.02169  -1.01820  -1.01035
 Alpha  occ. eigenvalues --   -0.87983  -0.86113  -0.84517  -0.80905  -0.79410
 Alpha  occ. eigenvalues --   -0.77149  -0.76204  -0.75860  -0.74561  -0.72115
 Alpha  occ. eigenvalues --   -0.70791  -0.69032  -0.66340  -0.65472  -0.64302
 Alpha  occ. eigenvalues --   -0.63894  -0.62546  -0.61347  -0.59114  -0.57954
 Alpha  occ. eigenvalues --   -0.56997  -0.55463  -0.54923  -0.54117  -0.53007
 Alpha  occ. eigenvalues --   -0.52207  -0.51683  -0.50884  -0.49722  -0.49312
 Alpha  occ. eigenvalues --   -0.48986  -0.48799  -0.48697  -0.47958  -0.47394
 Alpha  occ. eigenvalues --   -0.47276  -0.46237  -0.45783  -0.45603  -0.44831
 Alpha  occ. eigenvalues --   -0.44533  -0.43891  -0.43669  -0.42896  -0.42732
 Alpha  occ. eigenvalues --   -0.42380  -0.42041  -0.41627  -0.41159  -0.40886
 Alpha  occ. eigenvalues --   -0.40646  -0.40337  -0.39909  -0.39715  -0.38923
 Alpha  occ. eigenvalues --   -0.38854  -0.38279  -0.37760  -0.37530  -0.37266
 Alpha  occ. eigenvalues --   -0.36119  -0.35752  -0.35065  -0.34955  -0.34694
 Alpha  occ. eigenvalues --   -0.33556  -0.33412  -0.32784  -0.32589  -0.30747
 Alpha  occ. eigenvalues --   -0.29774  -0.28345  -0.28105  -0.27952  -0.27842
 Alpha  occ. eigenvalues --   -0.27640  -0.26658  -0.25984  -0.23428  -0.21946
 Alpha virt. eigenvalues --   -0.04822  -0.04227  -0.02951  -0.01675   0.03558
 Alpha virt. eigenvalues --    0.05245   0.05578   0.06004   0.06370   0.07219
 Alpha virt. eigenvalues --    0.07587   0.09313   0.10432   0.10546   0.10784
 Alpha virt. eigenvalues --    0.10881   0.11692   0.12424   0.12747   0.13011
 Alpha virt. eigenvalues --    0.13410   0.13603   0.14843   0.15017   0.15186
 Alpha virt. eigenvalues --    0.15812   0.16047   0.16597   0.16686   0.16987
 Alpha virt. eigenvalues --    0.17374   0.18026   0.18312   0.18717   0.18821
 Alpha virt. eigenvalues --    0.19187   0.19659   0.20036   0.20786   0.21089
 Alpha virt. eigenvalues --    0.21130   0.22464   0.23083   0.23762   0.24198
 Alpha virt. eigenvalues --    0.24717   0.25335   0.25873   0.26763   0.27269
 Alpha virt. eigenvalues --    0.27427   0.28584   0.29119   0.31700   0.32354
 Alpha virt. eigenvalues --    0.32875   0.33915   0.34362   0.36655   0.37199
 Alpha virt. eigenvalues --    0.38669   0.39578   0.40775   0.41452   0.42909
 Alpha virt. eigenvalues --    0.43437   0.45405   0.46848   0.48447   0.49950
 Alpha virt. eigenvalues --    0.50341   0.50950   0.51278   0.51348   0.51718
 Alpha virt. eigenvalues --    0.52360   0.52736   0.53126   0.54406   0.54688
 Alpha virt. eigenvalues --    0.55095   0.55525   0.55778   0.56041   0.56222
 Alpha virt. eigenvalues --    0.56631   0.57445   0.57918   0.58435   0.58770
 Alpha virt. eigenvalues --    0.59325   0.59718   0.60258   0.61258   0.61872
 Alpha virt. eigenvalues --    0.62208   0.62959   0.63287   0.63416   0.64221
 Alpha virt. eigenvalues --    0.64778   0.65163   0.65532   0.66651   0.67407
 Alpha virt. eigenvalues --    0.67738   0.68769   0.69570   0.70029   0.70319
 Alpha virt. eigenvalues --    0.70694   0.71531   0.72285   0.72623   0.73008
 Alpha virt. eigenvalues --    0.73574   0.74202   0.74557   0.74666   0.75086
 Alpha virt. eigenvalues --    0.75986   0.76370   0.77113   0.77537   0.78777
 Alpha virt. eigenvalues --    0.78935   0.79649   0.80344   0.81477   0.82167
 Alpha virt. eigenvalues --    0.82342   0.82762   0.83428   0.84410   0.84618
 Alpha virt. eigenvalues --    0.84700   0.85267   0.85787   0.85888   0.86324
 Alpha virt. eigenvalues --    0.86922   0.88029   0.89551   0.89706   0.90784
 Alpha virt. eigenvalues --    0.90985   0.91260   0.91493   0.92711   0.93218
 Alpha virt. eigenvalues --    0.93384   0.93956   0.94505   0.95407   0.95610
 Alpha virt. eigenvalues --    0.95801   0.95955   0.96464   0.97242   0.97814
 Alpha virt. eigenvalues --    0.98272   0.98731   0.99231   0.99942   1.00468
 Alpha virt. eigenvalues --    1.00722   1.01030   1.01473   1.03152   1.03538
 Alpha virt. eigenvalues --    1.04103   1.05344   1.05803   1.05810   1.06771
 Alpha virt. eigenvalues --    1.07670   1.08285   1.09890   1.10163   1.12083
 Alpha virt. eigenvalues --    1.12282   1.12705   1.13458   1.14052   1.14776
 Alpha virt. eigenvalues --    1.15432   1.15810   1.17564   1.18332   1.19950
 Alpha virt. eigenvalues --    1.21548   1.22215   1.22638   1.23072   1.24418
 Alpha virt. eigenvalues --    1.25032   1.25310   1.26794   1.27654   1.29152
 Alpha virt. eigenvalues --    1.30367   1.31832   1.32436   1.33546   1.33836
 Alpha virt. eigenvalues --    1.34212   1.35598   1.36216   1.36864   1.37325
 Alpha virt. eigenvalues --    1.37806   1.38584   1.39326   1.39535   1.40672
 Alpha virt. eigenvalues --    1.41621   1.41938   1.43283   1.43395   1.43884
 Alpha virt. eigenvalues --    1.44674   1.45117   1.46282   1.46547   1.49204
 Alpha virt. eigenvalues --    1.50570   1.52373   1.53770   1.56311   1.57479
 Alpha virt. eigenvalues --    1.58738   1.62086   1.62501   1.63626   1.64159
 Alpha virt. eigenvalues --    1.65253   1.66110   1.66701   1.68395   1.68841
 Alpha virt. eigenvalues --    1.69699   1.70125   1.70587   1.70823   1.71121
 Alpha virt. eigenvalues --    1.71395   1.71793   1.73070   1.73829   1.74223
 Alpha virt. eigenvalues --    1.74871   1.75316   1.76219   1.76593   1.77073
 Alpha virt. eigenvalues --    1.77953   1.78979   1.79639   1.80634   1.80913
 Alpha virt. eigenvalues --    1.81156   1.81559   1.82582   1.82816   1.83238
 Alpha virt. eigenvalues --    1.83649   1.84930   1.85976   1.86438   1.86514
 Alpha virt. eigenvalues --    1.86884   1.87115   1.87891   1.88205   1.89524
 Alpha virt. eigenvalues --    1.89782   1.90486   1.91012   1.91994   1.92777
 Alpha virt. eigenvalues --    1.93619   1.93846   1.94562   1.94804   1.94977
 Alpha virt. eigenvalues --    1.97374   1.97819   1.98442   1.98864   1.99929
 Alpha virt. eigenvalues --    2.00843   2.02172   2.02455   2.03178   2.03424
 Alpha virt. eigenvalues --    2.04040   2.04718   2.05900   2.06310   2.06510
 Alpha virt. eigenvalues --    2.07413   2.08117   2.09003   2.09911   2.10535
 Alpha virt. eigenvalues --    2.11967   2.13428   2.13651   2.15384   2.16118
 Alpha virt. eigenvalues --    2.18539   2.19775   2.20640   2.21568   2.22634
 Alpha virt. eigenvalues --    2.23737   2.24780   2.26047   2.26828   2.27481
 Alpha virt. eigenvalues --    2.27851   2.29072   2.29708   2.30283   2.30323
 Alpha virt. eigenvalues --    2.30951   2.32200   2.32849   2.33262   2.34256
 Alpha virt. eigenvalues --    2.34690   2.36054   2.36218   2.37837   2.38756
 Alpha virt. eigenvalues --    2.39218   2.40076   2.40569   2.42529   2.42962
 Alpha virt. eigenvalues --    2.43605   2.44861   2.45078   2.46419   2.47102
 Alpha virt. eigenvalues --    2.48806   2.50425   2.51857   2.52273   2.52652
 Alpha virt. eigenvalues --    2.53813   2.54544   2.55947   2.57232   2.58362
 Alpha virt. eigenvalues --    2.58529   2.61873   2.62068   2.62866   2.63882
 Alpha virt. eigenvalues --    2.65998   2.66687   2.67322   2.67910   2.68893
 Alpha virt. eigenvalues --    2.69994   2.70763   2.72809   2.74147   2.74928
 Alpha virt. eigenvalues --    2.75969   2.76973   2.77800   2.78772   2.79171
 Alpha virt. eigenvalues --    2.81651   2.85199   2.85849   2.87730   2.89896
 Alpha virt. eigenvalues --    2.91268   2.94251   2.94644   2.96154   2.97251
 Alpha virt. eigenvalues --    3.00302   3.01245   3.02307   3.05040   3.05290
 Alpha virt. eigenvalues --    3.07261   3.07973   3.12485   3.15550   3.16497
 Alpha virt. eigenvalues --    3.21789   3.23298   3.41210   3.49718   3.75269
 Alpha virt. eigenvalues --    3.89019   3.92577   3.96536   3.96633   3.99149
 Alpha virt. eigenvalues --    4.05117   4.07497   4.10217   4.13565   4.17109
 Alpha virt. eigenvalues --    4.18223   4.21301   4.23294   4.24434   4.24816
 Alpha virt. eigenvalues --    4.29217   4.31744   4.32918   4.33605   4.36859
 Alpha virt. eigenvalues --    4.38299   4.39944   4.48054   4.50313   4.51845
 Alpha virt. eigenvalues --    4.53194   4.54457   4.57871   4.63659   4.71738
 Alpha virt. eigenvalues --    4.74519   4.79691   4.87988
          Condensed to atoms (all electrons):
 Mulliken atomic charges:
              1
     1  C    0.118396
     2  C    0.295650
     3  C   -0.274629
     4  C    0.125381
     5  C   -0.066880
     6  C    0.230273
     7  C    0.077118
     8  C    0.272583
     9  O   -0.513017
    10  C    0.636111
    11  C   -0.379907
    12  C    0.261032
    13  C   -0.312806
    14  C   -0.353805
    15  C   -0.575981
    16  O   -0.672017
    17  O   -0.641539
    18  O   -0.534951
    19  O   -0.555301
    20  C    0.125356
    21  C    0.087605
    22  C    0.106481
    23  C   -0.146240
    24  C    0.048879
    25  C   -0.367494
    26  O   -0.667281
    27  O   -0.639290
    28  C    0.611020
    29  O   -0.458617
    30  O   -0.490416
    31  C   -0.220660
    32  C    0.590633
    33  O   -0.568206
    34  O   -0.475935
    35  H    0.140722
    36  H    0.175750
    37  H    0.196446
    38  H    0.175956
    39  H    0.163111
    40  H    0.184518
    41  H    0.176235
    42  H    0.209197
    43  H    0.161581
    44  H    0.159707
    45  H    0.450373
    46  H    0.419746
    47  H    0.134529
    48  H    0.148622
    49  H    0.146115
    50  H    0.176779
    51  H    0.163745
    52  H    0.201150
    53  H    0.410853
    54  H    0.406426
    55  H    0.166141
    56  H    0.172155
    57  H    0.168928
    58  H    0.419669
 Sum of Mulliken atomic charges =   0.00000
 Mulliken charges with hydrogens summed into heavy atoms:
              1
     1  C    0.118396
     2  C    0.295650
     3  C   -0.133907
     4  C    0.125381
     5  C   -0.066880
     6  C    0.230273
     7  C    0.077118
     8  C    0.272583
     9  O   -0.513017
    10  C    0.636111
    11  C   -0.007711
    12  C    0.261032
    13  C    0.026261
    14  C    0.006948
    15  C   -0.045496
    16  O   -0.221644
    17  O   -0.221793
    18  O   -0.534951
    19  O   -0.555301
    20  C    0.259886
    21  C    0.236227
    22  C    0.252596
    23  C    0.030539
    24  C    0.048879
    25  C   -0.002599
    26  O   -0.256429
    27  O   -0.232864
    28  C    0.611020
    29  O   -0.458617
    30  O   -0.490416
    31  C    0.286564
    32  C    0.590633
    33  O   -0.148537
    34  O   -0.475935
 Sum of Mulliken charges with hydrogens summed into heavy atoms =   0.00000
 Electronic spatial extent (au):  <R**2>=          20881.9162
 Charge=              0.0000 electrons
 Dipole moment (field-independent basis, Debye):
    X=              0.8595    Y=              2.7996    Z=              0.8948  Tot=              3.0622
 Quadrupole moment (field-independent basis, Debye-Ang):
   XX=           -174.7982   YY=           -203.0870   ZZ=           -192.4749
   XY=            -15.4745   XZ=             21.6410   YZ=              5.0461
 Traceless Quadrupole moment (field-independent basis, Debye-Ang):
   XX=             15.3218   YY=            -12.9670   ZZ=             -2.3548
   XY=            -15.4745   XZ=             21.6410   YZ=              5.0461
 Octapole moment (field-independent basis, Debye-Ang**2):
  XXX=            159.7879  YYY=             40.2632  ZZZ=             -8.9822  XYY=             10.0036
  XXY=             97.4417  XXZ=            -90.4155  XZZ=            -12.3999  YZZ=             14.1098
  YYZ=             10.1888  XYZ=            -17.0253
 Hexadecapole moment (field-independent basis, Debye-Ang**3):
 XXXX=         -18163.0637 YYYY=          -3124.4236 ZZZZ=          -1782.7501 XXXY=           -454.2751
 XXXZ=            716.1902 YYYX=             69.2840 YYYZ=            150.9765 ZZZX=            107.0212
 ZZZY=             -1.5366 XXYY=          -4383.6734 XXZZ=          -3765.4067 YYZZ=           -883.4547
 XXYZ=           -184.0199 YYXZ=            142.7015 ZZXY=            -19.8102
 N-N= 3.656483098618D+03 E-N=-1.132631674276D+04  KE= 1.702816644994D+03
 Calling FoFJK, ICntrl=      2127 FMM=T ISym2X=0 I1Cent= 0 IOpClX= 0 NMat=1 NMatS=1 NMatT=0.
 ***** Axes restored to original set *****
 -------------------------------------------------------------------
 Center     Atomic                   Forces (Hartrees/Bohr)
 Number     Number              X              Y              Z
 -------------------------------------------------------------------
      1        6           0.004106944   -0.005585833   -0.005569060
      2        6          -0.005838927    0.004439187   -0.000364693
      3        6          -0.008315493    0.004487803   -0.002370946
      4        6          -0.010256666    0.014254476    0.015328547
      5        6          -0.003613886   -0.008712060   -0.025799518
      6        6           0.018772982   -0.016291165   -0.006209727
      7        6           0.010404160   -0.008538443    0.006098713
      8        6           0.005945284   -0.002579207   -0.006895524
      9        8          -0.010102705    0.005576663   -0.003169643
     10        6           0.013889766    0.005678618    0.036874324
     11        6           0.002083593   -0.005517310    0.001350726
     12        6           0.011286985   -0.001059223    0.002895799
     13        6           0.000335305    0.003021975   -0.002847607
     14        6           0.003234879   -0.008429028   -0.003209366
     15        6           0.000286574   -0.000443013    0.000306075
     16        8          -0.008883239    0.013538464    0.016012983
     17        8           0.002462191   -0.003263400   -0.002765933
     18        8          -0.012831540   -0.000048074   -0.022170038
     19        8           0.000522021    0.009463183   -0.000971913
     20        6          -0.011264266   -0.005235532    0.005738498
     21        6           0.019803245    0.003166696   -0.004398779
     22        6           0.004054273   -0.008594577    0.009624145
     23        6          -0.002757101    0.007314051    0.002492907
     24        6           0.004014164   -0.007761129   -0.006092784
     25        6           0.005060990    0.005474739    0.001260336
     26        8          -0.001704537    0.002093287   -0.003745623
     27        8          -0.000081053   -0.006001032    0.003876089
     28        6           0.009630635   -0.000694977    0.000848872
     29        8           0.000495412    0.007532918    0.001698164
     30        8          -0.008948171   -0.011403570   -0.003101774
     31        6          -0.009704721    0.003070452   -0.002736760
     32        6          -0.023601596    0.003713789    0.016837417
     33        8           0.003083979    0.002951771   -0.006581025
     34        8           0.012542862   -0.011495545   -0.008898309
     35        1           0.001416124   -0.001751550   -0.000717936
     36        1          -0.003486740    0.001101147    0.000877905
     37        1          -0.000979727    0.002849569   -0.002157957
     38        1          -0.003556586   -0.000739035    0.004470634
     39        1           0.000485501    0.000355519    0.000676309
     40        1          -0.000411419   -0.002352426   -0.001317481
     41        1           0.000901592   -0.002323827    0.000008582
     42        1          -0.003796760    0.001942830   -0.002469366
     43        1           0.002564073    0.000720714    0.003913991
     44        1           0.001704087    0.000146408    0.004337883
     45        1          -0.007235140    0.004172702   -0.002289952
     46        1           0.000184407   -0.000452125   -0.000895731
     47        1          -0.001021718   -0.000291081   -0.001960246
     48        1          -0.009770102    0.006176815   -0.001774841
     49        1           0.007399778    0.004801783   -0.004127413
     50        1           0.000508312    0.001017142    0.002025328
     51        1          -0.005107819    0.002146596    0.002418634
     52        1           0.003594004    0.001990105   -0.000374870
     53        1          -0.004445856   -0.003402151   -0.002179876
     54        1          -0.004003332    0.001303047   -0.001482080
     55        1           0.003955700   -0.004180584    0.000652767
     56        1           0.002218677    0.002482910   -0.001808644
     57        1           0.000689032    0.002190014    0.003039670
     58        1           0.004081567   -0.002029474   -0.002209880
 -------------------------------------------------------------------
 Cartesian Forces:  Max     0.036874324 RMS     0.007321680

 GradGradGradGradGradGradGradGradGradGradGradGradGradGradGradGradGradGrad
 Berny optimization.
 Internal  Forces:  Max     0.027785018 RMS     0.004569824
 Search for a local minimum.
 Step number   1 out of a maximum of  340
 All quantities printed in internal units (Hartrees-Bohrs-Radians)
 Mixed Optimization -- RFO/linear search
 Second derivative matrix not updated -- first step.
 ITU=  0
     Eigenvalues ---    0.00230   0.00467   0.00519   0.00571   0.00585
     Eigenvalues ---    0.00715   0.00716   0.00874   0.01138   0.01166
     Eigenvalues ---    0.01168   0.01181   0.01201   0.01279   0.01289
     Eigenvalues ---    0.01326   0.01357   0.01365   0.01366   0.01419
     Eigenvalues ---    0.01510   0.01643   0.01717   0.01745   0.01801
     Eigenvalues ---    0.01905   0.01980   0.02022   0.02033   0.02096
     Eigenvalues ---    0.02105   0.02122   0.02124   0.02283   0.02396
     Eigenvalues ---    0.02784   0.03084   0.03395   0.03548   0.04033
     Eigenvalues ---    0.04347   0.04685   0.04732   0.04797   0.04941
     Eigenvalues ---    0.05150   0.05425   0.05750   0.05761   0.05879
     Eigenvalues ---    0.06174   0.06684   0.07054   0.07150   0.07332
     Eigenvalues ---    0.07912   0.08128   0.08242   0.08264   0.08532
     Eigenvalues ---    0.09473   0.09563   0.09646   0.09889   0.09978
     Eigenvalues ---    0.10112   0.10499   0.11860   0.12005   0.14322
     Eigenvalues ---    0.14702   0.16000   0.16000   0.16000   0.16000
     Eigenvalues ---    0.16000   0.16000   0.16000   0.16000   0.16000
     Eigenvalues ---    0.16000   0.16000   0.16000   0.16647   0.16715
     Eigenvalues ---    0.17090   0.18956   0.19308   0.19889   0.22958
     Eigenvalues ---    0.23527   0.24357   0.24991   0.24995   0.24996
     Eigenvalues ---    0.24996   0.24999   0.24999   0.24999   0.25000
     Eigenvalues ---    0.25000   0.25000   0.25000   0.25000   0.25000
     Eigenvalues ---    0.25000   0.25000   0.26500   0.27415   0.27623
     Eigenvalues ---    0.27856   0.28165   0.28273   0.28633   0.30336
     Eigenvalues ---    0.30832   0.31565   0.31976   0.32284   0.32666
     Eigenvalues ---    0.33252   0.33810   0.33812   0.33843   0.33926
     Eigenvalues ---    0.34042   0.34049   0.34070   0.34124   0.34136
     Eigenvalues ---    0.34167   0.34224   0.34229   0.34235   0.34291
     Eigenvalues ---    0.34295   0.34397   0.34411   0.34615   0.35096
     Eigenvalues ---    0.35145   0.38356   0.39331   0.39642   0.39775
     Eigenvalues ---    0.40833   0.41330   0.41669   0.43262   0.44370
     Eigenvalues ---    0.45216   0.45434   0.45919   0.49731   0.50223
     Eigenvalues ---    0.50720   0.50912   0.51499   0.51715   0.52061
     Eigenvalues ---    0.52699   0.53316   0.53483   0.53908   0.55708
     Eigenvalues ---    0.91582   0.94213   0.94634
 RFO step:  Lambda=-2.58788952D-02 EMin= 2.30000000D-03
 Linear search not attempted -- first point.
 Maximum step size (   0.300) exceeded in Quadratic search.
    -- Step size scaled by   0.998
 Iteration  1 RMS(Cart)=  0.10474212 RMS(Int)=  0.00185858
 Iteration  2 RMS(Cart)=  0.00359830 RMS(Int)=  0.00033843
 Iteration  3 RMS(Cart)=  0.00000836 RMS(Int)=  0.00033840
 Iteration  4 RMS(Cart)=  0.00000002 RMS(Int)=  0.00033840
 Variable       Old X    -DE/DX   Delta X   Delta X   Delta X     New X
                                 (Linear)    (Quad)   (Total)
    R1        2.64155   0.00573   0.00000   0.01079   0.01108   2.65263
    R2        2.65277  -0.00137   0.00000  -0.00309  -0.00319   2.64959
    R3        2.84188   0.00365   0.00000   0.01054   0.01054   2.85242
    R4        2.64032   0.00147   0.00000   0.00226   0.00264   2.64295
    R5        2.58382  -0.00491   0.00000  -0.00907  -0.00907   2.57476
    R6        2.64786  -0.00505   0.00000  -0.01030  -0.01020   2.63766
    R7        2.05440  -0.00235   0.00000  -0.00621  -0.00621   2.04819
    R8        2.64762   0.01173   0.00000   0.02713   0.02652   2.67414
    R9        2.78460  -0.00973   0.00000  -0.02444  -0.02435   2.76024
   R10        2.67013   0.00124   0.00000   0.00479   0.00338   2.67351
   R11        2.79701  -0.01017   0.00000  -0.02509  -0.02631   2.77071
   R12        2.59852  -0.02779   0.00000  -0.05235  -0.05258   2.54593
   R13        2.53701   0.00341   0.00000   0.00676   0.00712   2.54414
   R14        2.86538  -0.00229   0.00000  -0.00669  -0.00667   2.85870
   R15        2.65943  -0.01950   0.00000  -0.04318  -0.04285   2.61658
   R16        2.83774  -0.00526   0.00000  -0.01210  -0.01216   2.82558
   R17        2.57054  -0.00237   0.00000  -0.00512  -0.00518   2.56536
   R18        2.32115  -0.00091   0.00000  -0.00114  -0.00103   2.32012
   R19        2.94440  -0.00401   0.00000  -0.01720  -0.01714   2.92726
   R20        2.07649  -0.00029   0.00000  -0.00080  -0.00080   2.07569
   R21        2.07596  -0.00247   0.00000  -0.00675  -0.00675   2.06920
   R22        2.90889  -0.00026   0.00000  -0.00310  -0.00308   2.90581
   R23        2.72472  -0.01235   0.00000  -0.02939  -0.02939   2.69533
   R24        2.91546  -0.00405   0.00000  -0.01311  -0.01311   2.90235
   R25        2.88997   0.00415   0.00000   0.01238   0.01237   2.90234
   R26        2.07653  -0.00323   0.00000  -0.00885  -0.00885   2.06768
   R27        2.07101  -0.00078   0.00000  -0.00211  -0.00211   2.06889
   R28        2.07050   0.00231   0.00000   0.00627   0.00627   2.07677
   R29        2.07260  -0.00001   0.00000  -0.00002  -0.00002   2.07258
   R30        2.06666  -0.00265   0.00000  -0.00716  -0.00716   2.05949
   R31        2.06936   0.00291   0.00000   0.00788   0.00788   2.07724
   R32        2.06954   0.00294   0.00000   0.00796   0.00796   2.07750
   R33        1.85882   0.00489   0.00000   0.00821   0.00920   1.86801
   R34        1.83360  -0.00019   0.00000  -0.00033  -0.00033   1.83327
   R35        3.21542   0.00337   0.00000   0.02742   0.02851   3.24393
   R36        2.72043  -0.00277   0.00000  -0.00656  -0.00656   2.71387
   R37        2.90729  -0.00783   0.00000  -0.02237  -0.02239   2.88489
   R38        2.90392  -0.00026   0.00000  -0.00349  -0.00345   2.90047
   R39        2.06945   0.00158   0.00000   0.00428   0.00428   2.07373
   R40        2.90409  -0.00810   0.00000  -0.02656  -0.02653   2.87756
   R41        2.71860  -0.00351   0.00000  -0.00826  -0.00826   2.71034
   R42        2.07455   0.00066   0.00000   0.00181   0.00181   2.07636
   R43        2.82476   0.00337   0.00000   0.01048   0.01046   2.83522
   R44        2.69347   0.00647   0.00000   0.01458   0.01458   2.70806
   R45        2.07213   0.00487   0.00000   0.01325   0.01325   2.08538
   R46        2.54521  -0.00458   0.00000  -0.00758  -0.00761   2.53760
   R47        2.05520  -0.00156   0.00000  -0.00412  -0.00412   2.05108
   R48        2.85241   0.00234   0.00000   0.00619   0.00618   2.85859
   R49        2.81911   0.00076   0.00000   0.00213   0.00213   2.82124
   R50        2.07121  -0.00040   0.00000  -0.00108  -0.00108   2.07013
   R51        2.07247  -0.00038   0.00000  -0.00104  -0.00104   2.07142
   R52        1.84874  -0.00593   0.00000  -0.01090  -0.01090   1.83783
   R53        1.84541  -0.00418   0.00000  -0.00764  -0.00764   1.83777
   R54        2.56115  -0.00320   0.00000  -0.00565  -0.00565   2.55550
   R55        2.31050  -0.01274   0.00000  -0.01313  -0.01313   2.29737
   R56        2.69785   0.00454   0.00000   0.01031   0.01031   2.70816
   R57        2.06642  -0.00109   0.00000  -0.00293  -0.00293   2.06349
   R58        2.06841  -0.00082   0.00000  -0.00223  -0.00223   2.06618
   R59        2.06835  -0.00066   0.00000  -0.00179  -0.00179   2.06656
   R60        2.54508   0.00703   0.00000   0.01204   0.01204   2.55712
   R61        2.30868  -0.01561   0.00000  -0.01602  -0.01602   2.29266
   R62        1.85656  -0.00465   0.00000  -0.00866  -0.00866   1.84790
    A1        2.04974  -0.00040   0.00000  -0.00106  -0.00149   2.04825
    A2        2.11620  -0.00112   0.00000  -0.00423  -0.00402   2.11218
    A3        2.11723   0.00152   0.00000   0.00531   0.00552   2.12275
    A4        2.12202   0.00435   0.00000   0.01523   0.01525   2.13727
    A5        2.14685  -0.00720   0.00000  -0.02580  -0.02581   2.12104
    A6        2.01431   0.00285   0.00000   0.01058   0.01056   2.02487
    A7        2.11463  -0.00611   0.00000  -0.02293  -0.02309   2.09154
    A8        2.04740   0.00303   0.00000   0.01134   0.01143   2.05883
    A9        2.12115   0.00308   0.00000   0.01159   0.01167   2.13282
   A10        2.05890   0.00599   0.00000   0.02288   0.02247   2.08137
   A11        2.13339   0.00376   0.00000   0.00762   0.00844   2.14184
   A12        2.09086  -0.00975   0.00000  -0.03049  -0.03090   2.05996
   A13        2.10451  -0.00394   0.00000  -0.01527  -0.01441   2.09011
   A14        2.08735   0.00296   0.00000   0.01165   0.01253   2.09988
   A15        2.09129   0.00098   0.00000   0.00363   0.00189   2.09318
   A16        2.11647   0.00011   0.00000   0.00119   0.00131   2.11778
   A17        2.03988   0.00502   0.00000   0.01366   0.01542   2.05530
   A18        2.12683  -0.00513   0.00000  -0.01485  -0.01673   2.11010
   A19        2.05581   0.00426   0.00000   0.01725   0.01721   2.07302
   A20        2.10461  -0.00128   0.00000  -0.00637  -0.00634   2.09827
   A21        2.12277  -0.00298   0.00000  -0.01089  -0.01088   2.11189
   A22        2.14827   0.00161   0.00000   0.00159   0.00177   2.15004
   A23        2.15876   0.00705   0.00000   0.03098   0.03079   2.18955
   A24        1.97608  -0.00864   0.00000  -0.03241  -0.03248   1.94360
   A25        2.13209   0.00044   0.00000  -0.00187  -0.00231   2.12977
   A26        2.05111   0.00050   0.00000   0.00209   0.00191   2.05302
   A27        2.10192   0.02564   0.00000   0.09516   0.09399   2.19591
   A28        2.13010  -0.02614   0.00000  -0.09722  -0.09587   2.03423
   A29        2.00289  -0.00145   0.00000  -0.01338  -0.01326   1.98963
   A30        1.88029   0.00323   0.00000   0.02799   0.02795   1.90824
   A31        1.90297   0.00175   0.00000   0.01560   0.01539   1.91835
   A32        1.92170  -0.00207   0.00000  -0.01236  -0.01237   1.90933
   A33        1.87659  -0.00067   0.00000  -0.00924  -0.00917   1.86741
   A34        1.87562  -0.00077   0.00000  -0.00857  -0.00894   1.86669
   A35        1.89057   0.00333   0.00000   0.02416   0.02393   1.91449
   A36        1.83757  -0.00134   0.00000  -0.01377  -0.01368   1.82389
   A37        1.81684  -0.00036   0.00000   0.01032   0.00988   1.82672
   A38        1.96999  -0.00031   0.00000  -0.00480  -0.00462   1.96537
   A39        1.97633   0.00063   0.00000   0.01126   0.01080   1.98712
   A40        1.95885  -0.00184   0.00000  -0.02527  -0.02522   1.93363
   A41        1.95252  -0.00005   0.00000  -0.00674  -0.00647   1.94604
   A42        1.91920  -0.00414   0.00000  -0.02778  -0.02782   1.89139
   A43        1.94343   0.00111   0.00000   0.00253   0.00252   1.94595
   A44        1.88975   0.00421   0.00000   0.02967   0.02953   1.91928
   A45        1.91074  -0.00129   0.00000   0.00049   0.00035   1.91109
   A46        1.84438   0.00027   0.00000   0.00321   0.00304   1.84742
   A47        1.97039  -0.00577   0.00000  -0.02465  -0.02461   1.94578
   A48        1.89480   0.00123   0.00000   0.00526   0.00531   1.90011
   A49        1.91189   0.00082   0.00000  -0.00441  -0.00423   1.90766
   A50        1.92923   0.00254   0.00000   0.01436   0.01439   1.94361
   A51        1.89276   0.00309   0.00000   0.01763   0.01742   1.91018
   A52        1.86166  -0.00171   0.00000  -0.00750  -0.00766   1.85400
   A53        1.97551  -0.00757   0.00000  -0.04176  -0.04150   1.93401
   A54        1.91924   0.00505   0.00000   0.02747   0.02738   1.94662
   A55        1.92004   0.00470   0.00000   0.02599   0.02590   1.94594
   A56        1.87180   0.00079   0.00000   0.00280   0.00305   1.87484
   A57        1.86759   0.00114   0.00000   0.00535   0.00559   1.87318
   A58        1.90773  -0.00439   0.00000  -0.02131  -0.02172   1.88601
   A59        1.90939  -0.01935   0.00000  -0.10009  -0.10100   1.80839
   A60        1.91796  -0.00184   0.00000  -0.00986  -0.00986   1.90809
   A61        2.08387   0.00446   0.00000   0.01614   0.01614   2.10001
   A62        1.84978  -0.00524   0.00000  -0.03469  -0.03483   1.81494
   A63        1.99224   0.00066   0.00000   0.01105   0.01131   2.00355
   A64        1.90495   0.00172   0.00000   0.00742   0.00707   1.91202
   A65        1.90908   0.00580   0.00000   0.02800   0.02805   1.93713
   A66        1.87857  -0.00219   0.00000  -0.01083  -0.01093   1.86764
   A67        1.92468  -0.00104   0.00000  -0.00318  -0.00312   1.92156
   A68        1.93391   0.00226   0.00000   0.00852   0.00864   1.94255
   A69        1.91740   0.00490   0.00000   0.02396   0.02389   1.94129
   A70        1.93005  -0.00346   0.00000  -0.01889  -0.01978   1.91027
   A71        1.90053  -0.00796   0.00000  -0.03939  -0.03931   1.86122
   A72        1.93440  -0.00098   0.00000  -0.03299  -0.03287   1.90153
   A73        1.84533   0.00533   0.00000   0.06091   0.06057   1.90590
   A74        1.97641  -0.00289   0.00000  -0.01644  -0.01674   1.95967
   A75        1.90650   0.00435   0.00000   0.02480   0.02490   1.93140
   A76        1.92681  -0.00398   0.00000  -0.03759  -0.03791   1.88889
   A77        1.88608  -0.00060   0.00000  -0.00099  -0.00082   1.88526
   A78        1.90234   0.00148   0.00000   0.00238   0.00150   1.90384
   A79        1.86178   0.00202   0.00000   0.03161   0.03190   1.89368
   A80        2.14907   0.00134   0.00000   0.00997   0.00990   2.15897
   A81        2.01700   0.00012   0.00000  -0.00073  -0.00070   2.01630
   A82        2.11712  -0.00146   0.00000  -0.00924  -0.00921   2.10791
   A83        2.13285   0.00291   0.00000   0.01235   0.01228   2.14513
   A84        2.13954  -0.00219   0.00000  -0.00882  -0.00879   2.13075
   A85        2.01066  -0.00071   0.00000  -0.00342  -0.00340   2.00727
   A86        1.98909  -0.00817   0.00000  -0.03704  -0.03692   1.95218
   A87        1.88563   0.00659   0.00000   0.04343   0.04341   1.92904
   A88        1.91587   0.00029   0.00000  -0.00555  -0.00541   1.91046
   A89        1.91151   0.00018   0.00000  -0.01009  -0.00966   1.90185
   A90        1.89125   0.00431   0.00000   0.02837   0.02827   1.91952
   A91        1.86674  -0.00302   0.00000  -0.01881  -0.01880   1.84794
[...]
     50          1           0       -5.582229    2.144196   -0.900914
     51          1           0       -3.655245   -1.273941    0.549421
     52          1           0       -3.163366   -1.127892   -1.123160
     53          1           0       -0.265112    1.820945   -0.560802
     54          1           0       -2.614648    3.916565   -1.531192
     55          1           0       -9.017897    0.257429   -1.226231
     56          1           0       -8.213261   -1.269931   -1.718829
     57          1           0       -8.501391   -0.941996    0.006028
     58          1           0       -2.540434   -3.447536    2.037412
 ---------------------------------------------------------------------
 Rotational constants (GHZ):      0.2406681      0.0556370      0.0518315

 **********************************************************************

            Population analysis using the SCF density.

 **********************************************************************

 Orbital symmetries:
       Occupied  (A) (A) (A) (A) (A) (A) (A) (A) (A) (A) (A) (A)
                 (A) (A) (A) (A) (A) (A) (A) (A) (A) (A) (A) (A)
                 (A) (A) (A) (A) (A) (A) (A) (A) (A) (A) (A) (A)
                 (A) (A) (A) (A) (A) (A) (A) (A) (A) (A) (A) (A)
                 (A) (A) (A) (A) (A) (A) (A) (A) (A) (A) (A) (A)
                 (A) (A) (A) (A) (A) (A) (A) (A) (A) (A) (A) (A)
                 (A) (A) (A) (A) (A) (A) (A) (A) (A) (A) (A) (A)
                 (A) (A) (A) (A) (A) (A) (A) (A) (A) (A) (A) (A)
                 (A) (A) (A) (A) (A) (A) (A) (A) (A) (A) (A) (A)
                 (A) (A) (A) (A) (A) (A) (A) (A) (A) (A) (A) (A)
                 (A) (A) (A) (A) (A)
       Virtual   (A) (A) (A) (A) (A) (A) (A) (A) (A) (A) (A) (A)
                 (A) (A) (A) (A) (A) (A) (A) (A) (A) (A) (A) (A)
                 (A) (A) (A) (A) (A) (A) (A) (A) (A) (A) (A) (A)
                 (A) (A) (A) (A) (A) (A) (A) (A) (A) (A) (A) (A)
                 (A) (A) (A) (A) (A) (A) (A) (A) (A) (A) (A) (A)
                 (A) (A) (A) (A) (A) (A) (A) (A) (A) (A) (A) (A)
                 (A) (A) (A) (A) (A) (A) (A) (A) (A) (A) (A) (A)
                 (A) (A) (A) (A) (A) (A) (A) (A) (A) (A) (A) (A)
                 (A) (A) (A) (A) (A) (A) (A) (A) (A) (A) (A) (A)
                 (A) (A) (A) (A) (A) (A) (A) (A) (A) (A) (A) (A)
                 (A) (A) (A) (A) (A) (A) (A) (A) (A) (A) (A) (A)
                 (A) (A) (A) (A) (A) (A) (A) (A) (A) (A) (A) (A)
                 (A) (A) (A) (A) (A) (A) (A) (A) (A) (A) (A) (A)
                 (A) (A) (A) (A) (A) (A) (A) (A) (A) (A) (A) (A)
                 (A) (A) (A) (A) (A) (A) (A) (A) (A) (A) (A) (A)
                 (A) (A) (A) (A) (A) (A) (A) (A) (A) (A) (A) (A)
                 (A) (A) (A) (A) (A) (A) (A) (A) (A) (A) (A) (A)
                 (A) (A) (A) (A) (A) (A) (A) (A) (A) (A) (A) (A)
                 (A) (A) (A) (A) (A) (A) (A) (A) (A) (A) (A) (A)
                 (A) (A) (A) (A) (A) (A) (A) (A) (A) (A) (A) (A)
                 (A) (A) (A) (A) (A) (A) (A) (A) (A) (A) (A) (A)
                 (A) (A) (A) (A) (A) (A) (A) (A) (A) (A) (A) (A)
                 (A) (A) (A) (A) (A) (A) (A) (A) (A) (A) (A) (A)
                 (A) (A) (A) (A) (A) (A) (A) (A) (A) (A) (A) (A)
                 (A) (A) (A) (A) (A) (A) (A) (A) (A) (A) (A) (A)
                 (A) (A) (A) (A) (A) (A) (A) (A) (A) (A) (A) (A)
                 (A) (A) (A) (A) (A) (A) (A) (A) (A) (A) (A) (A)
                 (A) (A) (A) (A) (A) (A) (A) (A) (A) (A) (A) (A)
                 (A) (A) (A) (A) (A) (A) (A) (A) (A) (A) (A) (A)
                 (A) (A) (A) (A) (A) (A) (A) (A) (A) (A) (A) (A)
                 (A) (A) (A) (A) (A) (A) (A) (A) (A) (A) (A) (A)
                 (A) (A) (A) (A) (A) (A) (A) (A) (A) (A) (A) (A)
                 (A) (A) (A) (A) (A) (A) (A) (A) (A) (A) (A) (A)
                 (A) (A) (A) (A) (A) (A) (A) (A) (A) (A) (A) (A)
                 (A) (A) (A) (A) (A) (A) (A) (A) (A) (A) (A) (A)
                 (A) (A) (A) (A) (A) (A) (A) (A) (A) (A) (A) (A)
                 (A)
 The electronic state is 1-A.
 Alpha  occ. eigenvalues --  -19.21975 -19.21792 -19.19576 -19.19508 -19.17730
 Alpha  occ. eigenvalues --  -19.17251 -19.16179 -19.15713 -19.14884 -19.14209
 Alpha  occ. eigenvalues --  -19.13896 -10.33566 -10.32732 -10.31873 -10.28020
 Alpha  occ. eigenvalues --  -10.27006 -10.26955 -10.26844 -10.25503 -10.25045
 Alpha  occ. eigenvalues --  -10.24502 -10.24383 -10.22409 -10.21615 -10.21265
 Alpha  occ. eigenvalues --  -10.21044 -10.21002 -10.20982 -10.20967 -10.20635
 Alpha  occ. eigenvalues --  -10.20286 -10.19930 -10.19837 -10.19080  -1.12525
 Alpha  occ. eigenvalues --   -1.12375  -1.10485  -1.07779  -1.06608  -1.06164
 Alpha  occ. eigenvalues --   -1.03856  -1.03219  -1.02781  -1.01686  -1.01575
 Alpha  occ. eigenvalues --   -0.87774  -0.86014  -0.84556  -0.80772  -0.79097
 Alpha  occ. eigenvalues --   -0.76977  -0.76308  -0.76104  -0.74650  -0.72216
 Alpha  occ. eigenvalues --   -0.70742  -0.68935  -0.66314  -0.65979  -0.64153
 Alpha  occ. eigenvalues --   -0.63935  -0.62673  -0.61362  -0.58984  -0.57935
 Alpha  occ. eigenvalues --   -0.57183  -0.55876  -0.55071  -0.54266  -0.53315
 Alpha  occ. eigenvalues --   -0.52464  -0.51778  -0.50924  -0.49865  -0.49662
 Alpha  occ. eigenvalues --   -0.49052  -0.48789  -0.48443  -0.47919  -0.47221
 Alpha  occ. eigenvalues --   -0.47046  -0.46263  -0.45748  -0.45347  -0.44833
 Alpha  occ. eigenvalues --   -0.44517  -0.43714  -0.43624  -0.43161  -0.42477
 Alpha  occ. eigenvalues --   -0.42366  -0.41958  -0.41513  -0.41157  -0.41098
 Alpha  occ. eigenvalues --   -0.40629  -0.40270  -0.39925  -0.39816  -0.39330
 Alpha  occ. eigenvalues --   -0.38827  -0.38360  -0.37662  -0.37531  -0.37335
 Alpha  occ. eigenvalues --   -0.36238  -0.35551  -0.35440  -0.35031  -0.34784
 Alpha  occ. eigenvalues --   -0.33780  -0.33524  -0.33351  -0.32895  -0.30530
 Alpha  occ. eigenvalues --   -0.30311  -0.28671  -0.28498  -0.28365  -0.27647
 Alpha  occ. eigenvalues --   -0.27542  -0.26356  -0.26058  -0.23438  -0.21738
 Alpha virt. eigenvalues --   -0.04667  -0.04582  -0.02803  -0.01784   0.03883
 Alpha virt. eigenvalues --    0.05258   0.05747   0.06299   0.06506   0.07439
 Alpha virt. eigenvalues --    0.08072   0.09402   0.10331   0.11006   0.11158
 Alpha virt. eigenvalues --    0.11651   0.12254   0.12740   0.12812   0.13610
 Alpha virt. eigenvalues --    0.13961   0.14084   0.14872   0.15367   0.15420
 Alpha virt. eigenvalues --    0.15868   0.16120   0.16474   0.16806   0.17466
 Alpha virt. eigenvalues --    0.17717   0.18242   0.18384   0.18938   0.19057
 Alpha virt. eigenvalues --    0.19379   0.19835   0.20141   0.20961   0.21350
 Alpha virt. eigenvalues --    0.21625   0.22356   0.23079   0.24182   0.24421
 Alpha virt. eigenvalues --    0.25400   0.26284   0.26621   0.27357   0.27926
 Alpha virt. eigenvalues --    0.28008   0.28896   0.29440   0.31599   0.32381
 Alpha virt. eigenvalues --    0.33273   0.33584   0.34045   0.36657   0.37422
 Alpha virt. eigenvalues --    0.39240   0.39990   0.40880   0.41142   0.43225
 Alpha virt. eigenvalues --    0.43683   0.45543   0.46961   0.48627   0.49467
 Alpha virt. eigenvalues --    0.50402   0.50977   0.51157   0.51597   0.51804
 Alpha virt. eigenvalues --    0.52516   0.52743   0.53041   0.53902   0.54410
 Alpha virt. eigenvalues --    0.54592   0.55463   0.55890   0.56113   0.56225
 Alpha virt. eigenvalues --    0.56726   0.57279   0.58094   0.58392   0.58576
 Alpha virt. eigenvalues --    0.59614   0.59633   0.60484   0.61445   0.61732
 Alpha virt. eigenvalues --    0.62261   0.62482   0.63360   0.63819   0.64025
 Alpha virt. eigenvalues --    0.64941   0.65211   0.65522   0.67046   0.67766
 Alpha virt. eigenvalues --    0.68081   0.69046   0.69428   0.69569   0.70005
 Alpha virt. eigenvalues --    0.70790   0.71062   0.71952   0.72363   0.72910
 Alpha virt. eigenvalues --    0.73118   0.73940   0.74470   0.74582   0.75349
 Alpha virt. eigenvalues --    0.75853   0.76557   0.76834   0.78305   0.79186
 Alpha virt. eigenvalues --    0.79306   0.79564   0.80097   0.81458   0.82080
 Alpha virt. eigenvalues --    0.82956   0.83485   0.84015   0.84496   0.84583
 Alpha virt. eigenvalues --    0.84670   0.85337   0.86072   0.86155   0.86577
 Alpha virt. eigenvalues --    0.87099   0.88076   0.88694   0.89591   0.90533
 Alpha virt. eigenvalues --    0.90743   0.91280   0.92009   0.92444   0.92541
 Alpha virt. eigenvalues --    0.92918   0.93500   0.94408   0.95126   0.95462
 Alpha virt. eigenvalues --    0.95868   0.96267   0.97056   0.97635   0.98043
 Alpha virt. eigenvalues --    0.98415   0.98899   0.99699   1.00046   1.01131
 Alpha virt. eigenvalues --    1.01262   1.01906   1.02691   1.03580   1.03653
 Alpha virt. eigenvalues --    1.04210   1.04653   1.05415   1.06628   1.07532
 Alpha virt. eigenvalues --    1.07968   1.09271   1.09937   1.10639   1.12044
 Alpha virt. eigenvalues --    1.12655   1.13521   1.14433   1.14611   1.15473
 Alpha virt. eigenvalues --    1.16058   1.17225   1.18348   1.18895   1.20201
 Alpha virt. eigenvalues --    1.21782   1.22206   1.23614   1.24059   1.24437
 Alpha virt. eigenvalues --    1.24865   1.26374   1.26755   1.27655   1.28558
 Alpha virt. eigenvalues --    1.30090   1.31126   1.32193   1.33956   1.34065
 Alpha virt. eigenvalues --    1.35104   1.35318   1.36334   1.36795   1.37691
 Alpha virt. eigenvalues --    1.38209   1.38613   1.39472   1.40628   1.41527
 Alpha virt. eigenvalues --    1.42530   1.42723   1.43107   1.44031   1.44474
 Alpha virt. eigenvalues --    1.44788   1.45695   1.47177   1.48337   1.50309
 Alpha virt. eigenvalues --    1.51322   1.53537   1.56349   1.56968   1.58709
 Alpha virt. eigenvalues --    1.59879   1.61737   1.62589   1.64036   1.65043
 Alpha virt. eigenvalues --    1.65698   1.66404   1.67402   1.67769   1.68473
 Alpha virt. eigenvalues --    1.69493   1.69943   1.70656   1.70808   1.70946
 Alpha virt. eigenvalues --    1.71166   1.71985   1.72991   1.73783   1.73997
 Alpha virt. eigenvalues --    1.74341   1.75224   1.75781   1.76216   1.77109
 Alpha virt. eigenvalues --    1.77854   1.78831   1.79468   1.79819   1.80630
 Alpha virt. eigenvalues --    1.80820   1.82222   1.82514   1.83077   1.83811
 Alpha virt. eigenvalues --    1.84203   1.84937   1.85208   1.85681   1.86214
 Alpha virt. eigenvalues --    1.86935   1.87702   1.87961   1.88998   1.89869
 Alpha virt. eigenvalues --    1.90497   1.91251   1.91657   1.92452   1.92816
 Alpha virt. eigenvalues --    1.93662   1.93968   1.95100   1.95494   1.96344
 Alpha virt. eigenvalues --    1.97109   1.98270   1.98694   1.99659   1.99956
 Alpha virt. eigenvalues --    2.00948   2.02247   2.02849   2.03147   2.03991
 Alpha virt. eigenvalues --    2.04431   2.04825   2.05553   2.06212   2.07260
 Alpha virt. eigenvalues --    2.07487   2.08726   2.10068   2.10472   2.10789
 Alpha virt. eigenvalues --    2.12185   2.12930   2.14581   2.15435   2.17338
 Alpha virt. eigenvalues --    2.18751   2.20054   2.20912   2.21770   2.22721
 Alpha virt. eigenvalues --    2.23375   2.24976   2.25648   2.27132   2.27889
 Alpha virt. eigenvalues --    2.28426   2.28766   2.29565   2.30722   2.31070
 Alpha virt. eigenvalues --    2.31472   2.32690   2.32764   2.33551   2.34092
 Alpha virt. eigenvalues --    2.34480   2.35092   2.36009   2.37846   2.39552
 Alpha virt. eigenvalues --    2.39662   2.40494   2.41013   2.42893   2.43230
 Alpha virt. eigenvalues --    2.44143   2.45074   2.46181   2.47252   2.47771
 Alpha virt. eigenvalues --    2.49760   2.51266   2.52066   2.53084   2.54202
 Alpha virt. eigenvalues --    2.54547   2.55018   2.55639   2.56802   2.57419
 Alpha virt. eigenvalues --    2.59738   2.61772   2.62850   2.63719   2.64995
 Alpha virt. eigenvalues --    2.65792   2.66968   2.68592   2.68998   2.69552
 Alpha virt. eigenvalues --    2.69834   2.71663   2.73999   2.74751   2.75491
 Alpha virt. eigenvalues --    2.76778   2.76937   2.77839   2.79245   2.81572
 Alpha virt. eigenvalues --    2.82202   2.86136   2.86486   2.87813   2.90593
 Alpha virt. eigenvalues --    2.91120   2.93996   2.95301   2.96471   2.98102
 Alpha virt. eigenvalues --    2.99109   3.01089   3.02629   3.06172   3.06621
 Alpha virt. eigenvalues --    3.08472   3.09323   3.12922   3.14095   3.16543
 Alpha virt. eigenvalues --    3.22570   3.23572   3.44082   3.50444   3.78353
 Alpha virt. eigenvalues --    3.89473   3.92869   3.95928   3.96445   3.99959
 Alpha virt. eigenvalues --    4.04631   4.06320   4.08553   4.13886   4.17105
 Alpha virt. eigenvalues --    4.18727   4.21277   4.24611   4.24795   4.26016
 Alpha virt. eigenvalues --    4.28717   4.31731   4.33048   4.34486   4.34647
 Alpha virt. eigenvalues --    4.39511   4.45431   4.48737   4.50510   4.52563
 Alpha virt. eigenvalues --    4.53362   4.55922   4.58374   4.65493   4.71154
 Alpha virt. eigenvalues --    4.75807   4.81755   4.88651
          Condensed to atoms (all electrons):
 Mulliken atomic charges:
              1
     1  C    0.109918
     2  C    0.300443
     3  C   -0.274696
     4  C    0.141923
     5  C   -0.062617
     6  C    0.238933
     7  C    0.051978
     8  C    0.276202
     9  O   -0.498358
    10  C    0.597901
    11  C   -0.367730
    12  C    0.240750
    13  C   -0.307402
    14  C   -0.358095
    15  C   -0.585859
    16  O   -0.660007
    17  O   -0.636775
    18  O   -0.537398
    19  O   -0.548592
    20  C    0.130087
    21  C    0.093305
    22  C    0.108712
    23  C   -0.158703
    24  C    0.057173
    25  C   -0.363172
    26  O   -0.654090
    27  O   -0.638089
    28  C    0.603489
    29  O   -0.464775
    30  O   -0.492917
    31  C   -0.216751
    32  C    0.595014
    33  O   -0.575020
    34  O   -0.457954
    35  H    0.148686
    36  H    0.166004
    37  H    0.195190
    38  H    0.160529
    39  H    0.169377
    40  H    0.188739
    41  H    0.174744
    42  H    0.209350
    43  H    0.161656
    44  H    0.161557
    45  H    0.449002
    46  H    0.422094
    47  H    0.135291
    48  H    0.142678
    49  H    0.140762
    50  H    0.178616
    51  H    0.171636
    52  H    0.186155
    53  H    0.414527
    54  H    0.408773
    55  H    0.166607
    56  H    0.172598
    57  H    0.169798
    58  H    0.418805
 Sum of Mulliken atomic charges =   0.00000
 Mulliken charges with hydrogens summed into heavy atoms:
              1
     1  C    0.109918
     2  C    0.300443
     3  C   -0.126011
     4  C    0.141923
     5  C   -0.062617
     6  C    0.238933
     7  C    0.051978
     8  C    0.276202
     9  O   -0.498358
    10  C    0.597901
    11  C   -0.006536
    12  C    0.240750
    13  C    0.022505
    14  C    0.005388
    15  C   -0.053296
    16  O   -0.211005
    17  O   -0.214681
    18  O   -0.537398
    19  O   -0.548592
    20  C    0.265378
    21  C    0.235984
    22  C    0.249474
    23  C    0.019913
    24  C    0.057173
    25  C   -0.005381
    26  O   -0.239563
    27  O   -0.229316
    28  C    0.603489
    29  O   -0.464775
    30  O   -0.492917
    31  C    0.292253
    32  C    0.595014
    33  O   -0.156216
    34  O   -0.457954
 Sum of Mulliken charges with hydrogens summed into heavy atoms =   0.00000
 Electronic spatial extent (au):  <R**2>=          20397.4264
 Charge=              0.0000 electrons
 Dipole moment (field-independent basis, Debye):
    X=             -1.2368    Y=             -2.4633    Z=              0.9100  Tot=              2.9027
 Quadrupole moment (field-independent basis, Debye-Ang):
   XX=           -173.1750   YY=           -208.2683   ZZ=           -187.6506
   XY=            -15.5821   XZ=            -18.3140   YZ=             -5.8693
 Traceless Quadrupole moment (field-independent basis, Debye-Ang):
   XX=             16.5230   YY=            -18.5703   ZZ=              2.0473
   XY=            -15.5821   XZ=            -18.3140   YZ=             -5.8693
 Octapole moment (field-independent basis, Debye-Ang**2):
  XXX=           -162.7744  YYY=            -12.5827  ZZZ=             -4.8132  XYY=            -13.1123
  XXY=           -104.0517  XXZ=           -106.7157  XZZ=              6.9281  YZZ=            -26.9311
  YYZ=             18.3612  XYZ=             -4.4517
 Hexadecapole moment (field-independent basis, Debye-Ang**3):
 XXXX=         -17592.5630 YYYY=          -3379.8425 ZZZZ=          -1911.1784 XXXY=           -544.7782
 XXXZ=           -408.9383 YYYX=             51.6914 YYYZ=           -160.3755 ZZZX=            -94.0871
 ZZZY=             16.9239 XXYY=          -4253.4722 XXZZ=          -3545.5464 YYZZ=           -870.8382
 XXYZ=            150.7452 YYXZ=           -188.3092 ZZXY=              2.5503
 N-N= 3.680455957608D+03 E-N=-1.137444995264D+04  KE= 1.703109812169D+03
 1\1\GINC-B0805\FOpt\RB3LYP\6-31G(d)\C23H24O11\CAOFEI\02-Feb-2021\0\\# 
 opt b3lyp/6-31g(d) geom=connectivity\\Title Card Required\\0,1\C,5.249
 3199407,-0.9073798164,2.9783024486\C,4.3115295672,0.0874910402,3.30430
 48294\C,3.3273012533,0.5250093704,2.41050832\C,3.2556221233,-0.0338659
 082,1.136353096\C,4.1910329653,-1.0397027728,0.7676851018\C,5.18100530
 6,-1.469718697,1.6959305748\C,2.2649817894,0.3654048103,0.1465398529\C
 ,2.2933195074,-0.2111403476,-1.0750338132\O,3.197641157,-1.1842433345,
 -1.4200786236\C,4.1558732829,-1.6353440141,-0.5459024752\C,1.243554047
 1,1.4330725404,0.4722182654\C,0.0675788115,1.4902304702,-0.521392529\C
 ,0.5933562679,1.4061352061,-1.9636669109\C,1.354127766,0.0953322245,-2
 .2016988669\C,6.2919623339,-1.3546118767,3.9733409808\O,6.0721648036,-
 2.4207426011,1.3711460853\O,4.3156986765,0.6826658404,4.5271957882\O,4
 .9125570242,-2.5127309339,-0.9604211053\O,-0.7559710036,0.3673703504,-
 0.1584266145\C,-1.907414489,0.0151662792,-0.9399264167\C,-2.1311584969
 ,-1.4703934296,-0.6524946766\C,-3.2549764175,-2.02118137,-1.5244985786
 \C,-4.4702377751,-1.1407936522,-1.4562780276\C,-4.4281368379,0.1380173
 162,-1.0497622263\C,-3.1612044669,0.8211425511,-0.5733451248\O,-0.9730
 251911,-2.2493936422,-0.9258381893\O,-3.6221962713,-3.3360935388,-1.12
 95127939\C,-5.6460499777,0.9972842413,-1.0359525288\O,-6.7719126337,0.
 3404270624,-1.3930948336\O,-5.6316511425,2.1762386953,-0.7335122403\C,
 -7.970204423,1.1309255339,-1.3903063225\C,-0.7185704135,2.7856524599,-
 0.2187876924\O,-1.0804052907,3.4704353389,-1.3311867219\O,-1.002687000
 5,3.1539964539,0.8966642666\H,2.6431353138,1.2963571009,2.7414135724\H
 ,1.7320987469,2.4164985531,0.5106898542\H,0.8127044463,1.269722993,1.4
 640866722\H,1.2622762522,2.2601373989,-2.1223278146\H,-0.2132787259,1.
 5164043033,-2.6926190969\H,0.6582658599,-0.7460192893,-2.3200395168\H,
 1.9266440123,0.1541211165,-3.1349047496\H,6.9169546051,-2.1363898888,3
 .5399528049\H,6.9572443835,-0.5311478005,4.2713209586\H,5.838721684,-1
 .7668892623,4.8865742064\H,5.8732951096,-2.6993483747,0.4374928529\H,5
 .0308628118,0.3090563338,5.0655676901\H,-1.6873566056,0.1298969177,-2.
 0092198841\H,-2.4278527599,-1.5836346322,0.4018612792\H,-2.8873947059,
 -2.0364076337,-2.5676795944\H,-5.4060977165,-1.5888868801,-1.774880388
 7\H,-3.121036097,1.8279604178,-0.9976758332\H,-3.1944005609,0.95403059
 08,0.5161492777\H,-0.2638983829,-1.8802294124,-0.3731677249\H,-2.79676
 82918,-3.8494142956,-1.1218153807\H,-8.7668336833,0.4529433753,-1.6979
 353493\H,-8.1669453403,1.5269921771,-0.3904675489\H,-7.8829395839,1.96
 55177145,-2.0912698624\H,-1.5902237537,4.2440607069,-1.020184492\\Vers
 ion=EM64L-G09RevB.01\State=1-A\HF=-1718.3717763\RMSD=6.062e-09\RMSF=5.
 775e-06\Dipole=-0.347068,1.0873712,-0.0362456\Quadrupole=2.8066037,-8.
 9949992,6.1883955,5.2336501,18.0134368,-9.7547086\PG=C01 [X(C23H24O11)
 ]\\@


 A successful marriage requires falling in love
 many times, always with the same person.
                           -- Mignon McLaughlin
 Job cpu time:  0 days  4 hours  2 minutes 52.4 seconds.
 File lengths (MBytes):  RWF=    201 Int=      0 D2E=      0 Chk=     21 Scr=      1
 Normal termination of Gaussian 09 at Tue Feb  2 12:36:39 2021.
