 Entering Gaussian System, Link 0=g09
 Initial command:
 /public/software/g09/g09/l1.exe /tmp/Gau-29009.inp -scrdir=/tmp/
 Entering Link 1 = /public/software/g09/g09/l1.exe PID=     29010.
  
 Copyright (c) 1988,1990,1992,1993,1995,1998,2003,2009,2010,
            Gaussian, Inc.  All Rights Reserved.
  
 This is part of the Gaussian(R) 09 program.  It is based on
 the Gaussian(R) 03 system (copyright 2003, Gaussian, Inc.),
 the Gaussian(R) 98 system (copyright 1998, Gaussian, Inc.),
 the Gaussian(R) 94 system (copyright 1995, Gaussian, Inc.),
 the Gaussian 92(TM) system (copyright 1992, Gaussian, Inc.),
 the Gaussian 90(TM) system (copyright 1990, Gaussian, Inc.),
 the Gaussian 88(TM) system (copyright 1988, Gaussian, Inc.),
 the Gaussian 86(TM) system (copyright 1986, Carnegie Mellon
 University), and the Gaussian 82(TM) system (copyright 1983,
 Carnegie Mellon University). Gaussian is a federally registered
 trademark of Gaussian, Inc.
  
 This software contains proprietary and confidential information,
 including trade secrets, belonging to Gaussian, Inc.
  
 This software is provided under written license and may be
 used, copied, transmitted, or stored only in accord with that
 written license.
  
 The following legend is applicable only to US Government
 contracts under FAR:
  
                    RESTRICTED RIGHTS LEGEND
  
 Use, reproduction and disclosure by the US Government is
 subject to restrictions as set forth in subparagraphs (a)
 and (c) of the Commercial Computer Software - Restricted
 Rights clause in FAR 52.227-19.
  
 Gaussian, Inc.
 340 Quinnipiac St., Bldg. 40, Wallingford CT 06492
  
  
 ---------------------------------------------------------------
 Warning -- This program may not be used in any manner that
 competes with the business of Gaussian, Inc. or will provide
 assistance to any competitor of Gaussian, Inc.  The licensee
 of this program is prohibited from giving any competitor of
 Gaussian, Inc. access to this program.  By using this program,
 the user acknowledges that Gaussian, Inc. is engaged in the
 business of creating and licensing software in the field of
 computational chemistry and represents and warrants to the
 licensee that it is not a competitor of Gaussian, Inc. and that
 it will not use this program in any manner prohibited above.
 ---------------------------------------------------------------
  

 Cite this work as:
 Gaussian 09, Revision B.01,
 M. J. Frisch, G. W. Trucks, H. B. Schlegel, G. E. Scuseria, 
 M. A. Robb, J. R. Cheeseman, G. Scalmani, V. Barone, B. Mennucci, 
 G. A. Petersson, H. Nakatsuji, M. Caricato, X. Li, H. P. Hratchian, 
 A. F. Izmaylov, J. Bloino, G. Zheng, J. L. Sonnenberg, M. Hada, 
 M. Ehara, K. Toyota, R. Fukuda, J. Hasegawa, M. Ishida, T. Nakajima, 
 Y. Honda, O. Kitao, H. Nakai, T. Vreven, J. A. Montgomery, Jr., 
 J. E. Peralta, F. Ogliaro, M. Bearpark, J. J. Heyd, E. Brothers, 
 K. N. Kudin, V. N. Staroverov, T. Keith, R. Kobayashi, J. Normand, 
 K. Raghavachari, A. Rendell, J. C. Burant, S. S. Iyengar, J. Tomasi, 
 M. Cossi, N. Rega, J. M. Millam, M. Klene, J. E. Knox, J. B. Cross, 
 V. Bakken, C. Adamo, J. Jaramillo, R. Gomperts, R. E. Stratmann, 
 O. Yazyev, A. J. Austin, R. Cammi, C. Pomelli, J. W. Ochterski, 
 R. L. Martin, K. Morokuma, V. G. Zakrzewski, G. A. Voth, 
 P. Salvador, J. J. Dannenberg, S. Dapprich, A. D. Daniels, 
 O. Farkas, J. B. Foresman, J. V. Ortiz, J. Cioslowski, 
 and D. J. Fox, Gaussian, Inc., Wallingford CT, 2010.
 
 ******************************************
 Gaussian 09:  EM64L-G09RevB.01 12-Aug-2010
                 2-Feb-2021 
 ******************************************
 %mem=600MW
 %nprocshared=10
 Will use up to   10 processors via shared memory.
 --------------------------------------
 # opt b3lyp/6-31g(d) geom=connectivity
 --------------------------------------
 1/14=-1,18=20,19=15,26=3,38=1,57=2/1,3;
 2/9=110,12=2,17=6,18=5,40=1/2;
 3/5=1,6=6,7=1,11=2,16=1,25=1,30=1,71=1,74=-5/1,2,3;
 4//1;
 5/5=2,38=5/2;
 6/7=2,8=2,9=2,10=2,28=1/1;
 7//1,2,3,16;
 1/14=-1,18=20,19=15/3(2);
 2/9=110/2;
 99//99;
 2/9=110/2;
 3/5=1,6=6,7=1,11=2,16=1,25=1,30=1,71=1,74=-5/1,2,3;
 4/5=5,16=3/1;
 5/5=2,38=5/2;
 7//1,2,3,16;
 1/14=-1,18=20,19=15/3(-5);
 2/9=110/2;
 6/7=2,8=2,9=2,10=2,19=2,28=1/1;
 99/9=1/99;
 -------------------
 Title Card Required
 -------------------
 Symbolic Z-matrix:
 Charge =  0 Multiplicity = 1
 C                     5.29256  -0.95843   2.84544 
 C                     4.3467    0.01109   3.19079 
 C                     3.32907   0.38691   2.31028 
 C                     3.21519  -0.1975    1.04189 
 C                     4.16262  -1.16256   0.67572 
 C                     5.18833  -1.53908   1.57161 
 C                     2.14933   0.17827   0.09627 
 C                     2.15601  -0.399    -1.11603 
 O                     3.10803  -1.3603   -1.50363 
 C                     4.09289  -1.7833   -0.66611 
 C                     1.08579   1.18435   0.49247 
 C                    -0.14439   1.23908  -0.46258 
 C                     0.3691    1.19742  -1.91394 
 C                     1.16755  -0.07493  -2.19959 
 C                     6.38413  -1.35819   3.79954 
 O                     6.13051  -2.48424   1.2404 
 O                     4.34731   0.65623   4.39634 
 O                     4.90872  -2.63904  -0.99883 
 O                    -0.93705   0.08683  -0.11475 
 C                    -2.06344  -0.2751   -0.93402 
 C                    -2.43529  -1.71385  -0.53151 
 C                    -3.58575  -2.24512  -1.40166 
 C                    -4.695    -1.25873  -1.56796 
 C                    -4.57171   0.04564  -1.25785 
 C                    -3.28529   0.63934  -0.74539 
 O                    -1.29484  -2.57648  -0.68881 
 O                    -4.12281  -3.41976  -0.79929 
 C                    -5.75664   0.92488  -1.4585 
 O                    -5.54253   2.12796  -0.87 
 O                    -6.76307   0.6001   -2.06919 
 C                    -6.64006   3.03371  -0.98821 
 C                    -0.83696   2.57432  -0.11561 
 O                    -0.4013    3.62942  -0.83226 
 O                    -1.68201   2.74906   0.74862 
 H                     2.63424   1.15134   2.64867 
 H                     1.56486   2.17123   0.55292 
 H                     0.7136    0.93743   1.4961 
 H                     1.02008   2.06103  -2.10814 
 H                    -0.45455   1.28367  -2.63155 
 H                     0.49445  -0.9297   -2.32751 
 H                     1.6965    0.05355  -3.15177 
 H                     7.03953  -2.1381    3.40179 
 H                     7.01377  -0.49272   4.03128 
 H                     5.94816  -1.74712   4.72582 
 H                     5.95325  -2.81847   0.33239 
 H                     5.0764    0.32761   4.94593 
 H                    -1.76057  -0.29311  -1.98589 
 H                    -2.69846  -1.76051   0.53335 
 H                    -3.21486  -2.53851  -2.39088 
 H                    -5.6331   -1.65207  -1.9568 
 H                    -3.08675   1.58238  -1.26745 
 H                    -3.40689   0.87688   0.31844 
 H                    -0.57185  -2.12964  -0.20504 
 H                    -3.35417  -3.99895  -0.63516 
 H                    -6.37193   3.95954  -0.47177 
 H                    -6.83236   3.26728  -2.04009 
 H                    -7.53415   2.61857  -0.51245 
 H                    -0.9109    4.38941  -0.47584 
 

 GradGradGradGradGradGradGradGradGradGradGradGradGradGradGradGradGradGrad
 Berny optimization.
 Initialization pass.
                           ----------------------------
                           !    Initial Parameters    !
                           ! (Angstroms and Degrees)  !
 --------------------------                            --------------------------
 ! Name  Definition              Value          Derivative Info.                !
 --------------------------------------------------------------------------------
 ! R1    R(1,2)                  1.3978         estimate D2E/DX2                !
 ! R2    R(1,6)                  1.4038         estimate D2E/DX2                !
 ! R3    R(1,15)                 1.5039         estimate D2E/DX2                !
 ! R4    R(2,3)                  1.3972         estimate D2E/DX2                !
 ! R5    R(2,17)                 1.3673         estimate D2E/DX2                !
 ! R6    R(3,4)                  1.4012         estimate D2E/DX2                !
 ! R7    R(3,35)                 1.087          estimate D2E/DX2                !
 ! R8    R(4,5)                  1.4011         estimate D2E/DX2                !
 ! R9    R(4,7)                  1.4736         estimate D2E/DX2                !
 ! R10   R(5,6)                  1.413          estimate D2E/DX2                !
 ! R11   R(5,10)                 1.4801         estimate D2E/DX2                !
 ! R12   R(6,16)                 1.375          estimate D2E/DX2                !
 ! R13   R(7,8)                  1.3427         estimate D2E/DX2                !
 ! R14   R(7,11)                 1.5167         estimate D2E/DX2                !
 ! R15   R(8,9)                  1.4074         estimate D2E/DX2                !
 ! R16   R(8,14)                 1.5021         estimate D2E/DX2                !
 ! R17   R(9,10)                 1.3603         estimate D2E/DX2                !
 ! R18   R(10,18)                1.2282         estimate D2E/DX2                !
 ! R19   R(11,12)                1.5583         estimate D2E/DX2                !
 ! R20   R(11,36)                1.0987         estimate D2E/DX2                !
 ! R21   R(11,37)                1.0985         estimate D2E/DX2                !
 ! R22   R(12,13)                1.5401         estimate D2E/DX2                !
 ! R23   R(12,19)                1.4412         estimate D2E/DX2                !
 ! R24   R(12,32)                1.5437         estimate D2E/DX2                !
 ! R25   R(13,14)                1.529          estimate D2E/DX2                !
 ! R26   R(13,38)                1.0988         estimate D2E/DX2                !
 ! R27   R(13,39)                1.0958         estimate D2E/DX2                !
 ! R28   R(14,40)                1.0955         estimate D2E/DX2                !
 ! R29   R(14,41)                1.0968         estimate D2E/DX2                !
 ! R30   R(15,42)                1.0936         estimate D2E/DX2                !
 ! R31   R(15,43)                1.0951         estimate D2E/DX2                !
 ! R32   R(15,44)                1.0951         estimate D2E/DX2                !
 ! R33   R(16,45)                0.9837         estimate D2E/DX2                !
 ! R34   R(17,46)                0.9704         estimate D2E/DX2                !
 ! R35   R(18,45)                1.7016         estimate D2E/DX2                !
 ! R36   R(19,20)                1.4391         estimate D2E/DX2                !
 ! R37   R(20,21)                1.5396         estimate D2E/DX2                !
 ! R38   R(20,25)                1.5378         estimate D2E/DX2                !
 ! R39   R(20,47)                1.0948         estimate D2E/DX2                !
 ! R40   R(21,22)                1.5372         estimate D2E/DX2                !
 ! R41   R(21,26)                1.4386         estimate D2E/DX2                !
 ! R42   R(21,48)                1.0979         estimate D2E/DX2                !
 ! R43   R(22,23)                1.4937         estimate D2E/DX2                !
 ! R44   R(22,27)                1.4252         estimate D2E/DX2                !
 ! R45   R(22,49)                1.0964         estimate D2E/DX2                !
 ! R46   R(23,24)                1.3464         estimate D2E/DX2                !
 ! R47   R(23,50)                1.089          estimate D2E/DX2                !
 ! R48   R(24,25)                1.5066         estimate D2E/DX2                !
 ! R49   R(24,28)                1.4891         estimate D2E/DX2                !
 ! R50   R(25,51)                1.096          estimate D2E/DX2                !
 ! R51   R(25,52)                1.0968         estimate D2E/DX2                !
 ! R52   R(26,53)                0.978          estimate D2E/DX2                !
 ! R53   R(27,54)                0.9763         estimate D2E/DX2                !
 ! R54   R(28,29)                1.3563         estimate D2E/DX2                !
 ! R55   R(28,30)                1.2212         estimate D2E/DX2                !
 ! R56   R(29,31)                1.4279         estimate D2E/DX2                !
 ! R57   R(31,55)                1.0935         estimate D2E/DX2                !
 ! R58   R(31,56)                1.0945         estimate D2E/DX2                !
 ! R59   R(31,57)                1.0946         estimate D2E/DX2                !
 ! R60   R(32,33)                1.3478         estimate D2E/DX2                !
 ! R61   R(32,34)                1.2213         estimate D2E/DX2                !
 ! R62   R(33,58)                0.982          estimate D2E/DX2                !
 ! A1    A(2,1,6)              117.4414         estimate D2E/DX2                !
 ! A2    A(2,1,15)             121.2503         estimate D2E/DX2                !
 ! A3    A(6,1,15)             121.3075         estimate D2E/DX2                !
 ! A4    A(1,2,3)              121.5817         estimate D2E/DX2                !
 ! A5    A(1,2,17)             123.0105         estimate D2E/DX2                !
 ! A6    A(3,2,17)             115.4077         estimate D2E/DX2                !
 ! A7    A(2,3,4)              121.1641         estimate D2E/DX2                !
 ! A8    A(2,3,35)             117.2926         estimate D2E/DX2                !
 ! A9    A(4,3,35)             121.543          estimate D2E/DX2                !
 ! A10   A(3,4,5)              117.9628         estimate D2E/DX2                !
 ! A11   A(3,4,7)              122.2309         estimate D2E/DX2                !
 ! A12   A(5,4,7)              119.8046         estimate D2E/DX2                !
 ! A13   A(4,5,6)              120.5788         estimate D2E/DX2                !
 ! A14   A(4,5,10)             119.6004         estimate D2E/DX2                !
 ! A15   A(6,5,10)             119.8187         estimate D2E/DX2                !
 ! A16   A(1,6,5)              121.2665         estimate D2E/DX2                !
 ! A17   A(1,6,16)             116.8732         estimate D2E/DX2                !
 ! A18   A(5,6,16)             121.8601         estimate D2E/DX2                !
 ! A19   A(4,7,8)              117.7845         estimate D2E/DX2                !
 ! A20   A(4,7,11)             120.5792         estimate D2E/DX2                !
 ! A21   A(8,7,11)             121.6363         estimate D2E/DX2                !
 ! A22   A(7,8,9)              123.0706         estimate D2E/DX2                !
 ! A23   A(7,8,14)             123.7294         estimate D2E/DX2                !
 ! A24   A(9,8,14)             113.1947         estimate D2E/DX2                !
 ! A25   A(8,9,10)             122.182          estimate D2E/DX2                !
 ! A26   A(5,10,9)             117.5082         estimate D2E/DX2                !
 ! A27   A(5,10,18)            120.4303         estimate D2E/DX2                !
 ! A28   A(9,10,18)            122.0588         estimate D2E/DX2                !
 ! A29   A(7,11,12)            114.6305         estimate D2E/DX2                !
 ! A30   A(7,11,36)            107.725          estimate D2E/DX2                !
 ! A31   A(7,11,37)            109.0955         estimate D2E/DX2                !
 ! A32   A(12,11,36)           110.2666         estimate D2E/DX2                !
 ! A33   A(12,11,37)           107.4788         estimate D2E/DX2                !
 ! A34   A(36,11,37)           107.4196         estimate D2E/DX2                !
 ! A35   A(11,12,13)           108.2642         estimate D2E/DX2                !
 ! A36   A(11,12,19)           104.963          estimate D2E/DX2                !
 ! A37   A(11,12,32)           104.2883         estimate D2E/DX2                !
 ! A38   A(13,12,19)           112.9049         estimate D2E/DX2                !
 ! A39   A(13,12,32)           112.6316         estimate D2E/DX2                !
 ! A40   A(19,12,32)           112.9891         estimate D2E/DX2                !
 ! A41   A(12,13,14)           111.8805         estimate D2E/DX2                !
 ! A42   A(12,13,38)           110.0499         estimate D2E/DX2                !
 ! A43   A(12,13,39)           111.3709         estimate D2E/DX2                !
 ! A44   A(14,13,38)           108.1578         estimate D2E/DX2                !
 ! A45   A(14,13,39)           109.6119         estimate D2E/DX2                !
 ! A46   A(38,13,39)           105.5273         estimate D2E/DX2                !
 ! A47   A(8,14,13)            112.8551         estimate D2E/DX2                !
 ! A48   A(8,14,40)            108.6768         estimate D2E/DX2                !
 ! A49   A(8,14,41)            109.522          estimate D2E/DX2                !
 ! A50   A(13,14,40)           110.5027         estimate D2E/DX2                !
 ! A51   A(13,14,41)           108.4546         estimate D2E/DX2                !
 ! A52   A(40,14,41)           106.6397         estimate D2E/DX2                !
 ! A53   A(1,15,42)            113.192          estimate D2E/DX2                !
 ! A54   A(1,15,43)            109.9691         estimate D2E/DX2                !
 ! A55   A(1,15,44)            110.0018         estimate D2E/DX2                !
 ! A56   A(42,15,43)           107.2179         estimate D2E/DX2                !
 ! A57   A(42,15,44)           107.0333         estimate D2E/DX2                !
 ! A58   A(43,15,44)           109.3047         estimate D2E/DX2                !
 ! A59   A(6,16,45)            109.4164         estimate D2E/DX2                !
 ! A60   A(2,17,46)            109.8713         estimate D2E/DX2                !
 ! A61   A(12,19,20)           119.6161         estimate D2E/DX2                !
 ! A62   A(19,20,21)           105.9765         estimate D2E/DX2                !
 ! A63   A(19,20,25)           113.7362         estimate D2E/DX2                !
 ! A64   A(19,20,47)           109.5485         estimate D2E/DX2                !
 ! A65   A(21,20,25)           109.3742         estimate D2E/DX2                !
 ! A66   A(21,20,47)           107.6165         estimate D2E/DX2                !
 ! A67   A(25,20,47)           110.3318         estimate D2E/DX2                !
 ! A68   A(20,21,22)           110.8395         estimate D2E/DX2                !
 ! A69   A(20,21,26)           109.8962         estimate D2E/DX2                !
 ! A70   A(20,21,48)           110.5602         estimate D2E/DX2                !
 ! A71   A(22,21,26)           108.9154         estimate D2E/DX2                !
 ! A72   A(22,21,48)           110.7897         estimate D2E/DX2                !
 ! A73   A(26,21,48)           105.7            estimate D2E/DX2                !
 ! A74   A(21,22,23)           112.9911         estimate D2E/DX2                !
 ! A75   A(21,22,27)           109.1254         estimate D2E/DX2                !
 ! A76   A(21,22,49)           110.4886         estimate D2E/DX2                !
 ! A77   A(23,22,27)           108.1496         estimate D2E/DX2                !
 ! A78   A(23,22,49)           109.1148         estimate D2E/DX2                !
 ! A79   A(27,22,49)           106.7543         estimate D2E/DX2                !
 ! A80   A(22,23,24)           123.1015         estimate D2E/DX2                !
 ! A81   A(22,23,50)           116.165          estimate D2E/DX2                !
 ! A82   A(24,23,50)           120.7329         estimate D2E/DX2                !
 ! A83   A(23,24,25)           122.5674         estimate D2E/DX2                !
 ! A84   A(23,24,28)           117.9129         estimate D2E/DX2                !
 ! A85   A(25,24,28)           119.5106         estimate D2E/DX2                !
 ! A86   A(20,25,24)           113.7265         estimate D2E/DX2                !
 ! A87   A(20,25,51)           108.0165         estimate D2E/DX2                !
 ! A88   A(20,25,52)           109.6245         estimate D2E/DX2                !
 ! A89   A(24,25,51)           109.3726         estimate D2E/DX2                !
 ! A90   A(24,25,52)           108.699          estimate D2E/DX2                !
 ! A91   A(51,25,52)           107.2023         estimate D2E/DX2                !
 ! A92   A(21,26,53)           104.9512         estimate D2E/DX2                !
 ! A93   A(22,27,54)           105.2676         estimate D2E/DX2                !
 ! A94   A(24,28,29)           109.8565         estimate D2E/DX2                !
 ! A95   A(24,28,30)           124.4823         estimate D2E/DX2                !
 ! A96   A(29,28,30)           125.6606         estimate D2E/DX2                !
 ! A97   A(28,29,31)           113.9162         estimate D2E/DX2                !
 ! A98   A(29,31,55)           108.0282         estimate D2E/DX2                !
 ! A99   A(29,31,56)           110.4851         estimate D2E/DX2                !
 ! A100  A(29,31,57)           110.5655         estimate D2E/DX2                !
 ! A101  A(55,31,56)           108.4389         estimate D2E/DX2                !
 ! A102  A(55,31,57)           108.4283         estimate D2E/DX2                !
 ! A103  A(56,31,57)           110.8023         estimate D2E/DX2                !
 ! A104  A(12,32,33)           114.3676         estimate D2E/DX2                !
 ! A105  A(12,32,34)           126.388          estimate D2E/DX2                !
 ! A106  A(33,32,34)           119.2037         estimate D2E/DX2                !
 ! A107  A(32,33,58)           104.1884         estimate D2E/DX2                !
 ! D1    D(6,1,2,3)              0.3824         estimate D2E/DX2                !
 ! D2    D(6,1,2,17)          -179.5055         estimate D2E/DX2                !
 ! D3    D(15,1,2,3)          -179.9442         estimate D2E/DX2                !
 ! D4    D(15,1,2,17)            0.1678         estimate D2E/DX2                !
 ! D5    D(2,1,6,5)             -0.308          estimate D2E/DX2                !
 ! D6    D(2,1,6,16)           179.5376         estimate D2E/DX2                !
 ! D7    D(15,1,6,5)          -179.9812         estimate D2E/DX2                !
 ! D8    D(15,1,6,16)           -0.1356         estimate D2E/DX2                !
 ! D9    D(2,1,15,42)          179.0313         estimate D2E/DX2                !
 ! D10   D(2,1,15,43)          -61.0807         estimate D2E/DX2                !
 ! D11   D(2,1,15,44)           59.3557         estimate D2E/DX2                !
 ! D12   D(6,1,15,42)           -1.3079         estimate D2E/DX2                !
 ! D13   D(6,1,15,43)          118.58           estimate D2E/DX2                !
 ! D14   D(6,1,15,44)         -120.9835         estimate D2E/DX2                !
 ! D15   D(1,2,3,4)              0.1014         estimate D2E/DX2                !
 ! D16   D(1,2,3,35)          -179.7011         estimate D2E/DX2                !
 ! D17   D(17,2,3,4)           179.9974         estimate D2E/DX2                !
 ! D18   D(17,2,3,35)            0.1949         estimate D2E/DX2                !
 ! D19   D(1,2,17,46)           -0.8128         estimate D2E/DX2                !
 ! D20   D(3,2,17,46)          179.2929         estimate D2E/DX2                !
 ! D21   D(2,3,4,5)             -0.6543         estimate D2E/DX2                !
 ! D22   D(2,3,4,7)            179.8255         estimate D2E/DX2                !
 ! D23   D(35,3,4,5)           179.1397         estimate D2E/DX2                !
 ! D24   D(35,3,4,7)            -0.3805         estimate D2E/DX2                !
 ! D25   D(3,4,5,6)              0.7227         estimate D2E/DX2                !
 ! D26   D(3,4,5,10)          -178.7641         estimate D2E/DX2                !
 ! D27   D(7,4,5,6)           -179.7451         estimate D2E/DX2                !
 ! D28   D(7,4,5,10)             0.7682         estimate D2E/DX2                !
 ! D29   D(3,4,7,8)            177.3586         estimate D2E/DX2                !
 ! D30   D(3,4,7,11)            -2.6783         estimate D2E/DX2                !
 ! D31   D(5,4,7,8)             -2.153          estimate D2E/DX2                !
 ! D32   D(5,4,7,11)           177.8101         estimate D2E/DX2                !
 ! D33   D(4,5,6,1)             -0.2492         estimate D2E/DX2                !
 ! D34   D(4,5,6,16)           179.9129         estimate D2E/DX2                !
 ! D35   D(10,5,6,1)           179.2365         estimate D2E/DX2                !
 ! D36   D(10,5,6,16)           -0.6014         estimate D2E/DX2                !
 ! D37   D(4,5,10,9)             1.2113         estimate D2E/DX2                !
 ! D38   D(4,5,10,18)         -179.3805         estimate D2E/DX2                !
 ! D39   D(6,5,10,9)          -178.2794         estimate D2E/DX2                !
 ! D40   D(6,5,10,18)            1.1288         estimate D2E/DX2                !
 ! D41   D(1,6,16,45)          179.792          estimate D2E/DX2                !
 ! D42   D(5,6,16,45)           -0.3634         estimate D2E/DX2                !
 ! D43   D(4,7,8,9)              1.5915         estimate D2E/DX2                !
 ! D44   D(4,7,8,14)          -177.5122         estimate D2E/DX2                !
 ! D45   D(11,7,8,9)          -178.3711         estimate D2E/DX2                !
 ! D46   D(11,7,8,14)            2.5251         estimate D2E/DX2                !
 ! D47   D(4,7,11,12)         -166.5737         estimate D2E/DX2                !
 ! D48   D(4,7,11,36)           70.2929         estimate D2E/DX2                !
 ! D49   D(4,7,11,37)          -46.0178         estimate D2E/DX2                !
 ! D50   D(8,7,11,12)           13.3879         estimate D2E/DX2                !
 ! D51   D(8,7,11,36)         -109.7455         estimate D2E/DX2                !
 ! D52   D(8,7,11,37)          133.9439         estimate D2E/DX2                !
 ! D53   D(7,8,9,10)             0.4595         estimate D2E/DX2                !
 ! D54   D(14,8,9,10)          179.6486         estimate D2E/DX2                !
 ! D55   D(7,8,14,13)           13.6659         estimate D2E/DX2                !
 ! D56   D(7,8,14,40)         -109.2698         estimate D2E/DX2                !
 ! D57   D(7,8,14,41)          134.591          estimate D2E/DX2                !
 ! D58   D(9,8,14,13)         -165.517          estimate D2E/DX2                !
 ! D59   D(9,8,14,40)           71.5473         estimate D2E/DX2                !
 ! D60   D(9,8,14,41)          -44.5919         estimate D2E/DX2                !
 ! D61   D(8,9,10,5)            -1.8715         estimate D2E/DX2                !
 ! D62   D(8,9,10,18)          178.7306         estimate D2E/DX2                !
 ! D63   D(7,11,12,13)         -43.2697         estimate D2E/DX2                !
 ! D64   D(7,11,12,19)          77.5566         estimate D2E/DX2                !
 ! D65   D(7,11,12,32)        -163.4156         estimate D2E/DX2                !
 ! D66   D(36,11,12,13)         78.4873         estimate D2E/DX2                !
 ! D67   D(36,11,12,19)       -160.6864         estimate D2E/DX2                !
 ! D68   D(36,11,12,32)        -41.6586         estimate D2E/DX2                !
 ! D69   D(37,11,12,13)       -164.7147         estimate D2E/DX2                !
 ! D70   D(37,11,12,19)        -43.8884         estimate D2E/DX2                !
 ! D71   D(37,11,12,32)         75.1394         estimate D2E/DX2                !
 ! D72   D(11,12,13,14)         59.7641         estimate D2E/DX2                !
 ! D73   D(11,12,13,38)        -60.5049         estimate D2E/DX2                !
 ! D74   D(11,12,13,39)       -177.173          estimate D2E/DX2                !
 ! D75   D(19,12,13,14)        -55.9963         estimate D2E/DX2                !
 ! D76   D(19,12,13,38)       -176.2653         estimate D2E/DX2                !
 ! D77   D(19,12,13,39)         67.0667         estimate D2E/DX2                !
 ! D78   D(32,12,13,14)        174.546          estimate D2E/DX2                !
 ! D79   D(32,12,13,38)         54.277          estimate D2E/DX2                !
 ! D80   D(32,12,13,39)        -62.391          estimate D2E/DX2                !
 ! D81   D(11,12,19,20)       -171.3637         estimate D2E/DX2                !
 ! D82   D(13,12,19,20)        -53.6479         estimate D2E/DX2                !
 ! D83   D(32,12,19,20)         75.6266         estimate D2E/DX2                !
 ! D84   D(11,12,32,33)         89.764          estimate D2E/DX2                !
 ! D85   D(11,12,32,34)        -87.8805         estimate D2E/DX2                !
 ! D86   D(13,12,32,33)        -27.4014         estimate D2E/DX2                !
 ! D87   D(13,12,32,34)        154.9541         estimate D2E/DX2                !
 ! D88   D(19,12,32,33)       -156.8157         estimate D2E/DX2                !
 ! D89   D(19,12,32,34)         25.5398         estimate D2E/DX2                !
 ! D90   D(12,13,14,8)         -45.5031         estimate D2E/DX2                !
 ! D91   D(12,13,14,40)         76.4095         estimate D2E/DX2                !
 ! D92   D(12,13,14,41)       -167.034          estimate D2E/DX2                !
 ! D93   D(38,13,14,8)          75.8645         estimate D2E/DX2                !
 ! D94   D(38,13,14,40)       -162.2229         estimate D2E/DX2                !
 ! D95   D(38,13,14,41)        -45.6664         estimate D2E/DX2                !
 ! D96   D(39,13,14,8)        -169.5571         estimate D2E/DX2                !
 ! D97   D(39,13,14,40)        -47.6444         estimate D2E/DX2                !
 ! D98   D(39,13,14,41)         68.912          estimate D2E/DX2                !
 ! D99   D(12,19,20,21)        164.9432         estimate D2E/DX2                !
 ! D100  D(12,19,20,25)        -74.8684         estimate D2E/DX2                !
 ! D101  D(12,19,20,47)         49.1123         estimate D2E/DX2                !
 ! D102  D(19,20,21,22)       -176.7761         estimate D2E/DX2                !
 ! D103  D(19,20,21,26)        -56.3354         estimate D2E/DX2                !
 ! D104  D(19,20,21,48)         59.9668         estimate D2E/DX2                !
 ! D105  D(25,20,21,22)         60.2327         estimate D2E/DX2                !
 ! D106  D(25,20,21,26)       -179.3265         estimate D2E/DX2                !
 ! D107  D(25,20,21,48)        -63.0243         estimate D2E/DX2                !
 ! D108  D(47,20,21,22)        -59.6414         estimate D2E/DX2                !
 ! D109  D(47,20,21,26)         60.7994         estimate D2E/DX2                !
 ! D110  D(47,20,21,48)        177.1016         estimate D2E/DX2                !
 ! D111  D(19,20,25,24)       -162.4632         estimate D2E/DX2                !
 ! D112  D(19,20,25,51)         75.9381         estimate D2E/DX2                !
 ! D113  D(19,20,25,52)        -40.5583         estimate D2E/DX2                !
 ! D114  D(21,20,25,24)        -44.2109         estimate D2E/DX2                !
 ! D115  D(21,20,25,51)       -165.8096         estimate D2E/DX2                !
 ! D116  D(21,20,25,52)         77.6939         estimate D2E/DX2                !
 ! D117  D(47,20,25,24)         73.9812         estimate D2E/DX2                !
 ! D118  D(47,20,25,51)        -47.6175         estimate D2E/DX2                !
 ! D119  D(47,20,25,52)       -164.114          estimate D2E/DX2                !
 ! D120  D(20,21,22,23)        -45.2377         estimate D2E/DX2                !
 ! D121  D(20,21,22,27)       -165.5877         estimate D2E/DX2                !
 ! D122  D(20,21,22,49)         77.3288         estimate D2E/DX2                !
 ! D123  D(26,21,22,23)       -166.2597         estimate D2E/DX2                !
 ! D124  D(26,21,22,27)         73.3903         estimate D2E/DX2                !
 ! D125  D(26,21,22,49)        -43.6932         estimate D2E/DX2                !
 ! D126  D(48,21,22,23)         77.8869         estimate D2E/DX2                !
 ! D127  D(48,21,22,27)        -42.463          estimate D2E/DX2                !
 ! D128  D(48,21,22,49)       -159.5466         estimate D2E/DX2                !
 ! D129  D(20,21,26,53)         51.6226         estimate D2E/DX2                !
 ! D130  D(22,21,26,53)        173.2203         estimate D2E/DX2                !
 ! D131  D(48,21,26,53)        -67.6976         estimate D2E/DX2                !
 ! D132  D(21,22,23,24)         14.3652         estimate D2E/DX2                !
 ! D133  D(21,22,23,50)       -165.3627         estimate D2E/DX2                !
 ! D134  D(27,22,23,24)        135.2711         estimate D2E/DX2                !
 ! D135  D(27,22,23,50)        -44.4569         estimate D2E/DX2                !
 ! D136  D(49,22,23,24)       -108.9645         estimate D2E/DX2                !
 ! D137  D(49,22,23,50)         71.3075         estimate D2E/DX2                !
 ! D138  D(21,22,27,54)        -51.6428         estimate D2E/DX2                !
 ! D139  D(23,22,27,54)       -174.9226         estimate D2E/DX2                !
 ! D140  D(49,22,27,54)         67.7826         estimate D2E/DX2                !
 ! D141  D(22,23,24,25)          1.6299         estimate D2E/DX2                !
 ! D142  D(22,23,24,28)       -179.4741         estimate D2E/DX2                !
 ! D143  D(50,23,24,25)       -178.6542         estimate D2E/DX2                !
 ! D144  D(50,23,24,28)          0.2418         estimate D2E/DX2                !
 ! D145  D(23,24,25,20)         14.1277         estimate D2E/DX2                !
 ! D146  D(23,24,25,51)        134.9693         estimate D2E/DX2                !
 ! D147  D(23,24,25,52)       -108.2886         estimate D2E/DX2                !
 ! D148  D(28,24,25,20)       -164.7513         estimate D2E/DX2                !
 ! D149  D(28,24,25,51)        -43.9097         estimate D2E/DX2                !
 ! D150  D(28,24,25,52)         72.8324         estimate D2E/DX2                !
 ! D151  D(23,24,28,29)        168.6022         estimate D2E/DX2                !
 ! D152  D(23,24,28,30)        -11.6761         estimate D2E/DX2                !
 ! D153  D(25,24,28,29)        -12.4669         estimate D2E/DX2                !
 ! D154  D(25,24,28,30)        167.2548         estimate D2E/DX2                !
 ! D155  D(24,28,29,31)       -178.859          estimate D2E/DX2                !
 ! D156  D(30,28,29,31)          1.4233         estimate D2E/DX2                !
 ! D157  D(28,29,31,55)        179.1763         estimate D2E/DX2                !
 ! D158  D(28,29,31,56)        -62.3558         estimate D2E/DX2                !
 ! D159  D(28,29,31,57)         60.6751         estimate D2E/DX2                !
 ! D160  D(12,32,33,58)       -178.2243         estimate D2E/DX2                !
 ! D161  D(34,32,33,58)         -0.3965         estimate D2E/DX2                !
 --------------------------------------------------------------------------------
 Trust Radius=3.00D-01 FncErr=1.00D-07 GrdErr=1.00D-06
 Number of steps in this run=    340 maximum allowed number of steps=    348.
 GradGradGradGradGradGradGradGradGradGradGradGradGradGradGradGradGradGrad

 Stoichiometry    C23H24O11
 Framework group  C1[X(C23H24O11)]
 Deg. of freedom   168
 Full point group                 C1      NOp   1
 Largest Abelian subgroup         C1      NOp   1
 Largest concise Abelian subgroup C1      NOp   1
                         Standard orientation:                         
 ---------------------------------------------------------------------
 Center     Atomic      Atomic             Coordinates (Angstroms)
 Number     Number       Type             X           Y           Z
 ---------------------------------------------------------------------
      1          6           0        5.852960   -0.536860   -1.115588
      2          6           0        4.901877   -1.524162   -1.388652
      3          6           0        3.626310   -1.488726   -0.819646
      4          6           0        3.248304   -0.456416    0.049129
      5          6           0        4.194132    0.534727    0.342523
      6          6           0        5.481882    0.493680   -0.237559
      7          6           0        1.908453   -0.393822    0.659317
      8          6           0        1.659208    0.605257    1.521103
      9          8           0        2.602565    1.600997    1.836111
     10          6           0        3.842520    1.626999    1.277409
     11          6           0        0.855043   -1.429503    0.315813
     12          6           0       -0.590078   -1.060489    0.767343
     13          6           0       -0.517724   -0.484167    2.193693
     14          6           0        0.361006    0.765423    2.259484
     15          6           0        7.223443   -0.581681   -1.733187
     16          8           0        6.429592    1.453230    0.030473
     17          8           0        5.144961   -2.583511   -2.218265
     18          8           0        4.655995    2.509977    1.536623
     19          8           0       -1.049196   -0.099294   -0.203376
     20          6           0       -2.289124    0.597134    0.016829
     21          6           0       -2.288643    1.783771   -0.964069
     22          6           0       -3.538301    2.656917   -0.766720
     23          6           0       -4.793953    1.858092   -0.639180
     24          6           0       -4.801298    0.531052   -0.411881
     25          6           0       -3.536816   -0.267466   -0.229051
     26          8           0       -1.117183    2.591940   -0.754223
     27          8           0       -3.679156    3.529972   -1.884312
     28          6           0       -6.120752   -0.152607   -0.316797
     29          8           0       -5.945519   -1.497365   -0.339214
     30          8           0       -7.193398    0.424175   -0.226872
     31          6           0       -7.163059   -2.240885   -0.278309
     32          6           0       -1.361513   -2.396112    0.704764
     33          8           0       -1.329764   -3.110691    1.847124
     34          8           0       -1.937860   -2.854971   -0.269306
     35          1           0        2.943545   -2.294780   -1.076111
     36          1           0        1.163172   -2.382518    0.767388
     37          1           0        0.833933   -1.573158   -0.773081
     38          1           0       -0.100777   -1.232587    2.881684
     39          1           0       -1.515958   -0.252697    2.581963
     40          1           0       -0.171228    1.630774    1.849645
     41          1           0        0.564215    0.991880    3.313223
     42          1           0        7.854400    0.263162   -1.443108
     43          1           0        7.742892   -1.495082   -1.424879
     44          1           0        7.143037   -0.561950   -2.825194
     45          1           0        6.054926    2.118683    0.650477
     46          1           0        6.045105   -2.522855   -2.575585
     47          1           0       -2.304046    1.006489    1.032065
     48          1           0       -2.221968    1.427370   -2.000360
     49          1           0       -3.425960    3.293121    0.119171
     50          1           0       -5.726900    2.409714   -0.745317
     51          1           0       -3.654293   -0.943844    0.625349
     52          1           0       -3.383314   -0.891354   -1.117943
     53          1           0       -0.368514    1.963391   -0.783260
     54          1           0       -2.812006    3.968509   -1.978866
     55          1           0       -6.912351   -3.304557   -0.317264
     56          1           0       -7.686223   -2.042746    0.662441
     57          1           0       -7.801388   -2.004228   -1.135407
     58          1           0       -1.831854   -3.927335    1.634234
 ---------------------------------------------------------------------
 Rotational constants (GHZ):      0.2360112      0.0562946      0.0515845
 Standard basis: 6-31G(d) (6D, 7F)
 There are   558 symmetry adapted basis functions of A   symmetry.
 Integral buffers will be    131072 words long.
 Raffenetti 2 integral format.
 Two-electron integral symmetry is turned on.
   558 basis functions,  1048 primitive gaussians,   558 cartesian basis functions
   125 alpha electrons      125 beta electrons
       nuclear repulsion energy      3669.4642721218 Hartrees.
 NAtoms=   58 NActive=   58 NUniq=   58 SFac= 1.00D+00 NAtFMM=   50 NAOKFM=T Big=T
 One-electron integrals computed using PRISM.
 NBasis=   558 RedAO= T  NBF=   558
 NBsUse=   558 1.00D-06 NBFU=   558
 Harris functional with IExCor=  402 diagonalized for initial guess.
 ExpMin= 1.61D-01 ExpMax= 5.48D+03 ExpMxC= 8.25D+02 IAcc=1 IRadAn=         1 AccDes= 0.00D+00
 HarFok:  IExCor=  402 AccDes= 0.00D+00 IRadAn=         1 IDoV= 1
 ScaDFX=  1.000000  1.000000  1.000000  1.000000
 FoFCou: FMM=F IPFlag=           0 FMFlag=      100000 FMFlg1=        2001
         NFxFlg=           0 DoJE=T BraDBF=F KetDBF=T FulRan=T
         Omega=  0.000000  0.000000  1.000000  0.000000  0.000000 ICntrl=     500 IOpCl=  0
         NMat0=    1 NMatS0=    1 NMatT0=    0 NMatD0=    1 NMtDS0=    0 NMtDT0=    0
         I1Cent=           4 NGrid=           0.
 Petite list used in FoFCou.
 Initial guess orbital symmetries:
       Occupied  (A) (A) (A) (A) (A) (A) (A) (A) (A) (A) (A) (A)
                 (A) (A) (A) (A) (A) (A) (A) (A) (A) (A) (A) (A)
                 (A) (A) (A) (A) (A) (A) (A) (A) (A) (A) (A) (A)
                 (A) (A) (A) (A) (A) (A) (A) (A) (A) (A) (A) (A)
                 (A) (A) (A) (A) (A) (A) (A) (A) (A) (A) (A) (A)
                 (A) (A) (A) (A) (A) (A) (A) (A) (A) (A) (A) (A)
                 (A) (A) (A) (A) (A) (A) (A) (A) (A) (A) (A) (A)
                 (A) (A) (A) (A) (A) (A) (A) (A) (A) (A) (A) (A)
                 (A) (A) (A) (A) (A) (A) (A) (A) (A) (A) (A) (A)
                 (A) (A) (A) (A) (A) (A) (A) (A) (A) (A) (A) (A)
                 (A) (A) (A) (A) (A)
       Virtual   (A) (A) (A) (A) (A) (A) (A) (A) (A) (A) (A) (A)
                 (A) (A) (A) (A) (A) (A) (A) (A) (A) (A) (A) (A)
                 (A) (A) (A) (A) (A) (A) (A) (A) (A) (A) (A) (A)
                 (A) (A) (A) (A) (A) (A) (A) (A) (A) (A) (A) (A)
                 (A) (A) (A) (A) (A) (A) (A) (A) (A) (A) (A) (A)
                 (A) (A) (A) (A) (A) (A) (A) (A) (A) (A) (A) (A)
                 (A) (A) (A) (A) (A) (A) (A) (A) (A) (A) (A) (A)
                 (A) (A) (A) (A) (A) (A) (A) (A) (A) (A) (A) (A)
                 (A) (A) (A) (A) (A) (A) (A) (A) (A) (A) (A) (A)
                 (A) (A) (A) (A) (A) (A) (A) (A) (A) (A) (A) (A)
                 (A) (A) (A) (A) (A) (A) (A) (A) (A) (A) (A) (A)
                 (A) (A) (A) (A) (A) (A) (A) (A) (A) (A) (A) (A)
                 (A) (A) (A) (A) (A) (A) (A) (A) (A) (A) (A) (A)
                 (A) (A) (A) (A) (A) (A) (A) (A) (A) (A) (A) (A)
                 (A) (A) (A) (A) (A) (A) (A) (A) (A) (A) (A) (A)
                 (A) (A) (A) (A) (A) (A) (A) (A) (A) (A) (A) (A)
                 (A) (A) (A) (A) (A) (A) (A) (A) (A) (A) (A) (A)
                 (A) (A) (A) (A) (A) (A) (A) (A) (A) (A) (A) (A)
                 (A) (A) (A) (A) (A) (A) (A) (A) (A) (A) (A) (A)
                 (A) (A) (A) (A) (A) (A) (A) (A) (A) (A) (A) (A)
                 (A) (A) (A) (A) (A) (A) (A) (A) (A) (A) (A) (A)
                 (A) (A) (A) (A) (A) (A) (A) (A) (A) (A) (A) (A)
                 (A) (A) (A) (A) (A) (A) (A) (A) (A) (A) (A) (A)
                 (A) (A) (A) (A) (A) (A) (A) (A) (A) (A) (A) (A)
                 (A) (A) (A) (A) (A) (A) (A) (A) (A) (A) (A) (A)
                 (A) (A) (A) (A) (A) (A) (A) (A) (A) (A) (A) (A)
                 (A) (A) (A) (A) (A) (A) (A) (A) (A) (A) (A) (A)
                 (A) (A) (A) (A) (A) (A) (A) (A) (A) (A) (A) (A)
                 (A) (A) (A) (A) (A) (A) (A) (A) (A) (A) (A) (A)
                 (A) (A) (A) (A) (A) (A) (A) (A) (A) (A) (A) (A)
                 (A) (A) (A) (A) (A) (A) (A) (A) (A) (A) (A) (A)
                 (A) (A) (A) (A) (A) (A) (A) (A) (A) (A) (A) (A)
                 (A) (A) (A) (A) (A) (A) (A) (A) (A) (A) (A) (A)
                 (A) (A) (A) (A) (A) (A) (A) (A) (A) (A) (A) (A)
                 (A) (A) (A) (A) (A) (A) (A) (A) (A) (A) (A) (A)
                 (A) (A) (A) (A) (A) (A) (A) (A) (A) (A) (A) (A)
                 (A)
 The electronic state of the initial guess is 1-A.
 Requested convergence on RMS density matrix=1.00D-08 within 128 cycles.
 Requested convergence on MAX density matrix=1.00D-06.
 Requested convergence on             energy=1.00D-06.
 No special actions if energy rises.
 Integral accuracy reduced to 1.0D-05 until final iterations.
 Initial convergence to 1.0D-05 achieved.  Increase integral accuracy.
 SCF Done:  E(RB3LYP) =  -1718.35458001     A.U. after   15 cycles
             Convg  =    0.3787D-08             -V/T =  2.0091

 **********************************************************************

            Population analysis using the SCF density.

 **********************************************************************

 Orbital symmetries:
       Occupied  (A) (A) (A) (A) (A) (A) (A) (A) (A) (A) (A) (A)
                 (A) (A) (A) (A) (A) (A) (A) (A) (A) (A) (A) (A)
                 (A) (A) (A) (A) (A) (A) (A) (A) (A) (A) (A) (A)
                 (A) (A) (A) (A) (A) (A) (A) (A) (A) (A) (A) (A)
                 (A) (A) (A) (A) (A) (A) (A) (A) (A) (A) (A) (A)
                 (A) (A) (A) (A) (A) (A) (A) (A) (A) (A) (A) (A)
                 (A) (A) (A) (A) (A) (A) (A) (A) (A) (A) (A) (A)
                 (A) (A) (A) (A) (A) (A) (A) (A) (A) (A) (A) (A)
                 (A) (A) (A) (A) (A) (A) (A) (A) (A) (A) (A) (A)
                 (A) (A) (A) (A) (A) (A) (A) (A) (A) (A) (A) (A)
                 (A) (A) (A) (A) (A)
       Virtual   (A) (A) (A) (A) (A) (A) (A) (A) (A) (A) (A) (A)
                 (A) (A) (A) (A) (A) (A) (A) (A) (A) (A) (A) (A)
                 (A) (A) (A) (A) (A) (A) (A) (A) (A) (A) (A) (A)
                 (A) (A) (A) (A) (A) (A) (A) (A) (A) (A) (A) (A)
                 (A) (A) (A) (A) (A) (A) (A) (A) (A) (A) (A) (A)
                 (A) (A) (A) (A) (A) (A) (A) (A) (A) (A) (A) (A)
                 (A) (A) (A) (A) (A) (A) (A) (A) (A) (A) (A) (A)
                 (A) (A) (A) (A) (A) (A) (A) (A) (A) (A) (A) (A)
                 (A) (A) (A) (A) (A) (A) (A) (A) (A) (A) (A) (A)
                 (A) (A) (A) (A) (A) (A) (A) (A) (A) (A) (A) (A)
                 (A) (A) (A) (A) (A) (A) (A) (A) (A) (A) (A) (A)
                 (A) (A) (A) (A) (A) (A) (A) (A) (A) (A) (A) (A)
                 (A) (A) (A) (A) (A) (A) (A) (A) (A) (A) (A) (A)
                 (A) (A) (A) (A) (A) (A) (A) (A) (A) (A) (A) (A)
                 (A) (A) (A) (A) (A) (A) (A) (A) (A) (A) (A) (A)
                 (A) (A) (A) (A) (A) (A) (A) (A) (A) (A) (A) (A)
                 (A) (A) (A) (A) (A) (A) (A) (A) (A) (A) (A) (A)
                 (A) (A) (A) (A) (A) (A) (A) (A) (A) (A) (A) (A)
                 (A) (A) (A) (A) (A) (A) (A) (A) (A) (A) (A) (A)
                 (A) (A) (A) (A) (A) (A) (A) (A) (A) (A) (A) (A)
                 (A) (A) (A) (A) (A) (A) (A) (A) (A) (A) (A) (A)
                 (A) (A) (A) (A) (A) (A) (A) (A) (A) (A) (A) (A)
                 (A) (A) (A) (A) (A) (A) (A) (A) (A) (A) (A) (A)
                 (A) (A) (A) (A) (A) (A) (A) (A) (A) (A) (A) (A)
                 (A) (A) (A) (A) (A) (A) (A) (A) (A) (A) (A) (A)
                 (A) (A) (A) (A) (A) (A) (A) (A) (A) (A) (A) (A)
                 (A) (A) (A) (A) (A) (A) (A) (A) (A) (A) (A) (A)
                 (A) (A) (A) (A) (A) (A) (A) (A) (A) (A) (A) (A)
                 (A) (A) (A) (A) (A) (A) (A) (A) (A) (A) (A) (A)
                 (A) (A) (A) (A) (A) (A) (A) (A) (A) (A) (A) (A)
                 (A) (A) (A) (A) (A) (A) (A) (A) (A) (A) (A) (A)
                 (A) (A) (A) (A) (A) (A) (A) (A) (A) (A) (A) (A)
                 (A) (A) (A) (A) (A) (A) (A) (A) (A) (A) (A) (A)
                 (A) (A) (A) (A) (A) (A) (A) (A) (A) (A) (A) (A)
                 (A) (A) (A) (A) (A) (A) (A) (A) (A) (A) (A) (A)
                 (A) (A) (A) (A) (A) (A) (A) (A) (A) (A) (A) (A)
                 (A)
 The electronic state is 1-A.
 Alpha  occ. eigenvalues --  -19.22694 -19.22066 -19.19991 -19.19587 -19.18379
 Alpha  occ. eigenvalues --  -19.16669 -19.15787 -19.15386 -19.14551 -19.14391
 Alpha  occ. eigenvalues --  -19.13662 -10.34128 -10.33366 -10.31764 -10.29213
 Alpha  occ. eigenvalues --  -10.27603 -10.26882 -10.26768 -10.25640 -10.24785
 Alpha  occ. eigenvalues --  -10.24490 -10.24338 -10.22446 -10.22408 -10.22087
 Alpha  occ. eigenvalues --  -10.21787 -10.21647 -10.21170 -10.20748 -10.20508
 Alpha  occ. eigenvalues --  -10.20497 -10.19793 -10.19759 -10.19270  -1.13133
 Alpha  occ. eigenvalues --   -1.12249  -1.10425  -1.07551  -1.06246  -1.05459
 Alpha  occ. eigenvalues --   -1.03135  -1.02772  -1.02606  -1.01471  -1.01037
 Alpha  occ. eigenvalues --   -0.88174  -0.86300  -0.84467  -0.81081  -0.79565
 Alpha  occ. eigenvalues --   -0.77348  -0.76149  -0.76022  -0.74712  -0.71938
 Alpha  occ. eigenvalues --   -0.70980  -0.69298  -0.66529  -0.65636  -0.64676
 Alpha  occ. eigenvalues --   -0.63783  -0.62684  -0.61503  -0.59287  -0.58033
 Alpha  occ. eigenvalues --   -0.57176  -0.55447  -0.55104  -0.53696  -0.53151
 Alpha  occ. eigenvalues --   -0.52062  -0.51479  -0.51077  -0.50089  -0.49503
 Alpha  occ. eigenvalues --   -0.49012  -0.48835  -0.48726  -0.48014  -0.47704
 Alpha  occ. eigenvalues --   -0.47315  -0.46492  -0.46061  -0.45777  -0.44957
 Alpha  occ. eigenvalues --   -0.44550  -0.43967  -0.43759  -0.43066  -0.42977
 Alpha  occ. eigenvalues --   -0.42509  -0.42082  -0.41865  -0.41286  -0.41052
 Alpha  occ. eigenvalues --   -0.40516  -0.40292  -0.40011  -0.39477  -0.39114
 Alpha  occ. eigenvalues --   -0.38974  -0.38417  -0.37859  -0.37684  -0.37451
 Alpha  occ. eigenvalues --   -0.36141  -0.35777  -0.35195  -0.35009  -0.34833
 Alpha  occ. eigenvalues --   -0.33817  -0.33628  -0.33198  -0.32463  -0.30668
 Alpha  occ. eigenvalues --   -0.30207  -0.28783  -0.28198  -0.28019  -0.27653
 Alpha  occ. eigenvalues --   -0.27397  -0.26817  -0.25557  -0.23585  -0.22109
 Alpha virt. eigenvalues --   -0.04395  -0.04383  -0.03110  -0.02035   0.03395
 Alpha virt. eigenvalues --    0.04845   0.05438   0.05935   0.06200   0.06779
 Alpha virt. eigenvalues --    0.07389   0.09236   0.10278   0.10438   0.10633
 Alpha virt. eigenvalues --    0.10838   0.11753   0.12411   0.12677   0.12992
 Alpha virt. eigenvalues --    0.13370   0.13672   0.14841   0.14990   0.15217
 Alpha virt. eigenvalues --    0.15556   0.16082   0.16440   0.16674   0.17134
 Alpha virt. eigenvalues --    0.17185   0.17607   0.18183   0.18405   0.18535
 Alpha virt. eigenvalues --    0.19283   0.19372   0.19778   0.20604   0.20926
 Alpha virt. eigenvalues --    0.21020   0.22329   0.23211   0.23914   0.24415
 Alpha virt. eigenvalues --    0.24503   0.24896   0.25768   0.26392   0.27141
 Alpha virt. eigenvalues --    0.27665   0.28418   0.29022   0.31573   0.32012
 Alpha virt. eigenvalues --    0.32298   0.33818   0.34083   0.36803   0.37926
 Alpha virt. eigenvalues --    0.38764   0.39885   0.40597   0.41396   0.41920
 Alpha virt. eigenvalues --    0.43079   0.45180   0.46641   0.48351   0.49785
 Alpha virt. eigenvalues --    0.50308   0.50828   0.51038   0.51373   0.51561
 Alpha virt. eigenvalues --    0.52050   0.52579   0.53152   0.54258   0.54527
 Alpha virt. eigenvalues --    0.54626   0.55298   0.55404   0.55838   0.56325
 Alpha virt. eigenvalues --    0.56593   0.57717   0.57992   0.58131   0.58988
 Alpha virt. eigenvalues --    0.59329   0.59855   0.60229   0.61168   0.61405
 Alpha virt. eigenvalues --    0.62140   0.63097   0.63125   0.63699   0.64342
 Alpha virt. eigenvalues --    0.64689   0.65026   0.66258   0.66458   0.66999
 Alpha virt. eigenvalues --    0.67773   0.68281   0.69349   0.69588   0.70024
 Alpha virt. eigenvalues --    0.70481   0.71937   0.72296   0.72496   0.72970
 Alpha virt. eigenvalues --    0.73374   0.73767   0.74285   0.74365   0.75064
 Alpha virt. eigenvalues --    0.75731   0.75882   0.76230   0.77559   0.78326
 Alpha virt. eigenvalues --    0.78878   0.79448   0.80184   0.81700   0.82108
 Alpha virt. eigenvalues --    0.82559   0.82869   0.84000   0.84172   0.84536
 Alpha virt. eigenvalues --    0.84569   0.85186   0.85627   0.85982   0.86331
 Alpha virt. eigenvalues --    0.86691   0.88082   0.89201   0.89638   0.90499
 Alpha virt. eigenvalues --    0.90667   0.90772   0.91109   0.91988   0.93033
 Alpha virt. eigenvalues --    0.93094   0.93391   0.94146   0.95287   0.95452
 Alpha virt. eigenvalues --    0.95625   0.96075   0.96550   0.97115   0.98007
 Alpha virt. eigenvalues --    0.98208   0.98430   0.99262   1.00112   1.00574
 Alpha virt. eigenvalues --    1.00925   1.00974   1.01715   1.02790   1.03212
 Alpha virt. eigenvalues --    1.03392   1.04391   1.05339   1.05798   1.06385
 Alpha virt. eigenvalues --    1.07203   1.07942   1.09772   1.11336   1.11782
 Alpha virt. eigenvalues --    1.12237   1.13081   1.14017   1.14091   1.15251
 Alpha virt. eigenvalues --    1.15638   1.15962   1.17369   1.18855   1.20322
 Alpha virt. eigenvalues --    1.21502   1.21959   1.22880   1.23040   1.24269
 Alpha virt. eigenvalues --    1.24908   1.25268   1.26405   1.27256   1.28496
 Alpha virt. eigenvalues --    1.29140   1.31026   1.32602   1.33438   1.33577
 Alpha virt. eigenvalues --    1.34297   1.35933   1.36211   1.37015   1.37424
 Alpha virt. eigenvalues --    1.37816   1.38335   1.38771   1.39338   1.39963
 Alpha virt. eigenvalues --    1.41550   1.42204   1.43040   1.43271   1.44461
 Alpha virt. eigenvalues --    1.45049   1.45521   1.46305   1.47241   1.49495
 Alpha virt. eigenvalues --    1.50325   1.52971   1.53581   1.56587   1.58380
 Alpha virt. eigenvalues --    1.59323   1.62345   1.62637   1.63532   1.64445
 Alpha virt. eigenvalues --    1.65202   1.65920   1.67024   1.68051   1.68515
 Alpha virt. eigenvalues --    1.69043   1.70156   1.70298   1.70530   1.70919
 Alpha virt. eigenvalues --    1.71117   1.71812   1.73122   1.73607   1.73823
 Alpha virt. eigenvalues --    1.74243   1.75607   1.76093   1.76645   1.77006
 Alpha virt. eigenvalues --    1.78098   1.78507   1.79364   1.80204   1.80745
 Alpha virt. eigenvalues --    1.80948   1.81212   1.82185   1.82864   1.83303
 Alpha virt. eigenvalues --    1.83579   1.84329   1.85632   1.86108   1.86575
 Alpha virt. eigenvalues --    1.86866   1.87122   1.87483   1.88567   1.89516
 Alpha virt. eigenvalues --    1.89668   1.90351   1.91254   1.91796   1.93291
 Alpha virt. eigenvalues --    1.93436   1.93914   1.94160   1.94673   1.95049
 Alpha virt. eigenvalues --    1.96656   1.97706   1.98336   1.98848   1.99505
 Alpha virt. eigenvalues --    2.00510   2.01489   2.02539   2.03049   2.03792
 Alpha virt. eigenvalues --    2.04273   2.04519   2.05737   2.05922   2.06343
 Alpha virt. eigenvalues --    2.07095   2.08789   2.09113   2.09923   2.11088
 Alpha virt. eigenvalues --    2.12446   2.13040   2.13416   2.15340   2.15613
 Alpha virt. eigenvalues --    2.18201   2.19370   2.20433   2.21161   2.22910
 Alpha virt. eigenvalues --    2.23597   2.24628   2.25961   2.27026   2.27400
 Alpha virt. eigenvalues --    2.27839   2.28862   2.29809   2.30164   2.30733
 Alpha virt. eigenvalues --    2.30830   2.32242   2.32906   2.33502   2.34286
 Alpha virt. eigenvalues --    2.34599   2.35460   2.36077   2.37721   2.38982
 Alpha virt. eigenvalues --    2.39370   2.39864   2.40338   2.42292   2.42853
 Alpha virt. eigenvalues --    2.43472   2.44498   2.45054   2.46192   2.47181
 Alpha virt. eigenvalues --    2.47880   2.48986   2.50538   2.52043   2.52404
 Alpha virt. eigenvalues --    2.53498   2.54743   2.56187   2.57710   2.58372
 Alpha virt. eigenvalues --    2.59238   2.61041   2.61908   2.62710   2.63354
 Alpha virt. eigenvalues --    2.65824   2.66453   2.67204   2.67799   2.69687
 Alpha virt. eigenvalues --    2.70271   2.70597   2.73022   2.73744   2.74734
 Alpha virt. eigenvalues --    2.75994   2.76452   2.77580   2.78733   2.80715
 Alpha virt. eigenvalues --    2.80996   2.84382   2.85112   2.88081   2.90318
 Alpha virt. eigenvalues --    2.91137   2.93855   2.94504   2.95802   2.97625
 Alpha virt. eigenvalues --    3.00082   3.00815   3.02081   3.04671   3.05296
 Alpha virt. eigenvalues --    3.07124   3.08174   3.12376   3.15793   3.17381
 Alpha virt. eigenvalues --    3.22539   3.23267   3.41044   3.49550   3.75616
 Alpha virt. eigenvalues --    3.87264   3.92740   3.96479   3.96604   3.99015
 Alpha virt. eigenvalues --    4.05014   4.07290   4.10879   4.13967   4.16992
 Alpha virt. eigenvalues --    4.18538   4.21696   4.23594   4.24644   4.25033
 Alpha virt. eigenvalues --    4.26655   4.32418   4.32894   4.33424   4.35816
 Alpha virt. eigenvalues --    4.38469   4.42516   4.43716   4.47979   4.51226
 Alpha virt. eigenvalues --    4.54290   4.55272   4.58882   4.63534   4.72427
 Alpha virt. eigenvalues --    4.74432   4.79647   4.87844
          Condensed to atoms (all electrons):
 Mulliken atomic charges:
              1
     1  C    0.118414
     2  C    0.295823
     3  C   -0.274040
     4  C    0.125492
     5  C   -0.066678
     6  C    0.230478
     7  C    0.077052
     8  C    0.271130
     9  O   -0.512422
    10  C    0.636469
    11  C   -0.378893
    12  C    0.264509
    13  C   -0.315402
    14  C   -0.355301
    15  C   -0.576079
    16  O   -0.671670
    17  O   -0.641799
    18  O   -0.534256
    19  O   -0.554999
    20  C    0.120289
    21  C    0.087258
    22  C    0.102933
    23  C   -0.137505
    24  C    0.051218
    25  C   -0.350127
    26  O   -0.665210
    27  O   -0.637669
    28  C    0.597215
    29  O   -0.456017
    30  O   -0.489880
    31  C   -0.221497
    32  C    0.584519
    33  O   -0.568801
    34  O   -0.473145
    35  H    0.139121
    36  H    0.177302
    37  H    0.194800
    38  H    0.178395
    39  H    0.161265
    40  H    0.186798
    41  H    0.176666
    42  H    0.209592
    43  H    0.161554
    44  H    0.160159
    45  H    0.450620
    46  H    0.419954
    47  H    0.135663
    48  H    0.147895
    49  H    0.146216
    50  H    0.181589
    51  H    0.150825
    52  H    0.199716
    53  H    0.410460
    54  H    0.405475
    55  H    0.164274
    56  H    0.169536
    57  H    0.173656
    58  H    0.417061
 Sum of Mulliken atomic charges =   0.00000
 Mulliken charges with hydrogens summed into heavy atoms:
              1
     1  C    0.118414
     2  C    0.295823
     3  C   -0.134920
     4  C    0.125492
     5  C   -0.066678
     6  C    0.230478
     7  C    0.077052
     8  C    0.271130
     9  O   -0.512422
    10  C    0.636469
    11  C   -0.006790
    12  C    0.264509
    13  C    0.024257
    14  C    0.008163
    15  C   -0.044774
    16  O   -0.221050
    17  O   -0.221846
    18  O   -0.534256
    19  O   -0.554999
    20  C    0.255953
    21  C    0.235152
    22  C    0.249149
    23  C    0.044084
    24  C    0.051218
    25  C    0.000413
    26  O   -0.254750
    27  O   -0.232194
    28  C    0.597215
    29  O   -0.456017
    30  O   -0.489880
    31  C    0.285968
    32  C    0.584519
    33  O   -0.151741
    34  O   -0.473145
 Sum of Mulliken charges with hydrogens summed into heavy atoms =   0.00000
 Electronic spatial extent (au):  <R**2>=          20342.9009
 Charge=              0.0000 electrons
 Dipole moment (field-independent basis, Debye):
    X=              1.2103    Y=             -5.6934    Z=              1.3113  Tot=              5.9665
 Quadrupole moment (field-independent basis, Debye-Ang):
   XX=           -205.7457   YY=           -195.1482   ZZ=           -190.4181
   XY=              3.2547   XZ=            -23.0161   YZ=             -4.6227
 Traceless Quadrupole moment (field-independent basis, Debye-Ang):
   XX=             -8.6417   YY=              1.9558   ZZ=              6.6859
   XY=              3.2547   XZ=            -23.0161   YZ=             -4.6227
 Octapole moment (field-independent basis, Debye-Ang**2):
  XXX=            173.5720  YYY=            -61.4477  ZZZ=             -7.0676  XYY=            -55.6925
  XXY=           -236.3999  XXZ=            -73.1103  XZZ=              9.3676  YZZ=            -17.5117
  YYZ=             12.4714  XYZ=             -6.3297
 Hexadecapole moment (field-independent basis, Debye-Ang**3):
 XXXX=         -20753.6514 YYYY=          -3431.2712 ZZZZ=          -1763.9314 XXXY=            436.8958
 XXXZ=           -729.0346 YYYX=            198.6413 YYYZ=           -145.0659 ZZZX=            -96.3151
 ZZZY=             15.7305 XXYY=          -3890.7765 XXZZ=          -3556.3942 YYZZ=           -921.9501
 XXYZ=            174.6413 YYXZ=           -175.1276 ZZXY=            -13.1805
 N-N= 3.669464272122D+03 E-N=-1.135204804558D+04  KE= 1.702837387121D+03
 Calling FoFJK, ICntrl=      2127 FMM=T ISym2X=0 I1Cent= 0 IOpClX= 0 NMat=1 NMatS=1 NMatT=0.
 ***** Axes restored to original set *****
 -------------------------------------------------------------------
 Center     Atomic                   Forces (Hartrees/Bohr)
 Number     Number              X              Y              Z
 -------------------------------------------------------------------
      1        6           0.003884860   -0.005924805   -0.005123914
      2        6          -0.005590061    0.004657253   -0.000616809
      3        6          -0.008041669    0.004718552   -0.002804282
      4        6          -0.009730886    0.015427866    0.014342878
      5        6          -0.003711829   -0.009760427   -0.025267137
      6        6           0.018180277   -0.017513418   -0.005122591
      7        6           0.009850919   -0.008820417    0.006944083
      8        6           0.005828237   -0.003368051   -0.006974895
      9        8          -0.009950699    0.006048908   -0.003691642
     10        6           0.013730124    0.006802121    0.036777186
     11        6           0.002390263   -0.004526557    0.001799509
     12        6           0.010824132   -0.001327878    0.002622716
     13        6           0.001493631    0.003047456   -0.003332788
     14        6           0.002486047   -0.008742756   -0.002973837
     15        6           0.000342169   -0.000392052    0.000296023
     16        8          -0.008590132    0.014839772    0.015206824
     17        8           0.002402827   -0.003551422   -0.002555188
     18        8          -0.012637358   -0.000484843   -0.022314584
     19        8           0.001397315    0.010901219   -0.001970768
     20        6          -0.011571303   -0.006222651    0.006184125
     21        6           0.018991349    0.003866772   -0.005022383
     22        6           0.003932303   -0.008664158    0.010064355
     23        6          -0.001228061    0.006203398    0.002732911
     24        6           0.001602554   -0.012415223   -0.009012974
     25        6           0.004451299    0.005417516    0.002120257
     26        8          -0.001603001    0.001980645   -0.003730123
     27        8           0.000151401   -0.006174905    0.003516880
     28        6           0.001598951   -0.009328872   -0.005373007
     29        8          -0.007702160   -0.000584113   -0.003333264
     30        8           0.006422199    0.010312814    0.009237498
     31        6          -0.005218374    0.009876589    0.001514883
     32        6          -0.023964913    0.004557733    0.015597511
     33        8           0.005317548    0.002359206   -0.006289166
     34        8           0.012071311   -0.011682319   -0.006742449
     35        1           0.001306242   -0.001846903   -0.000558835
     36        1          -0.003603045    0.001214458    0.000440425
     37        1          -0.000587580    0.002166406   -0.002231662
     38        1          -0.003732887   -0.000220189    0.004849666
     39        1           0.000199589   -0.000083821    0.000488873
     40        1          -0.000380309   -0.002567787   -0.001026534
     41        1           0.000826734   -0.002263920    0.000180441
     42        1          -0.003705452    0.001895328   -0.002599452
     43        1           0.002471686    0.000817628    0.003907612
     44        1           0.001653110    0.000244595    0.004378586
     45        1          -0.006986264    0.004353404   -0.002596563
     46        1           0.000176943   -0.000489155   -0.000919068
     47        1          -0.000640977   -0.000188390   -0.001683356
     48        1          -0.009875392    0.005968253   -0.001610623
     49        1           0.007200920    0.004991906   -0.004256762
     50        1           0.000765853    0.001824055    0.001762222
     51        1          -0.003782707    0.001667445    0.003463951
     52        1           0.003926297    0.002706714   -0.001262701
     53        1          -0.004271096   -0.003259369   -0.002109902
     54        1          -0.003934457    0.001154380   -0.001238337
     55        1           0.004704685   -0.003058464    0.000947010
     56        1          -0.002763368   -0.002839536    0.000591792
     57        1          -0.000378780   -0.000998619   -0.003807189
     58        1           0.003600985   -0.002721375   -0.001815431
 -------------------------------------------------------------------
 Cartesian Forces:  Max     0.036777186 RMS     0.007385570

 GradGradGradGradGradGradGradGradGradGradGradGradGradGradGradGradGradGrad
 Berny optimization.
 Internal  Forces:  Max     0.027941999 RMS     0.004622435
 Search for a local minimum.
 Step number   1 out of a maximum of  340
 All quantities printed in internal units (Hartrees-Bohrs-Radians)
 Mixed Optimization -- RFO/linear search
 Second derivative matrix not updated -- first step.
 ITU=  0
     Eigenvalues ---    0.00230   0.00467   0.00519   0.00564   0.00582
     Eigenvalues ---    0.00710   0.00715   0.00910   0.01147   0.01163
     Eigenvalues ---    0.01175   0.01182   0.01206   0.01276   0.01281
     Eigenvalues ---    0.01323   0.01359   0.01366   0.01372   0.01418
     Eigenvalues ---    0.01510   0.01643   0.01715   0.01728   0.01801
     Eigenvalues ---    0.01905   0.01980   0.02022   0.02033   0.02096
     Eigenvalues ---    0.02106   0.02122   0.02124   0.02270   0.02382
     Eigenvalues ---    0.02782   0.03097   0.03392   0.03562   0.04040
     Eigenvalues ---    0.04376   0.04716   0.04761   0.04789   0.04941
     Eigenvalues ---    0.05153   0.05426   0.05749   0.05775   0.05887
     Eigenvalues ---    0.06141   0.06675   0.07053   0.07142   0.07332
     Eigenvalues ---    0.07911   0.08105   0.08250   0.08263   0.08511
     Eigenvalues ---    0.09464   0.09522   0.09628   0.09868   0.09968
     Eigenvalues ---    0.10108   0.10500   0.11858   0.11993   0.14320
     Eigenvalues ---    0.14654   0.16000   0.16000   0.16000   0.16000
     Eigenvalues ---    0.16000   0.16000   0.16000   0.16000   0.16000
     Eigenvalues ---    0.16000   0.16000   0.16000   0.16612   0.16716
     Eigenvalues ---    0.17047   0.18935   0.19310   0.19887   0.22974
     Eigenvalues ---    0.23526   0.24356   0.24989   0.24991   0.24995
     Eigenvalues ---    0.24995   0.24999   0.24999   0.25000   0.25000
     Eigenvalues ---    0.25000   0.25000   0.25000   0.25000   0.25000
     Eigenvalues ---    0.25000   0.25000   0.26476   0.27355   0.27527
     Eigenvalues ---    0.27812   0.28100   0.28196   0.28651   0.30308
     Eigenvalues ---    0.31070   0.31526   0.31973   0.32396   0.32667
     Eigenvalues ---    0.33549   0.33818   0.33828   0.33845   0.33916
     Eigenvalues ---    0.34040   0.34041   0.34079   0.34125   0.34150
     Eigenvalues ---    0.34187   0.34225   0.34233   0.34268   0.34290
     Eigenvalues ---    0.34296   0.34397   0.34410   0.34611   0.34927
     Eigenvalues ---    0.35156   0.38356   0.39425   0.39713   0.39782
     Eigenvalues ---    0.40831   0.41291   0.41693   0.43258   0.44369
     Eigenvalues ---    0.45216   0.45435   0.45922   0.49733   0.50223
     Eigenvalues ---    0.50706   0.50998   0.51495   0.51781   0.52106
     Eigenvalues ---    0.52675   0.53302   0.53569   0.53700   0.55488
     Eigenvalues ---    0.91604   0.94816   0.94853
 RFO step:  Lambda=-2.66936363D-02 EMin= 2.30000000D-03
 Linear search not attempted -- first point.
 Maximum step size (   0.300) exceeded in Quadratic search.
    -- Step size scaled by   0.991
 Iteration  1 RMS(Cart)=  0.14827483 RMS(Int)=  0.00276755
 Iteration  2 RMS(Cart)=  0.00769723 RMS(Int)=  0.00032701
 Iteration  3 RMS(Cart)=  0.00001338 RMS(Int)=  0.00032693
 Iteration  4 RMS(Cart)=  0.00000002 RMS(Int)=  0.00032693
 Variable       Old X    -DE/DX   Delta X   Delta X   Delta X     New X
                                 (Linear)    (Quad)   (Total)
    R1        2.64149   0.00563   0.00000   0.01050   0.01079   2.65228
    R2        2.65279  -0.00133   0.00000  -0.00298  -0.00307   2.64972
    R3        2.84192   0.00366   0.00000   0.01048   0.01048   2.85241
    R4        2.64028   0.00152   0.00000   0.00236   0.00272   2.64300
    R5        2.58386  -0.00497   0.00000  -0.00909  -0.00909   2.57477
    R6        2.64786  -0.00500   0.00000  -0.01010  -0.01001   2.63785
    R7        2.05422  -0.00231   0.00000  -0.00605  -0.00605   2.04817
    R8        2.64766   0.01151   0.00000   0.02643   0.02584   2.67350
    R9        2.78467  -0.00977   0.00000  -0.02436  -0.02428   2.76039
   R10        2.67012   0.00125   0.00000   0.00475   0.00337   2.67349
   R11        2.79699  -0.01012   0.00000  -0.02473  -0.02591   2.77107
   R12        2.59845  -0.02794   0.00000  -0.05221  -0.05244   2.54600
   R13        2.53741   0.00364   0.00000   0.00692   0.00728   2.54470
   R14        2.86610  -0.00243   0.00000  -0.00702  -0.00700   2.85910
   R15        2.65952  -0.01968   0.00000  -0.04320  -0.04288   2.61663
   R16        2.83849  -0.00530   0.00000  -0.01251  -0.01255   2.82594
   R17        2.57052  -0.00221   0.00000  -0.00479  -0.00484   2.56568
   R18        2.32105  -0.00110   0.00000  -0.00133  -0.00121   2.31983
   R19        2.94484  -0.00376   0.00000  -0.01571  -0.01566   2.92918
   R20        2.07621  -0.00046   0.00000  -0.00124  -0.00124   2.07497
   R21        2.07592  -0.00233   0.00000  -0.00632  -0.00632   2.06961
   R22        2.91034   0.00002   0.00000  -0.00204  -0.00204   2.90830
   R23        2.72342  -0.01220   0.00000  -0.02873  -0.02873   2.69469
   R24        2.91711  -0.00497   0.00000  -0.01596  -0.01596   2.90116
   R25        2.88947   0.00401   0.00000   0.01190   0.01190   2.90137
   R26        2.07639  -0.00324   0.00000  -0.00881  -0.00881   2.06758
   R27        2.07078  -0.00048   0.00000  -0.00128  -0.00128   2.06950
   R28        2.07015   0.00236   0.00000   0.00634   0.00634   2.07649
   R29        2.07263  -0.00002   0.00000  -0.00006  -0.00006   2.07256
   R30        2.06665  -0.00263   0.00000  -0.00702  -0.00702   2.05962
   R31        2.06939   0.00290   0.00000   0.00778   0.00778   2.07717
   R32        2.06952   0.00296   0.00000   0.00794   0.00794   2.07746
   R33        1.85887   0.00489   0.00000   0.00816   0.00912   1.86799
   R34        1.83373  -0.00022   0.00000  -0.00039  -0.00039   1.83334
   R35        3.21552   0.00341   0.00000   0.02741   0.02849   3.24401
   R36        2.71945  -0.00099   0.00000  -0.00232  -0.00232   2.71712
   R37        2.90936  -0.00789   0.00000  -0.02272  -0.02273   2.88663
   R38        2.90596   0.00075   0.00000  -0.00031  -0.00029   2.90567
   R39        2.06880   0.00144   0.00000   0.00387   0.00387   2.07267
   R40        2.90488  -0.00833   0.00000  -0.02747  -0.02747   2.87741
   R41        2.71851  -0.00325   0.00000  -0.00759  -0.00759   2.71092
   R42        2.07472   0.00055   0.00000   0.00149   0.00149   2.07621
   R43        2.82263   0.00294   0.00000   0.00921   0.00919   2.83182
   R44        2.69316   0.00653   0.00000   0.01459   0.01459   2.70774
   R45        2.07197   0.00494   0.00000   0.01333   0.01333   2.08530
   R46        2.54430  -0.00460   0.00000  -0.00731  -0.00732   2.53698
   R47        2.05793  -0.00195   0.00000  -0.00513  -0.00513   2.05280
   R48        2.84714   0.00551   0.00000   0.01556   0.01557   2.86271
   R49        2.81397   0.00467   0.00000   0.01279   0.01279   2.82676
   R50        2.07120  -0.00090   0.00000  -0.00243  -0.00243   2.06877
   R51        2.07262  -0.00107   0.00000  -0.00290  -0.00290   2.06972
   R52        1.84809  -0.00569   0.00000  -0.01036  -0.01036   1.83773
   R53        1.84498  -0.00399   0.00000  -0.00722  -0.00722   1.83776
   R54        2.56306  -0.00145   0.00000  -0.00256  -0.00256   2.56050
   R55        2.30774  -0.01265   0.00000  -0.01286  -0.01286   2.29487
   R56        2.69836   0.00476   0.00000   0.01073   0.01073   2.70909
   R57        2.06644  -0.00099   0.00000  -0.00265  -0.00265   2.06379
   R58        2.06834  -0.00069   0.00000  -0.00186  -0.00186   2.06648
   R59        2.06844  -0.00096   0.00000  -0.00258  -0.00258   2.06586
   R60        2.54701   0.00690   0.00000   0.01177   0.01177   2.55878
   R61        2.30790  -0.01479   0.00000  -0.01504  -0.01504   2.29286
   R62        1.85571  -0.00463   0.00000  -0.00855  -0.00855   1.84716
    A1        2.04974  -0.00041   0.00000  -0.00109  -0.00151   2.04823
    A2        2.11622  -0.00109   0.00000  -0.00409  -0.00388   2.11233
    A3        2.11721   0.00150   0.00000   0.00519   0.00540   2.12261
    A4        2.12200   0.00431   0.00000   0.01498   0.01501   2.13701
    A5        2.14694  -0.00726   0.00000  -0.02576  -0.02578   2.12116
    A6        2.01424   0.00294   0.00000   0.01078   0.01077   2.02502
    A7        2.11471  -0.00610   0.00000  -0.02266  -0.02282   2.09189
    A8        2.04714   0.00300   0.00000   0.01110   0.01118   2.05832
    A9        2.12133   0.00309   0.00000   0.01157   0.01165   2.13297
   A10        2.05884   0.00600   0.00000   0.02268   0.02228   2.08112
   A11        2.13333   0.00377   0.00000   0.00764   0.00845   2.14178
   A12        2.09098  -0.00977   0.00000  -0.03032  -0.03071   2.06027
   A13        2.10450  -0.00394   0.00000  -0.01514  -0.01430   2.09020
   A14        2.08742   0.00292   0.00000   0.01137   0.01223   2.09965
   A15        2.09123   0.00102   0.00000   0.00378   0.00208   2.09331
   A16        2.11650   0.00014   0.00000   0.00126   0.00137   2.11787
   A17        2.03982   0.00499   0.00000   0.01347   0.01519   2.05501
   A18        2.12686  -0.00513   0.00000  -0.01473  -0.01656   2.11030
   A19        2.05573   0.00440   0.00000   0.01752   0.01748   2.07321
   A20        2.10450  -0.00149   0.00000  -0.00701  -0.00698   2.09753
   A21        2.12295  -0.00291   0.00000  -0.01051  -0.01050   2.11245
   A22        2.14799   0.00147   0.00000   0.00128   0.00145   2.14944
   A23        2.15948   0.00717   0.00000   0.03065   0.03048   2.18997
   A24        1.97562  -0.00862   0.00000  -0.03177  -0.03184   1.94378
   A25        2.13248   0.00041   0.00000  -0.00200  -0.00244   2.13004
   A26        2.05090   0.00059   0.00000   0.00234   0.00217   2.05307
   A27        2.10190   0.02558   0.00000   0.09403   0.09288   2.19478
   A28        2.13033  -0.02616   0.00000  -0.09634  -0.09502   2.03531
   A29        2.00068  -0.00158   0.00000  -0.01298  -0.01288   1.98780
   A30        1.88016   0.00345   0.00000   0.02825   0.02819   1.90835
   A31        1.90407   0.00134   0.00000   0.01183   0.01165   1.91573
   A32        1.92452  -0.00227   0.00000  -0.01368  -0.01367   1.91084
   A33        1.87586  -0.00032   0.00000  -0.00722  -0.00718   1.86868
   A34        1.87483  -0.00059   0.00000  -0.00602  -0.00633   1.86849
   A35        1.88957   0.00325   0.00000   0.02191   0.02171   1.91127
   A36        1.83195  -0.00100   0.00000  -0.01153  -0.01146   1.82049
   A37        1.82017  -0.00100   0.00000   0.00472   0.00434   1.82452
   A38        1.97056  -0.00080   0.00000  -0.00644  -0.00628   1.96429
   A39        1.96579   0.00100   0.00000   0.01277   0.01249   1.97828
   A40        1.97203  -0.00134   0.00000  -0.01986  -0.01985   1.95218
   A41        1.95268   0.00006   0.00000  -0.00603  -0.00582   1.94686
   A42        1.92073  -0.00434   0.00000  -0.02914  -0.02917   1.89156
   A43        1.94379   0.00106   0.00000   0.00198   0.00198   1.94577
   A44        1.88771   0.00434   0.00000   0.03119   0.03109   1.91880
   A45        1.91309  -0.00145   0.00000  -0.00170  -0.00183   1.91125
   A46        1.84180   0.00045   0.00000   0.00520   0.00502   1.84682
   A47        1.96969  -0.00598   0.00000  -0.02521  -0.02514   1.94455
   A48        1.89677   0.00122   0.00000   0.00441   0.00446   1.90122
   A49        1.91152   0.00079   0.00000  -0.00467  -0.00449   1.90703
   A50        1.92864   0.00276   0.00000   0.01584   0.01585   1.94449
   A51        1.89289   0.00309   0.00000   0.01702   0.01679   1.90968
   A52        1.86121  -0.00167   0.00000  -0.00661  -0.00678   1.85443
   A53        1.97557  -0.00755   0.00000  -0.04121  -0.04096   1.93462
   A54        1.91932   0.00497   0.00000   0.02682   0.02673   1.94605
   A55        1.91989   0.00474   0.00000   0.02585   0.02576   1.94565
   A56        1.87131   0.00085   0.00000   0.00324   0.00348   1.87478
   A57        1.86808   0.00109   0.00000   0.00494   0.00517   1.87326
   A58        1.90773  -0.00438   0.00000  -0.02107  -0.02146   1.88626
   A59        1.90968  -0.01935   0.00000  -0.09902  -0.09991   1.80977
   A60        1.91762  -0.00188   0.00000  -0.01000  -0.01000   1.90762
   A61        2.08770   0.00776   0.00000   0.02779   0.02779   2.11548
   A62        1.84964  -0.00607   0.00000  -0.03830  -0.03865   1.81099
   A63        1.98507   0.00230   0.00000   0.02255   0.02287   2.00794
   A64        1.91198   0.00105   0.00000   0.00116   0.00060   1.91258
   A65        1.90894   0.00551   0.00000   0.02709   0.02717   1.93611
   A66        1.87826  -0.00209   0.00000  -0.01288  -0.01303   1.86523
   A67        1.92565  -0.00107   0.00000  -0.00251  -0.00243   1.92322
   A68        1.93451   0.00279   0.00000   0.01042   0.01058   1.94510
   A69        1.91805   0.00446   0.00000   0.02117   0.02112   1.93917
   A70        1.92964  -0.00349   0.00000  -0.01796  -0.01873   1.91091
   A71        1.90093  -0.00809   0.00000  -0.03903  -0.03896   1.86197
   A72        1.93364  -0.00104   0.00000  -0.03217  -0.03206   1.90159
   A73        1.84481   0.00541   0.00000   0.05948   0.05916   1.90397
   A74        1.97207  -0.00272   0.00000  -0.01653  -0.01686   1.95521
   A75        1.90460   0.00433   0.00000   0.02487   0.02497   1.92957
   A76        1.92839  -0.00409   0.00000  -0.03726  -0.03757   1.89082
   A77        1.88757  -0.00047   0.00000   0.00043   0.00061   1.88817
   A78        1.90441   0.00134   0.00000   0.00193   0.00104   1.90545
   A79        1.86321   0.00196   0.00000   0.03017   0.03044   1.89366
   A80        2.14853   0.00225   0.00000   0.01333   0.01328   2.16181
   A81        2.02746   0.00036   0.00000   0.00123   0.00125   2.02871
   A82        2.10719  -0.00261   0.00000  -0.01454  -0.01452   2.09266
   A83        2.13920   0.00166   0.00000   0.00799   0.00791   2.14712
   A84        2.05797  -0.00242   0.00000  -0.00962  -0.00965   2.04832
   A85        2.08585   0.00078   0.00000   0.00192   0.00189   2.08775
   A86        1.98490  -0.00800   0.00000  -0.03577  -0.03566   1.94924
   A87        1.88524   0.00566   0.00000   0.03675   0.03688   1.92212
   A88        1.91331   0.00026   0.00000  -0.00639  -0.00621   1.90709
   A89        1.90891   0.00128   0.00000  -0.00132  -0.00103   1.90788
   A90        1.89715   0.00429   0.00000   0.02991   0.02984   1.92699
   A91        1.87103  -0.00333   0.00000  -0.02318  -0.02316   1.84787
[...]
     50          1           0       -5.432034    2.565995   -0.785257
     51          1           0       -3.840069   -1.122760    0.409364
     52          1           0       -3.333502   -0.898958   -1.237928
     53          1           0       -0.169614    1.700587   -0.503498
     54          1           0       -2.289302    4.085628   -1.289802
     55          1           0       -7.228000   -2.967325   -0.773982
     56          1           0       -8.082021   -1.572234   -0.031231
     57          1           0       -7.827539   -1.613576   -1.790628
     58          1           0       -1.527455   -4.117188    2.037550
 ---------------------------------------------------------------------
 Rotational constants (GHZ):      0.2276815      0.0579068      0.0530802

 **********************************************************************

            Population analysis using the SCF density.

 **********************************************************************

 Orbital symmetries:
       Occupied  (A) (A) (A) (A) (A) (A) (A) (A) (A) (A) (A) (A)
                 (A) (A) (A) (A) (A) (A) (A) (A) (A) (A) (A) (A)
                 (A) (A) (A) (A) (A) (A) (A) (A) (A) (A) (A) (A)
                 (A) (A) (A) (A) (A) (A) (A) (A) (A) (A) (A) (A)
                 (A) (A) (A) (A) (A) (A) (A) (A) (A) (A) (A) (A)
                 (A) (A) (A) (A) (A) (A) (A) (A) (A) (A) (A) (A)
                 (A) (A) (A) (A) (A) (A) (A) (A) (A) (A) (A) (A)
                 (A) (A) (A) (A) (A) (A) (A) (A) (A) (A) (A) (A)
                 (A) (A) (A) (A) (A) (A) (A) (A) (A) (A) (A) (A)
                 (A) (A) (A) (A) (A) (A) (A) (A) (A) (A) (A) (A)
                 (A) (A) (A) (A) (A)
       Virtual   (A) (A) (A) (A) (A) (A) (A) (A) (A) (A) (A) (A)
                 (A) (A) (A) (A) (A) (A) (A) (A) (A) (A) (A) (A)
                 (A) (A) (A) (A) (A) (A) (A) (A) (A) (A) (A) (A)
                 (A) (A) (A) (A) (A) (A) (A) (A) (A) (A) (A) (A)
                 (A) (A) (A) (A) (A) (A) (A) (A) (A) (A) (A) (A)
                 (A) (A) (A) (A) (A) (A) (A) (A) (A) (A) (A) (A)
                 (A) (A) (A) (A) (A) (A) (A) (A) (A) (A) (A) (A)
                 (A) (A) (A) (A) (A) (A) (A) (A) (A) (A) (A) (A)
                 (A) (A) (A) (A) (A) (A) (A) (A) (A) (A) (A) (A)
                 (A) (A) (A) (A) (A) (A) (A) (A) (A) (A) (A) (A)
                 (A) (A) (A) (A) (A) (A) (A) (A) (A) (A) (A) (A)
                 (A) (A) (A) (A) (A) (A) (A) (A) (A) (A) (A) (A)
                 (A) (A) (A) (A) (A) (A) (A) (A) (A) (A) (A) (A)
                 (A) (A) (A) (A) (A) (A) (A) (A) (A) (A) (A) (A)
                 (A) (A) (A) (A) (A) (A) (A) (A) (A) (A) (A) (A)
                 (A) (A) (A) (A) (A) (A) (A) (A) (A) (A) (A) (A)
                 (A) (A) (A) (A) (A) (A) (A) (A) (A) (A) (A) (A)
                 (A) (A) (A) (A) (A) (A) (A) (A) (A) (A) (A) (A)
                 (A) (A) (A) (A) (A) (A) (A) (A) (A) (A) (A) (A)
                 (A) (A) (A) (A) (A) (A) (A) (A) (A) (A) (A) (A)
                 (A) (A) (A) (A) (A) (A) (A) (A) (A) (A) (A) (A)
                 (A) (A) (A) (A) (A) (A) (A) (A) (A) (A) (A) (A)
                 (A) (A) (A) (A) (A) (A) (A) (A) (A) (A) (A) (A)
                 (A) (A) (A) (A) (A) (A) (A) (A) (A) (A) (A) (A)
                 (A) (A) (A) (A) (A) (A) (A) (A) (A) (A) (A) (A)
                 (A) (A) (A) (A) (A) (A) (A) (A) (A) (A) (A) (A)
                 (A) (A) (A) (A) (A) (A) (A) (A) (A) (A) (A) (A)
                 (A) (A) (A) (A) (A) (A) (A) (A) (A) (A) (A) (A)
                 (A) (A) (A) (A) (A) (A) (A) (A) (A) (A) (A) (A)
                 (A) (A) (A) (A) (A) (A) (A) (A) (A) (A) (A) (A)
                 (A) (A) (A) (A) (A) (A) (A) (A) (A) (A) (A) (A)
                 (A) (A) (A) (A) (A) (A) (A) (A) (A) (A) (A) (A)
                 (A) (A) (A) (A) (A) (A) (A) (A) (A) (A) (A) (A)
                 (A) (A) (A) (A) (A) (A) (A) (A) (A) (A) (A) (A)
                 (A) (A) (A) (A) (A) (A) (A) (A) (A) (A) (A) (A)
                 (A) (A) (A) (A) (A) (A) (A) (A) (A) (A) (A) (A)
                 (A)
 The electronic state is 1-A.
 Alpha  occ. eigenvalues --  -19.22248 -19.21883 -19.19821 -19.19236 -19.17546
 Alpha  occ. eigenvalues --  -19.17524 -19.16122 -19.16050 -19.14479 -19.14463
 Alpha  occ. eigenvalues --  -19.13058 -10.33832 -10.33009 -10.31253 -10.28486
 Alpha  occ. eigenvalues --  -10.27384 -10.27251 -10.27158 -10.25368 -10.24636
 Alpha  occ. eigenvalues --  -10.24222 -10.23994 -10.22767 -10.21845 -10.21693
 Alpha  occ. eigenvalues --  -10.21425 -10.21151 -10.20951 -10.20939 -10.20576
 Alpha  occ. eigenvalues --  -10.20222 -10.20073 -10.19449 -10.19409  -1.12778
 Alpha  occ. eigenvalues --   -1.12664  -1.09948  -1.08090  -1.06890  -1.06209
 Alpha  occ. eigenvalues --   -1.03853  -1.03239  -1.03070  -1.01372  -1.00913
 Alpha  occ. eigenvalues --   -0.88103  -0.86152  -0.84279  -0.81064  -0.79337
 Alpha  occ. eigenvalues --   -0.77329  -0.76449  -0.76039  -0.74383  -0.71792
 Alpha  occ. eigenvalues --   -0.71084  -0.69043  -0.66648  -0.66266  -0.64467
 Alpha  occ. eigenvalues --   -0.63556  -0.62603  -0.61682  -0.58929  -0.57814
 Alpha  occ. eigenvalues --   -0.57499  -0.55520  -0.55347  -0.53718  -0.53209
 Alpha  occ. eigenvalues --   -0.52187  -0.51493  -0.51182  -0.50259  -0.49610
 Alpha  occ. eigenvalues --   -0.49062  -0.48635  -0.48082  -0.47867  -0.47501
 Alpha  occ. eigenvalues --   -0.47047  -0.46454  -0.45972  -0.45686  -0.44981
 Alpha  occ. eigenvalues --   -0.44077  -0.43925  -0.43480  -0.43412  -0.42599
 Alpha  occ. eigenvalues --   -0.42326  -0.42108  -0.41827  -0.41466  -0.41118
 Alpha  occ. eigenvalues --   -0.40517  -0.40123  -0.39985  -0.39799  -0.39529
 Alpha  occ. eigenvalues --   -0.39024  -0.38197  -0.37858  -0.37534  -0.37336
 Alpha  occ. eigenvalues --   -0.35889  -0.35699  -0.35406  -0.35308  -0.34950
 Alpha  occ. eigenvalues --   -0.34135  -0.33869  -0.32928  -0.32606  -0.30121
 Alpha  occ. eigenvalues --   -0.29970  -0.28841  -0.28545  -0.28154  -0.27901
 Alpha  occ. eigenvalues --   -0.26849  -0.26601  -0.25419  -0.23741  -0.22062
 Alpha virt. eigenvalues --   -0.04875  -0.04013  -0.03100  -0.01503   0.03614
 Alpha virt. eigenvalues --    0.05234   0.05478   0.06090   0.06432   0.07364
 Alpha virt. eigenvalues --    0.07721   0.09741   0.10416   0.10592   0.11418
 Alpha virt. eigenvalues --    0.11725   0.12235   0.12500   0.13012   0.13251
 Alpha virt. eigenvalues --    0.13720   0.14064   0.15014   0.15315   0.15649
 Alpha virt. eigenvalues --    0.16118   0.16454   0.16482   0.17053   0.17266
 Alpha virt. eigenvalues --    0.17475   0.18061   0.18387   0.18446   0.18975
 Alpha virt. eigenvalues --    0.19423   0.20236   0.20404   0.20729   0.21393
 Alpha virt. eigenvalues --    0.21663   0.22798   0.23838   0.24079   0.24236
 Alpha virt. eigenvalues --    0.24699   0.25401   0.26460   0.26695   0.27488
 Alpha virt. eigenvalues --    0.27860   0.29225   0.29510   0.31695   0.32324
 Alpha virt. eigenvalues --    0.32518   0.33522   0.33664   0.37790   0.38012
 Alpha virt. eigenvalues --    0.39268   0.40019   0.40695   0.40905   0.42688
 Alpha virt. eigenvalues --    0.43438   0.45215   0.46591   0.48466   0.49299
 Alpha virt. eigenvalues --    0.50448   0.50551   0.51110   0.51505   0.51694
 Alpha virt. eigenvalues --    0.52369   0.52418   0.53298   0.53663   0.54156
 Alpha virt. eigenvalues --    0.54478   0.55414   0.55630   0.56110   0.56301
 Alpha virt. eigenvalues --    0.56649   0.57836   0.58213   0.58311   0.59107
 Alpha virt. eigenvalues --    0.59623   0.59983   0.60758   0.60974   0.61425
 Alpha virt. eigenvalues --    0.62002   0.62492   0.63280   0.63959   0.64242
 Alpha virt. eigenvalues --    0.65043   0.65140   0.65631   0.66683   0.66822
 Alpha virt. eigenvalues --    0.67568   0.68618   0.68951   0.69616   0.70122
 Alpha virt. eigenvalues --    0.70900   0.71527   0.71764   0.72177   0.72614
 Alpha virt. eigenvalues --    0.73174   0.73823   0.74080   0.74788   0.75261
 Alpha virt. eigenvalues --    0.75552   0.75946   0.76281   0.78386   0.79049
 Alpha virt. eigenvalues --    0.79229   0.79788   0.80507   0.81781   0.82966
 Alpha virt. eigenvalues --    0.83411   0.83923   0.84032   0.84217   0.84405
 Alpha virt. eigenvalues --    0.84693   0.85254   0.85747   0.86291   0.86335
 Alpha virt. eigenvalues --    0.87135   0.88032   0.88390   0.89301   0.90160
 Alpha virt. eigenvalues --    0.90507   0.90777   0.91735   0.92239   0.92822
 Alpha virt. eigenvalues --    0.93506   0.93818   0.94453   0.95017   0.95245
 Alpha virt. eigenvalues --    0.96081   0.96226   0.96916   0.97875   0.98411
 Alpha virt. eigenvalues --    0.98864   0.99004   0.99288   0.99807   1.00803
 Alpha virt. eigenvalues --    1.01007   1.01310   1.01705   1.02315   1.03118
 Alpha virt. eigenvalues --    1.04453   1.04805   1.05335   1.06130   1.06960
 Alpha virt. eigenvalues --    1.07589   1.08764   1.09990   1.11583   1.11607
 Alpha virt. eigenvalues --    1.12927   1.13973   1.14407   1.15170   1.15764
 Alpha virt. eigenvalues --    1.16563   1.17567   1.18518   1.19349   1.20978
 Alpha virt. eigenvalues --    1.21571   1.22512   1.23621   1.23943   1.24913
 Alpha virt. eigenvalues --    1.25822   1.26618   1.27141   1.27793   1.28981
 Alpha virt. eigenvalues --    1.29853   1.30967   1.32250   1.33781   1.34746
 Alpha virt. eigenvalues --    1.35026   1.35785   1.36473   1.36661   1.37617
 Alpha virt. eigenvalues --    1.38102   1.38474   1.39230   1.39819   1.40354
 Alpha virt. eigenvalues --    1.41703   1.42673   1.43060   1.43655   1.44014
 Alpha virt. eigenvalues --    1.45438   1.45700   1.46107   1.47844   1.51527
 Alpha virt. eigenvalues --    1.51649   1.53535   1.55045   1.57771   1.59434
 Alpha virt. eigenvalues --    1.60012   1.61984   1.62729   1.63905   1.65315
 Alpha virt. eigenvalues --    1.66363   1.66470   1.67669   1.68184   1.68814
 Alpha virt. eigenvalues --    1.69564   1.69843   1.70302   1.70628   1.70720
 Alpha virt. eigenvalues --    1.71369   1.71966   1.72698   1.73482   1.73641
 Alpha virt. eigenvalues --    1.75324   1.75663   1.76123   1.76344   1.76912
 Alpha virt. eigenvalues --    1.77756   1.78374   1.78679   1.80441   1.80544
 Alpha virt. eigenvalues --    1.80804   1.81099   1.82270   1.82563   1.82616
 Alpha virt. eigenvalues --    1.84092   1.84469   1.85190   1.85612   1.86041
 Alpha virt. eigenvalues --    1.87194   1.87663   1.88228   1.88722   1.89901
 Alpha virt. eigenvalues --    1.90548   1.91110   1.91843   1.92688   1.93149
 Alpha virt. eigenvalues --    1.93556   1.94373   1.94656   1.95015   1.95849
 Alpha virt. eigenvalues --    1.96402   1.97579   1.98430   1.98856   1.99512
 Alpha virt. eigenvalues --    2.00268   2.01796   2.02465   2.03889   2.04360
 Alpha virt. eigenvalues --    2.04471   2.05007   2.05585   2.06080   2.06489
 Alpha virt. eigenvalues --    2.07992   2.08986   2.09863   2.10185   2.10796
 Alpha virt. eigenvalues --    2.12081   2.13391   2.14435   2.15588   2.18045
 Alpha virt. eigenvalues --    2.18533   2.19685   2.20543   2.21587   2.22267
 Alpha virt. eigenvalues --    2.23296   2.25084   2.26396   2.27077   2.27360
 Alpha virt. eigenvalues --    2.28011   2.28859   2.29332   2.29975   2.30840
 Alpha virt. eigenvalues --    2.31350   2.32710   2.33302   2.33892   2.34270
 Alpha virt. eigenvalues --    2.35128   2.35489   2.36259   2.38685   2.39392
 Alpha virt. eigenvalues --    2.39820   2.40282   2.41073   2.42728   2.43088
 Alpha virt. eigenvalues --    2.43556   2.43936   2.46451   2.47115   2.47536
 Alpha virt. eigenvalues --    2.48341   2.49116   2.50046   2.51684   2.53070
 Alpha virt. eigenvalues --    2.54527   2.55188   2.56809   2.57142   2.58787
 Alpha virt. eigenvalues --    2.58954   2.60997   2.61386   2.63368   2.64880
 Alpha virt. eigenvalues --    2.67110   2.68079   2.68680   2.68994   2.69609
 Alpha virt. eigenvalues --    2.70371   2.71164   2.74258   2.74822   2.75133
 Alpha virt. eigenvalues --    2.76325   2.77340   2.78137   2.79631   2.80449
 Alpha virt. eigenvalues --    2.81922   2.84182   2.85637   2.88134   2.90783
 Alpha virt. eigenvalues --    2.91276   2.93893   2.95402   2.96275   2.97878
 Alpha virt. eigenvalues --    3.00027   3.01414   3.02513   3.05641   3.06343
 Alpha virt. eigenvalues --    3.07845   3.10422   3.12915   3.16944   3.19018
 Alpha virt. eigenvalues --    3.23064   3.24070   3.43763   3.50159   3.79275
 Alpha virt. eigenvalues --    3.83743   3.92969   3.95561   3.96907   3.99667
 Alpha virt. eigenvalues --    4.05994   4.07789   4.11786   4.15251   4.16898
 Alpha virt. eigenvalues --    4.19647   4.20819   4.21473   4.24749   4.25595
 Alpha virt. eigenvalues --    4.25860   4.31860   4.32952   4.34416   4.38011
 Alpha virt. eigenvalues --    4.39102   4.44035   4.47604   4.49520   4.51633
 Alpha virt. eigenvalues --    4.55641   4.57283   4.60543   4.65274   4.72371
 Alpha virt. eigenvalues --    4.75344   4.79485   4.87624
          Condensed to atoms (all electrons):
 Mulliken atomic charges:
              1
     1  C    0.109999
     2  C    0.300946
     3  C   -0.273286
     4  C    0.142880
     5  C   -0.062387
     6  C    0.239912
     7  C    0.053525
     8  C    0.275575
     9  O   -0.496894
    10  C    0.599262
    11  C   -0.375301
    12  C    0.255108
    13  C   -0.316881
    14  C   -0.360608
    15  C   -0.585896
    16  O   -0.659072
    17  O   -0.637459
    18  O   -0.535457
    19  O   -0.551532
    20  C    0.121813
    21  C    0.093710
    22  C    0.107066
    23  C   -0.150824
    24  C    0.052709
    25  C   -0.337796
    26  O   -0.654701
    27  O   -0.636817
    28  C    0.594141
    29  O   -0.463576
    30  O   -0.491245
    31  C   -0.216855
    32  C    0.574535
    33  O   -0.573405
    34  O   -0.453911
    35  H    0.142751
    36  H    0.175422
    37  H    0.187527
    38  H    0.179686
    39  H    0.158037
    40  H    0.197226
    41  H    0.175639
    42  H    0.210072
    43  H    0.162091
    44  H    0.162097
    45  H    0.449512
    46  H    0.422599
    47  H    0.131624
    48  H    0.142237
    49  H    0.137895
    50  H    0.183381
    51  H    0.165906
    52  H    0.185306
    53  H    0.412932
    54  H    0.407738
    55  H    0.164549
    56  H    0.170007
    57  H    0.172845
    58  H    0.415643
 Sum of Mulliken atomic charges =   0.00000
 Mulliken charges with hydrogens summed into heavy atoms:
              1
     1  C    0.109999
     2  C    0.300946
     3  C   -0.130535
     4  C    0.142880
     5  C   -0.062387
     6  C    0.239912
     7  C    0.053525
     8  C    0.275575
     9  O   -0.496894
    10  C    0.599262
    11  C   -0.012352
    12  C    0.255108
    13  C    0.020842
    14  C    0.012258
    15  C   -0.051637
    16  O   -0.209559
    17  O   -0.214861
    18  O   -0.535457
    19  O   -0.551532
    20  C    0.253437
    21  C    0.235947
    22  C    0.244961
    23  C    0.032557
    24  C    0.052709
    25  C    0.013416
    26  O   -0.241769
    27  O   -0.229079
    28  C    0.594141
    29  O   -0.463576
    30  O   -0.491245
    31  C    0.290546
    32  C    0.574535
    33  O   -0.157762
    34  O   -0.453911
 Sum of Mulliken charges with hydrogens summed into heavy atoms =   0.00000
 Electronic spatial extent (au):  <R**2>=          19928.7923
 Charge=              0.0000 electrons
 Dipole moment (field-independent basis, Debye):
    X=              1.6707    Y=             -6.0695    Z=              1.3160  Tot=              6.4313
 Quadrupole moment (field-independent basis, Debye-Ang):
   XX=           -201.6899   YY=           -197.2949   ZZ=           -187.9369
   XY=              3.8843   XZ=            -24.2301   YZ=             -3.7277
 Traceless Quadrupole moment (field-independent basis, Debye-Ang):
   XX=             -6.0493   YY=             -1.6543   ZZ=              7.7037
   XY=              3.8843   XZ=            -24.2301   YZ=             -3.7277
 Octapole moment (field-independent basis, Debye-Ang**2):
  XXX=            144.3854  YYY=            -71.1982  ZZZ=             -6.1827  XYY=            -39.0221
  XXY=           -229.2993  XXZ=            -64.8570  XZZ=              7.8060  YZZ=            -25.7660
  YYZ=             20.5040  XYZ=            -16.1602
 Hexadecapole moment (field-independent basis, Debye-Ang**3):
 XXXX=         -19550.7134 YYYY=          -3462.5861 ZZZZ=          -1890.1471 XXXY=            506.6142
 XXXZ=           -790.6696 YYYX=            195.5780 YYYZ=           -162.8883 ZZZX=            -92.5323
 ZZZY=             13.3198 XXYY=          -3944.2301 XXZZ=          -3410.9033 YYZZ=           -932.8296
 XXYZ=            238.5744 YYXZ=           -167.6373 ZZXY=             -0.1636
 N-N= 3.689866969708D+03 E-N=-1.139319577809D+04  KE= 1.703100844642D+03
 1\1\GINC-B0603\FOpt\RB3LYP\6-31G(d)\C23H24O11\CAOFEI\02-Feb-2021\0\\# 
 opt b3lyp/6-31g(d) geom=connectivity\\Title Card Required\\0,1\C,5.107
 9585119,-1.0824490877,2.904660902\C,4.2375199722,-0.0175910669,3.19277
 47607\C,3.2632616664,0.4308796585,2.2933552606\C,3.1328957973,-0.18825
 39573,1.052191349\C,4.0001940595,-1.2656274991,0.7218328806\C,4.981364
 4239,-1.7053317259,1.6548461568\C,2.1477361712,0.2168407319,0.05889138
 13\C,2.1185558811,-0.4215321662,-1.1317119274\O,2.9587801936,-1.461268
 973,-1.4397314464\C,3.9055916218,-1.923941319,-0.5586691146\C,1.198732
 7005,1.3608137471,0.3468029979\C,-0.0042397195,1.4379467759,-0.6270631
 156\C,0.492075598,1.2379701114,-2.0752437042\C,1.1773016343,-0.1213234
 617,-2.257941799\C,6.1418750103,-1.5388851279,3.9045847842\O,5.8088740
 919,-2.722666551,1.3661706849\O,4.3007817605,0.6399235983,4.3816354783
 \O,4.6022767629,-2.8634155697,-0.9394848946\O,-0.8917082168,0.42060929
 26,-0.1692797396\C,-2.0195038857,-0.0162748962,-0.9467551127\C,-2.1961
 991072,-1.4952186859,-0.5882442383\C,-3.2673509959,-2.133210347,-1.466
 9976001\C,-4.5158735978,-1.30144318,-1.4681911764\C,-4.5383389002,-0.0
 06405414,-1.1159597053\C,-3.3133805801,0.7548590565,-0.6428261133\O,-1
 .0023801001,-2.2448340414,-0.7785017015\O,-3.5902652378,-3.4435642946,
 -1.0217243485\C,-5.8587819752,0.6909895465,-1.1758303745\O,-5.76587622
 13,1.971175527,-0.7429414892\O,-6.9017207662,0.1955754903,-1.554914344
 6\C,-6.9969499082,2.7091980284,-0.7472203703\C,-0.6332496336,2.8307394
 477,-0.4185300732\O,0.0552626676,3.7979606373,-1.0777598754\O,-1.58197
 43829,3.0777111665,0.2867538706\H,2.6334937766,1.2584929964,2.59477526
 46\H,1.747429526,2.3113331891,0.3241697483\H,0.7794738105,1.2595882079
 ,1.3535761998\H,1.1995507419,2.0431855051,-2.2917583808\H,-0.325307753
 3,1.3502759186,-2.7951634264\H,0.4428899228,-0.9342734817,-2.322375092
 1\H,1.7384825025,-0.1344077616,-3.1998718989\H,6.7102007066,-2.3789989
 01,3.5036200252\H,6.8609516936,-0.7426480721,4.1461176239\H,5.68318920
 31,-1.8738842259,4.8462567553\H,5.577421317,-3.0368420413,0.4515604312
 \H,5.0020340757,0.2519648943,4.9281641748\H,-1.7872884638,0.051141514,
 -2.0169987657\H,-2.5255343272,-1.5658039893,0.4600763721\H,-2.86718305
 9,-2.1799836824,-2.4974129281\H,-5.4349323887,-1.7892005165,-1.7808574
 956\H,-3.2909716912,1.7472571591,-1.0987355884\H,-3.3706214807,0.93748
 20515,0.4369048435\H,-0.3263197477,-1.8197083807,-0.2244114711\H,-2.74
 41857521,-3.9186443108,-0.9647935117\H,-6.7454021034,3.6992431735,-0.3
 656134757\H,-7.4008574422,2.7770532181,-1.7610533938\H,-7.7367221219,2
 .2245195937,-0.1045965216\H,-0.3730362617,4.6429025802,-0.8405578109\\
 Version=EM64L-G09RevB.01\State=1-A\HF=-1718.3707405\RMSD=5.579e-09\RMS
 F=5.527e-06\Dipole=0.9522935,2.2756697,0.5628365\Quadrupole=-14.780961
 8,3.8669041,10.9140576,-4.5713074,9.6625254,-8.7909442\PG=C01 [X(C23H2
 4O11)]\\@


 SI MONUMENTUM REQUIRIS, CIRCUMSPICE
     -- FROM SIR CHRISTOPHER WREN'S TOMBSTONE
 Job cpu time:  0 days  4 hours 31 minutes 39.0 seconds.
 File lengths (MBytes):  RWF=    201 Int=      0 D2E=      0 Chk=     21 Scr=      1
 Normal termination of Gaussian 09 at Tue Feb  2 11:36:48 2021.
