 Entering Gaussian System, Link 0=g09
 Initial command:
 /public/software/g09/g09/l1.exe /tmp/Gau-30849.inp -scrdir=/tmp/
 Entering Link 1 = /public/software/g09/g09/l1.exe PID=     30850.
  
 Copyright (c) 1988,1990,1992,1993,1995,1998,2003,2009,2010,
            Gaussian, Inc.  All Rights Reserved.
  
 This is part of the Gaussian(R) 09 program.  It is based on
 the Gaussian(R) 03 system (copyright 2003, Gaussian, Inc.),
 the Gaussian(R) 98 system (copyright 1998, Gaussian, Inc.),
 the Gaussian(R) 94 system (copyright 1995, Gaussian, Inc.),
 the Gaussian 92(TM) system (copyright 1992, Gaussian, Inc.),
 the Gaussian 90(TM) system (copyright 1990, Gaussian, Inc.),
 the Gaussian 88(TM) system (copyright 1988, Gaussian, Inc.),
 the Gaussian 86(TM) system (copyright 1986, Carnegie Mellon
 University), and the Gaussian 82(TM) system (copyright 1983,
 Carnegie Mellon University). Gaussian is a federally registered
 trademark of Gaussian, Inc.
  
 This software contains proprietary and confidential information,
 including trade secrets, belonging to Gaussian, Inc.
  
 This software is provided under written license and may be
 used, copied, transmitted, or stored only in accord with that
 written license.
  
 The following legend is applicable only to US Government
 contracts under FAR:
  
                    RESTRICTED RIGHTS LEGEND
  
 Use, reproduction and disclosure by the US Government is
 subject to restrictions as set forth in subparagraphs (a)
 and (c) of the Commercial Computer Software - Restricted
 Rights clause in FAR 52.227-19.
  
 Gaussian, Inc.
 340 Quinnipiac St., Bldg. 40, Wallingford CT 06492
  
  
 ---------------------------------------------------------------
 Warning -- This program may not be used in any manner that
 competes with the business of Gaussian, Inc. or will provide
 assistance to any competitor of Gaussian, Inc.  The licensee
 of this program is prohibited from giving any competitor of
 Gaussian, Inc. access to this program.  By using this program,
 the user acknowledges that Gaussian, Inc. is engaged in the
 business of creating and licensing software in the field of
 computational chemistry and represents and warrants to the
 licensee that it is not a competitor of Gaussian, Inc. and that
 it will not use this program in any manner prohibited above.
 ---------------------------------------------------------------
  

 Cite this work as:
 Gaussian 09, Revision B.01,
 M. J. Frisch, G. W. Trucks, H. B. Schlegel, G. E. Scuseria, 
 M. A. Robb, J. R. Cheeseman, G. Scalmani, V. Barone, B. Mennucci, 
 G. A. Petersson, H. Nakatsuji, M. Caricato, X. Li, H. P. Hratchian, 
 A. F. Izmaylov, J. Bloino, G. Zheng, J. L. Sonnenberg, M. Hada, 
 M. Ehara, K. Toyota, R. Fukuda, J. Hasegawa, M. Ishida, T. Nakajima, 
 Y. Honda, O. Kitao, H. Nakai, T. Vreven, J. A. Montgomery, Jr., 
 J. E. Peralta, F. Ogliaro, M. Bearpark, J. J. Heyd, E. Brothers, 
 K. N. Kudin, V. N. Staroverov, T. Keith, R. Kobayashi, J. Normand, 
 K. Raghavachari, A. Rendell, J. C. Burant, S. S. Iyengar, J. Tomasi, 
 M. Cossi, N. Rega, J. M. Millam, M. Klene, J. E. Knox, J. B. Cross, 
 V. Bakken, C. Adamo, J. Jaramillo, R. Gomperts, R. E. Stratmann, 
 O. Yazyev, A. J. Austin, R. Cammi, C. Pomelli, J. W. Ochterski, 
 R. L. Martin, K. Morokuma, V. G. Zakrzewski, G. A. Voth, 
 P. Salvador, J. J. Dannenberg, S. Dapprich, A. D. Daniels, 
 O. Farkas, J. B. Foresman, J. V. Ortiz, J. Cioslowski, 
 and D. J. Fox, Gaussian, Inc., Wallingford CT, 2010.
 
 ******************************************
 Gaussian 09:  EM64L-G09RevB.01 12-Aug-2010
                 2-Feb-2021 
 ******************************************
 %mem=600MW
 %nprocshared=10
 Will use up to   10 processors via shared memory.
 --------------------------------------
 # opt b3lyp/6-31g(d) geom=connectivity
 --------------------------------------
 1/14=-1,18=20,19=15,26=3,38=1,57=2/1,3;
 2/9=110,12=2,17=6,18=5,40=1/2;
 3/5=1,6=6,7=1,11=2,16=1,25=1,30=1,71=1,74=-5/1,2,3;
 4//1;
 5/5=2,38=5/2;
 6/7=2,8=2,9=2,10=2,28=1/1;
 7//1,2,3,16;
 1/14=-1,18=20,19=15/3(2);
 2/9=110/2;
 99//99;
 2/9=110/2;
 3/5=1,6=6,7=1,11=2,16=1,25=1,30=1,71=1,74=-5/1,2,3;
 4/5=5,16=3/1;
 5/5=2,38=5/2;
 7//1,2,3,16;
 1/14=-1,18=20,19=15/3(-5);
 2/9=110/2;
 6/7=2,8=2,9=2,10=2,19=2,28=1/1;
 99/9=1/99;
 -------------------
 Title Card Required
 -------------------
 Symbolic Z-matrix:
 Charge =  0 Multiplicity = 1
 C                     4.67102  -3.54254   2.58338 
 C                     3.94937  -2.41513   2.9806 
 C                     2.86729  -1.94135   2.23292 
 C                     2.48276  -2.57639   1.04096 
 C                     3.21122  -3.70066   0.62461 
 C                     4.30018  -4.17207   1.38719 
 C                     1.34639  -2.10284   0.22876 
 C                     1.02892  -2.80106  -0.87273 
 O                     1.7479   -3.93293  -1.29859 
 C                     2.83041  -4.40232  -0.62135 
 C                     0.56655  -0.87015   0.62882 
 C                    -0.37284  -0.28416  -0.466 
 C                    -1.09942  -1.46048  -1.14914 
 C                    -0.13131  -2.46968  -1.76525 
 C                     5.85076  -4.03311   3.377 
 O                     5.04889  -5.25934   1.0029 
 O                     4.31728  -1.76656   4.12677 
 O                     3.46958  -5.37572  -1.01129 
 O                    -1.32427   0.5178    0.26247 
 C                    -2.23296   1.33288  -0.49942 
 C                    -3.58402   1.30264   0.23261 
 C                    -4.62361   2.14867  -0.51923 
 C                    -4.098     3.48377  -0.93843 
 C                    -2.78566   3.78745  -0.95014 
 C                    -1.72427   2.78449  -0.56804 
 O                    -4.06378  -0.04907   0.33123 
 O                    -5.74989   2.36443   0.32749 
 C                    -2.27557   5.12862  -1.35758 
 O                    -3.28572   5.97439  -1.67525 
 O                    -1.08384   5.39831  -1.39514 
 C                    -2.85377   7.27876  -2.06341 
 C                     0.50111   0.52003  -1.46206 
 O                    -0.06504   0.67374  -2.6784 
 O                     1.57966   1.04391  -1.23423 
 H                     2.32808  -1.07164   2.59487 
 H                     1.24809  -0.07484   0.95599 
 H                    -0.03278  -1.12491   1.51504 
 H                    -1.79199  -1.11752  -1.92586 
 H                    -1.73183  -1.96839  -0.40756 
 H                    -0.68705  -3.38575  -1.9996 
 H                     0.25732  -2.08621  -2.71612 
 H                     5.89602  -5.12728   3.38046 
 H                     6.77747  -3.63827   2.94908 
 H                     5.79266  -3.72656   4.42622 
 H                     4.69755  -5.61397   0.15615 
 H                     3.77172  -0.97219   4.24469 
 H                    -2.37346   0.92265  -1.50514 
 H                    -3.47256   1.65447   1.26673 
 H                    -4.99022   1.61246  -1.40253 
 H                    -4.84927   4.21155  -1.23647 
 H                    -0.89688   2.83121  -1.28391 
 H                    -1.29725   3.07022   0.40242 
 H                    -3.34799  -0.54123   0.77718 
 H                    -6.01157   1.47676   0.63864 
 H                    -3.74134   7.87655  -2.2884 
 H                    -2.30901   7.76184  -1.24615 
 H                    -2.23477   7.2251   -2.96448 
 H                     0.58378   1.22165  -3.17327 
 

 GradGradGradGradGradGradGradGradGradGradGradGradGradGradGradGradGradGrad
 Berny optimization.
 Initialization pass.
                           ----------------------------
                           !    Initial Parameters    !
                           ! (Angstroms and Degrees)  !
 --------------------------                            --------------------------
 ! Name  Definition              Value          Derivative Info.                !
 --------------------------------------------------------------------------------
 ! R1    R(1,2)                  1.3963         estimate D2E/DX2                !
 ! R2    R(1,6)                  1.4017         estimate D2E/DX2                !
 ! R3    R(1,15)                 1.5041         estimate D2E/DX2                !
 ! R4    R(2,3)                  1.398          estimate D2E/DX2                !
 ! R5    R(2,17)                 1.3674         estimate D2E/DX2                !
 ! R6    R(3,4)                  1.4042         estimate D2E/DX2                !
 ! R7    R(3,35)                 1.0854         estimate D2E/DX2                !
 ! R8    R(4,5)                  1.4029         estimate D2E/DX2                !
 ! R9    R(4,7)                  1.4749         estimate D2E/DX2                !
 ! R10   R(5,6)                  1.4105         estimate D2E/DX2                !
 ! R11   R(5,10)                 1.4798         estimate D2E/DX2                !
 ! R12   R(6,16)                 1.3749         estimate D2E/DX2                !
 ! R13   R(7,8)                  1.3422         estimate D2E/DX2                !
 ! R14   R(7,11)                 1.5125         estimate D2E/DX2                !
 ! R15   R(8,9)                  1.4069         estimate D2E/DX2                !
 ! R16   R(8,14)                 1.5008         estimate D2E/DX2                !
 ! R17   R(9,10)                 1.3604         estimate D2E/DX2                !
 ! R18   R(10,18)                1.228          estimate D2E/DX2                !
 ! R19   R(11,12)                1.5571         estimate D2E/DX2                !
 ! R20   R(11,36)                1.0973         estimate D2E/DX2                !
 ! R21   R(11,37)                1.0998         estimate D2E/DX2                !
 ! R22   R(12,13)                1.5422         estimate D2E/DX2                !
 ! R23   R(12,19)                1.4419         estimate D2E/DX2                !
 ! R24   R(12,32)                1.55           estimate D2E/DX2                !
 ! R25   R(13,14)                1.5282         estimate D2E/DX2                !
 ! R26   R(13,38)                1.0957         estimate D2E/DX2                !
 ! R27   R(13,39)                1.099          estimate D2E/DX2                !
 ! R28   R(14,40)                1.0968         estimate D2E/DX2                !
 ! R29   R(14,41)                1.0965         estimate D2E/DX2                !
 ! R30   R(15,42)                1.0951         estimate D2E/DX2                !
 ! R31   R(15,43)                1.0944         estimate D2E/DX2                !
 ! R32   R(15,44)                1.0946         estimate D2E/DX2                !
 ! R33   R(16,45)                0.9829         estimate D2E/DX2                !
 ! R34   R(17,46)                0.9709         estimate D2E/DX2                !
 ! R35   R(18,45)                1.711          estimate D2E/DX2                !
 ! R36   R(19,20)                1.4389         estimate D2E/DX2                !
 ! R37   R(20,21)                1.5369         estimate D2E/DX2                !
 ! R38   R(20,25)                1.5397         estimate D2E/DX2                !
 ! R39   R(20,47)                1.0952         estimate D2E/DX2                !
 ! R40   R(21,22)                1.5368         estimate D2E/DX2                !
 ! R41   R(21,26)                1.4377         estimate D2E/DX2                !
 ! R42   R(21,48)                1.098          estimate D2E/DX2                !
 ! R43   R(22,23)                1.4948         estimate D2E/DX2                !
 ! R44   R(22,27)                1.4255         estimate D2E/DX2                !
 ! R45   R(22,49)                1.0964         estimate D2E/DX2                !
 ! R46   R(23,24)                1.3471         estimate D2E/DX2                !
 ! R47   R(23,50)                1.0876         estimate D2E/DX2                !
 ! R48   R(24,25)                1.5095         estimate D2E/DX2                !
 ! R49   R(24,28)                1.4916         estimate D2E/DX2                !
 ! R50   R(25,51)                1.0951         estimate D2E/DX2                !
 ! R51   R(25,52)                1.0981         estimate D2E/DX2                !
 ! R52   R(26,53)                0.9764         estimate D2E/DX2                !
 ! R53   R(27,54)                0.9764         estimate D2E/DX2                !
 ! R54   R(28,29)                1.3552         estimate D2E/DX2                !
 ! R55   R(28,30)                1.2224         estimate D2E/DX2                !
 ! R56   R(29,31)                1.4278         estimate D2E/DX2                !
 ! R57   R(31,55)                1.0935         estimate D2E/DX2                !
 ! R58   R(31,56)                1.0946         estimate D2E/DX2                !
 ! R59   R(31,57)                1.0945         estimate D2E/DX2                !
 ! R60   R(32,33)                1.3504         estimate D2E/DX2                !
 ! R61   R(32,34)                1.2205         estimate D2E/DX2                !
 ! R62   R(33,58)                0.9829         estimate D2E/DX2                !
 ! A1    A(2,1,6)              117.9484         estimate D2E/DX2                !
 ! A2    A(2,1,15)             121.2405         estimate D2E/DX2                !
 ! A3    A(6,1,15)             120.7517         estimate D2E/DX2                !
 ! A4    A(1,2,3)              121.4354         estimate D2E/DX2                !
 ! A5    A(1,2,17)             118.8407         estimate D2E/DX2                !
 ! A6    A(3,2,17)             119.7239         estimate D2E/DX2                !
 ! A7    A(2,3,4)              120.8417         estimate D2E/DX2                !
 ! A8    A(2,3,35)             118.5362         estimate D2E/DX2                !
 ! A9    A(4,3,35)             120.622          estimate D2E/DX2                !
 ! A10   A(3,4,5)              118.1739         estimate D2E/DX2                !
 ! A11   A(3,4,7)              122.2237         estimate D2E/DX2                !
 ! A12   A(5,4,7)              119.6021         estimate D2E/DX2                !
 ! A13   A(4,5,6)              120.5494         estimate D2E/DX2                !
 ! A14   A(4,5,10)             119.753          estimate D2E/DX2                !
 ! A15   A(6,5,10)             119.697          estimate D2E/DX2                !
 ! A16   A(1,6,5)              121.0325         estimate D2E/DX2                !
 ! A17   A(1,6,16)             116.7193         estimate D2E/DX2                !
 ! A18   A(5,6,16)             122.2482         estimate D2E/DX2                !
 ! A19   A(4,7,8)              117.8485         estimate D2E/DX2                !
 ! A20   A(4,7,11)             120.882          estimate D2E/DX2                !
 ! A21   A(8,7,11)             121.2695         estimate D2E/DX2                !
 ! A22   A(7,8,9)              123.0949         estimate D2E/DX2                !
 ! A23   A(7,8,14)             123.7802         estimate D2E/DX2                !
 ! A24   A(9,8,14)             113.1212         estimate D2E/DX2                !
 ! A25   A(8,9,10)             122.2439         estimate D2E/DX2                !
 ! A26   A(5,10,9)             117.4076         estimate D2E/DX2                !
 ! A27   A(5,10,18)            120.6139         estimate D2E/DX2                !
 ! A28   A(9,10,18)            121.976          estimate D2E/DX2                !
 ! A29   A(7,11,12)            115.5815         estimate D2E/DX2                !
 ! A30   A(7,11,36)            110.446          estimate D2E/DX2                !
 ! A31   A(7,11,37)            107.7774         estimate D2E/DX2                !
 ! A32   A(12,11,36)           108.1555         estimate D2E/DX2                !
 ! A33   A(12,11,37)           108.9659         estimate D2E/DX2                !
 ! A34   A(36,11,37)           105.4329         estimate D2E/DX2                !
 ! A35   A(11,12,13)           107.9772         estimate D2E/DX2                !
 ! A36   A(11,12,19)           104.606          estimate D2E/DX2                !
 ! A37   A(11,12,32)           107.8741         estimate D2E/DX2                !
 ! A38   A(13,12,19)           109.7038         estimate D2E/DX2                !
 ! A39   A(13,12,32)           112.1306         estimate D2E/DX2                !
 ! A40   A(19,12,32)           114.0881         estimate D2E/DX2                !
 ! A41   A(12,13,14)           112.5725         estimate D2E/DX2                !
 ! A42   A(12,13,38)           111.9042         estimate D2E/DX2                !
 ! A43   A(12,13,39)           108.9483         estimate D2E/DX2                !
 ! A44   A(14,13,38)           108.7436         estimate D2E/DX2                !
 ! A45   A(14,13,39)           109.3531         estimate D2E/DX2                !
 ! A46   A(38,13,39)           105.0258         estimate D2E/DX2                !
 ! A47   A(8,14,13)            113.315          estimate D2E/DX2                !
 ! A48   A(8,14,40)            109.5329         estimate D2E/DX2                !
 ! A49   A(8,14,41)            108.5981         estimate D2E/DX2                !
 ! A50   A(13,14,40)           108.4655         estimate D2E/DX2                !
 ! A51   A(13,14,41)           110.0726         estimate D2E/DX2                !
 ! A52   A(40,14,41)           106.6433         estimate D2E/DX2                !
 ! A53   A(1,15,42)            111.0976         estimate D2E/DX2                !
 ! A54   A(1,15,43)            109.8871         estimate D2E/DX2                !
 ! A55   A(1,15,44)            111.8872         estimate D2E/DX2                !
 ! A56   A(42,15,43)           109.0684         estimate D2E/DX2                !
 ! A57   A(42,15,44)           106.1988         estimate D2E/DX2                !
 ! A58   A(43,15,44)           108.5843         estimate D2E/DX2                !
 ! A59   A(6,16,45)            109.3562         estimate D2E/DX2                !
 ! A60   A(2,17,46)            109.7982         estimate D2E/DX2                !
 ! A61   A(12,19,20)           117.6607         estimate D2E/DX2                !
 ! A62   A(19,20,21)           106.965          estimate D2E/DX2                !
 ! A63   A(19,20,25)           110.426          estimate D2E/DX2                !
 ! A64   A(19,20,47)           110.7967         estimate D2E/DX2                !
 ! A65   A(21,20,25)           109.2814         estimate D2E/DX2                !
 ! A66   A(21,20,47)           108.4958         estimate D2E/DX2                !
 ! A67   A(25,20,47)           110.7692         estimate D2E/DX2                !
 ! A68   A(20,21,22)           110.5364         estimate D2E/DX2                !
 ! A69   A(20,21,26)           110.1519         estimate D2E/DX2                !
 ! A70   A(20,21,48)           110.6738         estimate D2E/DX2                !
 ! A71   A(22,21,26)           108.9901         estimate D2E/DX2                !
 ! A72   A(22,21,48)           110.6729         estimate D2E/DX2                !
 ! A73   A(26,21,48)           105.6958         estimate D2E/DX2                !
 ! A74   A(21,22,23)           113.0185         estimate D2E/DX2                !
 ! A75   A(21,22,27)           109.0993         estimate D2E/DX2                !
 ! A76   A(21,22,49)           110.5543         estimate D2E/DX2                !
 ! A77   A(23,22,27)           108.0109         estimate D2E/DX2                !
 ! A78   A(23,22,49)           109.1744         estimate D2E/DX2                !
 ! A79   A(27,22,49)           106.7601         estimate D2E/DX2                !
 ! A80   A(22,23,24)           123.1164         estimate D2E/DX2                !
 ! A81   A(22,23,50)           115.5705         estimate D2E/DX2                !
 ! A82   A(24,23,50)           121.3128         estimate D2E/DX2                !
 ! A83   A(23,24,25)           122.2108         estimate D2E/DX2                !
 ! A84   A(23,24,28)           122.5628         estimate D2E/DX2                !
 ! A85   A(25,24,28)           115.2215         estimate D2E/DX2                !
 ! A86   A(20,25,24)           113.9164         estimate D2E/DX2                !
 ! A87   A(20,25,51)           108.6012         estimate D2E/DX2                !
 ! A88   A(20,25,52)           109.5372         estimate D2E/DX2                !
 ! A89   A(24,25,51)           109.7207         estimate D2E/DX2                !
 ! A90   A(24,25,52)           108.921          estimate D2E/DX2                !
 ! A91   A(51,25,52)           105.8322         estimate D2E/DX2                !
 ! A92   A(21,26,53)           105.1052         estimate D2E/DX2                !
 ! A93   A(22,27,54)           105.2748         estimate D2E/DX2                !
 ! A94   A(24,28,29)           111.7323         estimate D2E/DX2                !
 ! A95   A(24,28,30)           122.6925         estimate D2E/DX2                !
 ! A96   A(29,28,30)           125.5745         estimate D2E/DX2                !
 ! A97   A(28,29,31)           114.1021         estimate D2E/DX2                !
 ! A98   A(29,31,55)           108.047          estimate D2E/DX2                !
 ! A99   A(29,31,56)           110.5349         estimate D2E/DX2                !
 ! A100  A(29,31,57)           110.4936         estimate D2E/DX2                !
 ! A101  A(55,31,56)           108.441          estimate D2E/DX2                !
 ! A102  A(55,31,57)           108.4488         estimate D2E/DX2                !
 ! A103  A(56,31,57)           110.785          estimate D2E/DX2                !
 ! A104  A(12,32,33)           113.6703         estimate D2E/DX2                !
 ! A105  A(12,32,34)           126.9405         estimate D2E/DX2                !
 ! A106  A(33,32,34)           119.3247         estimate D2E/DX2                !
 ! A107  A(32,33,58)           103.8985         estimate D2E/DX2                !
 ! D1    D(6,1,2,3)              1.6019         estimate D2E/DX2                !
 ! D2    D(6,1,2,17)          -178.3494         estimate D2E/DX2                !
 ! D3    D(15,1,2,3)           178.8207         estimate D2E/DX2                !
 ! D4    D(15,1,2,17)           -1.1306         estimate D2E/DX2                !
 ! D5    D(2,1,6,5)             -1.4973         estimate D2E/DX2                !
 ! D6    D(2,1,6,16)           178.4074         estimate D2E/DX2                !
 ! D7    D(15,1,6,5)          -178.7303         estimate D2E/DX2                !
 ! D8    D(15,1,6,16)            1.1744         estimate D2E/DX2                !
 ! D9    D(2,1,15,42)          143.4142         estimate D2E/DX2                !
 ! D10   D(2,1,15,43)          -95.7925         estimate D2E/DX2                !
 ! D11   D(2,1,15,44)           24.9089         estimate D2E/DX2                !
 ! D12   D(6,1,15,42)          -39.4447         estimate D2E/DX2                !
 ! D13   D(6,1,15,43)           81.3486         estimate D2E/DX2                !
 ! D14   D(6,1,15,44)         -157.95           estimate D2E/DX2                !
 ! D15   D(1,2,3,4)             -0.9843         estimate D2E/DX2                !
 ! D16   D(1,2,3,35)           178.8919         estimate D2E/DX2                !
 ! D17   D(17,2,3,4)           178.9666         estimate D2E/DX2                !
 ! D18   D(17,2,3,35)           -1.1573         estimate D2E/DX2                !
 ! D19   D(1,2,17,46)          176.0737         estimate D2E/DX2                !
 ! D20   D(3,2,17,46)           -3.8784         estimate D2E/DX2                !
 ! D21   D(2,3,4,5)              0.2103         estimate D2E/DX2                !
 ! D22   D(2,3,4,7)            179.9842         estimate D2E/DX2                !
 ! D23   D(35,3,4,5)          -179.6633         estimate D2E/DX2                !
 ! D24   D(35,3,4,7)             0.1107         estimate D2E/DX2                !
 ! D25   D(3,4,5,6)             -0.1127         estimate D2E/DX2                !
 ! D26   D(3,4,5,10)           179.5843         estimate D2E/DX2                !
 ! D27   D(7,4,5,6)           -179.8928         estimate D2E/DX2                !
 ! D28   D(7,4,5,10)            -0.1958         estimate D2E/DX2                !
 ! D29   D(3,4,7,8)           -177.9282         estimate D2E/DX2                !
 ! D30   D(3,4,7,11)             2.0349         estimate D2E/DX2                !
 ! D31   D(5,4,7,8)              1.8426         estimate D2E/DX2                !
 ! D32   D(5,4,7,11)          -178.1943         estimate D2E/DX2                !
 ! D33   D(4,5,6,1)              0.7794         estimate D2E/DX2                !
 ! D34   D(4,5,6,16)          -179.1199         estimate D2E/DX2                !
 ! D35   D(10,5,6,1)          -178.9177         estimate D2E/DX2                !
 ! D36   D(10,5,6,16)            1.183          estimate D2E/DX2                !
 ! D37   D(4,5,10,9)            -1.674          estimate D2E/DX2                !
 ! D38   D(4,5,10,18)          178.8847         estimate D2E/DX2                !
 ! D39   D(6,5,10,9)           178.0256         estimate D2E/DX2                !
 ! D40   D(6,5,10,18)           -1.4157         estimate D2E/DX2                !
 ! D41   D(1,6,16,45)         -179.9844         estimate D2E/DX2                !
 ! D42   D(5,6,16,45)           -0.081          estimate D2E/DX2                !
 ! D43   D(4,7,8,9)             -1.6596         estimate D2E/DX2                !
 ! D44   D(4,7,8,14)           177.5992         estimate D2E/DX2                !
 ! D45   D(11,7,8,9)           178.3775         estimate D2E/DX2                !
 ! D46   D(11,7,8,14)           -2.3637         estimate D2E/DX2                !
 ! D47   D(4,7,11,12)          166.0456         estimate D2E/DX2                !
 ! D48   D(4,7,11,36)           42.8731         estimate D2E/DX2                !
 ! D49   D(4,7,11,37)          -71.8211         estimate D2E/DX2                !
 ! D50   D(8,7,11,12)          -13.9926         estimate D2E/DX2                !
 ! D51   D(8,7,11,36)         -137.1651         estimate D2E/DX2                !
 ! D52   D(8,7,11,37)          108.1407         estimate D2E/DX2                !
 ! D53   D(7,8,9,10)            -0.2901         estimate D2E/DX2                !
 ! D54   D(14,8,9,10)         -179.6203         estimate D2E/DX2                !
 ! D55   D(7,8,14,13)          -12.7053         estimate D2E/DX2                !
 ! D56   D(7,8,14,40)         -133.9607         estimate D2E/DX2                !
 ! D57   D(7,8,14,41)          109.9337         estimate D2E/DX2                !
 ! D58   D(9,8,14,13)          166.6196         estimate D2E/DX2                !
 ! D59   D(9,8,14,40)           45.3641         estimate D2E/DX2                !
 ! D60   D(9,8,14,41)          -70.7414         estimate D2E/DX2                !
 ! D61   D(8,9,10,5)             1.9672         estimate D2E/DX2                !
 ! D62   D(8,9,10,18)         -178.5997         estimate D2E/DX2                !
 ! D63   D(7,11,12,13)          42.8319         estimate D2E/DX2                !
 ! D64   D(7,11,12,19)         159.6306         estimate D2E/DX2                !
 ! D65   D(7,11,12,32)         -78.5528         estimate D2E/DX2                !
 ! D66   D(36,11,12,13)        167.204          estimate D2E/DX2                !
 ! D67   D(36,11,12,19)        -75.9973         estimate D2E/DX2                !
 ! D68   D(36,11,12,32)         45.8193         estimate D2E/DX2                !
 ! D69   D(37,11,12,13)        -78.665          estimate D2E/DX2                !
 ! D70   D(37,11,12,19)         38.1337         estimate D2E/DX2                !
 ! D71   D(37,11,12,32)        159.9502         estimate D2E/DX2                !
 ! D72   D(11,12,13,14)        -57.9777         estimate D2E/DX2                !
 ! D73   D(11,12,13,38)        179.1878         estimate D2E/DX2                !
 ! D74   D(11,12,13,39)         63.4994         estimate D2E/DX2                !
 ! D75   D(19,12,13,14)       -171.4189         estimate D2E/DX2                !
 ! D76   D(19,12,13,38)         65.7466         estimate D2E/DX2                !
 ! D77   D(19,12,13,39)        -49.9418         estimate D2E/DX2                !
 ! D78   D(32,12,13,14)         60.7274         estimate D2E/DX2                !
 ! D79   D(32,12,13,38)        -62.107          estimate D2E/DX2                !
 ! D80   D(32,12,13,39)       -177.7954         estimate D2E/DX2                !
 ! D81   D(11,12,19,20)        172.3152         estimate D2E/DX2                !
 ! D82   D(13,12,19,20)        -72.0834         estimate D2E/DX2                !
 ! D83   D(32,12,19,20)         54.6738         estimate D2E/DX2                !
 ! D84   D(11,12,32,33)        157.5943         estimate D2E/DX2                !
 ! D85   D(11,12,32,34)        -25.3731         estimate D2E/DX2                !
 ! D86   D(13,12,32,33)         38.8283         estimate D2E/DX2                !
 ! D87   D(13,12,32,34)       -144.1391         estimate D2E/DX2                !
 ! D88   D(19,12,32,33)        -86.6579         estimate D2E/DX2                !
 ! D89   D(19,12,32,34)         90.3748         estimate D2E/DX2                !
 ! D90   D(12,13,14,8)          43.888          estimate D2E/DX2                !
 ! D91   D(12,13,14,40)        165.7419         estimate D2E/DX2                !
 ! D92   D(12,13,14,41)        -77.9304         estimate D2E/DX2                !
 ! D93   D(38,13,14,8)         168.4772         estimate D2E/DX2                !
 ! D94   D(38,13,14,40)        -69.6689         estimate D2E/DX2                !
 ! D95   D(38,13,14,41)         46.6589         estimate D2E/DX2                !
 ! D96   D(39,13,14,8)         -77.3585         estimate D2E/DX2                !
 ! D97   D(39,13,14,40)         44.4954         estimate D2E/DX2                !
 ! D98   D(39,13,14,41)        160.8232         estimate D2E/DX2                !
 ! D99   D(12,19,20,21)        142.7434         estimate D2E/DX2                !
 ! D100  D(12,19,20,25)        -98.4402         estimate D2E/DX2                !
 ! D101  D(12,19,20,47)         24.6672         estimate D2E/DX2                !
 ! D102  D(19,20,21,22)       -179.7872         estimate D2E/DX2                !
 ! D103  D(19,20,21,26)        -59.2818         estimate D2E/DX2                !
 ! D104  D(19,20,21,48)         57.2363         estimate D2E/DX2                !
 ! D105  D(25,20,21,22)         60.6565         estimate D2E/DX2                !
 ! D106  D(25,20,21,26)       -178.8381         estimate D2E/DX2                !
 ! D107  D(25,20,21,48)        -62.32           estimate D2E/DX2                !
 ! D108  D(47,20,21,22)        -60.2181         estimate D2E/DX2                !
 ! D109  D(47,20,21,26)         60.2873         estimate D2E/DX2                !
 ! D110  D(47,20,21,48)        176.8054         estimate D2E/DX2                !
 ! D111  D(19,20,25,24)       -161.6206         estimate D2E/DX2                !
 ! D112  D(19,20,25,51)         75.782          estimate D2E/DX2                !
 ! D113  D(19,20,25,52)        -39.3606         estimate D2E/DX2                !
 ! D114  D(21,20,25,24)        -44.2239         estimate D2E/DX2                !
 ! D115  D(21,20,25,51)       -166.8213         estimate D2E/DX2                !
 ! D116  D(21,20,25,52)         78.0361         estimate D2E/DX2                !
 ! D117  D(47,20,25,24)         75.256          estimate D2E/DX2                !
 ! D118  D(47,20,25,51)        -47.3415         estimate D2E/DX2                !
 ! D119  D(47,20,25,52)       -162.4841         estimate D2E/DX2                !
 ! D120  D(20,21,22,23)        -46.1207         estimate D2E/DX2                !
 ! D121  D(20,21,22,27)       -166.2948         estimate D2E/DX2                !
 ! D122  D(20,21,22,49)         76.592          estimate D2E/DX2                !
 ! D123  D(26,21,22,23)       -167.3175         estimate D2E/DX2                !
 ! D124  D(26,21,22,27)         72.5083         estimate D2E/DX2                !
 ! D125  D(26,21,22,49)        -44.6049         estimate D2E/DX2                !
 ! D126  D(48,21,22,23)         76.8563         estimate D2E/DX2                !
 ! D127  D(48,21,22,27)        -43.3178         estimate D2E/DX2                !
 ! D128  D(48,21,22,49)       -160.431          estimate D2E/DX2                !
 ! D129  D(20,21,26,53)         56.0064         estimate D2E/DX2                !
 ! D130  D(22,21,26,53)        177.4376         estimate D2E/DX2                !
 ! D131  D(48,21,26,53)        -63.5815         estimate D2E/DX2                !
 ! D132  D(21,22,23,24)         15.0897         estimate D2E/DX2                !
 ! D133  D(21,22,23,50)       -164.7324         estimate D2E/DX2                !
 ! D134  D(27,22,23,24)        135.8845         estimate D2E/DX2                !
 ! D135  D(27,22,23,50)        -43.9376         estimate D2E/DX2                !
 ! D136  D(49,22,23,24)       -108.3879         estimate D2E/DX2                !
 ! D137  D(49,22,23,50)         71.79           estimate D2E/DX2                !
 ! D138  D(21,22,27,54)        -51.9926         estimate D2E/DX2                !
 ! D139  D(23,22,27,54)       -175.2027         estimate D2E/DX2                !
 ! D140  D(49,22,27,54)         67.5001         estimate D2E/DX2                !
 ! D141  D(22,23,24,25)          1.4789         estimate D2E/DX2                !
 ! D142  D(22,23,24,28)       -179.3579         estimate D2E/DX2                !
 ! D143  D(50,23,24,25)       -178.7089         estimate D2E/DX2                !
 ! D144  D(50,23,24,28)          0.4543         estimate D2E/DX2                !
 ! D145  D(23,24,25,20)         13.8704         estimate D2E/DX2                !
 ! D146  D(23,24,25,51)        135.8523         estimate D2E/DX2                !
 ! D147  D(23,24,25,52)       -108.7279         estimate D2E/DX2                !
 ! D148  D(28,24,25,20)       -165.3501         estimate D2E/DX2                !
 ! D149  D(28,24,25,51)        -43.3682         estimate D2E/DX2                !
 ! D150  D(28,24,25,52)         72.0517         estimate D2E/DX2                !
 ! D151  D(23,24,28,29)          1.246          estimate D2E/DX2                !
 ! D152  D(23,24,28,30)       -178.4732         estimate D2E/DX2                !
 ! D153  D(25,24,28,29)       -179.5366         estimate D2E/DX2                !
 ! D154  D(25,24,28,30)          0.7442         estimate D2E/DX2                !
 ! D155  D(24,28,29,31)        179.5388         estimate D2E/DX2                !
 ! D156  D(30,28,29,31)         -0.7517         estimate D2E/DX2                !
 ! D157  D(28,29,31,55)       -179.5578         estimate D2E/DX2                !
 ! D158  D(28,29,31,56)        -61.0474         estimate D2E/DX2                !
 ! D159  D(28,29,31,57)         61.9461         estimate D2E/DX2                !
 ! D160  D(12,32,33,58)        177.9849         estimate D2E/DX2                !
 ! D161  D(34,32,33,58)          0.705          estimate D2E/DX2                !
 --------------------------------------------------------------------------------
 Trust Radius=3.00D-01 FncErr=1.00D-07 GrdErr=1.00D-06
 Number of steps in this run=    340 maximum allowed number of steps=    348.
 GradGradGradGradGradGradGradGradGradGradGradGradGradGradGradGradGradGrad

 Stoichiometry    C23H24O11
 Framework group  C1[X(C23H24O11)]
 Deg. of freedom   168
 Full point group                 C1      NOp   1
 Largest Abelian subgroup         C1      NOp   1
 Largest concise Abelian subgroup C1      NOp   1
                         Standard orientation:                         
 ---------------------------------------------------------------------
 Center     Atomic      Atomic             Coordinates (Angstroms)
 Number     Number       Type             X           Y           Z
 ---------------------------------------------------------------------
      1          6           0        5.960470    1.515380    0.752994
      2          6           0        4.764225    2.020555    1.266223
      3          6           0        3.543109    1.381134    1.032994
      4          6           0        3.478482    0.214924    0.253459
      5          6           0        4.672705   -0.292134   -0.280127
      6          6           0        5.899992    0.359304   -0.037288
      7          6           0        2.207273   -0.484351   -0.011700
      8          6           0        2.252429   -1.615337   -0.733086
      9          8           0        3.443720   -2.137262   -1.269608
     10          6           0        4.646248   -1.524358   -1.099093
     11          6           0        0.897750    0.059031    0.515180
     12          6           0       -0.387125   -0.565344   -0.104275
     13          6           0       -0.175843   -2.089837   -0.202342
     14          6           0        1.049488   -2.459709   -1.037240
     15          6           0        7.268371    2.221112    0.984574
     16          8           0        7.088201   -0.096885   -0.557321
     17          8           0        4.797954    3.166717    2.011130
     18          8           0        5.679219   -1.970755   -1.590812
     19          8           0       -1.427756   -0.279291    0.851919
     20          6           0       -2.782305   -0.588503    0.477576
     21          6           0       -3.489241   -1.106908    1.739982
     22          6           0       -4.950164   -1.468980    1.429547
     23          6           0       -5.654100   -0.422108    0.627664
     24          6           0       -5.007991    0.563910   -0.024194
     25          6           0       -3.502680    0.675808   -0.025618
     26          8           0       -2.814697   -2.273168    2.241816
     27          8           0       -5.659488   -1.636964    2.654551
     28          6           0       -5.723902    1.610616   -0.809566
     29          8           0       -7.068271    1.449412   -0.751985
     30          8           0       -5.138825    2.490496   -1.424273
     31          6           0       -7.805087    2.432505   -1.479494
     32          6           0       -0.609136    0.083999   -1.494127
     33          8           0       -1.364724   -0.663398   -2.327262
     34          8           0       -0.221819    1.181667   -1.861209
     35          1           0        2.644235    1.804758    1.469726
     36          1           0        0.850485    1.146506    0.376545
     37          1           0        0.882581   -0.098181    1.603551
     38          1           0       -1.052459   -2.598008   -0.619325
     39          1           0       -0.063629   -2.500476    0.810894
     40          1           0        1.287142   -3.515118   -0.856740
     41          1           0        0.818818   -2.367948   -2.105230
     42          1           0        8.083639    1.503820    1.126342
     43          1           0        7.501568    2.863017    0.129369
     44          1           0        7.244433    2.838680    1.888030
     45          1           0        6.921490   -0.906276   -1.089561
     46          1           0        3.894437    3.432076    2.247369
     47          1           0       -2.805430   -1.377012   -0.282168
     48          1           0       -3.437067   -0.363560    2.546397
     49          1           0       -5.004923   -2.426704    0.898594
     50          1           0       -6.738556   -0.500791    0.601839
     51          1           0       -3.149721    0.899438   -1.037854
     52          1           0       -3.208967    1.535721    0.590875
     53          1           0       -1.889603   -1.992589    2.379397
     54          1           0       -5.126264   -2.266861    3.176242
     55          1           0       -8.870006    2.214664   -1.360178
     56          1           0       -7.609353    3.432535   -1.079908
     57          1           0       -7.559074    2.384967   -2.544950
     58          1           0       -1.439717   -0.111453   -3.137071
 ---------------------------------------------------------------------
 Rotational constants (GHZ):      0.2506845      0.0485681      0.0467876
 Standard basis: 6-31G(d) (6D, 7F)
 There are   558 symmetry adapted basis functions of A   symmetry.
 Integral buffers will be    131072 words long.
 Raffenetti 2 integral format.
 Two-electron integral symmetry is turned on.
   558 basis functions,  1048 primitive gaussians,   558 cartesian basis functions
   125 alpha electrons      125 beta electrons
       nuclear repulsion energy      3612.0902684570 Hartrees.
 NAtoms=   58 NActive=   58 NUniq=   58 SFac= 1.00D+00 NAtFMM=   50 NAOKFM=T Big=T
 One-electron integrals computed using PRISM.
 NBasis=   558 RedAO= T  NBF=   558
 NBsUse=   558 1.00D-06 NBFU=   558
 Harris functional with IExCor=  402 diagonalized for initial guess.
 ExpMin= 1.61D-01 ExpMax= 5.48D+03 ExpMxC= 8.25D+02 IAcc=1 IRadAn=         1 AccDes= 0.00D+00
 HarFok:  IExCor=  402 AccDes= 0.00D+00 IRadAn=         1 IDoV= 1
 ScaDFX=  1.000000  1.000000  1.000000  1.000000
 FoFCou: FMM=F IPFlag=           0 FMFlag=      100000 FMFlg1=        2001
         NFxFlg=           0 DoJE=T BraDBF=F KetDBF=T FulRan=T
         Omega=  0.000000  0.000000  1.000000  0.000000  0.000000 ICntrl=     500 IOpCl=  0
         NMat0=    1 NMatS0=    1 NMatT0=    0 NMatD0=    1 NMtDS0=    0 NMtDT0=    0
         I1Cent=           4 NGrid=           0.
 Petite list used in FoFCou.
 Initial guess orbital symmetries:
       Occupied  (A) (A) (A) (A) (A) (A) (A) (A) (A) (A) (A) (A)
                 (A) (A) (A) (A) (A) (A) (A) (A) (A) (A) (A) (A)
                 (A) (A) (A) (A) (A) (A) (A) (A) (A) (A) (A) (A)
                 (A) (A) (A) (A) (A) (A) (A) (A) (A) (A) (A) (A)
                 (A) (A) (A) (A) (A) (A) (A) (A) (A) (A) (A) (A)
                 (A) (A) (A) (A) (A) (A) (A) (A) (A) (A) (A) (A)
                 (A) (A) (A) (A) (A) (A) (A) (A) (A) (A) (A) (A)
                 (A) (A) (A) (A) (A) (A) (A) (A) (A) (A) (A) (A)
                 (A) (A) (A) (A) (A) (A) (A) (A) (A) (A) (A) (A)
                 (A) (A) (A) (A) (A) (A) (A) (A) (A) (A) (A) (A)
                 (A) (A) (A) (A) (A)
       Virtual   (A) (A) (A) (A) (A) (A) (A) (A) (A) (A) (A) (A)
                 (A) (A) (A) (A) (A) (A) (A) (A) (A) (A) (A) (A)
                 (A) (A) (A) (A) (A) (A) (A) (A) (A) (A) (A) (A)
                 (A) (A) (A) (A) (A) (A) (A) (A) (A) (A) (A) (A)
                 (A) (A) (A) (A) (A) (A) (A) (A) (A) (A) (A) (A)
                 (A) (A) (A) (A) (A) (A) (A) (A) (A) (A) (A) (A)
                 (A) (A) (A) (A) (A) (A) (A) (A) (A) (A) (A) (A)
                 (A) (A) (A) (A) (A) (A) (A) (A) (A) (A) (A) (A)
                 (A) (A) (A) (A) (A) (A) (A) (A) (A) (A) (A) (A)
                 (A) (A) (A) (A) (A) (A) (A) (A) (A) (A) (A) (A)
                 (A) (A) (A) (A) (A) (A) (A) (A) (A) (A) (A) (A)
                 (A) (A) (A) (A) (A) (A) (A) (A) (A) (A) (A) (A)
                 (A) (A) (A) (A) (A) (A) (A) (A) (A) (A) (A) (A)
                 (A) (A) (A) (A) (A) (A) (A) (A) (A) (A) (A) (A)
                 (A) (A) (A) (A) (A) (A) (A) (A) (A) (A) (A) (A)
                 (A) (A) (A) (A) (A) (A) (A) (A) (A) (A) (A) (A)
                 (A) (A) (A) (A) (A) (A) (A) (A) (A) (A) (A) (A)
                 (A) (A) (A) (A) (A) (A) (A) (A) (A) (A) (A) (A)
                 (A) (A) (A) (A) (A) (A) (A) (A) (A) (A) (A) (A)
                 (A) (A) (A) (A) (A) (A) (A) (A) (A) (A) (A) (A)
                 (A) (A) (A) (A) (A) (A) (A) (A) (A) (A) (A) (A)
                 (A) (A) (A) (A) (A) (A) (A) (A) (A) (A) (A) (A)
                 (A) (A) (A) (A) (A) (A) (A) (A) (A) (A) (A) (A)
                 (A) (A) (A) (A) (A) (A) (A) (A) (A) (A) (A) (A)
                 (A) (A) (A) (A) (A) (A) (A) (A) (A) (A) (A) (A)
                 (A) (A) (A) (A) (A) (A) (A) (A) (A) (A) (A) (A)
                 (A) (A) (A) (A) (A) (A) (A) (A) (A) (A) (A) (A)
                 (A) (A) (A) (A) (A) (A) (A) (A) (A) (A) (A) (A)
                 (A) (A) (A) (A) (A) (A) (A) (A) (A) (A) (A) (A)
                 (A) (A) (A) (A) (A) (A) (A) (A) (A) (A) (A) (A)
                 (A) (A) (A) (A) (A) (A) (A) (A) (A) (A) (A) (A)
                 (A) (A) (A) (A) (A) (A) (A) (A) (A) (A) (A) (A)
                 (A) (A) (A) (A) (A) (A) (A) (A) (A) (A) (A) (A)
                 (A) (A) (A) (A) (A) (A) (A) (A) (A) (A) (A) (A)
                 (A) (A) (A) (A) (A) (A) (A) (A) (A) (A) (A) (A)
                 (A) (A) (A) (A) (A) (A) (A) (A) (A) (A) (A) (A)
                 (A)
 The electronic state of the initial guess is 1-A.
 Requested convergence on RMS density matrix=1.00D-08 within 128 cycles.
 Requested convergence on MAX density matrix=1.00D-06.
 Requested convergence on             energy=1.00D-06.
 No special actions if energy rises.
 Integral accuracy reduced to 1.0D-05 until final iterations.
 Initial convergence to 1.0D-05 achieved.  Increase integral accuracy.
 SCF Done:  E(RB3LYP) =  -1718.35479458     A.U. after   15 cycles
             Convg  =    0.4681D-08             -V/T =  2.0091

 **********************************************************************

            Population analysis using the SCF density.

 **********************************************************************

 Orbital symmetries:
       Occupied  (A) (A) (A) (A) (A) (A) (A) (A) (A) (A) (A) (A)
                 (A) (A) (A) (A) (A) (A) (A) (A) (A) (A) (A) (A)
                 (A) (A) (A) (A) (A) (A) (A) (A) (A) (A) (A) (A)
                 (A) (A) (A) (A) (A) (A) (A) (A) (A) (A) (A) (A)
                 (A) (A) (A) (A) (A) (A) (A) (A) (A) (A) (A) (A)
                 (A) (A) (A) (A) (A) (A) (A) (A) (A) (A) (A) (A)
                 (A) (A) (A) (A) (A) (A) (A) (A) (A) (A) (A) (A)
                 (A) (A) (A) (A) (A) (A) (A) (A) (A) (A) (A) (A)
                 (A) (A) (A) (A) (A) (A) (A) (A) (A) (A) (A) (A)
                 (A) (A) (A) (A) (A) (A) (A) (A) (A) (A) (A) (A)
                 (A) (A) (A) (A) (A)
       Virtual   (A) (A) (A) (A) (A) (A) (A) (A) (A) (A) (A) (A)
                 (A) (A) (A) (A) (A) (A) (A) (A) (A) (A) (A) (A)
                 (A) (A) (A) (A) (A) (A) (A) (A) (A) (A) (A) (A)
                 (A) (A) (A) (A) (A) (A) (A) (A) (A) (A) (A) (A)
                 (A) (A) (A) (A) (A) (A) (A) (A) (A) (A) (A) (A)
                 (A) (A) (A) (A) (A) (A) (A) (A) (A) (A) (A) (A)
                 (A) (A) (A) (A) (A) (A) (A) (A) (A) (A) (A) (A)
                 (A) (A) (A) (A) (A) (A) (A) (A) (A) (A) (A) (A)
                 (A) (A) (A) (A) (A) (A) (A) (A) (A) (A) (A) (A)
                 (A) (A) (A) (A) (A) (A) (A) (A) (A) (A) (A) (A)
                 (A) (A) (A) (A) (A) (A) (A) (A) (A) (A) (A) (A)
                 (A) (A) (A) (A) (A) (A) (A) (A) (A) (A) (A) (A)
                 (A) (A) (A) (A) (A) (A) (A) (A) (A) (A) (A) (A)
                 (A) (A) (A) (A) (A) (A) (A) (A) (A) (A) (A) (A)
                 (A) (A) (A) (A) (A) (A) (A) (A) (A) (A) (A) (A)
                 (A) (A) (A) (A) (A) (A) (A) (A) (A) (A) (A) (A)
                 (A) (A) (A) (A) (A) (A) (A) (A) (A) (A) (A) (A)
                 (A) (A) (A) (A) (A) (A) (A) (A) (A) (A) (A) (A)
                 (A) (A) (A) (A) (A) (A) (A) (A) (A) (A) (A) (A)
                 (A) (A) (A) (A) (A) (A) (A) (A) (A) (A) (A) (A)
                 (A) (A) (A) (A) (A) (A) (A) (A) (A) (A) (A) (A)
                 (A) (A) (A) (A) (A) (A) (A) (A) (A) (A) (A) (A)
                 (A) (A) (A) (A) (A) (A) (A) (A) (A) (A) (A) (A)
                 (A) (A) (A) (A) (A) (A) (A) (A) (A) (A) (A) (A)
                 (A) (A) (A) (A) (A) (A) (A) (A) (A) (A) (A) (A)
                 (A) (A) (A) (A) (A) (A) (A) (A) (A) (A) (A) (A)
                 (A) (A) (A) (A) (A) (A) (A) (A) (A) (A) (A) (A)
                 (A) (A) (A) (A) (A) (A) (A) (A) (A) (A) (A) (A)
                 (A) (A) (A) (A) (A) (A) (A) (A) (A) (A) (A) (A)
                 (A) (A) (A) (A) (A) (A) (A) (A) (A) (A) (A) (A)
                 (A) (A) (A) (A) (A) (A) (A) (A) (A) (A) (A) (A)
                 (A) (A) (A) (A) (A) (A) (A) (A) (A) (A) (A) (A)
                 (A) (A) (A) (A) (A) (A) (A) (A) (A) (A) (A) (A)
                 (A) (A) (A) (A) (A) (A) (A) (A) (A) (A) (A) (A)
                 (A) (A) (A) (A) (A) (A) (A) (A) (A) (A) (A) (A)
                 (A) (A) (A) (A) (A) (A) (A) (A) (A) (A) (A) (A)
                 (A)
 The electronic state is 1-A.
 Alpha  occ. eigenvalues --  -19.22527 -19.22417 -19.20263 -19.19156 -19.18777
 Alpha  occ. eigenvalues --  -19.16590 -19.16177 -19.16071 -19.15039 -19.14520
 Alpha  occ. eigenvalues --  -19.14242 -10.34651 -10.33052 -10.32434 -10.29115
 Alpha  occ. eigenvalues --  -10.27322 -10.26387 -10.26198 -10.25803 -10.25450
 Alpha  occ. eigenvalues --  -10.24991 -10.24682 -10.22257 -10.21924 -10.21888
 Alpha  occ. eigenvalues --  -10.21765 -10.21545 -10.21536 -10.21344 -10.20418
 Alpha  occ. eigenvalues --  -10.20139 -10.19597 -10.19461 -10.17391  -1.13542
 Alpha  occ. eigenvalues --   -1.11971  -1.10861  -1.07152  -1.06592  -1.04991
 Alpha  occ. eigenvalues --   -1.03743  -1.03392  -1.02408  -1.02143  -1.01733
 Alpha  occ. eigenvalues --   -0.87971  -0.86196  -0.84887  -0.80626  -0.79179
 Alpha  occ. eigenvalues --   -0.76863  -0.76324  -0.75211  -0.74781  -0.72409
 Alpha  occ. eigenvalues --   -0.69861  -0.69333  -0.66382  -0.65258  -0.64816
 Alpha  occ. eigenvalues --   -0.64399  -0.62787  -0.61130  -0.59319  -0.58527
 Alpha  occ. eigenvalues --   -0.56786  -0.55899  -0.54836  -0.54425  -0.53491
 Alpha  occ. eigenvalues --   -0.52319  -0.51821  -0.51239  -0.50927  -0.49445
 Alpha  occ. eigenvalues --   -0.49115  -0.49009  -0.48204  -0.47916  -0.47795
 Alpha  occ. eigenvalues --   -0.47119  -0.46387  -0.45794  -0.45613  -0.44680
 Alpha  occ. eigenvalues --   -0.44248  -0.43975  -0.43574  -0.43497  -0.43344
 Alpha  occ. eigenvalues --   -0.42644  -0.42576  -0.41608  -0.41326  -0.40674
 Alpha  occ. eigenvalues --   -0.40395  -0.40048  -0.39364  -0.39255  -0.38832
 Alpha  occ. eigenvalues --   -0.38462  -0.38183  -0.37659  -0.37088  -0.36930
 Alpha  occ. eigenvalues --   -0.36436  -0.35516  -0.35262  -0.34901  -0.34697
 Alpha  occ. eigenvalues --   -0.34159  -0.33821  -0.33538  -0.33220  -0.31053
 Alpha  occ. eigenvalues --   -0.30756  -0.28912  -0.28700  -0.28145  -0.27904
 Alpha  occ. eigenvalues --   -0.27789  -0.26414  -0.26286  -0.23283  -0.21669
 Alpha virt. eigenvalues --   -0.05206  -0.04268  -0.03230  -0.02755   0.03584
 Alpha virt. eigenvalues --    0.04517   0.05228   0.05559   0.06700   0.06906
 Alpha virt. eigenvalues --    0.08523   0.09161   0.09931   0.09994   0.10601
 Alpha virt. eigenvalues --    0.11061   0.11417   0.11696   0.12348   0.12779
 Alpha virt. eigenvalues --    0.13224   0.14443   0.14778   0.14857   0.15145
 Alpha virt. eigenvalues --    0.15485   0.15850   0.16158   0.16657   0.16903
 Alpha virt. eigenvalues --    0.17441   0.17791   0.18022   0.18410   0.18932
 Alpha virt. eigenvalues --    0.19058   0.19404   0.20505   0.20929   0.21301
 Alpha virt. eigenvalues --    0.22213   0.22543   0.22946   0.24441   0.24703
 Alpha virt. eigenvalues --    0.25336   0.25697   0.26115   0.26520   0.27430
 Alpha virt. eigenvalues --    0.28157   0.28679   0.29782   0.30972   0.31428
 Alpha virt. eigenvalues --    0.32403   0.33647   0.34193   0.35402   0.36488
 Alpha virt. eigenvalues --    0.38765   0.39504   0.40530   0.41567   0.42511
 Alpha virt. eigenvalues --    0.43326   0.45707   0.46973   0.47357   0.49368
 Alpha virt. eigenvalues --    0.49928   0.50173   0.50779   0.51402   0.51793
 Alpha virt. eigenvalues --    0.52277   0.52730   0.53342   0.53410   0.54005
 Alpha virt. eigenvalues --    0.54717   0.55472   0.55765   0.56024   0.56367
 Alpha virt. eigenvalues --    0.56810   0.57662   0.57750   0.58064   0.58553
 Alpha virt. eigenvalues --    0.59064   0.59341   0.59890   0.60698   0.61475
 Alpha virt. eigenvalues --    0.61721   0.62185   0.62341   0.63038   0.64128
 Alpha virt. eigenvalues --    0.64151   0.64507   0.65452   0.66027   0.66299
 Alpha virt. eigenvalues --    0.67374   0.68701   0.69504   0.69834   0.70404
 Alpha virt. eigenvalues --    0.70745   0.71153   0.71858   0.72464   0.73005
 Alpha virt. eigenvalues --    0.73618   0.73660   0.74229   0.74802   0.75394
 Alpha virt. eigenvalues --    0.76016   0.76954   0.77556   0.77891   0.78634
 Alpha virt. eigenvalues --    0.78855   0.80136   0.81073   0.81653   0.82177
 Alpha virt. eigenvalues --    0.82755   0.83093   0.83515   0.83908   0.84410
 Alpha virt. eigenvalues --    0.84482   0.85251   0.85436   0.86747   0.86992
 Alpha virt. eigenvalues --    0.87502   0.87945   0.88640   0.89789   0.90206
 Alpha virt. eigenvalues --    0.90666   0.91125   0.91374   0.92091   0.92648
 Alpha virt. eigenvalues --    0.92875   0.93549   0.93856   0.94225   0.94825
 Alpha virt. eigenvalues --    0.95543   0.95968   0.96946   0.97124   0.97325
 Alpha virt. eigenvalues --    0.97963   0.98252   0.98661   0.99194   0.99628
 Alpha virt. eigenvalues --    1.00545   1.01161   1.01741   1.02837   1.03428
 Alpha virt. eigenvalues --    1.04080   1.04363   1.05062   1.06053   1.06553
 Alpha virt. eigenvalues --    1.06786   1.07729   1.09020   1.09431   1.09979
 Alpha virt. eigenvalues --    1.10431   1.11498   1.12393   1.13179   1.14434
 Alpha virt. eigenvalues --    1.15848   1.16975   1.17611   1.18802   1.18934
 Alpha virt. eigenvalues --    1.20453   1.21649   1.21738   1.22997   1.23293
 Alpha virt. eigenvalues --    1.24088   1.25431   1.25884   1.28020   1.28428
 Alpha virt. eigenvalues --    1.30537   1.31471   1.32078   1.32870   1.33105
 Alpha virt. eigenvalues --    1.34166   1.35107   1.35721   1.36378   1.36643
 Alpha virt. eigenvalues --    1.37195   1.38695   1.39064   1.39259   1.39553
 Alpha virt. eigenvalues --    1.40855   1.41722   1.42656   1.43031   1.43433
 Alpha virt. eigenvalues --    1.44813   1.45862   1.46392   1.49388   1.50063
 Alpha virt. eigenvalues --    1.50566   1.52696   1.53084   1.56141   1.58362
 Alpha virt. eigenvalues --    1.59745   1.60416   1.62539   1.62769   1.64114
 Alpha virt. eigenvalues --    1.64747   1.64910   1.66373   1.66910   1.68551
 Alpha virt. eigenvalues --    1.69353   1.70167   1.70556   1.70821   1.71131
 Alpha virt. eigenvalues --    1.71650   1.72316   1.72908   1.73134   1.73592
 Alpha virt. eigenvalues --    1.74534   1.75308   1.75456   1.76336   1.76900
 Alpha virt. eigenvalues --    1.77431   1.78583   1.79781   1.80705   1.80932
 Alpha virt. eigenvalues --    1.81704   1.81814   1.82353   1.82899   1.83473
 Alpha virt. eigenvalues --    1.83856   1.84157   1.84674   1.85657   1.85971
 Alpha virt. eigenvalues --    1.86641   1.87513   1.87869   1.88277   1.88741
 Alpha virt. eigenvalues --    1.89247   1.90541   1.90771   1.90868   1.92531
 Alpha virt. eigenvalues --    1.93180   1.93766   1.94698   1.95132   1.95531
 Alpha virt. eigenvalues --    1.96428   1.96700   1.98124   1.98390   1.99284
 Alpha virt. eigenvalues --    2.00213   2.01451   2.02006   2.02691   2.03486
 Alpha virt. eigenvalues --    2.04153   2.04634   2.06180   2.06546   2.07336
 Alpha virt. eigenvalues --    2.08010   2.08282   2.08756   2.09648   2.09848
 Alpha virt. eigenvalues --    2.11244   2.12036   2.13585   2.14611   2.15737
 Alpha virt. eigenvalues --    2.17789   2.18863   2.19743   2.21613   2.22456
 Alpha virt. eigenvalues --    2.24005   2.24306   2.25271   2.26436   2.27024
 Alpha virt. eigenvalues --    2.27866   2.28087   2.28817   2.29453   2.30363
 Alpha virt. eigenvalues --    2.31545   2.32510   2.32922   2.33191   2.33540
 Alpha virt. eigenvalues --    2.33823   2.35552   2.36525   2.36873   2.37469
 Alpha virt. eigenvalues --    2.39645   2.39878   2.41060   2.42757   2.43107
 Alpha virt. eigenvalues --    2.43409   2.45567   2.45807   2.46790   2.48346
 Alpha virt. eigenvalues --    2.50095   2.51147   2.51751   2.52387   2.53094
 Alpha virt. eigenvalues --    2.53616   2.54102   2.54563   2.56118   2.57015
 Alpha virt. eigenvalues --    2.58611   2.59592   2.61884   2.63195   2.64245
 Alpha virt. eigenvalues --    2.65421   2.67042   2.67799   2.68893   2.69302
 Alpha virt. eigenvalues --    2.70155   2.70689   2.71043   2.73278   2.74449
 Alpha virt. eigenvalues --    2.75734   2.76203   2.77624   2.78682   2.81179
 Alpha virt. eigenvalues --    2.82939   2.84829   2.85474   2.88222   2.88560
 Alpha virt. eigenvalues --    2.91259   2.93330   2.94204   2.96130   2.96735
 Alpha virt. eigenvalues --    2.98147   3.00361   3.01449   3.04410   3.06954
 Alpha virt. eigenvalues --    3.07511   3.08960   3.11894   3.13927   3.16517
 Alpha virt. eigenvalues --    3.21317   3.22750   3.41288   3.49820   3.75134
 Alpha virt. eigenvalues --    3.87466   3.91945   3.95666   3.96134   3.99143
 Alpha virt. eigenvalues --    4.05560   4.06698   4.10011   4.12468   4.17151
 Alpha virt. eigenvalues --    4.18410   4.20978   4.22716   4.23336   4.24482
 Alpha virt. eigenvalues --    4.25523   4.31206   4.32049   4.34252   4.35940
 Alpha virt. eigenvalues --    4.40048   4.47252   4.49471   4.51179   4.53187
 Alpha virt. eigenvalues --    4.54599   4.55740   4.58042   4.63247   4.69921
 Alpha virt. eigenvalues --    4.72732   4.78663   4.88055
          Condensed to atoms (all electrons):
 Mulliken atomic charges:
              1
     1  C    0.092883
     2  C    0.332745
     3  C   -0.303319
     4  C    0.120138
     5  C   -0.063972
     6  C    0.233294
     7  C    0.084380
     8  C    0.272442
     9  O   -0.514038
    10  C    0.634489
    11  C   -0.383662
    12  C    0.261924
    13  C   -0.299730
    14  C   -0.365153
    15  C   -0.510439
    16  O   -0.664983
    17  O   -0.644887
    18  O   -0.533713
    19  O   -0.551994
    20  C    0.105688
    21  C    0.089711
    22  C    0.104379
    23  C   -0.147593
    24  C    0.048991
    25  C   -0.350141
    26  O   -0.664161
    27  O   -0.638943
    28  C    0.610337
    29  O   -0.459591
    30  O   -0.488547
    31  C   -0.220952
    32  C    0.596016
    33  O   -0.570261
    34  O   -0.461722
    35  H    0.117291
    36  H    0.192285
    37  H    0.166328
    38  H    0.173364
    39  H    0.153162
    40  H    0.179057
    41  H    0.180006
    42  H    0.174571
    43  H    0.169750
    44  H    0.167957
    45  H    0.449052
    46  H    0.415189
    47  H    0.156033
    48  H    0.143314
    49  H    0.146911
    50  H    0.178220
    51  H    0.171170
    52  H    0.176963
    53  H    0.405454
    54  H    0.405281
    55  H    0.166496
    56  H    0.172343
    57  H    0.169755
    58  H    0.420431
 Sum of Mulliken atomic charges =   0.00000
 Mulliken charges with hydrogens summed into heavy atoms:
              1
     1  C    0.092883
     2  C    0.332745
     3  C   -0.186028
     4  C    0.120138
     5  C   -0.063972
     6  C    0.233294
     7  C    0.084380
     8  C    0.272442
     9  O   -0.514038
    10  C    0.634489
    11  C   -0.025049
    12  C    0.261924
    13  C    0.026796
    14  C   -0.006091
    15  C    0.001839
    16  O   -0.215930
    17  O   -0.229698
    18  O   -0.533713
    19  O   -0.551994
    20  C    0.261721
    21  C    0.233025
    22  C    0.251290
    23  C    0.030626
    24  C    0.048991
    25  C   -0.002008
    26  O   -0.258707
    27  O   -0.233662
    28  C    0.610337
    29  O   -0.459591
    30  O   -0.488547
    31  C    0.287642
    32  C    0.596016
    33  O   -0.149831
    34  O   -0.461722
 Sum of Mulliken charges with hydrogens summed into heavy atoms =   0.00000
 Electronic spatial extent (au):  <R**2>=          22533.7395
 Charge=              0.0000 electrons
 Dipole moment (field-independent basis, Debye):
    X=             -5.2490    Y=             -0.2066    Z=              0.9006  Tot=              5.3297
 Quadrupole moment (field-independent basis, Debye-Ang):
   XX=           -218.0146   YY=           -195.9517   ZZ=           -189.4357
   XY=              4.2434   XZ=             20.0264   YZ=              4.1691
 Traceless Quadrupole moment (field-independent basis, Debye-Ang):
   XX=            -16.8806   YY=              5.1823   ZZ=             11.6983
   XY=              4.2434   XZ=             20.0264   YZ=              4.1691
 Octapole moment (field-independent basis, Debye-Ang**2):
  XXX=           -405.3458  YYY=              6.3948  ZZZ=            -23.8363  XYY=            -38.9357
  XXY=            102.3039  XXZ=            -58.5275  XZZ=            -28.0354  YZZ=              4.3992
  YYZ=             31.2543  XYZ=            -16.9458
 Hexadecapole moment (field-independent basis, Debye-Ang**3):
 XXXX=         -23498.5214 YYYY=          -3081.3832 ZZZZ=          -1871.4027 XXXY=           -600.6890
 XXXZ=            921.8291 YYYX=              5.8053 YYYZ=             26.3703 ZZZX=             52.4660
 ZZZY=            -37.8084 XXYY=          -4433.7684 XXZZ=          -4400.4691 YYZZ=           -855.9369
 XXYZ=           -191.5447 YYXZ=             30.5596 ZZXY=             30.1879
 N-N= 3.612090268457D+03 E-N=-1.123723837411D+04  KE= 1.702826083133D+03
 Calling FoFJK, ICntrl=      2127 FMM=T ISym2X=0 I1Cent= 0 IOpClX= 0 NMat=1 NMatS=1 NMatT=0.
 ***** Axes restored to original set *****
 -------------------------------------------------------------------
 Center     Atomic                   Forces (Hartrees/Bohr)
 Number     Number              X              Y              Z
 -------------------------------------------------------------------
      1        6           0.006306472   -0.002983540    0.003972764
      2        6          -0.008243492    0.007497035   -0.001272915
      3        6          -0.005534324    0.000319995   -0.006332253
      4        6          -0.006088078    0.017717036    0.012110093
      5        6          -0.011644796   -0.009242127   -0.023239626
      6        6           0.014861043   -0.019607563   -0.004388217
      7        6           0.014913884   -0.004188605    0.003011660
      8        6           0.001068610   -0.010013593   -0.003145783
      9        8          -0.010036856    0.007362374   -0.003460828
     10        6           0.020355470    0.008442503    0.032543799
     11        6          -0.001707197    0.004348369    0.005638661
     12        6           0.001857484   -0.021769286    0.013032127
     13        6          -0.003593670    0.000058737   -0.003318424
     14        6           0.004741452   -0.006334456   -0.006267413
     15        6          -0.002029125   -0.004419050    0.005557497
     16        8          -0.004463090    0.017587900    0.015359409
     17        8           0.004407453   -0.005064679   -0.000569010
     18        8          -0.016454846   -0.000281434   -0.018904934
     19        8           0.007376418    0.002450684   -0.009597293
     20        6          -0.007073910    0.013936932    0.009115989
     21        6           0.007468623   -0.015889701   -0.005945653
     22        6          -0.005073945   -0.006113988    0.012771158
     23        6           0.006665417    0.004808246    0.000791089
     24        6          -0.006345854   -0.005345649   -0.003328323
     25        6           0.006568706   -0.002835016   -0.001660388
     26        8          -0.001263234    0.002011322   -0.003525558
     27        8          -0.005252431   -0.001278872    0.004539034
     28        6           0.002276196   -0.008836660    0.001179009
     29        8           0.007343553    0.002146344    0.000330878
     30        8          -0.013836733    0.004101655   -0.001438697
     31        6          -0.000915750    0.010087953   -0.003283435
     32        6           0.012818595    0.018933680    0.001837761
     33        8          -0.002122808   -0.001742661   -0.005049199
     34        8          -0.013248621   -0.012086690    0.006717802
     35        1          -0.000628090    0.000700306   -0.000615104
     36        1          -0.000109080   -0.001588685   -0.003156306
     37        1          -0.003979543    0.002940457   -0.002855653
     38        1           0.002556733    0.001239171    0.000242002
     39        1           0.004157409    0.003093679    0.003030079
     40        1           0.002220991   -0.000969278   -0.001630955
     41        1          -0.000689805   -0.000962922   -0.002890515
     42        1           0.001842196    0.001145463   -0.004755095
     43        1           0.003189918   -0.002113152    0.000987413
     44        1          -0.000320282    0.004149073   -0.002425086
     45        1          -0.006646768    0.004986088   -0.001697616
     46        1          -0.000526391   -0.002131666   -0.001733483
     47        1           0.000234190    0.000411316    0.000484986
     48        1           0.002006279    0.011110326   -0.003415495
     49        1           0.005909993   -0.005628398   -0.005165245
     50        1           0.001659575   -0.000185570    0.001472673
     51        1           0.000031470    0.003931414    0.001217565
     52        1           0.000724213   -0.002453389    0.000296385
     53        1          -0.004041833    0.003100475   -0.001810903
     54        1          -0.000104386    0.003964727   -0.001544658
     55        1          -0.002418103   -0.005045429    0.001469706
     56        1           0.002810774   -0.001368246   -0.002169764
     57        1           0.002695239    0.000289102    0.002685853
     58        1          -0.004675319   -0.002392058    0.000198432
 -------------------------------------------------------------------
 Cartesian Forces:  Max     0.032543799 RMS     0.007467390

 GradGradGradGradGradGradGradGradGradGradGradGradGradGradGradGradGradGrad
 Berny optimization.
 Internal  Forces:  Max     0.028774741 RMS     0.004530855
 Search for a local minimum.
 Step number   1 out of a maximum of  340
 All quantities printed in internal units (Hartrees-Bohrs-Radians)
 Mixed Optimization -- RFO/linear search
 Second derivative matrix not updated -- first step.
 ITU=  0
     Eigenvalues ---    0.00230   0.00476   0.00498   0.00572   0.00584
     Eigenvalues ---    0.00701   0.00712   0.00877   0.01138   0.01171
     Eigenvalues ---    0.01177   0.01193   0.01202   0.01289   0.01296
     Eigenvalues ---    0.01324   0.01355   0.01366   0.01368   0.01417
     Eigenvalues ---    0.01529   0.01637   0.01721   0.01744   0.01790
     Eigenvalues ---    0.01900   0.02006   0.02024   0.02040   0.02072
     Eigenvalues ---    0.02110   0.02123   0.02127   0.02284   0.02348
     Eigenvalues ---    0.02736   0.03060   0.03323   0.03614   0.03955
     Eigenvalues ---    0.04377   0.04775   0.04860   0.04886   0.05179
     Eigenvalues ---    0.05375   0.05470   0.05750   0.05769   0.05905
     Eigenvalues ---    0.06146   0.06594   0.07096   0.07172   0.07253
     Eigenvalues ---    0.07472   0.08111   0.08124   0.08132   0.08384
     Eigenvalues ---    0.09534   0.09582   0.09804   0.09821   0.10111
     Eigenvalues ---    0.10192   0.10499   0.11940   0.11945   0.14407
     Eigenvalues ---    0.14612   0.16000   0.16000   0.16000   0.16000
     Eigenvalues ---    0.16000   0.16000   0.16000   0.16000   0.16000
     Eigenvalues ---    0.16000   0.16000   0.16000   0.16557   0.16722
     Eigenvalues ---    0.16938   0.18779   0.19264   0.19933   0.22966
     Eigenvalues ---    0.23528   0.24351   0.24966   0.24982   0.24987
     Eigenvalues ---    0.24992   0.24996   0.24997   0.24999   0.24999
     Eigenvalues ---    0.25000   0.25000   0.25000   0.25000   0.25000
     Eigenvalues ---    0.25000   0.25000   0.26553   0.27241   0.27648
     Eigenvalues ---    0.27714   0.27721   0.28055   0.28765   0.30659
     Eigenvalues ---    0.30822   0.31639   0.31952   0.32271   0.32699
     Eigenvalues ---    0.33273   0.33707   0.33790   0.33895   0.33905
     Eigenvalues ---    0.33983   0.34040   0.34076   0.34081   0.34162
     Eigenvalues ---    0.34217   0.34229   0.34231   0.34284   0.34292
     Eigenvalues ---    0.34295   0.34305   0.34411   0.34476   0.35090
     Eigenvalues ---    0.35346   0.38438   0.39327   0.39731   0.39901
     Eigenvalues ---    0.40810   0.41306   0.41646   0.43322   0.44414
     Eigenvalues ---    0.45141   0.45386   0.45987   0.49794   0.50323
     Eigenvalues ---    0.50724   0.50829   0.51484   0.52081   0.52100
     Eigenvalues ---    0.52706   0.53202   0.53426   0.53925   0.54932
     Eigenvalues ---    0.91693   0.94308   0.95159
 RFO step:  Lambda=-2.59722018D-02 EMin= 2.30000000D-03
 Linear search not attempted -- first point.
 Maximum step size (   0.300) exceeded in Quadratic search.
    -- Step size scaled by   0.996
 Iteration  1 RMS(Cart)=  0.04615619 RMS(Int)=  0.00110798
 Iteration  2 RMS(Cart)=  0.00218095 RMS(Int)=  0.00033549
 Iteration  3 RMS(Cart)=  0.00000413 RMS(Int)=  0.00033548
 Iteration  4 RMS(Cart)=  0.00000001 RMS(Int)=  0.00033548
 Variable       Old X    -DE/DX   Delta X   Delta X   Delta X     New X
                                 (Linear)    (Quad)   (Total)
    R1        2.63859   0.00527   0.00000   0.00999   0.01028   2.64888
    R2        2.64880  -0.00119   0.00000  -0.00241  -0.00249   2.64631
    R3        2.84232   0.00217   0.00000   0.00626   0.00626   2.84858
    R4        2.64182   0.00413   0.00000   0.00768   0.00804   2.64986
    R5        2.58396  -0.00430   0.00000  -0.00791  -0.00791   2.57605
    R6        2.65363  -0.00665   0.00000  -0.01399  -0.01391   2.63973
    R7        2.05117   0.00067   0.00000   0.00175   0.00175   2.05293
    R8        2.65100   0.00846   0.00000   0.01981   0.01920   2.67021
    R9        2.78712  -0.01046   0.00000  -0.02644  -0.02638   2.76074
   R10        2.66550   0.00426   0.00000   0.01128   0.00990   2.67541
   R11        2.79640  -0.01002   0.00000  -0.02502  -0.02619   2.77021
   R12        2.59821  -0.02877   0.00000  -0.05404  -0.05428   2.54392
   R13        2.53644   0.00491   0.00000   0.01012   0.01039   2.54682
   R14        2.85825  -0.00149   0.00000  -0.00378  -0.00382   2.85443
   R15        2.65870  -0.02016   0.00000  -0.04404  -0.04372   2.61499
   R16        2.83619  -0.00426   0.00000  -0.00864  -0.00872   2.82747
   R17        2.57086  -0.00193   0.00000  -0.00430  -0.00433   2.56653
   R18        2.32066  -0.00143   0.00000  -0.00169  -0.00158   2.31909
   R19        2.94244  -0.00855   0.00000  -0.03325  -0.03313   2.90930
   R20        2.07359  -0.00216   0.00000  -0.00588  -0.00588   2.06771
   R21        2.07827  -0.00081   0.00000  -0.00223  -0.00223   2.07604
   R22        2.91431  -0.00030   0.00000  -0.00369  -0.00369   2.91062
   R23        2.72478  -0.00413   0.00000  -0.00981  -0.00981   2.71497
   R24        2.92915  -0.00505   0.00000  -0.01661  -0.01661   2.91254
   R25        2.88782   0.00376   0.00000   0.01040   0.01049   2.89831
   R26        2.07058  -0.00140   0.00000  -0.00379  -0.00379   2.06679
   R27        2.07686  -0.00178   0.00000  -0.00487  -0.00487   2.07199
   R28        2.07263   0.00003   0.00000   0.00009   0.00009   2.07272
   R29        2.07201   0.00193   0.00000   0.00523   0.00523   2.07725
   R30        2.06946  -0.00108   0.00000  -0.00293  -0.00293   2.06653
   R31        2.06819   0.00155   0.00000   0.00418   0.00418   2.07237
   R32        2.06854  -0.00114   0.00000  -0.00309  -0.00309   2.06545
   R33        1.85750   0.00474   0.00000   0.00788   0.00883   1.86634
   R34        1.83466  -0.00166   0.00000  -0.00296  -0.00296   1.83170
   R35        3.23337   0.00340   0.00000   0.02788   0.02895   3.26231
   R36        2.71920   0.00113   0.00000   0.00266   0.00266   2.72186
   R37        2.90439  -0.00547   0.00000  -0.01526  -0.01528   2.88910
   R38        2.90958  -0.00122   0.00000  -0.00615  -0.00613   2.90345
   R39        2.06965  -0.00063   0.00000  -0.00170  -0.00170   2.06795
   R40        2.90414  -0.00811   0.00000  -0.02635  -0.02632   2.87782
   R41        2.71688  -0.00340   0.00000  -0.00797  -0.00797   2.70891
   R42        2.07491   0.00054   0.00000   0.00149   0.00149   2.07640
   R43        2.82480   0.00334   0.00000   0.01031   0.01031   2.83510
   R44        2.69377   0.00641   0.00000   0.01443   0.01443   2.70820
   R45        2.07194   0.00494   0.00000   0.01341   0.01341   2.08535
   R46        2.54560  -0.00496   0.00000  -0.00822  -0.00824   2.53736
   R47        2.05529  -0.00167   0.00000  -0.00442  -0.00442   2.05087
   R48        2.85248   0.00223   0.00000   0.00591   0.00589   2.85837
   R49        2.81875   0.00088   0.00000   0.00243   0.00243   2.82118
   R50        2.06941  -0.00060   0.00000  -0.00163  -0.00163   2.06778
   R51        2.07507  -0.00010   0.00000  -0.00026  -0.00026   2.07481
   R52        1.84522  -0.00535   0.00000  -0.00975  -0.00975   1.83547
   R53        1.84503  -0.00407   0.00000  -0.00741  -0.00741   1.83763
   R54        2.56100  -0.00306   0.00000  -0.00538  -0.00538   2.55562
   R55        2.31008  -0.01254   0.00000  -0.01288  -0.01288   2.29720
   R56        2.69817   0.00463   0.00000   0.01051   0.01051   2.70867
   R57        2.06642  -0.00110   0.00000  -0.00295  -0.00295   2.06346
   R58        2.06840  -0.00082   0.00000  -0.00222  -0.00222   2.06618
   R59        2.06835  -0.00070   0.00000  -0.00189  -0.00189   2.06646
   R60        2.55192   0.00675   0.00000   0.01168   0.01168   2.56360
   R61        2.30643  -0.01564   0.00000  -0.01593  -0.01593   2.29050
   R62        1.85738  -0.00452   0.00000  -0.00842  -0.00842   1.84896
    A1        2.05859  -0.00375   0.00000  -0.01238  -0.01280   2.04579
    A2        2.11605   0.00328   0.00000   0.01148   0.01167   2.12771
    A3        2.10751   0.00049   0.00000   0.00138   0.00156   2.10908
    A4        2.11945   0.00431   0.00000   0.01513   0.01515   2.13460
    A5        2.07416  -0.00959   0.00000  -0.03438  -0.03440   2.03977
    A6        2.08958   0.00528   0.00000   0.01925   0.01924   2.10881
    A7        2.10908  -0.00344   0.00000  -0.01302  -0.01320   2.09589
    A8        2.06885   0.00258   0.00000   0.01109   0.01118   2.08003
    A9        2.10525   0.00086   0.00000   0.00193   0.00202   2.10727
   A10        2.06252   0.00403   0.00000   0.01476   0.01435   2.07687
   A11        2.13321   0.00434   0.00000   0.01052   0.01135   2.14456
   A12        2.08745  -0.00837   0.00000  -0.02529  -0.02572   2.06173
   A13        2.10398  -0.00385   0.00000  -0.01511  -0.01427   2.08971
   A14        2.09008   0.00239   0.00000   0.00875   0.00960   2.09969
   A15        2.08911   0.00147   0.00000   0.00637   0.00468   2.09378
   A16        2.11242   0.00271   0.00000   0.01076   0.01089   2.12331
   A17        2.03714   0.00310   0.00000   0.00652   0.00823   2.04536
   A18        2.13363  -0.00581   0.00000  -0.01728  -0.01912   2.11452
   A19        2.05684   0.00354   0.00000   0.01429   0.01423   2.07108
   A20        2.10979  -0.00145   0.00000  -0.00846  -0.00836   2.10143
   A21        2.11655  -0.00209   0.00000  -0.00583  -0.00589   2.11067
   A22        2.14841   0.00173   0.00000   0.00220   0.00239   2.15080
   A23        2.16037   0.00670   0.00000   0.03130   0.03109   2.19147
   A24        1.97434  -0.00842   0.00000  -0.03341  -0.03343   1.94091
   A25        2.13356  -0.00061   0.00000  -0.00441  -0.00484   2.12872
   A26        2.04915   0.00133   0.00000   0.00468   0.00452   2.05367
   A27        2.10511   0.02449   0.00000   0.09101   0.08986   2.19497
   A28        2.12888  -0.02582   0.00000  -0.09567  -0.09436   2.03452
   A29        2.01728  -0.00176   0.00000  -0.02032  -0.02025   1.99703
   A30        1.92765  -0.00055   0.00000  -0.00552  -0.00581   1.92183
   A31        1.88107   0.00471   0.00000   0.03852   0.03826   1.91933
   A32        1.88767   0.00067   0.00000  -0.00151  -0.00175   1.88592
   A33        1.90181  -0.00419   0.00000  -0.02565  -0.02543   1.87639
   A34        1.84015   0.00132   0.00000   0.01764   0.01747   1.85762
   A35        1.88456   0.00329   0.00000   0.02806   0.02792   1.91248
   A36        1.82572  -0.00289   0.00000  -0.01051  -0.01157   1.81415
   A37        1.88276   0.00173   0.00000   0.00264   0.00235   1.88511
   A38        1.91469   0.00488   0.00000   0.03594   0.03581   1.95050
   A39        1.95705  -0.00218   0.00000  -0.00468  -0.00463   1.95241
   A40        1.99121  -0.00448   0.00000  -0.04843  -0.04837   1.94284
   A41        1.96476   0.00243   0.00000   0.00032   0.00051   1.96527
   A42        1.95310  -0.00021   0.00000  -0.00280  -0.00275   1.95034
   A43        1.90151  -0.00486   0.00000  -0.03288  -0.03299   1.86852
   A44        1.89793  -0.00192   0.00000   0.00073   0.00053   1.89847
   A45        1.90857   0.00236   0.00000   0.01387   0.01375   1.92232
   A46        1.83305   0.00225   0.00000   0.02275   0.02263   1.85567
   A47        1.97772  -0.00819   0.00000  -0.03321  -0.03301   1.94471
   A48        1.91171   0.00146   0.00000  -0.00192  -0.00171   1.91000
   A49        1.89539   0.00290   0.00000   0.01552   0.01551   1.91090
   A50        1.89308   0.00413   0.00000   0.02137   0.02113   1.91421
   A51        1.92113   0.00247   0.00000   0.01185   0.01194   1.93307
   A52        1.86128  -0.00249   0.00000  -0.01273  -0.01286   1.84842
   A53        1.93902  -0.00145   0.00000  -0.00644  -0.00639   1.93262
   A54        1.91789   0.00459   0.00000   0.02008   0.02015   1.93804
   A55        1.95280  -0.00359   0.00000  -0.01605  -0.01599   1.93681
   A56        1.90360  -0.00329   0.00000  -0.02364  -0.02359   1.88001
   A57        1.85352   0.00488   0.00000   0.03461   0.03464   1.88816
   A58        1.89515  -0.00125   0.00000  -0.00907  -0.00899   1.88616
   A59        1.90863  -0.01912   0.00000  -0.09849  -0.09938   1.80924
   A60        1.91634  -0.00398   0.00000  -0.02133  -0.02133   1.89501
   A61        2.05357   0.01053   0.00000   0.03798   0.03798   2.09155
   A62        1.86689  -0.00228   0.00000  -0.01497  -0.01520   1.85169
   A63        1.92730   0.00124   0.00000   0.01546   0.01552   1.94282
   A64        1.93377  -0.00009   0.00000  -0.00864  -0.00877   1.92499
   A65        1.90732   0.00319   0.00000   0.01907   0.01904   1.92636
   A66        1.89361  -0.00145   0.00000  -0.00729  -0.00737   1.88623
   A67        1.93329  -0.00065   0.00000  -0.00392  -0.00381   1.92948
   A68        1.92922   0.00357   0.00000   0.01383   0.01402   1.94324
   A69        1.92251   0.00465   0.00000   0.02615   0.02617   1.94869
   A70        1.93162  -0.00366   0.00000  -0.02039  -0.02118   1.91045
   A71        1.90224  -0.00842   0.00000  -0.04189  -0.04190   1.86033
   A72        1.93161  -0.00163   0.00000  -0.03533  -0.03518   1.89643
   A73        1.84474   0.00547   0.00000   0.05896   0.05851   1.90324
   A74        1.97254  -0.00314   0.00000  -0.01650  -0.01679   1.95575
   A75        1.90414   0.00488   0.00000   0.02717   0.02728   1.93142
   A76        1.92954  -0.00404   0.00000  -0.03785  -0.03822   1.89132
   A77        1.88515  -0.00099   0.00000  -0.00127  -0.00111   1.88403
   A78        1.90545   0.00184   0.00000   0.00193   0.00104   1.90649
   A79        1.86332   0.00182   0.00000   0.03025   0.03056   1.89388
   A80        2.14879   0.00137   0.00000   0.00977   0.00975   2.15853
   A81        2.01709   0.00014   0.00000  -0.00044  -0.00043   2.01666
   A82        2.11731  -0.00151   0.00000  -0.00933  -0.00931   2.10799
   A83        2.13298   0.00215   0.00000   0.00944   0.00939   2.14238
   A84        2.13913  -0.00203   0.00000  -0.00816  -0.00815   2.13097
   A85        2.01099  -0.00011   0.00000  -0.00118  -0.00117   2.00982
   A86        1.98822  -0.00562   0.00000  -0.02726  -0.02724   1.96098
   A87        1.89545   0.00452   0.00000   0.03228   0.03230   1.92775
   A88        1.91178  -0.00025   0.00000  -0.00985  -0.00980   1.90198
   A89        1.91499   0.00016   0.00000  -0.00676  -0.00653   1.90846
   A90        1.90103   0.00290   0.00000   0.01858   0.01839   1.91942
   A91        1.84712  -0.00145   0.00000  -0.00565  -0.00561   1.84151
[...]
     55          1           0       -8.923007    2.121628   -1.285440
     56          1           0       -7.683963    3.404508   -1.079336
     57          1           0       -7.641004    2.361065   -2.519545
     58          1           0       -1.364931   -0.095536   -3.099948
 ---------------------------------------------------------------------
 Rotational constants (GHZ):      0.2543940      0.0487738      0.0468060

 **********************************************************************

            Population analysis using the SCF density.

 **********************************************************************

 Orbital symmetries:
       Occupied  (A) (A) (A) (A) (A) (A) (A) (A) (A) (A) (A) (A)
                 (A) (A) (A) (A) (A) (A) (A) (A) (A) (A) (A) (A)
                 (A) (A) (A) (A) (A) (A) (A) (A) (A) (A) (A) (A)
                 (A) (A) (A) (A) (A) (A) (A) (A) (A) (A) (A) (A)
                 (A) (A) (A) (A) (A) (A) (A) (A) (A) (A) (A) (A)
                 (A) (A) (A) (A) (A) (A) (A) (A) (A) (A) (A) (A)
                 (A) (A) (A) (A) (A) (A) (A) (A) (A) (A) (A) (A)
                 (A) (A) (A) (A) (A) (A) (A) (A) (A) (A) (A) (A)
                 (A) (A) (A) (A) (A) (A) (A) (A) (A) (A) (A) (A)
                 (A) (A) (A) (A) (A) (A) (A) (A) (A) (A) (A) (A)
                 (A) (A) (A) (A) (A)
       Virtual   (A) (A) (A) (A) (A) (A) (A) (A) (A) (A) (A) (A)
                 (A) (A) (A) (A) (A) (A) (A) (A) (A) (A) (A) (A)
                 (A) (A) (A) (A) (A) (A) (A) (A) (A) (A) (A) (A)
                 (A) (A) (A) (A) (A) (A) (A) (A) (A) (A) (A) (A)
                 (A) (A) (A) (A) (A) (A) (A) (A) (A) (A) (A) (A)
                 (A) (A) (A) (A) (A) (A) (A) (A) (A) (A) (A) (A)
                 (A) (A) (A) (A) (A) (A) (A) (A) (A) (A) (A) (A)
                 (A) (A) (A) (A) (A) (A) (A) (A) (A) (A) (A) (A)
                 (A) (A) (A) (A) (A) (A) (A) (A) (A) (A) (A) (A)
                 (A) (A) (A) (A) (A) (A) (A) (A) (A) (A) (A) (A)
                 (A) (A) (A) (A) (A) (A) (A) (A) (A) (A) (A) (A)
                 (A) (A) (A) (A) (A) (A) (A) (A) (A) (A) (A) (A)
                 (A) (A) (A) (A) (A) (A) (A) (A) (A) (A) (A) (A)
                 (A) (A) (A) (A) (A) (A) (A) (A) (A) (A) (A) (A)
                 (A) (A) (A) (A) (A) (A) (A) (A) (A) (A) (A) (A)
                 (A) (A) (A) (A) (A) (A) (A) (A) (A) (A) (A) (A)
                 (A) (A) (A) (A) (A) (A) (A) (A) (A) (A) (A) (A)
                 (A) (A) (A) (A) (A) (A) (A) (A) (A) (A) (A) (A)
                 (A) (A) (A) (A) (A) (A) (A) (A) (A) (A) (A) (A)
                 (A) (A) (A) (A) (A) (A) (A) (A) (A) (A) (A) (A)
                 (A) (A) (A) (A) (A) (A) (A) (A) (A) (A) (A) (A)
                 (A) (A) (A) (A) (A) (A) (A) (A) (A) (A) (A) (A)
                 (A) (A) (A) (A) (A) (A) (A) (A) (A) (A) (A) (A)
                 (A) (A) (A) (A) (A) (A) (A) (A) (A) (A) (A) (A)
                 (A) (A) (A) (A) (A) (A) (A) (A) (A) (A) (A) (A)
                 (A) (A) (A) (A) (A) (A) (A) (A) (A) (A) (A) (A)
                 (A) (A) (A) (A) (A) (A) (A) (A) (A) (A) (A) (A)
                 (A) (A) (A) (A) (A) (A) (A) (A) (A) (A) (A) (A)
                 (A) (A) (A) (A) (A) (A) (A) (A) (A) (A) (A) (A)
                 (A) (A) (A) (A) (A) (A) (A) (A) (A) (A) (A) (A)
                 (A) (A) (A) (A) (A) (A) (A) (A) (A) (A) (A) (A)
                 (A) (A) (A) (A) (A) (A) (A) (A) (A) (A) (A) (A)
                 (A) (A) (A) (A) (A) (A) (A) (A) (A) (A) (A) (A)
                 (A) (A) (A) (A) (A) (A) (A) (A) (A) (A) (A) (A)
                 (A) (A) (A) (A) (A) (A) (A) (A) (A) (A) (A) (A)
                 (A) (A) (A) (A) (A) (A) (A) (A) (A) (A) (A) (A)
                 (A)
 The electronic state is 1-A.
 Alpha  occ. eigenvalues --  -19.22307 -19.21999 -19.19730 -19.19576 -19.18158
 Alpha  occ. eigenvalues --  -19.16816 -19.16475 -19.16359 -19.15206 -19.14137
 Alpha  occ. eigenvalues --  -19.14047 -10.34115 -10.32674 -10.32030 -10.28335
 Alpha  occ. eigenvalues --  -10.27179 -10.26713 -10.26544 -10.25629 -10.25339
 Alpha  occ. eigenvalues --  -10.24768 -10.24523 -10.22498 -10.21812 -10.21542
 Alpha  occ. eigenvalues --  -10.21484 -10.21208 -10.21192 -10.21061 -10.20582
 Alpha  occ. eigenvalues --  -10.20160 -10.19651 -10.19608 -10.17574  -1.13071
 Alpha  occ. eigenvalues --   -1.12393  -1.10637  -1.07727  -1.06378  -1.06243
 Alpha  occ. eigenvalues --   -1.04187  -1.03822  -1.02727  -1.02037  -1.01734
 Alpha  occ. eigenvalues --   -0.87932  -0.86222  -0.84906  -0.80633  -0.79113
 Alpha  occ. eigenvalues --   -0.76941  -0.76355  -0.75492  -0.74702  -0.72337
 Alpha  occ. eigenvalues --   -0.69917  -0.69131  -0.66635  -0.65740  -0.64699
 Alpha  occ. eigenvalues --   -0.64235  -0.62860  -0.61364  -0.59145  -0.58315
 Alpha  occ. eigenvalues --   -0.56992  -0.56008  -0.54803  -0.54386  -0.53780
 Alpha  occ. eigenvalues --   -0.52656  -0.51768  -0.51417  -0.50757  -0.49264
 Alpha  occ. eigenvalues --   -0.49077  -0.48622  -0.48154  -0.48002  -0.47629
 Alpha  occ. eigenvalues --   -0.47123  -0.46372  -0.45743  -0.45485  -0.44550
 Alpha  occ. eigenvalues --   -0.43966  -0.43916  -0.43775  -0.43529  -0.43194
 Alpha  occ. eigenvalues --   -0.42612  -0.42365  -0.41505  -0.41367  -0.40767
 Alpha  occ. eigenvalues --   -0.40427  -0.40077  -0.39485  -0.39134  -0.38775
 Alpha  occ. eigenvalues --   -0.38543  -0.38272  -0.37811  -0.37498  -0.37087
 Alpha  occ. eigenvalues --   -0.36433  -0.35635  -0.35384  -0.34983  -0.34866
 Alpha  occ. eigenvalues --   -0.34244  -0.33781  -0.33671  -0.33477  -0.30684
 Alpha  occ. eigenvalues --   -0.30639  -0.29111  -0.28828  -0.28278  -0.27805
 Alpha  occ. eigenvalues --   -0.27602  -0.26318  -0.26148  -0.23458  -0.21516
 Alpha virt. eigenvalues --   -0.04892  -0.04658  -0.02727  -0.02262   0.03769
 Alpha virt. eigenvalues --    0.04682   0.05317   0.05502   0.06710   0.06967
 Alpha virt. eigenvalues --    0.08632   0.09265   0.10157   0.10346   0.10759
 Alpha virt. eigenvalues --    0.11284   0.11988   0.12381   0.12685   0.13085
 Alpha virt. eigenvalues --    0.13822   0.14823   0.14943   0.15312   0.15423
 Alpha virt. eigenvalues --    0.15786   0.16282   0.16491   0.16769   0.17106
 Alpha virt. eigenvalues --    0.17643   0.18004   0.18197   0.18549   0.18791
 Alpha virt. eigenvalues --    0.19790   0.19927   0.20747   0.20999   0.21647
 Alpha virt. eigenvalues --    0.21867   0.22605   0.22754   0.24451   0.25200
 Alpha virt. eigenvalues --    0.25397   0.25991   0.26303   0.26905   0.28087
 Alpha virt. eigenvalues --    0.28674   0.29593   0.30041   0.31151   0.31896
 Alpha virt. eigenvalues --    0.32688   0.33265   0.34331   0.36029   0.36695
 Alpha virt. eigenvalues --    0.39187   0.39535   0.40873   0.41165   0.42865
 Alpha virt. eigenvalues --    0.43870   0.45929   0.46883   0.47297   0.49311
 Alpha virt. eigenvalues --    0.49989   0.50419   0.50918   0.51333   0.51717
 Alpha virt. eigenvalues --    0.52273   0.52913   0.53099   0.53407   0.53790
 Alpha virt. eigenvalues --    0.54787   0.55445   0.55611   0.55648   0.56215
 Alpha virt. eigenvalues --    0.56311   0.57563   0.57842   0.58328   0.58644
 Alpha virt. eigenvalues --    0.59287   0.59481   0.60130   0.60716   0.61346
 Alpha virt. eigenvalues --    0.62276   0.62676   0.63184   0.63323   0.63961
 Alpha virt. eigenvalues --    0.64422   0.64620   0.65221   0.66105   0.66577
 Alpha virt. eigenvalues --    0.67584   0.68128   0.68940   0.69785   0.70485
 Alpha virt. eigenvalues --    0.70504   0.70937   0.71517   0.72219   0.72363
 Alpha virt. eigenvalues --    0.73301   0.73556   0.74715   0.74889   0.76051
 Alpha virt. eigenvalues --    0.76278   0.76786   0.77743   0.78311   0.79129
 Alpha virt. eigenvalues --    0.79278   0.80432   0.81007   0.82056   0.82495
 Alpha virt. eigenvalues --    0.83055   0.83146   0.83410   0.83736   0.84296
 Alpha virt. eigenvalues --    0.84479   0.85577   0.85979   0.86329   0.87151
 Alpha virt. eigenvalues --    0.87658   0.87929   0.88307   0.90153   0.90476
 Alpha virt. eigenvalues --    0.91041   0.91608   0.92060   0.92662   0.92844
 Alpha virt. eigenvalues --    0.92919   0.93422   0.93772   0.94540   0.95385
 Alpha virt. eigenvalues --    0.95889   0.96312   0.96962   0.97446   0.97610
 Alpha virt. eigenvalues --    0.98090   0.98336   0.99170   0.99362   0.99596
 Alpha virt. eigenvalues --    1.00232   1.01292   1.01573   1.02903   1.03450
 Alpha virt. eigenvalues --    1.03627   1.04384   1.04483   1.05656   1.06598
 Alpha virt. eigenvalues --    1.07125   1.07496   1.09131   1.09262   1.10374
 Alpha virt. eigenvalues --    1.10937   1.11674   1.12685   1.13545   1.14249
 Alpha virt. eigenvalues --    1.16209   1.17603   1.18760   1.18884   1.20296
 Alpha virt. eigenvalues --    1.20734   1.21917   1.22670   1.23362   1.24542
 Alpha virt. eigenvalues --    1.24716   1.25290   1.27156   1.27557   1.28730
 Alpha virt. eigenvalues --    1.30499   1.30748   1.32412   1.33348   1.33833
 Alpha virt. eigenvalues --    1.34065   1.34604   1.35936   1.36848   1.37276
 Alpha virt. eigenvalues --    1.37492   1.38206   1.38709   1.39293   1.40953
 Alpha virt. eigenvalues --    1.41502   1.42620   1.43063   1.43075   1.43939
 Alpha virt. eigenvalues --    1.45037   1.46578   1.47745   1.50274   1.50589
 Alpha virt. eigenvalues --    1.51053   1.54041   1.55040   1.57393   1.58837
 Alpha virt. eigenvalues --    1.59901   1.60410   1.62440   1.63395   1.64802
 Alpha virt. eigenvalues --    1.65243   1.66386   1.66572   1.67525   1.68874
 Alpha virt. eigenvalues --    1.69585   1.70415   1.70419   1.70956   1.71379
 Alpha virt. eigenvalues --    1.71730   1.72256   1.73300   1.73779   1.74005
 Alpha virt. eigenvalues --    1.74319   1.74775   1.75632   1.76239   1.76436
 Alpha virt. eigenvalues --    1.77434   1.78962   1.80201   1.81127   1.81341
 Alpha virt. eigenvalues --    1.81407   1.82046   1.82781   1.83396   1.84045
 Alpha virt. eigenvalues --    1.84128   1.84727   1.85136   1.85280   1.85966
 Alpha virt. eigenvalues --    1.86679   1.87304   1.87941   1.88286   1.88456
 Alpha virt. eigenvalues --    1.90539   1.91549   1.91954   1.92008   1.92799
 Alpha virt. eigenvalues --    1.93788   1.94222   1.94873   1.95567   1.96298
 Alpha virt. eigenvalues --    1.96713   1.97369   1.98073   1.99239   1.99608
 Alpha virt. eigenvalues --    2.00510   2.01747   2.02987   2.03083   2.03476
 Alpha virt. eigenvalues --    2.04985   2.05831   2.06047   2.06924   2.07413
 Alpha virt. eigenvalues --    2.08623   2.08804   2.09630   2.10051   2.10352
 Alpha virt. eigenvalues --    2.11821   2.12541   2.13409   2.15501   2.16970
 Alpha virt. eigenvalues --    2.17768   2.19281   2.20457   2.20685   2.22472
 Alpha virt. eigenvalues --    2.23242   2.23843   2.24411   2.26320   2.26434
 Alpha virt. eigenvalues --    2.28640   2.29013   2.29452   2.29897   2.30662
 Alpha virt. eigenvalues --    2.31361   2.32237   2.32606   2.33811   2.33848
 Alpha virt. eigenvalues --    2.34777   2.35830   2.37060   2.37999   2.38212
 Alpha virt. eigenvalues --    2.39725   2.41022   2.41318   2.43349   2.43552
 Alpha virt. eigenvalues --    2.44734   2.45560   2.46845   2.47509   2.47746
 Alpha virt. eigenvalues --    2.49242   2.51804   2.52271   2.52891   2.54204
 Alpha virt. eigenvalues --    2.54253   2.54737   2.55237   2.56877   2.57358
 Alpha virt. eigenvalues --    2.57523   2.59822   2.62753   2.63558   2.65982
 Alpha virt. eigenvalues --    2.66328   2.67003   2.68917   2.69212   2.69863
 Alpha virt. eigenvalues --    2.70297   2.71306   2.72427   2.74235   2.75199
 Alpha virt. eigenvalues --    2.76351   2.77088   2.78021   2.79985   2.82040
 Alpha virt. eigenvalues --    2.83126   2.85154   2.86203   2.88445   2.89867
 Alpha virt. eigenvalues --    2.91193   2.93596   2.95132   2.96865   2.97314
 Alpha virt. eigenvalues --    2.98355   3.00707   3.02721   3.05579   3.07381
 Alpha virt. eigenvalues --    3.08648   3.10004   3.12762   3.14810   3.16998
 Alpha virt. eigenvalues --    3.22164   3.23523   3.43865   3.50373   3.77052
 Alpha virt. eigenvalues --    3.88245   3.90928   3.95229   3.96216   4.00059
 Alpha virt. eigenvalues --    4.06260   4.07164   4.10954   4.13049   4.18100
 Alpha virt. eigenvalues --    4.18950   4.20666   4.23222   4.24696   4.25057
 Alpha virt. eigenvalues --    4.27508   4.31045   4.34062   4.35205   4.36508
 Alpha virt. eigenvalues --    4.41356   4.48143   4.50039   4.51536   4.53068
 Alpha virt. eigenvalues --    4.56363   4.57185   4.60860   4.64489   4.69916
 Alpha virt. eigenvalues --    4.74051   4.80235   4.88281
          Condensed to atoms (all electrons):
 Mulliken atomic charges:
              1
     1  C    0.099044
     2  C    0.321327
     3  C   -0.300562
     4  C    0.135105
     5  C   -0.060958
     6  C    0.239206
     7  C    0.061040
     8  C    0.281660
     9  O   -0.498939
    10  C    0.597047
    11  C   -0.377226
    12  C    0.257389
    13  C   -0.294597
    14  C   -0.363186
    15  C   -0.517825
    16  O   -0.655795
    17  O   -0.633802
    18  O   -0.535130
    19  O   -0.560547
    20  C    0.113827
    21  C    0.095147
    22  C    0.108355
    23  C   -0.159055
    24  C    0.055725
    25  C   -0.348994
    26  O   -0.656501
    27  O   -0.637527
    28  C    0.601613
    29  O   -0.465233
    30  O   -0.489577
    31  C   -0.216863
    32  C    0.600770
    33  O   -0.578768
    34  O   -0.456035
    35  H    0.123874
    36  H    0.191987
    37  H    0.160864
    38  H    0.171342
    39  H    0.149426
    40  H    0.179064
    41  H    0.183469
    42  H    0.184042
    43  H    0.166145
    44  H    0.164871
    45  H    0.447832
    46  H    0.414865
    47  H    0.152037
    48  H    0.137276
    49  H    0.141207
    50  H    0.178844
    51  H    0.174687
    52  H    0.176469
    53  H    0.405885
    54  H    0.407459
    55  H    0.166561
    56  H    0.172732
    57  H    0.170280
    58  H    0.418645
 Sum of Mulliken atomic charges =   0.00000
 Mulliken charges with hydrogens summed into heavy atoms:
              1
     1  C    0.099044
     2  C    0.321327
     3  C   -0.176689
     4  C    0.135105
     5  C   -0.060958
     6  C    0.239206
     7  C    0.061040
     8  C    0.281660
     9  O   -0.498939
    10  C    0.597047
    11  C   -0.024375
    12  C    0.257389
    13  C    0.026170
    14  C   -0.000653
    15  C   -0.002767
    16  O   -0.207963
    17  O   -0.218937
    18  O   -0.535130
    19  O   -0.560547
    20  C    0.265864
    21  C    0.232424
    22  C    0.249563
    23  C    0.019790
    24  C    0.055725
    25  C    0.002163
    26  O   -0.250616
    27  O   -0.230069
    28  C    0.601613
    29  O   -0.465233
    30  O   -0.489577
    31  C    0.292711
    32  C    0.600770
    33  O   -0.160122
    34  O   -0.456035
 Sum of Mulliken charges with hydrogens summed into heavy atoms =   0.00000
 Electronic spatial extent (au):  <R**2>=          22462.1111
 Charge=              0.0000 electrons
 Dipole moment (field-independent basis, Debye):
    X=             -4.6669    Y=              0.0219    Z=              1.2651  Tot=              4.8354
 Quadrupole moment (field-independent basis, Debye-Ang):
   XX=           -217.8257   YY=           -196.2966   ZZ=           -187.9853
   XY=              6.2486   XZ=             20.4537   YZ=              4.1040
 Traceless Quadrupole moment (field-independent basis, Debye-Ang):
   XX=            -17.1232   YY=              4.4060   ZZ=             12.7172
   XY=              6.2486   XZ=             20.4537   YZ=              4.1040
 Octapole moment (field-independent basis, Debye-Ang**2):
  XXX=           -382.6396  YYY=              4.8923  ZZZ=            -20.7611  XYY=            -36.8445
  XXY=            111.1300  XXZ=            -47.0622  XZZ=            -26.8446  YZZ=              7.1651
  YYZ=             36.1886  XYZ=            -17.8765
 Hexadecapole moment (field-independent basis, Debye-Ang**3):
 XXXX=         -23454.3350 YYYY=          -3074.0400 ZZZZ=          -1789.6791 XXXY=           -560.2138
 XXXZ=            899.1614 YYYX=             43.1222 YYYZ=             22.2306 ZZZX=             66.3905
 ZZZY=            -34.9589 XXYY=          -4461.5992 XXZZ=          -4385.8359 YYZZ=           -834.0393
 XXYZ=           -165.0852 YYXZ=             38.2555 ZZXY=             43.3953
 N-N= 3.623234328622D+03 E-N=-1.125982479555D+04  KE= 1.703118167451D+03
 1\1\GINC-B0600\FOpt\RB3LYP\6-31G(d)\C23H24O11\CAOFEI\02-Feb-2021\0\\# 
 opt b3lyp/6-31g(d) geom=connectivity\\Title Card Required\\0,1\C,4.711
 8510958,-3.5479084672,2.5269131516\C,3.9769875481,-2.4287252447,2.9472
 105288\C,2.8695798654,-1.9361934002,2.2456735595\C,2.4564025754,-2.564
 8273108,1.0710786556\C,3.1730004106,-3.7032818883,0.6156270892\C,4.297
 6024606,-4.1842512247,1.3492594884\C,1.3165049461,-2.115435777,0.28475
 16761\C,0.9790125375,-2.8091255832,-0.8251731616\O,1.6779592351,-3.903
 8663078,-1.261745834\C,2.776731302,-4.3875280482,-0.5913926391\C,0.514
 3175389,-0.9037172455,0.7084168566\C,-0.3753352614,-0.336008159,-0.406
 76259\C,-1.1312321112,-1.4772357076,-1.1059006768\C,-0.169474907,-2.49
 36047092,-1.7360928029\C,5.8975942267,-4.0319944509,3.3194913633\O,4.9
 885109582,-5.2574756912,0.9316817918\O,4.4038681852,-1.8338015953,4.09
 60502835\O,3.3277892822,-5.3726983927,-1.07894548\O,-1.2678330511,0.56
 29806152,0.2757375181\C,-2.1685467333,1.3941275574,-0.4804593782\C,-3.
 5163650167,1.3414858999,0.2396374728\C,-4.5707829411,2.1059103089,-0.5
 558897089\C,-4.0696665975,3.4665018265,-0.9506379326\C,-2.7675960872,3
 .7940112821,-0.9696775556\C,-1.6666831098,2.841119447,-0.5467865932\O,
 -3.9955685964,0.0113904083,0.3911469742\O,-5.7725174861,2.2617187126,0
 .1872534924\C,-2.3046776042,5.1428123331,-1.4037733438\O,-3.3161298133
 ,5.9860839413,-1.7089395016\O,-1.1314524594,5.4574782966,-1.4769106033
 \C,-2.9139913156,7.2992465446,-2.127450889\C,0.5116857929,0.4929945792
 ,-1.369774566\O,0.0024979157,0.5562883112,-2.6264806368\O,1.5221696459
 ,1.0739599573,-1.0519595614\H,2.3437613829,-1.0653053149,2.6252238582\
 H,1.1822743714,-0.1039351227,1.0385770539\H,-0.1397353431,-1.149050933
 5,1.5555246139\H,-1.8165385928,-1.0959374241,-1.8658723746\H,-1.740275
 7012,-1.96978457,-0.3385231099\H,-0.7010688295,-3.4235376019,-1.971167
 1373\H,0.2175829671,-2.1187566458,-2.6931352477\H,6.3736099556,-4.8763
 069121,2.8196021813\H,6.6373614638,-3.2330461336,3.4456472712\H,5.5974
 58929,-4.3456869827,4.3266785312\H,4.5636911278,-5.5713713276,0.091025
 4778\H,3.8441409725,-1.063707213,4.2828966532\H,-2.2952574912,0.991000
 3912,-1.4914201845\H,-3.4121476652,1.8262959904,1.2232689827\H,-4.7753
 636464,1.5244171516,-1.4743561469\H,-4.8249569378,4.1885116901,-1.2445
 28499\H,-0.8158116597,2.9384207455,-1.2269611107\H,-1.2865684805,3.128
 1129267,0.4429528241\H,-3.3155656435,-0.4611280431,0.8979996862\H,-6.0
 244078859,1.36708116,0.4715660141\H,-3.840877495,7.8378806469,-2.32651
 18653\H,-2.3420775889,7.7956149875,-1.3389360922\H,-2.2990889773,7.244
 5603687,-3.0298861499\H,0.6036483169,1.1352272986,-3.1348416469\\Versi
 on=EM64L-G09RevB.01\State=1-A\HF=-1718.3704455\RMSD=7.418e-09\RMSF=1.3
 31e-06\Dipole=-1.4259047,1.2589677,0.0293592\Quadrupole=-9.3404613,-7.
 0789597,16.419421,10.3902526,5.4357441,-7.2289067\PG=C01 [X(C23H24O11)
 ]\\@


 THERE IS AN OLD, OLD RECIPE IN MAINE FOR STEWING COOT. PLACE THE
 BIRD IN A KETTLE OF WATER WITH A RED BUILDING BRICK FREE OF MORTAR AND
 BLEMISHES. PARBOIL THE COOT AND BRICK TOGETHER FOR THREE HOURS.
 POUR OFF THE WATER, REFILL THE KETTLE, AND AGAIN PARBOIL FOR THREE HOURS.
 ONCE AGAIN POUR OFF THE WATER, FOR THE LAST TIME ADD FRESH WATER,
 AND LET THE COOT AND BRICK SIMMER TOGETHER OVERNIGHT. IN THE MORNING,
 THROW AWAY THE COOT AND EAT THE BRICK.
 Job cpu time:  0 days  7 hours 59 minutes  2.3 seconds.
 File lengths (MBytes):  RWF=    201 Int=      0 D2E=      0 Chk=     21 Scr=      1
 Normal termination of Gaussian 09 at Tue Feb  2 12:22:15 2021.
