 Entering Gaussian System, Link 0=g09
 Initial command:
 /public/software/g09/g09/l1.exe /tmp/Gau-18281.inp -scrdir=/tmp/
 Entering Link 1 = /public/software/g09/g09/l1.exe PID=     18282.
  
 Copyright (c) 1988,1990,1992,1993,1995,1998,2003,2009,2010,
            Gaussian, Inc.  All Rights Reserved.
  
 This is part of the Gaussian(R) 09 program.  It is based on
 the Gaussian(R) 03 system (copyright 2003, Gaussian, Inc.),
 the Gaussian(R) 98 system (copyright 1998, Gaussian, Inc.),
 the Gaussian(R) 94 system (copyright 1995, Gaussian, Inc.),
 the Gaussian 92(TM) system (copyright 1992, Gaussian, Inc.),
 the Gaussian 90(TM) system (copyright 1990, Gaussian, Inc.),
 the Gaussian 88(TM) system (copyright 1988, Gaussian, Inc.),
 the Gaussian 86(TM) system (copyright 1986, Carnegie Mellon
 University), and the Gaussian 82(TM) system (copyright 1983,
 Carnegie Mellon University). Gaussian is a federally registered
 trademark of Gaussian, Inc.
  
 This software contains proprietary and confidential information,
 including trade secrets, belonging to Gaussian, Inc.
  
 This software is provided under written license and may be
 used, copied, transmitted, or stored only in accord with that
 written license.
  
 The following legend is applicable only to US Government
 contracts under FAR:
  
                    RESTRICTED RIGHTS LEGEND
  
 Use, reproduction and disclosure by the US Government is
 subject to restrictions as set forth in subparagraphs (a)
 and (c) of the Commercial Computer Software - Restricted
 Rights clause in FAR 52.227-19.
  
 Gaussian, Inc.
 340 Quinnipiac St., Bldg. 40, Wallingford CT 06492
  
  
 ---------------------------------------------------------------
 Warning -- This program may not be used in any manner that
 competes with the business of Gaussian, Inc. or will provide
 assistance to any competitor of Gaussian, Inc.  The licensee
 of this program is prohibited from giving any competitor of
 Gaussian, Inc. access to this program.  By using this program,
 the user acknowledges that Gaussian, Inc. is engaged in the
 business of creating and licensing software in the field of
 computational chemistry and represents and warrants to the
 licensee that it is not a competitor of Gaussian, Inc. and that
 it will not use this program in any manner prohibited above.
 ---------------------------------------------------------------
  

 Cite this work as:
 Gaussian 09, Revision B.01,
 M. J. Frisch, G. W. Trucks, H. B. Schlegel, G. E. Scuseria, 
 M. A. Robb, J. R. Cheeseman, G. Scalmani, V. Barone, B. Mennucci, 
 G. A. Petersson, H. Nakatsuji, M. Caricato, X. Li, H. P. Hratchian, 
 A. F. Izmaylov, J. Bloino, G. Zheng, J. L. Sonnenberg, M. Hada, 
 M. Ehara, K. Toyota, R. Fukuda, J. Hasegawa, M. Ishida, T. Nakajima, 
 Y. Honda, O. Kitao, H. Nakai, T. Vreven, J. A. Montgomery, Jr., 
 J. E. Peralta, F. Ogliaro, M. Bearpark, J. J. Heyd, E. Brothers, 
 K. N. Kudin, V. N. Staroverov, T. Keith, R. Kobayashi, J. Normand, 
 K. Raghavachari, A. Rendell, J. C. Burant, S. S. Iyengar, J. Tomasi, 
 M. Cossi, N. Rega, J. M. Millam, M. Klene, J. E. Knox, J. B. Cross, 
 V. Bakken, C. Adamo, J. Jaramillo, R. Gomperts, R. E. Stratmann, 
 O. Yazyev, A. J. Austin, R. Cammi, C. Pomelli, J. W. Ochterski, 
 R. L. Martin, K. Morokuma, V. G. Zakrzewski, G. A. Voth, 
 P. Salvador, J. J. Dannenberg, S. Dapprich, A. D. Daniels, 
 O. Farkas, J. B. Foresman, J. V. Ortiz, J. Cioslowski, 
 and D. J. Fox, Gaussian, Inc., Wallingford CT, 2010.
 
 ******************************************
 Gaussian 09:  EM64L-G09RevB.01 12-Aug-2010
                 2-Feb-2021 
 ******************************************
 %mem=600MW
 %nprocshared=10
 Will use up to   10 processors via shared memory.
 --------------------------------------
 # opt b3lyp/6-31g(d) geom=connectivity
 --------------------------------------
 1/14=-1,18=20,19=15,26=3,38=1,57=2/1,3;
 2/9=110,12=2,17=6,18=5,40=1/2;
 3/5=1,6=6,7=1,11=2,16=1,25=1,30=1,71=1,74=-5/1,2,3;
 4//1;
 5/5=2,38=5/2;
 6/7=2,8=2,9=2,10=2,28=1/1;
 7//1,2,3,16;
 1/14=-1,18=20,19=15/3(2);
 2/9=110/2;
 99//99;
 2/9=110/2;
 3/5=1,6=6,7=1,11=2,16=1,25=1,30=1,71=1,74=-5/1,2,3;
 4/5=5,16=3/1;
 5/5=2,38=5/2;
 7//1,2,3,16;
 1/14=-1,18=20,19=15/3(-5);
 2/9=110/2;
 6/7=2,8=2,9=2,10=2,19=2,28=1/1;
 99/9=1/99;
 -------------------
 Title Card Required
 -------------------
 Symbolic Z-matrix:
 Charge =  0 Multiplicity = 1
 C                     4.41278  -1.07306  -0.92488 
 C                     3.70848  -1.95204  -0.0964 
 C                     2.6201   -1.52423   0.66763 
 C                     2.1818   -0.19452   0.62116 
 C                     2.88149   0.70138  -0.19739 
 C                     3.98286   0.26264  -0.96555 
 C                     1.02181   0.27789   1.39561 
 C                     0.74475   1.59188   1.37197 
 O                     1.47093   2.51427   0.5954 
 C                     2.47396   2.12372  -0.23796 
 C                     0.14419  -0.69705   2.15508 
 C                    -1.25922  -0.12968   2.49324 
 C                    -1.06576   1.26281   3.12193 
 C                    -0.38362   2.22209   2.14146 
 C                     5.58237  -1.54167  -1.74536 
 O                     4.68793   1.11963  -1.77827 
 O                     4.02866  -3.27601   0.02726 
 O                     3.05064   2.91763  -0.97763 
 O                    -2.07521   0.08994   1.3284 
 C                    -2.4242   -1.04889   0.52178 
 C                    -3.91952  -0.93973   0.15597 
 C                    -4.19161   0.35164  -0.65906 
 C                    -3.11155   0.71726  -1.6346 
 C                    -1.92436   0.08474  -1.69925 
 C                    -1.58539  -1.05699  -0.77203 
 O                    -4.32015  -2.11036  -0.56554 
 O                    -4.32982   1.46524   0.22207 
 C                    -0.83434   0.50539  -2.62518 
 O                    -1.22289   1.53159  -3.42184 
 O                     0.2703   -0.01899  -2.63398 
 C                    -0.19818   2.00638  -4.29575 
 C                    -1.93282  -1.01872   3.55751 
 O                    -3.27713  -0.89403   3.58709 
 O                    -1.3757   -1.76908   4.3426 
 H                     2.13148  -2.26222   1.29814 
 H                     0.67693  -0.97193   3.07549 
 H                     0.01487  -1.62211   1.58413 
 H                    -0.46854   1.18483   4.04048 
 H                    -2.03241   1.69413   3.41259 
 H                    -1.12278   2.60052   1.42422 
 H                    -0.01087   3.08976   2.69861 
 H                     5.24879  -2.27729  -2.48466 
 H                     6.07792  -0.73275  -2.28955 
 H                     6.33801  -1.99746  -1.0967 
 H                     4.27278   2.01027  -1.74295 
 H                     4.74033  -3.49821  -0.59365 
 H                    -2.2526   -1.98642   1.06398 
 H                    -4.50798  -0.90592   1.08073 
 H                    -5.13453   0.24578  -1.20675 
 H                    -3.33448   1.5616   -2.28235 
 H                    -1.74037  -1.99964  -1.31144 
 H                    -0.52674  -1.01358  -0.51315 
 H                    -5.2761   -2.03169  -0.73515 
 H                    -3.52261   1.46971   0.77529 
 H                    -0.60589   2.83989  -4.87432 
 H                     0.65904   2.37095  -3.72065 
 H                     0.10735   1.21841  -4.99123 
 H                    -3.56315  -1.48769   4.3134 
 

 GradGradGradGradGradGradGradGradGradGradGradGradGradGradGradGradGradGrad
 Berny optimization.
 Initialization pass.
                           ----------------------------
                           !    Initial Parameters    !
                           ! (Angstroms and Degrees)  !
 --------------------------                            --------------------------
 ! Name  Definition              Value          Derivative Info.                !
 --------------------------------------------------------------------------------
 ! R1    R(1,2)                  1.3982         estimate D2E/DX2                !
 ! R2    R(1,6)                  1.4038         estimate D2E/DX2                !
 ! R3    R(1,15)                 1.5036         estimate D2E/DX2                !
 ! R4    R(2,3)                  1.3969         estimate D2E/DX2                !
 ! R5    R(2,17)                 1.3677         estimate D2E/DX2                !
 ! R6    R(3,4)                  1.4009         estimate D2E/DX2                !
 ! R7    R(3,35)                 1.0867         estimate D2E/DX2                !
 ! R8    R(4,5)                  1.4008         estimate D2E/DX2                !
 ! R9    R(4,7)                  1.4726         estimate D2E/DX2                !
 ! R10   R(5,6)                  1.4126         estimate D2E/DX2                !
 ! R11   R(5,10)                 1.4801         estimate D2E/DX2                !
 ! R12   R(6,16)                 1.3755         estimate D2E/DX2                !
 ! R13   R(7,8)                  1.3431         estimate D2E/DX2                !
 ! R14   R(7,11)                 1.5158         estimate D2E/DX2                !
 ! R15   R(8,9)                  1.4075         estimate D2E/DX2                !
 ! R16   R(8,14)                 1.5042         estimate D2E/DX2                !
 ! R17   R(9,10)                 1.3613         estimate D2E/DX2                !
 ! R18   R(10,18)                1.2288         estimate D2E/DX2                !
 ! R19   R(11,12)                1.5511         estimate D2E/DX2                !
 ! R20   R(11,36)                1.0984         estimate D2E/DX2                !
 ! R21   R(11,37)                1.0947         estimate D2E/DX2                !
 ! R22   R(12,13)                1.54           estimate D2E/DX2                !
 ! R23   R(12,19)                1.4391         estimate D2E/DX2                !
 ! R24   R(12,32)                1.5417         estimate D2E/DX2                !
 ! R25   R(13,14)                1.5319         estimate D2E/DX2                !
 ! R26   R(13,38)                1.0984         estimate D2E/DX2                !
 ! R27   R(13,39)                1.0977         estimate D2E/DX2                !
 ! R28   R(14,40)                1.0973         estimate D2E/DX2                !
 ! R29   R(14,41)                1.0965         estimate D2E/DX2                !
 ! R30   R(15,42)                1.095          estimate D2E/DX2                !
 ! R31   R(15,43)                1.0936         estimate D2E/DX2                !
 ! R32   R(15,44)                1.0952         estimate D2E/DX2                !
 ! R33   R(16,45)                0.9833         estimate D2E/DX2                !
 ! R34   R(17,46)                0.9702         estimate D2E/DX2                !
 ! R35   R(18,45)                1.7037         estimate D2E/DX2                !
 ! R36   R(19,20)                1.4385         estimate D2E/DX2                !
 ! R37   R(20,21)                1.5433         estimate D2E/DX2                !
 ! R38   R(20,25)                1.542          estimate D2E/DX2                !
 ! R39   R(20,47)                1.0965         estimate D2E/DX2                !
 ! R40   R(21,22)                1.5511         estimate D2E/DX2                !
 ! R41   R(21,26)                1.4323         estimate D2E/DX2                !
 ! R42   R(21,48)                1.0966         estimate D2E/DX2                !
 ! R43   R(22,23)                1.5006         estimate D2E/DX2                !
 ! R44   R(22,27)                1.4268         estimate D2E/DX2                !
 ! R45   R(22,49)                1.0956         estimate D2E/DX2                !
 ! R46   R(23,24)                1.3467         estimate D2E/DX2                !
 ! R47   R(23,50)                1.0873         estimate D2E/DX2                !
 ! R48   R(24,25)                1.5094         estimate D2E/DX2                !
 ! R49   R(24,28)                1.4908         estimate D2E/DX2                !
 ! R50   R(25,51)                1.0971         estimate D2E/DX2                !
 ! R51   R(25,52)                1.0907         estimate D2E/DX2                !
 ! R52   R(26,53)                0.9741         estimate D2E/DX2                !
 ! R53   R(27,54)                0.9786         estimate D2E/DX2                !
 ! R54   R(28,29)                1.356          estimate D2E/DX2                !
 ! R55   R(28,30)                1.2228         estimate D2E/DX2                !
 ! R56   R(29,31)                1.428          estimate D2E/DX2                !
 ! R57   R(31,55)                1.0935         estimate D2E/DX2                !
 ! R58   R(31,56)                1.0948         estimate D2E/DX2                !
 ! R59   R(31,57)                1.0945         estimate D2E/DX2                !
 ! R60   R(32,33)                1.3504         estimate D2E/DX2                !
 ! R61   R(32,34)                1.2206         estimate D2E/DX2                !
 ! R62   R(33,58)                0.9807         estimate D2E/DX2                !
 ! A1    A(2,1,6)              117.4551         estimate D2E/DX2                !
 ! A2    A(2,1,15)             121.2805         estimate D2E/DX2                !
 ! A3    A(6,1,15)             121.2639         estimate D2E/DX2                !
 ! A4    A(1,2,3)              121.6017         estimate D2E/DX2                !
 ! A5    A(1,2,17)             122.9692         estimate D2E/DX2                !
 ! A6    A(3,2,17)             115.429          estimate D2E/DX2                !
 ! A7    A(2,3,4)              121.0868         estimate D2E/DX2                !
 ! A8    A(2,3,35)             117.3671         estimate D2E/DX2                !
 ! A9    A(4,3,35)             121.546          estimate D2E/DX2                !
 ! A10   A(3,4,5)              118.0462         estimate D2E/DX2                !
 ! A11   A(3,4,7)              122.2439         estimate D2E/DX2                !
 ! A12   A(5,4,7)              119.7098         estimate D2E/DX2                !
 ! A13   A(4,5,6)              120.5672         estimate D2E/DX2                !
 ! A14   A(4,5,10)             119.5433         estimate D2E/DX2                !
 ! A15   A(6,5,10)             119.8819         estimate D2E/DX2                !
 ! A16   A(1,6,5)              121.2348         estimate D2E/DX2                !
 ! A17   A(1,6,16)             116.9326         estimate D2E/DX2                !
 ! A18   A(5,6,16)             121.8312         estimate D2E/DX2                !
 ! A19   A(4,7,8)              117.8454         estimate D2E/DX2                !
 ! A20   A(4,7,11)             120.8808         estimate D2E/DX2                !
 ! A21   A(8,7,11)             121.2418         estimate D2E/DX2                !
 ! A22   A(7,8,9)              122.9839         estimate D2E/DX2                !
 ! A23   A(7,8,14)             123.7551         estimate D2E/DX2                !
 ! A24   A(9,8,14)             113.2475         estimate D2E/DX2                !
 ! A25   A(8,9,10)             121.9979         estimate D2E/DX2                !
 ! A26   A(5,10,9)             117.5027         estimate D2E/DX2                !
 ! A27   A(5,10,18)            120.54           estimate D2E/DX2                !
 ! A28   A(9,10,18)            121.9338         estimate D2E/DX2                !
 ! A29   A(7,11,12)            113.4428         estimate D2E/DX2                !
 ! A30   A(7,11,36)            107.4572         estimate D2E/DX2                !
 ! A31   A(7,11,37)            110.5234         estimate D2E/DX2                !
 ! A32   A(12,11,36)           110.3463         estimate D2E/DX2                !
 ! A33   A(12,11,37)           108.4162         estimate D2E/DX2                !
 ! A34   A(36,11,37)           106.4306         estimate D2E/DX2                !
 ! A35   A(11,12,13)           107.8233         estimate D2E/DX2                !
 ! A36   A(11,12,19)           113.104          estimate D2E/DX2                !
 ! A37   A(11,12,32)           109.5662         estimate D2E/DX2                !
 ! A38   A(13,12,19)           105.2882         estimate D2E/DX2                !
 ! A39   A(13,12,32)           107.1269         estimate D2E/DX2                !
 ! A40   A(19,12,32)           113.5182         estimate D2E/DX2                !
 ! A41   A(12,13,14)           111.1525         estimate D2E/DX2                !
 ! A42   A(12,13,38)           110.2124         estimate D2E/DX2                !
 ! A43   A(12,13,39)           110.656          estimate D2E/DX2                !
 ! A44   A(14,13,38)           109.7289         estimate D2E/DX2                !
 ! A45   A(14,13,39)           108.3934         estimate D2E/DX2                !
 ! A46   A(38,13,39)           106.5752         estimate D2E/DX2                !
 ! A47   A(8,14,13)            113.5213         estimate D2E/DX2                !
 ! A48   A(8,14,40)            108.3881         estimate D2E/DX2                !
 ! A49   A(8,14,41)            109.6628         estimate D2E/DX2                !
 ! A50   A(13,14,40)           109.5332         estimate D2E/DX2                !
 ! A51   A(13,14,41)           108.7644         estimate D2E/DX2                !
 ! A52   A(40,14,41)           106.7524         estimate D2E/DX2                !
 ! A53   A(1,15,42)            109.9279         estimate D2E/DX2                !
 ! A54   A(1,15,43)            113.1707         estimate D2E/DX2                !
 ! A55   A(1,15,44)            110.0723         estimate D2E/DX2                !
 ! A56   A(42,15,43)           107.3967         estimate D2E/DX2                !
 ! A57   A(42,15,44)           109.2984         estimate D2E/DX2                !
 ! A58   A(43,15,44)           106.852          estimate D2E/DX2                !
 ! A59   A(6,16,45)            109.0684         estimate D2E/DX2                !
 ! A60   A(2,17,46)            109.6047         estimate D2E/DX2                !
 ! A61   A(12,19,20)           118.0738         estimate D2E/DX2                !
 ! A62   A(19,20,21)           108.1781         estimate D2E/DX2                !
 ! A63   A(19,20,25)           110.0396         estimate D2E/DX2                !
 ! A64   A(19,20,47)           111.2009         estimate D2E/DX2                !
 ! A65   A(21,20,25)           109.182          estimate D2E/DX2                !
 ! A66   A(21,20,47)           109.2275         estimate D2E/DX2                !
 ! A67   A(25,20,47)           108.9821         estimate D2E/DX2                !
 ! A68   A(20,21,22)           110.6958         estimate D2E/DX2                !
 ! A69   A(20,21,26)           109.4274         estimate D2E/DX2                !
 ! A70   A(20,21,48)           108.7977         estimate D2E/DX2                !
 ! A71   A(22,21,26)           111.5113         estimate D2E/DX2                !
 ! A72   A(22,21,48)           108.8628         estimate D2E/DX2                !
 ! A73   A(26,21,48)           107.4513         estimate D2E/DX2                !
 ! A74   A(21,22,23)           114.7202         estimate D2E/DX2                !
 ! A75   A(21,22,27)           110.0167         estimate D2E/DX2                !
 ! A76   A(21,22,49)           109.4637         estimate D2E/DX2                !
 ! A77   A(23,22,27)           106.3219         estimate D2E/DX2                !
 ! A78   A(23,22,49)           108.5431         estimate D2E/DX2                !
 ! A79   A(27,22,49)           107.504          estimate D2E/DX2                !
 ! A80   A(22,23,24)           123.4529         estimate D2E/DX2                !
 ! A81   A(22,23,50)           115.3997         estimate D2E/DX2                !
 ! A82   A(24,23,50)           121.1221         estimate D2E/DX2                !
 ! A83   A(23,24,25)           121.5844         estimate D2E/DX2                !
 ! A84   A(23,24,28)           122.8097         estimate D2E/DX2                !
 ! A85   A(25,24,28)           115.5172         estimate D2E/DX2                !
 ! A86   A(20,25,24)           112.9113         estimate D2E/DX2                !
 ! A87   A(20,25,51)           109.8902         estimate D2E/DX2                !
 ! A88   A(20,25,52)           109.1862         estimate D2E/DX2                !
 ! A89   A(24,25,51)           108.4324         estimate D2E/DX2                !
 ! A90   A(24,25,52)           109.492          estimate D2E/DX2                !
 ! A91   A(51,25,52)           106.7397         estimate D2E/DX2                !
 ! A92   A(21,26,53)           107.2302         estimate D2E/DX2                !
 ! A93   A(22,27,54)           105.83           estimate D2E/DX2                !
 ! A94   A(24,28,29)           111.6494         estimate D2E/DX2                !
 ! A95   A(24,28,30)           122.9545         estimate D2E/DX2                !
 ! A96   A(29,28,30)           125.3918         estimate D2E/DX2                !
 ! A97   A(28,29,31)           113.9252         estimate D2E/DX2                !
 ! A98   A(29,31,55)           108.0406         estimate D2E/DX2                !
 ! A99   A(29,31,56)           110.5559         estimate D2E/DX2                !
 ! A100  A(29,31,57)           110.4765         estimate D2E/DX2                !
 ! A101  A(55,31,56)           108.425          estimate D2E/DX2                !
 ! A102  A(55,31,57)           108.4601         estimate D2E/DX2                !
 ! A103  A(56,31,57)           110.7916         estimate D2E/DX2                !
 ! A104  A(12,32,33)           113.3803         estimate D2E/DX2                !
 ! A105  A(12,32,34)           126.8061         estimate D2E/DX2                !
 ! A106  A(33,32,34)           119.8055         estimate D2E/DX2                !
 ! A107  A(32,33,58)           104.5168         estimate D2E/DX2                !
 ! D1    D(6,1,2,3)             -0.1825         estimate D2E/DX2                !
 ! D2    D(6,1,2,17)           179.8979         estimate D2E/DX2                !
 ! D3    D(15,1,2,3)          -179.9321         estimate D2E/DX2                !
 ! D4    D(15,1,2,17)            0.1482         estimate D2E/DX2                !
 ! D5    D(2,1,6,5)              0.064          estimate D2E/DX2                !
 ! D6    D(2,1,6,16)           179.6477         estimate D2E/DX2                !
 ! D7    D(15,1,6,5)           179.8137         estimate D2E/DX2                !
 ! D8    D(15,1,6,16)           -0.6026         estimate D2E/DX2                !
 ! D9    D(2,1,15,42)           63.9614         estimate D2E/DX2                !
 ! D10   D(2,1,15,43)         -175.9657         estimate D2E/DX2                !
 ! D11   D(2,1,15,44)          -56.4859         estimate D2E/DX2                !
 ! D12   D(6,1,15,42)         -115.7787         estimate D2E/DX2                !
 ! D13   D(6,1,15,43)            4.2942         estimate D2E/DX2                !
 ! D14   D(6,1,15,44)          123.774          estimate D2E/DX2                !
 ! D15   D(1,2,3,4)              0.7081         estimate D2E/DX2                !
 ! D16   D(1,2,3,35)          -179.1603         estimate D2E/DX2                !
 ! D17   D(17,2,3,4)          -179.3665         estimate D2E/DX2                !
 ! D18   D(17,2,3,35)            0.7651         estimate D2E/DX2                !
 ! D19   D(1,2,17,46)           -5.0373         estimate D2E/DX2                !
 ! D20   D(3,2,17,46)          175.0385         estimate D2E/DX2                !
 ! D21   D(2,3,4,5)             -1.0764         estimate D2E/DX2                !
 ! D22   D(2,3,4,7)            178.7962         estimate D2E/DX2                !
 ! D23   D(35,3,4,5)           178.7865         estimate D2E/DX2                !
 ! D24   D(35,3,4,7)            -1.3409         estimate D2E/DX2                !
 ! D25   D(3,4,5,6)              0.9539         estimate D2E/DX2                !
 ! D26   D(3,4,5,10)          -178.0404         estimate D2E/DX2                !
 ! D27   D(7,4,5,6)           -178.922          estimate D2E/DX2                !
 ! D28   D(7,4,5,10)             2.0836         estimate D2E/DX2                !
 ! D29   D(3,4,7,8)            174.6309         estimate D2E/DX2                !
 ! D30   D(3,4,7,11)            -7.3997         estimate D2E/DX2                !
 ! D31   D(5,4,7,8)             -5.4985         estimate D2E/DX2                !
 ! D32   D(5,4,7,11)           172.4709         estimate D2E/DX2                !
 ! D33   D(4,5,6,1)             -0.4656         estimate D2E/DX2                !
 ! D34   D(4,5,6,16)           179.9713         estimate D2E/DX2                !
 ! D35   D(10,5,6,1)           178.5254         estimate D2E/DX2                !
 ! D36   D(10,5,6,16)           -1.0377         estimate D2E/DX2                !
 ! D37   D(4,5,10,9)             3.7821         estimate D2E/DX2                !
 ! D38   D(4,5,10,18)         -177.9474         estimate D2E/DX2                !
 ! D39   D(6,5,10,9)          -175.2193         estimate D2E/DX2                !
 ! D40   D(6,5,10,18)            3.0512         estimate D2E/DX2                !
 ! D41   D(1,6,16,45)          178.0951         estimate D2E/DX2                !
 ! D42   D(5,6,16,45)           -2.3239         estimate D2E/DX2                !
 ! D43   D(4,7,8,9)              3.1016         estimate D2E/DX2                !
 ! D44   D(4,7,8,14)          -178.3283         estimate D2E/DX2                !
 ! D45   D(11,7,8,9)          -174.8601         estimate D2E/DX2                !
 ! D46   D(11,7,8,14)            3.71           estimate D2E/DX2                !
 ! D47   D(4,7,11,12)         -160.1354         estimate D2E/DX2                !
 ! D48   D(4,7,11,36)           77.613          estimate D2E/DX2                !
 ! D49   D(4,7,11,37)          -38.1297         estimate D2E/DX2                !
 ! D50   D(8,7,11,12)           17.7646         estimate D2E/DX2                !
 ! D51   D(8,7,11,36)         -104.487          estimate D2E/DX2                !
 ! D52   D(8,7,11,37)          139.7703         estimate D2E/DX2                !
 ! D53   D(7,8,9,10)             3.0457         estimate D2E/DX2                !
 ! D54   D(14,8,9,10)         -175.6604         estimate D2E/DX2                !
 ! D55   D(7,8,14,13)            8.5938         estimate D2E/DX2                !
 ! D56   D(7,8,14,40)         -113.3415         estimate D2E/DX2                !
 ! D57   D(7,8,14,41)          130.4693         estimate D2E/DX2                !
 ! D58   D(9,8,14,13)         -172.7116         estimate D2E/DX2                !
 ! D59   D(9,8,14,40)           65.3531         estimate D2E/DX2                !
 ! D60   D(9,8,14,41)          -50.836          estimate D2E/DX2                !
 ! D61   D(8,9,10,5)            -6.4261         estimate D2E/DX2                !
 ! D62   D(8,9,10,18)          175.3291         estimate D2E/DX2                !
 ! D63   D(7,11,12,13)         -49.1282         estimate D2E/DX2                !
 ! D64   D(7,11,12,19)          66.8661         estimate D2E/DX2                !
 ! D65   D(7,11,12,32)        -165.3959         estimate D2E/DX2                !
 ! D66   D(36,11,12,13)         71.5052         estimate D2E/DX2                !
 ! D67   D(36,11,12,19)       -172.5005         estimate D2E/DX2                !
 ! D68   D(36,11,12,32)        -44.7624         estimate D2E/DX2                !
 ! D69   D(37,11,12,13)       -172.2994         estimate D2E/DX2                !
 ! D70   D(37,11,12,19)        -56.3051         estimate D2E/DX2                !
 ! D71   D(37,11,12,32)         71.433          estimate D2E/DX2                !
 ! D72   D(11,12,13,14)         61.4878         estimate D2E/DX2                !
 ! D73   D(11,12,13,38)        -60.3938         estimate D2E/DX2                !
 ! D74   D(11,12,13,39)       -178.0184         estimate D2E/DX2                !
 ! D75   D(19,12,13,14)        -59.5224         estimate D2E/DX2                !
 ! D76   D(19,12,13,38)        178.5961         estimate D2E/DX2                !
 ! D77   D(19,12,13,39)         60.9715         estimate D2E/DX2                !
 ! D78   D(32,12,13,14)        179.339          estimate D2E/DX2                !
 ! D79   D(32,12,13,38)         57.4575         estimate D2E/DX2                !
 ! D80   D(32,12,13,39)        -60.1671         estimate D2E/DX2                !
 ! D81   D(11,12,19,20)         62.321          estimate D2E/DX2                !
 ! D82   D(13,12,19,20)        179.8111         estimate D2E/DX2                !
 ! D83   D(32,12,19,20)        -63.3227         estimate D2E/DX2                !
 ! D84   D(11,12,32,33)       -158.8028         estimate D2E/DX2                !
 ! D85   D(11,12,32,34)         22.2469         estimate D2E/DX2                !
 ! D86   D(13,12,32,33)         84.4896         estimate D2E/DX2                !
 ! D87   D(13,12,32,34)        -94.4607         estimate D2E/DX2                !
 ! D88   D(19,12,32,33)        -31.2964         estimate D2E/DX2                !
 ! D89   D(19,12,32,34)        149.7533         estimate D2E/DX2                !
 ! D90   D(12,13,14,8)         -41.803          estimate D2E/DX2                !
 ! D91   D(12,13,14,40)         79.4932         estimate D2E/DX2                !
 ! D92   D(12,13,14,41)       -164.1772         estimate D2E/DX2                !
 ! D93   D(38,13,14,8)          80.3595         estimate D2E/DX2                !
 ! D94   D(38,13,14,40)       -158.3443         estimate D2E/DX2                !
 ! D95   D(38,13,14,41)        -42.0147         estimate D2E/DX2                !
 ! D96   D(39,13,14,8)        -163.6239         estimate D2E/DX2                !
 ! D97   D(39,13,14,40)        -42.3277         estimate D2E/DX2                !
 ! D98   D(39,13,14,41)         74.0019         estimate D2E/DX2                !
 ! D99   D(12,19,20,21)        136.2188         estimate D2E/DX2                !
 ! D100  D(12,19,20,25)       -104.5793         estimate D2E/DX2                !
 ! D101  D(12,19,20,47)         16.275          estimate D2E/DX2                !
 ! D102  D(19,20,21,22)         60.9065         estimate D2E/DX2                !
 ! D103  D(19,20,21,26)       -175.8029         estimate D2E/DX2                !
 ! D104  D(19,20,21,48)        -58.6756         estimate D2E/DX2                !
 ! D105  D(25,20,21,22)        -58.8361         estimate D2E/DX2                !
 ! D106  D(25,20,21,26)         64.4545         estimate D2E/DX2                !
 ! D107  D(25,20,21,48)       -178.4182         estimate D2E/DX2                !
 ! D108  D(47,20,21,22)       -177.919          estimate D2E/DX2                !
 ! D109  D(47,20,21,26)        -54.6284         estimate D2E/DX2                !
 ! D110  D(47,20,21,48)         62.4989         estimate D2E/DX2                !
 ! D111  D(19,20,25,24)        -67.3455         estimate D2E/DX2                !
 ! D112  D(19,20,25,51)        171.4591         estimate D2E/DX2                !
 ! D113  D(19,20,25,52)         54.7023         estimate D2E/DX2                !
 ! D114  D(21,20,25,24)         51.2414         estimate D2E/DX2                !
 ! D115  D(21,20,25,51)        -69.954          estimate D2E/DX2                !
 ! D116  D(21,20,25,52)        173.2892         estimate D2E/DX2                !
 ! D117  D(47,20,25,24)        170.4765         estimate D2E/DX2                !
 ! D118  D(47,20,25,51)         49.2812         estimate D2E/DX2                !
 ! D119  D(47,20,25,52)        -67.4756         estimate D2E/DX2                !
 ! D120  D(20,21,22,23)         37.5349         estimate D2E/DX2                !
 ! D121  D(20,21,22,27)        -82.2663         estimate D2E/DX2                !
 ! D122  D(20,21,22,49)        159.8124         estimate D2E/DX2                !
 ! D123  D(26,21,22,23)        -84.5432         estimate D2E/DX2                !
 ! D124  D(26,21,22,27)        155.6556         estimate D2E/DX2                !
 ! D125  D(26,21,22,49)         37.7343         estimate D2E/DX2                !
 ! D126  D(48,21,22,23)        157.0778         estimate D2E/DX2                !
 ! D127  D(48,21,22,27)         37.2767         estimate D2E/DX2                !
 ! D128  D(48,21,22,49)        -80.6446         estimate D2E/DX2                !
 ! D129  D(20,21,26,53)        176.8372         estimate D2E/DX2                !
 ! D130  D(22,21,26,53)        -60.3559         estimate D2E/DX2                !
 ! D131  D(48,21,26,53)         58.8651         estimate D2E/DX2                !
 ! D132  D(21,22,23,24)         -7.7535         estimate D2E/DX2                !
 ! D133  D(21,22,23,50)        174.0595         estimate D2E/DX2                !
 ! D134  D(27,22,23,24)        114.0809         estimate D2E/DX2                !
 ! D135  D(27,22,23,50)        -64.1061         estimate D2E/DX2                !
 ! D136  D(49,22,23,24)       -130.5282         estimate D2E/DX2                !
 ! D137  D(49,22,23,50)         51.2848         estimate D2E/DX2                !
 ! D138  D(21,22,27,54)         54.0016         estimate D2E/DX2                !
 ! D139  D(23,22,27,54)        -70.7796         estimate D2E/DX2                !
 ! D140  D(49,22,27,54)        173.1283         estimate D2E/DX2                !
 ! D141  D(22,23,24,25)         -0.2778         estimate D2E/DX2                !
 ! D142  D(22,23,24,28)       -176.6979         estimate D2E/DX2                !
 ! D143  D(50,23,24,25)        177.809          estimate D2E/DX2                !
 ! D144  D(50,23,24,28)          1.3889         estimate D2E/DX2                !
 ! D145  D(23,24,25,20)        -22.257          estimate D2E/DX2                !
 ! D146  D(23,24,25,51)         99.7616         estimate D2E/DX2                !
 ! D147  D(23,24,25,52)       -144.1328         estimate D2E/DX2                !
 ! D148  D(28,24,25,20)        154.4092         estimate D2E/DX2                !
 ! D149  D(28,24,25,51)        -83.5722         estimate D2E/DX2                !
 ! D150  D(28,24,25,52)         32.5334         estimate D2E/DX2                !
 ! D151  D(23,24,28,29)         -3.491          estimate D2E/DX2                !
 ! D152  D(23,24,28,30)        175.7917         estimate D2E/DX2                !
 ! D153  D(25,24,28,29)        179.888          estimate D2E/DX2                !
 ! D154  D(25,24,28,30)         -0.8292         estimate D2E/DX2                !
 ! D155  D(24,28,29,31)        177.8269         estimate D2E/DX2                !
 ! D156  D(30,28,29,31)         -1.4349         estimate D2E/DX2                !
 ! D157  D(28,29,31,55)       -178.8512         estimate D2E/DX2                !
 ! D158  D(28,29,31,56)        -60.3521         estimate D2E/DX2                !
 ! D159  D(28,29,31,57)         62.6526         estimate D2E/DX2                !
 ! D160  D(12,32,33,58)       -178.5455         estimate D2E/DX2                !
 ! D161  D(34,32,33,58)          0.4859         estimate D2E/DX2                !
 --------------------------------------------------------------------------------
 Trust Radius=3.00D-01 FncErr=1.00D-07 GrdErr=1.00D-06
 Number of steps in this run=    340 maximum allowed number of steps=    348.
 GradGradGradGradGradGradGradGradGradGradGradGradGradGradGradGradGradGrad

 Stoichiometry    C23H24O11
 Framework group  C1[X(C23H24O11)]
 Deg. of freedom   168
 Full point group                 C1      NOp   1
 Largest Abelian subgroup         C1      NOp   1
 Largest concise Abelian subgroup C1      NOp   1
                         Standard orientation:                         
 ---------------------------------------------------------------------
 Center     Atomic      Atomic             Coordinates (Angstroms)
 Number     Number       Type             X           Y           Z
 ---------------------------------------------------------------------
      1          6           0        4.437226   -0.748293   -1.021072
      2          6           0        3.504877   -1.611486   -1.604724
      3          6           0        2.250089   -1.829816   -1.030976
      4          6           0        1.871023   -1.177421    0.149322
      5          6           0        2.796416   -0.315538    0.751833
      6          6           0        4.064601   -0.101172    0.167607
      7          6           0        0.545605   -1.368704    0.761860
      8          6           0        0.313816   -0.787119    1.950103
      9          8           0        1.252862    0.039911    2.594625
     10          6           0        2.446923    0.357177    2.023093
     11          6           0       -0.534374   -2.157869    0.048848
     12          6           0       -1.963791   -1.859460    0.571869
     13          6           0       -1.933732   -1.958467    2.108430
     14          6           0       -0.976744   -0.924686    2.710376
     15          6           0        5.785288   -0.517437   -1.645682
     16          8           0        4.992663    0.739730    0.736518
     17          8           0        3.748609   -2.297476   -2.762617
     18          8           0        3.229658    1.145684    2.548024
     19          8           0       -2.400996   -0.518431    0.286524
     20          6           0       -2.522968   -0.124991   -1.091774
     21          6           0       -3.844661    0.654942   -1.254677
     22          6           0       -3.841895    1.929076   -0.370085
     23          6           0       -2.517634    2.629470   -0.282676
     24          6           0       -1.375921    2.124415   -0.787742
     25          6           0       -1.344347    0.787240   -1.487151
     26          8           0       -4.041428    0.975499   -2.636708
     27          8           0       -4.208138    1.595481    0.967900
     28          6           0       -0.055453    2.798278   -0.630550
     29          8           0       -0.174756    3.990825    0.003729
     30          8           0        0.993210    2.306377   -1.022498
     31          6           0        1.069194    4.656596    0.224016
     32          6           0       -2.935581   -2.944105    0.065955
     33          8           0       -4.227555   -2.551242    0.072379
     34          8           0       -2.646140   -4.071659   -0.300997
     35          1           0        1.584469   -2.525323   -1.535103
     36          1           0       -0.298092   -3.223691    0.170112
     37          1           0       -0.510503   -1.955844   -1.026813
     38          1           0       -1.631284   -2.968065    2.417819
     39          1           0       -2.934284   -1.789245    2.527003
     40          1           0       -1.467513    0.056275    2.739604
     41          1           0       -0.764908   -1.203176    3.749499
     42          1           0        5.666556   -0.039580   -2.623711
     43          1           0        6.433844    0.125654   -1.044120
     44          1           0        6.310217   -1.470601   -1.769877
     45          1           0        4.603150    1.151496    1.539988
     46          1           0        4.605536   -2.025873   -3.127690
     47          1           0       -2.535375   -0.998874   -1.754008
     48          1           0       -4.675918    0.010161   -0.945043
     49          1           0       -4.586607    2.637885   -0.748588
     50          1           0       -2.525478    3.576965    0.250601
     51          1           0       -1.354555    0.961926   -2.570174
     52          1           0       -0.406170    0.279590   -1.259651
     53          1           0       -4.904891    1.420355   -2.709609
     54          1           0       -3.596883    0.882113    1.242014
     55          1           0        0.864259    5.590011    0.755468
     56          1           0        1.729140    4.042482    0.845167
     57          1           0        1.547995    4.898855   -0.729918
     58          1           0       -4.724359   -3.334868   -0.245225
 ---------------------------------------------------------------------
 Rotational constants (GHZ):      0.1706548      0.0974380      0.0819543
 Standard basis: 6-31G(d) (6D, 7F)
 There are   558 symmetry adapted basis functions of A   symmetry.
 Integral buffers will be    131072 words long.
 Raffenetti 2 integral format.
 Two-electron integral symmetry is turned on.
   558 basis functions,  1048 primitive gaussians,   558 cartesian basis functions
   125 alpha electrons      125 beta electrons
       nuclear repulsion energy      3918.4354893627 Hartrees.
 NAtoms=   58 NActive=   58 NUniq=   58 SFac= 1.00D+00 NAtFMM=   50 NAOKFM=T Big=T
 One-electron integrals computed using PRISM.
 NBasis=   558 RedAO= T  NBF=   558
 NBsUse=   558 1.00D-06 NBFU=   558
 Harris functional with IExCor=  402 diagonalized for initial guess.
 ExpMin= 1.61D-01 ExpMax= 5.48D+03 ExpMxC= 8.25D+02 IAcc=1 IRadAn=         1 AccDes= 0.00D+00
 HarFok:  IExCor=  402 AccDes= 0.00D+00 IRadAn=         1 IDoV= 1
 ScaDFX=  1.000000  1.000000  1.000000  1.000000
 FoFCou: FMM=F IPFlag=           0 FMFlag=      100000 FMFlg1=        2001
         NFxFlg=           0 DoJE=T BraDBF=F KetDBF=T FulRan=T
         Omega=  0.000000  0.000000  1.000000  0.000000  0.000000 ICntrl=     500 IOpCl=  0
         NMat0=    1 NMatS0=    1 NMatT0=    0 NMatD0=    1 NMtDS0=    0 NMtDT0=    0
         I1Cent=           4 NGrid=           0.
 Petite list used in FoFCou.
 Initial guess orbital symmetries:
       Occupied  (A) (A) (A) (A) (A) (A) (A) (A) (A) (A) (A) (A)
                 (A) (A) (A) (A) (A) (A) (A) (A) (A) (A) (A) (A)
                 (A) (A) (A) (A) (A) (A) (A) (A) (A) (A) (A) (A)
                 (A) (A) (A) (A) (A) (A) (A) (A) (A) (A) (A) (A)
                 (A) (A) (A) (A) (A) (A) (A) (A) (A) (A) (A) (A)
                 (A) (A) (A) (A) (A) (A) (A) (A) (A) (A) (A) (A)
                 (A) (A) (A) (A) (A) (A) (A) (A) (A) (A) (A) (A)
                 (A) (A) (A) (A) (A) (A) (A) (A) (A) (A) (A) (A)
                 (A) (A) (A) (A) (A) (A) (A) (A) (A) (A) (A) (A)
                 (A) (A) (A) (A) (A) (A) (A) (A) (A) (A) (A) (A)
                 (A) (A) (A) (A) (A)
       Virtual   (A) (A) (A) (A) (A) (A) (A) (A) (A) (A) (A) (A)
                 (A) (A) (A) (A) (A) (A) (A) (A) (A) (A) (A) (A)
                 (A) (A) (A) (A) (A) (A) (A) (A) (A) (A) (A) (A)
                 (A) (A) (A) (A) (A) (A) (A) (A) (A) (A) (A) (A)
                 (A) (A) (A) (A) (A) (A) (A) (A) (A) (A) (A) (A)
                 (A) (A) (A) (A) (A) (A) (A) (A) (A) (A) (A) (A)
                 (A) (A) (A) (A) (A) (A) (A) (A) (A) (A) (A) (A)
                 (A) (A) (A) (A) (A) (A) (A) (A) (A) (A) (A) (A)
                 (A) (A) (A) (A) (A) (A) (A) (A) (A) (A) (A) (A)
                 (A) (A) (A) (A) (A) (A) (A) (A) (A) (A) (A) (A)
                 (A) (A) (A) (A) (A) (A) (A) (A) (A) (A) (A) (A)
                 (A) (A) (A) (A) (A) (A) (A) (A) (A) (A) (A) (A)
                 (A) (A) (A) (A) (A) (A) (A) (A) (A) (A) (A) (A)
                 (A) (A) (A) (A) (A) (A) (A) (A) (A) (A) (A) (A)
                 (A) (A) (A) (A) (A) (A) (A) (A) (A) (A) (A) (A)
                 (A) (A) (A) (A) (A) (A) (A) (A) (A) (A) (A) (A)
                 (A) (A) (A) (A) (A) (A) (A) (A) (A) (A) (A) (A)
                 (A) (A) (A) (A) (A) (A) (A) (A) (A) (A) (A) (A)
                 (A) (A) (A) (A) (A) (A) (A) (A) (A) (A) (A) (A)
                 (A) (A) (A) (A) (A) (A) (A) (A) (A) (A) (A) (A)
                 (A) (A) (A) (A) (A) (A) (A) (A) (A) (A) (A) (A)
                 (A) (A) (A) (A) (A) (A) (A) (A) (A) (A) (A) (A)
                 (A) (A) (A) (A) (A) (A) (A) (A) (A) (A) (A) (A)
                 (A) (A) (A) (A) (A) (A) (A) (A) (A) (A) (A) (A)
                 (A) (A) (A) (A) (A) (A) (A) (A) (A) (A) (A) (A)
                 (A) (A) (A) (A) (A) (A) (A) (A) (A) (A) (A) (A)
                 (A) (A) (A) (A) (A) (A) (A) (A) (A) (A) (A) (A)
                 (A) (A) (A) (A) (A) (A) (A) (A) (A) (A) (A) (A)
                 (A) (A) (A) (A) (A) (A) (A) (A) (A) (A) (A) (A)
                 (A) (A) (A) (A) (A) (A) (A) (A) (A) (A) (A) (A)
                 (A) (A) (A) (A) (A) (A) (A) (A) (A) (A) (A) (A)
                 (A) (A) (A) (A) (A) (A) (A) (A) (A) (A) (A) (A)
                 (A) (A) (A) (A) (A) (A) (A) (A) (A) (A) (A) (A)
                 (A) (A) (A) (A) (A) (A) (A) (A) (A) (A) (A) (A)
                 (A) (A) (A) (A) (A) (A) (A) (A) (A) (A) (A) (A)
                 (A) (A) (A) (A) (A) (A) (A) (A) (A) (A) (A) (A)
                 (A)
 The electronic state of the initial guess is 1-A.
 Requested convergence on RMS density matrix=1.00D-08 within 128 cycles.
 Requested convergence on MAX density matrix=1.00D-06.
 Requested convergence on             energy=1.00D-06.
 No special actions if energy rises.
 Integral accuracy reduced to 1.0D-05 until final iterations.
 Initial convergence to 1.0D-05 achieved.  Increase integral accuracy.
 SCF Done:  E(RB3LYP) =  -1718.35536053     A.U. after   15 cycles
             Convg  =    0.4848D-08             -V/T =  2.0091

 **********************************************************************

            Population analysis using the SCF density.

 **********************************************************************

 Orbital symmetries:
       Occupied  (A) (A) (A) (A) (A) (A) (A) (A) (A) (A) (A) (A)
                 (A) (A) (A) (A) (A) (A) (A) (A) (A) (A) (A) (A)
                 (A) (A) (A) (A) (A) (A) (A) (A) (A) (A) (A) (A)
                 (A) (A) (A) (A) (A) (A) (A) (A) (A) (A) (A) (A)
                 (A) (A) (A) (A) (A) (A) (A) (A) (A) (A) (A) (A)
                 (A) (A) (A) (A) (A) (A) (A) (A) (A) (A) (A) (A)
                 (A) (A) (A) (A) (A) (A) (A) (A) (A) (A) (A) (A)
                 (A) (A) (A) (A) (A) (A) (A) (A) (A) (A) (A) (A)
                 (A) (A) (A) (A) (A) (A) (A) (A) (A) (A) (A) (A)
                 (A) (A) (A) (A) (A) (A) (A) (A) (A) (A) (A) (A)
                 (A) (A) (A) (A) (A)
       Virtual   (A) (A) (A) (A) (A) (A) (A) (A) (A) (A) (A) (A)
                 (A) (A) (A) (A) (A) (A) (A) (A) (A) (A) (A) (A)
                 (A) (A) (A) (A) (A) (A) (A) (A) (A) (A) (A) (A)
                 (A) (A) (A) (A) (A) (A) (A) (A) (A) (A) (A) (A)
                 (A) (A) (A) (A) (A) (A) (A) (A) (A) (A) (A) (A)
                 (A) (A) (A) (A) (A) (A) (A) (A) (A) (A) (A) (A)
                 (A) (A) (A) (A) (A) (A) (A) (A) (A) (A) (A) (A)
                 (A) (A) (A) (A) (A) (A) (A) (A) (A) (A) (A) (A)
                 (A) (A) (A) (A) (A) (A) (A) (A) (A) (A) (A) (A)
                 (A) (A) (A) (A) (A) (A) (A) (A) (A) (A) (A) (A)
                 (A) (A) (A) (A) (A) (A) (A) (A) (A) (A) (A) (A)
                 (A) (A) (A) (A) (A) (A) (A) (A) (A) (A) (A) (A)
                 (A) (A) (A) (A) (A) (A) (A) (A) (A) (A) (A) (A)
                 (A) (A) (A) (A) (A) (A) (A) (A) (A) (A) (A) (A)
                 (A) (A) (A) (A) (A) (A) (A) (A) (A) (A) (A) (A)
                 (A) (A) (A) (A) (A) (A) (A) (A) (A) (A) (A) (A)
                 (A) (A) (A) (A) (A) (A) (A) (A) (A) (A) (A) (A)
                 (A) (A) (A) (A) (A) (A) (A) (A) (A) (A) (A) (A)
                 (A) (A) (A) (A) (A) (A) (A) (A) (A) (A) (A) (A)
                 (A) (A) (A) (A) (A) (A) (A) (A) (A) (A) (A) (A)
                 (A) (A) (A) (A) (A) (A) (A) (A) (A) (A) (A) (A)
                 (A) (A) (A) (A) (A) (A) (A) (A) (A) (A) (A) (A)
                 (A) (A) (A) (A) (A) (A) (A) (A) (A) (A) (A) (A)
                 (A) (A) (A) (A) (A) (A) (A) (A) (A) (A) (A) (A)
                 (A) (A) (A) (A) (A) (A) (A) (A) (A) (A) (A) (A)
                 (A) (A) (A) (A) (A) (A) (A) (A) (A) (A) (A) (A)
                 (A) (A) (A) (A) (A) (A) (A) (A) (A) (A) (A) (A)
                 (A) (A) (A) (A) (A) (A) (A) (A) (A) (A) (A) (A)
                 (A) (A) (A) (A) (A) (A) (A) (A) (A) (A) (A) (A)
                 (A) (A) (A) (A) (A) (A) (A) (A) (A) (A) (A) (A)
                 (A) (A) (A) (A) (A) (A) (A) (A) (A) (A) (A) (A)
                 (A) (A) (A) (A) (A) (A) (A) (A) (A) (A) (A) (A)
                 (A) (A) (A) (A) (A) (A) (A) (A) (A) (A) (A) (A)
                 (A) (A) (A) (A) (A) (A) (A) (A) (A) (A) (A) (A)
                 (A) (A) (A) (A) (A) (A) (A) (A) (A) (A) (A) (A)
                 (A) (A) (A) (A) (A) (A) (A) (A) (A) (A) (A) (A)
                 (A)
 The electronic state is 1-A.
 Alpha  occ. eigenvalues --  -19.22007 -19.21742 -19.19139 -19.18800 -19.18588
 Alpha  occ. eigenvalues --  -19.16104 -19.15901 -19.15788 -19.14100 -19.13911
 Alpha  occ. eigenvalues --  -19.13412 -10.34152 -10.32666 -10.31261 -10.28979
 Alpha  occ. eigenvalues --  -10.26879 -10.26011 -10.25911 -10.25813 -10.24461
 Alpha  occ. eigenvalues --  -10.24437 -10.23553 -10.21791 -10.21546 -10.21417
 Alpha  occ. eigenvalues --  -10.21389 -10.21250 -10.20423 -10.19870 -10.19844
 Alpha  occ. eigenvalues --  -10.19653 -10.19044 -10.18898 -10.18421  -1.12868
 Alpha  occ. eigenvalues --   -1.11521  -1.09725  -1.06762  -1.06327  -1.04697
 Alpha  occ. eigenvalues --   -1.03053  -1.02962  -1.02058  -1.01453  -1.00997
 Alpha  occ. eigenvalues --   -0.87458  -0.85753  -0.83295  -0.80483  -0.78661
 Alpha  occ. eigenvalues --   -0.76776  -0.75596  -0.75191  -0.73827  -0.71618
 Alpha  occ. eigenvalues --   -0.70227  -0.69224  -0.65792  -0.64785  -0.64306
 Alpha  occ. eigenvalues --   -0.63474  -0.62443  -0.60693  -0.59367  -0.58052
 Alpha  occ. eigenvalues --   -0.56392  -0.55734  -0.54285  -0.53932  -0.51576
 Alpha  occ. eigenvalues --   -0.51002  -0.50544  -0.50100  -0.49960  -0.49338
 Alpha  occ. eigenvalues --   -0.48772  -0.48300  -0.48019  -0.47612  -0.47165
 Alpha  occ. eigenvalues --   -0.46568  -0.46264  -0.45707  -0.45338  -0.45018
 Alpha  occ. eigenvalues --   -0.44164  -0.43455  -0.43266  -0.42651  -0.42355
 Alpha  occ. eigenvalues --   -0.42102  -0.41697  -0.41427  -0.41235  -0.40428
 Alpha  occ. eigenvalues --   -0.39805  -0.39473  -0.39200  -0.38958  -0.38770
 Alpha  occ. eigenvalues --   -0.38103  -0.37398  -0.37314  -0.36944  -0.36799
 Alpha  occ. eigenvalues --   -0.35971  -0.35295  -0.35221  -0.34596  -0.34104
 Alpha  occ. eigenvalues --   -0.33917  -0.33281  -0.32834  -0.32363  -0.30031
 Alpha  occ. eigenvalues --   -0.29946  -0.29447  -0.27754  -0.27505  -0.27383
 Alpha  occ. eigenvalues --   -0.26565  -0.26033  -0.24898  -0.22707  -0.21276
 Alpha virt. eigenvalues --   -0.04046  -0.03605  -0.02550  -0.02090   0.04109
 Alpha virt. eigenvalues --    0.04859   0.05439   0.06134   0.06690   0.07343
 Alpha virt. eigenvalues --    0.08156   0.09340   0.09495   0.10501   0.11215
 Alpha virt. eigenvalues --    0.11773   0.12661   0.12853   0.13453   0.13736
 Alpha virt. eigenvalues --    0.14570   0.14924   0.15030   0.15740   0.15920
 Alpha virt. eigenvalues --    0.16335   0.16519   0.16804   0.17034   0.17477
 Alpha virt. eigenvalues --    0.17783   0.18109   0.18386   0.18725   0.19319
 Alpha virt. eigenvalues --    0.19939   0.20396   0.20924   0.21238   0.21843
 Alpha virt. eigenvalues --    0.22441   0.22882   0.23548   0.24084   0.24147
 Alpha virt. eigenvalues --    0.24989   0.25621   0.26244   0.26479   0.27793
 Alpha virt. eigenvalues --    0.27840   0.29534   0.30446   0.30942   0.32222
 Alpha virt. eigenvalues --    0.33272   0.33822   0.34505   0.36649   0.37647
 Alpha virt. eigenvalues --    0.39036   0.39848   0.41195   0.41735   0.42600
 Alpha virt. eigenvalues --    0.43889   0.45789   0.47292   0.47844   0.50414
 Alpha virt. eigenvalues --    0.50601   0.50976   0.51523   0.51825   0.52267
 Alpha virt. eigenvalues --    0.52495   0.53121   0.53549   0.54585   0.55094
 Alpha virt. eigenvalues --    0.55218   0.55686   0.56348   0.56833   0.57144
 Alpha virt. eigenvalues --    0.57433   0.57840   0.57905   0.58752   0.59351
 Alpha virt. eigenvalues --    0.59806   0.59922   0.60344   0.60630   0.60783
 Alpha virt. eigenvalues --    0.61566   0.62645   0.63168   0.63556   0.64589
 Alpha virt. eigenvalues --    0.64772   0.65827   0.65880   0.65969   0.66494
 Alpha virt. eigenvalues --    0.66959   0.68078   0.68754   0.69933   0.70150
 Alpha virt. eigenvalues --    0.70882   0.71626   0.72856   0.73236   0.73713
 Alpha virt. eigenvalues --    0.74071   0.74645   0.75314   0.75848   0.76128
 Alpha virt. eigenvalues --    0.76802   0.77204   0.78743   0.79236   0.79872
 Alpha virt. eigenvalues --    0.80313   0.81202   0.81588   0.81925   0.82583
 Alpha virt. eigenvalues --    0.83022   0.84089   0.84512   0.84589   0.85170
 Alpha virt. eigenvalues --    0.85497   0.86015   0.86260   0.86665   0.87411
 Alpha virt. eigenvalues --    0.87649   0.88228   0.88642   0.89861   0.90487
 Alpha virt. eigenvalues --    0.90599   0.91367   0.92274   0.92935   0.93221
 Alpha virt. eigenvalues --    0.93503   0.94090   0.94366   0.94968   0.95785
 Alpha virt. eigenvalues --    0.96256   0.96910   0.97003   0.97808   0.98675
 Alpha virt. eigenvalues --    0.99201   0.99488   1.00006   1.00423   1.00947
 Alpha virt. eigenvalues --    1.01075   1.02168   1.02883   1.03500   1.04456
 Alpha virt. eigenvalues --    1.04641   1.04772   1.07247   1.07451   1.08157
 Alpha virt. eigenvalues --    1.09022   1.09177   1.09962   1.10392   1.11134
 Alpha virt. eigenvalues --    1.12054   1.12818   1.13542   1.14066   1.14892
 Alpha virt. eigenvalues --    1.15902   1.16508   1.18614   1.19498   1.20935
 Alpha virt. eigenvalues --    1.21727   1.22357   1.23181   1.23935   1.24510
 Alpha virt. eigenvalues --    1.25493   1.26384   1.27516   1.27895   1.28997
 Alpha virt. eigenvalues --    1.29820   1.30763   1.32539   1.33272   1.34400
 Alpha virt. eigenvalues --    1.34648   1.35356   1.36654   1.37052   1.38116
 Alpha virt. eigenvalues --    1.38784   1.39100   1.39535   1.40393   1.40933
 Alpha virt. eigenvalues --    1.41694   1.42007   1.43957   1.44692   1.45634
 Alpha virt. eigenvalues --    1.46428   1.47180   1.47688   1.48867   1.50048
 Alpha virt. eigenvalues --    1.51387   1.52431   1.53856   1.55751   1.57278
 Alpha virt. eigenvalues --    1.59612   1.60061   1.61434   1.61891   1.63899
 Alpha virt. eigenvalues --    1.64510   1.64935   1.65258   1.66555   1.68819
 Alpha virt. eigenvalues --    1.69303   1.69758   1.71338   1.71463   1.71699
 Alpha virt. eigenvalues --    1.72125   1.72977   1.73918   1.74260   1.74462
 Alpha virt. eigenvalues --    1.75308   1.75691   1.77096   1.77770   1.78136
 Alpha virt. eigenvalues --    1.78737   1.79219   1.80112   1.80452   1.81000
 Alpha virt. eigenvalues --    1.81680   1.82080   1.82850   1.82952   1.83796
 Alpha virt. eigenvalues --    1.84405   1.84669   1.85346   1.86417   1.87209
 Alpha virt. eigenvalues --    1.87884   1.88000   1.88289   1.88863   1.89422
 Alpha virt. eigenvalues --    1.90081   1.90904   1.91352   1.92458   1.92672
 Alpha virt. eigenvalues --    1.93667   1.94644   1.94897   1.95522   1.95809
 Alpha virt. eigenvalues --    1.97526   1.98165   1.98630   1.99553   2.00917
 Alpha virt. eigenvalues --    2.01018   2.01556   2.02538   2.03206   2.04229
 Alpha virt. eigenvalues --    2.04474   2.04691   2.05885   2.06341   2.06809
 Alpha virt. eigenvalues --    2.07520   2.08341   2.09226   2.10134   2.10620
 Alpha virt. eigenvalues --    2.13185   2.14029   2.15863   2.17435   2.18915
 Alpha virt. eigenvalues --    2.20469   2.21278   2.21772   2.22505   2.23844
 Alpha virt. eigenvalues --    2.24457   2.25356   2.26014   2.26474   2.27986
 Alpha virt. eigenvalues --    2.29077   2.29453   2.30069   2.30699   2.30910
 Alpha virt. eigenvalues --    2.31444   2.32433   2.33201   2.33616   2.33879
 Alpha virt. eigenvalues --    2.35380   2.36346   2.36453   2.37521   2.37826
 Alpha virt. eigenvalues --    2.39187   2.39963   2.41791   2.42550   2.43124
 Alpha virt. eigenvalues --    2.44280   2.44597   2.45659   2.46571   2.48256
 Alpha virt. eigenvalues --    2.49219   2.50048   2.50976   2.52123   2.53249
 Alpha virt. eigenvalues --    2.54048   2.54179   2.55575   2.56956   2.58273
 Alpha virt. eigenvalues --    2.58883   2.59176   2.60150   2.63827   2.65144
 Alpha virt. eigenvalues --    2.66360   2.66936   2.67333   2.69152   2.70632
 Alpha virt. eigenvalues --    2.70724   2.71402   2.72105   2.73707   2.75053
 Alpha virt. eigenvalues --    2.75371   2.77410   2.77777   2.79010   2.82040
 Alpha virt. eigenvalues --    2.83911   2.85564   2.87008   2.87317   2.88689
 Alpha virt. eigenvalues --    2.91937   2.92827   2.94397   2.95987   2.96785
 Alpha virt. eigenvalues --    2.98222   2.99357   3.02572   3.04430   3.05935
 Alpha virt. eigenvalues --    3.07122   3.08293   3.12606   3.15066   3.16863
 Alpha virt. eigenvalues --    3.21456   3.23373   3.41708   3.50308   3.75542
 Alpha virt. eigenvalues --    3.83882   3.93382   3.96996   3.97660   4.00437
 Alpha virt. eigenvalues --    4.06077   4.08888   4.09590   4.13981   4.18006
 Alpha virt. eigenvalues --    4.20586   4.23509   4.25140   4.25395   4.26350
 Alpha virt. eigenvalues --    4.28175   4.30233   4.34113   4.36304   4.40065
 Alpha virt. eigenvalues --    4.42001   4.43764   4.48717   4.52396   4.53329
 Alpha virt. eigenvalues --    4.55261   4.57231   4.63325   4.66012   4.71936
 Alpha virt. eigenvalues --    4.75717   4.80283   4.88428
          Condensed to atoms (all electrons):
 Mulliken atomic charges:
              1
     1  C    0.121732
     2  C    0.296187
     3  C   -0.270922
     4  C    0.129339
     5  C   -0.048180
     6  C    0.233632
     7  C    0.062817
     8  C    0.283047
     9  O   -0.516479
    10  C    0.637292
    11  C   -0.361533
    12  C    0.248027
    13  C   -0.314252
    14  C   -0.342679
    15  C   -0.575953
    16  O   -0.674247
    17  O   -0.643239
    18  O   -0.541027
    19  O   -0.545826
    20  C    0.088562
    21  C    0.093975
    22  C    0.070448
    23  C   -0.151180
    24  C    0.067936
    25  C   -0.341360
    26  O   -0.636728
    27  O   -0.640389
    28  C    0.600609
    29  O   -0.459414
    30  O   -0.492304
    31  C   -0.223970
    32  C    0.582331
    33  O   -0.562196
    34  O   -0.472740
    35  H    0.139050
    36  H    0.193634
    37  H    0.173476
    38  H    0.171335
    39  H    0.170587
    40  H    0.182938
    41  H    0.175042
    42  H    0.162570
    43  H    0.207160
    44  H    0.157018
    45  H    0.448641
    46  H    0.418720
    47  H    0.146316
    48  H    0.147338
    49  H    0.133330
    50  H    0.166872
    51  H    0.180171
    52  H    0.184338
    53  H    0.399610
    54  H    0.414377
    55  H    0.162507
    56  H    0.179311
    57  H    0.167809
    58  H    0.416532
 Sum of Mulliken atomic charges =   0.00000
 Mulliken charges with hydrogens summed into heavy atoms:
              1
     1  C    0.121732
     2  C    0.296187
     3  C   -0.131872
     4  C    0.129339
     5  C   -0.048180
     6  C    0.233632
     7  C    0.062817
     8  C    0.283047
     9  O   -0.516479
    10  C    0.637292
    11  C    0.005578
    12  C    0.248027
    13  C    0.027670
    14  C    0.015300
    15  C   -0.049205
    16  O   -0.225606
    17  O   -0.224519
    18  O   -0.541027
    19  O   -0.545826
    20  C    0.234878
    21  C    0.241313
    22  C    0.203778
    23  C    0.015692
    24  C    0.067936
    25  C    0.023149
    26  O   -0.237118
    27  O   -0.226011
    28  C    0.600609
    29  O   -0.459414
    30  O   -0.492304
    31  C    0.285657
    32  C    0.582331
    33  O   -0.145665
    34  O   -0.472740
 Sum of Mulliken charges with hydrogens summed into heavy atoms =   0.00000
 Electronic spatial extent (au):  <R**2>=          14135.4764
 Charge=              0.0000 electrons
 Dipole moment (field-independent basis, Debye):
    X=             -2.7411    Y=             -1.0350    Z=             -1.5331  Tot=              3.3068
 Quadrupole moment (field-independent basis, Debye-Ang):
   XX=           -177.6100   YY=           -189.1106   ZZ=           -194.2717
   XY=              1.0437   XZ=             -7.5141   YZ=             -7.5652
 Traceless Quadrupole moment (field-independent basis, Debye-Ang):
   XX=              9.3874   YY=             -2.1132   ZZ=             -7.2743
   XY=              1.0437   XZ=             -7.5141   YZ=             -7.5652
 Octapole moment (field-independent basis, Debye-Ang**2):
  XXX=            -69.5811  YYY=            120.7989  ZZZ=            -11.4603  XYY=            -15.1572
  XXY=            -55.9481  XXZ=           -131.0146  XZZ=             -7.2188  YZZ=            -20.2239
  YYZ=             12.7004  XYZ=             30.2966
 Hexadecapole moment (field-independent basis, Debye-Ang**3):
 XXXX=          -9450.8640 YYYY=          -4831.2074 ZZZZ=          -2579.2654 XXXY=             53.5084
 XXXZ=             -2.3512 YYYX=            169.4220 YYYZ=            -14.5056 ZZZX=           -169.2174
 ZZZY=            -31.9425 XXYY=          -2328.6362 XXZZ=          -1976.9532 YYZZ=          -1244.5182
 XXYZ=            -39.7022 YYXZ=             50.7020 ZZXY=            -29.4628
 N-N= 3.918435489363D+03 E-N=-1.185118350070D+04  KE= 1.702801477582D+03
 Calling FoFJK, ICntrl=      2127 FMM=T ISym2X=0 I1Cent= 0 IOpClX= 0 NMat=1 NMatS=1 NMatT=0.
 ***** Axes restored to original set *****
 -------------------------------------------------------------------
 Center     Atomic                   Forces (Hartrees/Bohr)
 Number     Number              X              Y              Z
 -------------------------------------------------------------------
      1        6           0.001749457    0.007889711   -0.003190738
      2        6          -0.005184547   -0.001803401    0.004514044
      3        6          -0.007365989   -0.000714650    0.005528807
      4        6          -0.004172460   -0.019997746    0.008746646
      5        6          -0.008986387    0.026107994    0.001890478
      6        6           0.013398019    0.014398464   -0.015367733
      7        6           0.008577060   -0.001622152   -0.013530722
      8        6           0.001721096    0.007278931   -0.002295665
      9        8          -0.009829446   -0.001278995    0.007591870
     10        6           0.020929447   -0.033627704   -0.008398969
     11        6           0.002537336    0.001587854    0.001261522
     12        6           0.008295856    0.003246355    0.003167572
     13        6          -0.001138813    0.006291057    0.001455075
     14        6           0.002750134    0.006549548   -0.008019786
     15        6           0.001065036    0.000015617    0.000383045
     16        8          -0.003650668   -0.020757909    0.008464911
     17        8           0.001538258    0.003958159   -0.002696201
     18        8          -0.016111395    0.017514365    0.008771033
     19        8           0.000525825   -0.004009690    0.011376920
     20        6          -0.000896196   -0.008891908   -0.019024468
     21        6          -0.011606713    0.000276821    0.002697343
     22        6           0.010535146    0.002644319    0.008925019
     23        6           0.006251269   -0.008747130   -0.009404740
     24        6          -0.003410293    0.005262859    0.005663485
     25        6           0.001053757   -0.001992158    0.002256690
     26        8           0.008354956   -0.000126051   -0.002685592
     27        8          -0.005837711    0.004900832    0.005868061
     28        6          -0.003335967   -0.004640210    0.007457640
     29        8           0.007264882   -0.003346201   -0.000699490
     30        8          -0.008756554    0.009459700   -0.005594533
     31        6           0.004745395    0.006192466   -0.007479551
     32        6          -0.003673478   -0.017162229    0.007921933
     33        8          -0.002538964    0.003185255   -0.002130307
     34        8           0.004161106    0.012057311   -0.011159830
     35        1           0.000659364    0.001144971   -0.001464892
     36        1          -0.007320650   -0.003036176    0.001148138
     37        1           0.002640756    0.000082006   -0.000001045
     38        1          -0.000483608   -0.004325958   -0.002303495
     39        1           0.000305463   -0.002863524   -0.000721440
     40        1           0.000679420    0.001879732   -0.000283447
     41        1           0.000433826    0.001436477   -0.001504365
     42        1           0.002619748   -0.003403588   -0.002341039
     43        1          -0.004369078    0.000640336    0.002233388
     44        1           0.002630926   -0.003618053   -0.000781680
     45        1          -0.005994736   -0.000480454    0.005650600
     46        1           0.000321368    0.000861582    0.000321981
     47        1          -0.001394807    0.001223400    0.001848429
     48        1           0.001523372    0.006884231    0.001695804
     49        1          -0.003562023    0.000739718    0.003241939
     50        1           0.001545799   -0.000673076    0.000885940
     51        1          -0.000507710   -0.002324809    0.002981586
     52        1           0.001243508   -0.000464241   -0.002584854
     53        1           0.004955478    0.000312109    0.001410303
     54        1          -0.004079309   -0.001673701   -0.003630270
     55        1          -0.004602053   -0.001352646    0.003144960
     56        1           0.001059881   -0.003488279   -0.000839181
     57        1           0.002763012   -0.000236083    0.002526999
     58        1          -0.000026402    0.002636541   -0.002898131
 -------------------------------------------------------------------
 Cartesian Forces:  Max     0.033627704 RMS     0.007063795

 GradGradGradGradGradGradGradGradGradGradGradGradGradGradGradGradGradGrad
 Berny optimization.
 Internal  Forces:  Max     0.027492991 RMS     0.004544408
 Search for a local minimum.
 Step number   1 out of a maximum of  340
 All quantities printed in internal units (Hartrees-Bohrs-Radians)
 Mixed Optimization -- RFO/linear search
 Second derivative matrix not updated -- first step.
 ITU=  0
     Eigenvalues ---    0.00230   0.00451   0.00491   0.00537   0.00561
     Eigenvalues ---    0.00699   0.00719   0.00888   0.01164   0.01175
     Eigenvalues ---    0.01182   0.01182   0.01265   0.01274   0.01275
     Eigenvalues ---    0.01321   0.01338   0.01365   0.01369   0.01430
     Eigenvalues ---    0.01511   0.01649   0.01712   0.01721   0.01808
     Eigenvalues ---    0.01910   0.01982   0.02020   0.02034   0.02100
     Eigenvalues ---    0.02106   0.02119   0.02120   0.02274   0.02348
     Eigenvalues ---    0.02804   0.03114   0.03447   0.03731   0.04038
     Eigenvalues ---    0.04381   0.04663   0.04871   0.04931   0.05029
     Eigenvalues ---    0.05353   0.05428   0.05759   0.05878   0.06136
     Eigenvalues ---    0.06352   0.06898   0.06920   0.07057   0.07332
     Eigenvalues ---    0.07724   0.08066   0.08169   0.08240   0.08260
     Eigenvalues ---    0.09343   0.09450   0.09492   0.09541   0.10025
     Eigenvalues ---    0.10110   0.10499   0.11486   0.11835   0.14240
     Eigenvalues ---    0.14457   0.15992   0.16000   0.16000   0.16000
     Eigenvalues ---    0.16000   0.16000   0.16000   0.16000   0.16000
     Eigenvalues ---    0.16000   0.16000   0.16000   0.16682   0.16700
     Eigenvalues ---    0.16994   0.18297   0.18841   0.19861   0.22803
     Eigenvalues ---    0.23525   0.24342   0.24910   0.24949   0.24981
     Eigenvalues ---    0.24991   0.24995   0.24998   0.24998   0.24999
     Eigenvalues ---    0.25000   0.25000   0.25000   0.25000   0.25000
     Eigenvalues ---    0.25000   0.25000   0.26858   0.26951   0.27205
     Eigenvalues ---    0.27409   0.27554   0.28371   0.28477   0.30349
     Eigenvalues ---    0.30725   0.31342   0.31694   0.32006   0.32641
     Eigenvalues ---    0.33364   0.33858   0.33860   0.33938   0.33986
     Eigenvalues ---    0.34008   0.34057   0.34069   0.34078   0.34177
     Eigenvalues ---    0.34217   0.34243   0.34269   0.34272   0.34298
     Eigenvalues ---    0.34394   0.34413   0.34705   0.34731   0.35128
     Eigenvalues ---    0.35196   0.38375   0.39713   0.39787   0.40661
     Eigenvalues ---    0.40848   0.41278   0.41459   0.43236   0.44385
     Eigenvalues ---    0.45247   0.45432   0.45926   0.49694   0.50225
     Eigenvalues ---    0.50531   0.51251   0.51414   0.51657   0.52550
     Eigenvalues ---    0.52557   0.53327   0.53434   0.53766   0.54936
     Eigenvalues ---    0.91377   0.94146   0.95128
 RFO step:  Lambda=-2.61932800D-02 EMin= 2.30000000D-03
 Linear search not attempted -- first point.
 Maximum step size (   0.300) exceeded in Quadratic search.
    -- Step size scaled by   0.987
 Iteration  1 RMS(Cart)=  0.08328536 RMS(Int)=  0.00145753
 Iteration  2 RMS(Cart)=  0.00257942 RMS(Int)=  0.00032344
 Iteration  3 RMS(Cart)=  0.00000436 RMS(Int)=  0.00032343
 Iteration  4 RMS(Cart)=  0.00000001 RMS(Int)=  0.00032343
 Variable       Old X    -DE/DX   Delta X   Delta X   Delta X     New X
                                 (Linear)    (Quad)   (Total)
    R1        2.64226   0.00511   0.00000   0.00942   0.00970   2.65195
    R2        2.65274  -0.00171   0.00000  -0.00383  -0.00392   2.64882
    R3        2.84132   0.00377   0.00000   0.01076   0.01076   2.85208
    R4        2.63977   0.00149   0.00000   0.00234   0.00269   2.64246
    R5        2.58465  -0.00445   0.00000  -0.00812  -0.00812   2.57652
    R6        2.64724  -0.00491   0.00000  -0.00980  -0.00972   2.63753
    R7        2.05357  -0.00192   0.00000  -0.00502  -0.00502   2.04855
    R8        2.64711   0.01115   0.00000   0.02556   0.02501   2.67212
    R9        2.78279  -0.00927   0.00000  -0.02276  -0.02268   2.76011
   R10        2.66951   0.00085   0.00000   0.00370   0.00239   2.67191
   R11        2.79704  -0.01119   0.00000  -0.02779  -0.02890   2.76815
   R12        2.59937  -0.02749   0.00000  -0.05133  -0.05155   2.54782
   R13        2.53807   0.00335   0.00000   0.00661   0.00693   2.54501
   R14        2.86437  -0.00225   0.00000  -0.00625  -0.00627   2.85810
   R15        2.65988  -0.02010   0.00000  -0.04396  -0.04368   2.61621
   R16        2.84244  -0.00607   0.00000  -0.01491  -0.01491   2.82753
   R17        2.57245  -0.00261   0.00000  -0.00561  -0.00565   2.56680
   R18        2.32211  -0.00067   0.00000  -0.00086  -0.00076   2.32135
   R19        2.93111  -0.00415   0.00000  -0.01719  -0.01715   2.91396
   R20        2.07570  -0.00183   0.00000  -0.00495  -0.00495   2.07075
   R21        2.06874  -0.00038   0.00000  -0.00102  -0.00102   2.06772
   R22        2.91025   0.00078   0.00000   0.00130   0.00125   2.91151
   R23        2.71945  -0.01092   0.00000  -0.02547  -0.02547   2.69398
   R24        2.91335  -0.00521   0.00000  -0.01660  -0.01660   2.89675
   R25        2.89496   0.00359   0.00000   0.01010   0.01014   2.90511
   R26        2.07568  -0.00188   0.00000  -0.00509  -0.00509   2.07058
   R27        2.07435  -0.00158   0.00000  -0.00428  -0.00428   2.07007
   R28        2.07353   0.00038   0.00000   0.00102   0.00102   2.07455
   R29        2.07199   0.00052   0.00000   0.00140   0.00140   2.07339
   R30        2.06921   0.00307   0.00000   0.00822   0.00822   2.07743
   R31        2.06670  -0.00262   0.00000  -0.00698  -0.00698   2.05972
   R32        2.06966   0.00286   0.00000   0.00766   0.00766   2.07732
   R33        1.85813   0.00490   0.00000   0.00821   0.00912   1.86724
   R34        1.83349  -0.00017   0.00000  -0.00030  -0.00030   1.83320
   R35        3.21956   0.00324   0.00000   0.02640   0.02742   3.24697
   R36        2.71843   0.00001   0.00000   0.00002   0.00002   2.71845
   R37        2.91637  -0.00659   0.00000  -0.02065  -0.02052   2.89585
   R38        2.91388  -0.00429   0.00000  -0.01307  -0.01317   2.90071
   R39        2.07214  -0.00035   0.00000  -0.00094  -0.00094   2.07120
   R40        2.93116  -0.00344   0.00000  -0.01145  -0.01134   2.91982
   R41        2.70666  -0.00323   0.00000  -0.00737  -0.00737   2.69928
   R42        2.07234   0.00082   0.00000   0.00222   0.00222   2.07456
   R43        2.83576   0.00660   0.00000   0.01806   0.01811   2.85387
   R44        2.69617   0.00486   0.00000   0.01089   0.01089   2.70706
   R45        2.07033   0.00137   0.00000   0.00369   0.00369   2.07401
   R46        2.54495  -0.00454   0.00000  -0.00792  -0.00799   2.53696
   R47        2.05468  -0.00137   0.00000  -0.00358  -0.00358   2.05110
   R48        2.85230   0.00171   0.00000   0.00512   0.00499   2.85729
   R49        2.81717   0.00102   0.00000   0.00280   0.00280   2.81997
   R50        2.07316   0.00060   0.00000   0.00163   0.00163   2.07479
   R51        2.06114   0.00058   0.00000   0.00152   0.00152   2.06266
   R52        1.84069  -0.00508   0.00000  -0.00910  -0.00910   1.83160
   R53        1.84929  -0.00543   0.00000  -0.00987  -0.00987   1.83942
   R54        2.56245  -0.00294   0.00000  -0.00515  -0.00515   2.55730
   R55        2.31079  -0.01193   0.00000  -0.01217  -0.01217   2.29862
   R56        2.69853   0.00484   0.00000   0.01088   0.01088   2.70941
   R57        2.06638  -0.00098   0.00000  -0.00261  -0.00261   2.06377
   R58        2.06879  -0.00077   0.00000  -0.00207  -0.00207   2.06672
   R59        2.06830  -0.00066   0.00000  -0.00178  -0.00178   2.06653
   R60        2.55189   0.00298   0.00000   0.00511   0.00511   2.55700
   R61        2.30656  -0.01269   0.00000  -0.01282  -0.01282   2.29374
   R62        1.85324  -0.00373   0.00000  -0.00684  -0.00684   1.84640
    A1        2.04998  -0.00039   0.00000  -0.00121  -0.00161   2.04837
    A2        2.11674  -0.00119   0.00000  -0.00435  -0.00416   2.11259
    A3        2.11645   0.00158   0.00000   0.00557   0.00576   2.12222
    A4        2.12235   0.00428   0.00000   0.01488   0.01490   2.13726
    A5        2.14622  -0.00736   0.00000  -0.02611  -0.02612   2.12009
    A6        2.01462   0.00308   0.00000   0.01123   0.01121   2.02583
    A7        2.11336  -0.00604   0.00000  -0.02222  -0.02237   2.09099
    A8        2.04844   0.00293   0.00000   0.01062   0.01069   2.05914
    A9        2.12138   0.00311   0.00000   0.01160   0.01167   2.13305
   A10        2.06029   0.00571   0.00000   0.02150   0.02112   2.08142
   A11        2.13356   0.00383   0.00000   0.00767   0.00844   2.14200
   A12        2.08933  -0.00954   0.00000  -0.02918  -0.02957   2.05976
   A13        2.10429  -0.00375   0.00000  -0.01428  -0.01349   2.09080
   A14        2.08642   0.00288   0.00000   0.01146   0.01227   2.09869
   A15        2.09233   0.00087   0.00000   0.00294   0.00132   2.09365
   A16        2.11595   0.00020   0.00000   0.00138   0.00148   2.11743
   A17        2.04086   0.00481   0.00000   0.01317   0.01480   2.05566
   A18        2.12635  -0.00502   0.00000  -0.01457  -0.01630   2.11006
   A19        2.05679   0.00380   0.00000   0.01560   0.01556   2.07235
   A20        2.10977  -0.00081   0.00000  -0.00514  -0.00509   2.10468
   A21        2.11607  -0.00298   0.00000  -0.01029  -0.01031   2.10575
   A22        2.14647   0.00169   0.00000   0.00223   0.00236   2.14884
   A23        2.15993   0.00796   0.00000   0.03359   0.03350   2.19343
   A24        1.97654  -0.00964   0.00000  -0.03579  -0.03583   1.94071
   A25        2.12926   0.00047   0.00000  -0.00173  -0.00210   2.12716
   A26        2.05081   0.00074   0.00000   0.00285   0.00265   2.05346
   A27        2.10382   0.02539   0.00000   0.09319   0.09205   2.19587
   A28        2.12815  -0.02610   0.00000  -0.09554  -0.09436   2.03379
   A29        1.97995  -0.00183   0.00000  -0.01370  -0.01362   1.96633
   A30        1.87548   0.00646   0.00000   0.05137   0.05131   1.92680
   A31        1.92900  -0.00175   0.00000  -0.01134  -0.01128   1.91772
   A32        1.92591  -0.00501   0.00000  -0.03349  -0.03329   1.89261
   A33        1.89222   0.00315   0.00000   0.01733   0.01726   1.90948
   A34        1.85756  -0.00109   0.00000  -0.01070  -0.01067   1.84690
   A35        1.88187   0.00300   0.00000   0.02133   0.02120   1.90307
   A36        1.97404   0.00251   0.00000   0.00969   0.00971   1.98375
   A37        1.91229  -0.00258   0.00000  -0.00436  -0.00476   1.90753
   A38        1.83763  -0.00326   0.00000  -0.01573  -0.01576   1.82187
   A39        1.86972   0.00278   0.00000   0.01924   0.01913   1.88885
   A40        1.98127  -0.00207   0.00000  -0.02694  -0.02684   1.95442
   A41        1.93998   0.00048   0.00000  -0.00259  -0.00253   1.93745
   A42        1.92357  -0.00357   0.00000  -0.02765  -0.02769   1.89588
   A43        1.93131  -0.00077   0.00000  -0.00945  -0.00940   1.92191
   A44        1.91513   0.00280   0.00000   0.01783   0.01773   1.93286
   A45        1.89182   0.00017   0.00000   0.01237   0.01223   1.90405
   A46        1.86009   0.00100   0.00000   0.01090   0.01049   1.87058
   A47        1.98132  -0.00675   0.00000  -0.02746  -0.02734   1.95399
   A48        1.89173   0.00147   0.00000   0.00625   0.00632   1.89805
   A49        1.91398   0.00143   0.00000  -0.00099  -0.00088   1.91309
   A50        1.91172   0.00318   0.00000   0.01781   0.01782   1.92954
   A51        1.89830   0.00287   0.00000   0.01423   0.01403   1.91233
   A52        1.86318  -0.00196   0.00000  -0.00892  -0.00906   1.85412
   A53        1.91860   0.00530   0.00000   0.02793   0.02784   1.94644
   A54        1.97520  -0.00753   0.00000  -0.04109  -0.04084   1.93436
   A55        1.92112   0.00439   0.00000   0.02460   0.02451   1.94563
   A56        1.87443   0.00035   0.00000  -0.00056  -0.00032   1.87411
   A57        1.90762  -0.00434   0.00000  -0.02068  -0.02108   1.88653
   A58        1.86492   0.00154   0.00000   0.00837   0.00861   1.87352
   A59        1.90360  -0.01826   0.00000  -0.09344  -0.09428   1.80932
   A60        1.91296  -0.00131   0.00000  -0.00696  -0.00696   1.90601
   A61        2.06078   0.00709   0.00000   0.02536   0.02536   2.08613
   A62        1.88806  -0.00618   0.00000  -0.03572  -0.03586   1.85220
   A63        1.92055   0.00163   0.00000   0.00670   0.00686   1.92741
   A64        1.94082   0.00124   0.00000   0.00181   0.00142   1.94225
   A65        1.90559   0.00460   0.00000   0.02194   0.02215   1.92774
   A66        1.90638  -0.00047   0.00000  -0.00747  -0.00793   1.89845
   A67        1.90210  -0.00075   0.00000   0.01285   0.01278   1.91488
   A68        1.93201   0.00309   0.00000   0.00320   0.00328   1.93528
   A69        1.90987  -0.01130   0.00000  -0.06754  -0.06721   1.84266
   A70        1.89888   0.00201   0.00000   0.00812   0.00852   1.90740
   A71        1.94624   0.00574   0.00000   0.01945   0.01856   1.96480
   A72        1.90002  -0.00507   0.00000  -0.02151  -0.02202   1.87799
   A73        1.87538   0.00561   0.00000   0.06020   0.06038   1.93576
   A74        2.00225  -0.00593   0.00000  -0.01729  -0.01767   1.98458
   A75        1.92015   0.00138   0.00000   0.01742   0.01707   1.93722
   A76        1.91050   0.00049   0.00000  -0.01749  -0.01753   1.89297
   A77        1.85567   0.00673   0.00000   0.04842   0.04838   1.90405
   A78        1.89444   0.00212   0.00000   0.00911   0.00899   1.90342
   A79        1.87630  -0.00471   0.00000  -0.04095  -0.04094   1.83536
   A80        2.15466   0.00216   0.00000   0.00700   0.00705   2.16171
   A81        2.01411  -0.00004   0.00000   0.00198   0.00188   2.01598
   A82        2.11398  -0.00214   0.00000  -0.00951  -0.00960   2.10438
   A83        2.12205   0.00182   0.00000   0.00625   0.00614   2.12819
   A84        2.14343  -0.00179   0.00000  -0.00594  -0.00592   2.13751
   A85        2.01615   0.00002   0.00000   0.00032   0.00035   2.01650
   A86        1.97067  -0.00455   0.00000  -0.02075  -0.02085   1.94982
   A87        1.91795  -0.00213   0.00000  -0.01678  -0.01662   1.90132
   A88        1.90566   0.00400   0.00000   0.02175   0.02183   1.92749
   A89        1.89250   0.00417   0.00000   0.02726   0.02718   1.91968
   A90        1.91100  -0.00021   0.00000  -0.00567  -0.00556   1.90544
   A91        1.86296  -0.00114   0.00000  -0.00513  -0.00508   1.85788
[...]
     51          1           0       -1.282232    0.724752   -2.683827
     52          1           0       -0.317528    0.150013   -1.335794
     53          1           0       -4.627754    1.098954   -3.111124
     54          1           0       -3.831539    0.804004    1.013616
     55          1           0        0.722430    5.425595    0.795638
     56          1           0        1.619137    3.876123    0.947072
     57          1           0        1.584998    4.729297   -0.616573
     58          1           0       -4.628421   -3.389991   -0.068218
 ---------------------------------------------------------------------
 Rotational constants (GHZ):      0.1773366      0.0996388      0.0832038

 **********************************************************************

            Population analysis using the SCF density.

 **********************************************************************

 Orbital symmetries:
       Occupied  (A) (A) (A) (A) (A) (A) (A) (A) (A) (A) (A) (A)
                 (A) (A) (A) (A) (A) (A) (A) (A) (A) (A) (A) (A)
                 (A) (A) (A) (A) (A) (A) (A) (A) (A) (A) (A) (A)
                 (A) (A) (A) (A) (A) (A) (A) (A) (A) (A) (A) (A)
                 (A) (A) (A) (A) (A) (A) (A) (A) (A) (A) (A) (A)
                 (A) (A) (A) (A) (A) (A) (A) (A) (A) (A) (A) (A)
                 (A) (A) (A) (A) (A) (A) (A) (A) (A) (A) (A) (A)
                 (A) (A) (A) (A) (A) (A) (A) (A) (A) (A) (A) (A)
                 (A) (A) (A) (A) (A) (A) (A) (A) (A) (A) (A) (A)
                 (A) (A) (A) (A) (A) (A) (A) (A) (A) (A) (A) (A)
                 (A) (A) (A) (A) (A)
       Virtual   (A) (A) (A) (A) (A) (A) (A) (A) (A) (A) (A) (A)
                 (A) (A) (A) (A) (A) (A) (A) (A) (A) (A) (A) (A)
                 (A) (A) (A) (A) (A) (A) (A) (A) (A) (A) (A) (A)
                 (A) (A) (A) (A) (A) (A) (A) (A) (A) (A) (A) (A)
                 (A) (A) (A) (A) (A) (A) (A) (A) (A) (A) (A) (A)
                 (A) (A) (A) (A) (A) (A) (A) (A) (A) (A) (A) (A)
                 (A) (A) (A) (A) (A) (A) (A) (A) (A) (A) (A) (A)
                 (A) (A) (A) (A) (A) (A) (A) (A) (A) (A) (A) (A)
                 (A) (A) (A) (A) (A) (A) (A) (A) (A) (A) (A) (A)
                 (A) (A) (A) (A) (A) (A) (A) (A) (A) (A) (A) (A)
                 (A) (A) (A) (A) (A) (A) (A) (A) (A) (A) (A) (A)
                 (A) (A) (A) (A) (A) (A) (A) (A) (A) (A) (A) (A)
                 (A) (A) (A) (A) (A) (A) (A) (A) (A) (A) (A) (A)
                 (A) (A) (A) (A) (A) (A) (A) (A) (A) (A) (A) (A)
                 (A) (A) (A) (A) (A) (A) (A) (A) (A) (A) (A) (A)
                 (A) (A) (A) (A) (A) (A) (A) (A) (A) (A) (A) (A)
                 (A) (A) (A) (A) (A) (A) (A) (A) (A) (A) (A) (A)
                 (A) (A) (A) (A) (A) (A) (A) (A) (A) (A) (A) (A)
                 (A) (A) (A) (A) (A) (A) (A) (A) (A) (A) (A) (A)
                 (A) (A) (A) (A) (A) (A) (A) (A) (A) (A) (A) (A)
                 (A) (A) (A) (A) (A) (A) (A) (A) (A) (A) (A) (A)
                 (A) (A) (A) (A) (A) (A) (A) (A) (A) (A) (A) (A)
                 (A) (A) (A) (A) (A) (A) (A) (A) (A) (A) (A) (A)
                 (A) (A) (A) (A) (A) (A) (A) (A) (A) (A) (A) (A)
                 (A) (A) (A) (A) (A) (A) (A) (A) (A) (A) (A) (A)
                 (A) (A) (A) (A) (A) (A) (A) (A) (A) (A) (A) (A)
                 (A) (A) (A) (A) (A) (A) (A) (A) (A) (A) (A) (A)
                 (A) (A) (A) (A) (A) (A) (A) (A) (A) (A) (A) (A)
                 (A) (A) (A) (A) (A) (A) (A) (A) (A) (A) (A) (A)
                 (A) (A) (A) (A) (A) (A) (A) (A) (A) (A) (A) (A)
                 (A) (A) (A) (A) (A) (A) (A) (A) (A) (A) (A) (A)
                 (A) (A) (A) (A) (A) (A) (A) (A) (A) (A) (A) (A)
                 (A) (A) (A) (A) (A) (A) (A) (A) (A) (A) (A) (A)
                 (A) (A) (A) (A) (A) (A) (A) (A) (A) (A) (A) (A)
                 (A) (A) (A) (A) (A) (A) (A) (A) (A) (A) (A) (A)
                 (A) (A) (A) (A) (A) (A) (A) (A) (A) (A) (A) (A)
                 (A)
 The electronic state is 1-A.
 Alpha  occ. eigenvalues --  -19.21876 -19.21569 -19.19054 -19.18641 -19.17658
 Alpha  occ. eigenvalues --  -19.16709 -19.15934 -19.15917 -19.14129 -19.13818
 Alpha  occ. eigenvalues --  -19.13012 -10.33766 -10.32270 -10.30956 -10.28245
 Alpha  occ. eigenvalues --  -10.26635 -10.26355 -10.26316 -10.25295 -10.24358
 Alpha  occ. eigenvalues --  -10.24203 -10.23164 -10.21859 -10.21343 -10.21070
 Alpha  occ. eigenvalues --  -10.20996 -10.20814 -10.20470 -10.19994 -10.19781
 Alpha  occ. eigenvalues --  -10.19728 -10.19372 -10.18729 -10.18626  -1.12786
 Alpha  occ. eigenvalues --   -1.11973  -1.09538  -1.07291  -1.06071  -1.05951
 Alpha  occ. eigenvalues --   -1.03528  -1.03313  -1.02301  -1.01447  -1.00587
 Alpha  occ. eigenvalues --   -0.87346  -0.85630  -0.83281  -0.80417  -0.78526
 Alpha  occ. eigenvalues --   -0.76772  -0.75748  -0.75302  -0.73749  -0.71453
 Alpha  occ. eigenvalues --   -0.70373  -0.68955  -0.65967  -0.65466  -0.64270
 Alpha  occ. eigenvalues --   -0.63459  -0.62360  -0.60885  -0.59211  -0.57685
 Alpha  occ. eigenvalues --   -0.56706  -0.55748  -0.54583  -0.53778  -0.51873
 Alpha  occ. eigenvalues --   -0.51205  -0.50591  -0.50059  -0.49745  -0.49272
 Alpha  occ. eigenvalues --   -0.49046  -0.48242  -0.47866  -0.47207  -0.46808
 Alpha  occ. eigenvalues --   -0.46535  -0.46052  -0.45480  -0.45193  -0.44839
 Alpha  occ. eigenvalues --   -0.44177  -0.43628  -0.42952  -0.42732  -0.42238
 Alpha  occ. eigenvalues --   -0.41960  -0.41590  -0.41339  -0.41085  -0.40802
 Alpha  occ. eigenvalues --   -0.39957  -0.39475  -0.39243  -0.39081  -0.38764
 Alpha  occ. eigenvalues --   -0.38298  -0.37430  -0.37158  -0.37005  -0.36816
 Alpha  occ. eigenvalues --   -0.36096  -0.35272  -0.35113  -0.34667  -0.34341
 Alpha  occ. eigenvalues --   -0.33909  -0.33179  -0.33013  -0.32293  -0.30161
 Alpha  occ. eigenvalues --   -0.29576  -0.29513  -0.28006  -0.27421  -0.27040
 Alpha  occ. eigenvalues --   -0.26316  -0.25864  -0.25185  -0.22839  -0.21255
 Alpha virt. eigenvalues --   -0.04069  -0.03984  -0.02359  -0.01392   0.04382
 Alpha virt. eigenvalues --    0.04942   0.05685   0.06151   0.06693   0.07586
 Alpha virt. eigenvalues --    0.08371   0.09688   0.09884   0.10922   0.11783
 Alpha virt. eigenvalues --    0.12281   0.12788   0.13374   0.13531   0.14305
 Alpha virt. eigenvalues --    0.14809   0.15203   0.15241   0.15876   0.16296
 Alpha virt. eigenvalues --    0.16475   0.16720   0.17172   0.17414   0.17588
 Alpha virt. eigenvalues --    0.18010   0.18564   0.18855   0.19046   0.19775
 Alpha virt. eigenvalues --    0.20443   0.20889   0.21069   0.21394   0.21860
 Alpha virt. eigenvalues --    0.22846   0.23428   0.23830   0.24116   0.24347
 Alpha virt. eigenvalues --    0.24874   0.26126   0.26801   0.27177   0.28067
 Alpha virt. eigenvalues --    0.28783   0.29734   0.30736   0.31151   0.32369
 Alpha virt. eigenvalues --    0.33256   0.33850   0.34180   0.35988   0.38449
 Alpha virt. eigenvalues --    0.39053   0.40583   0.41301   0.41923   0.42852
 Alpha virt. eigenvalues --    0.44220   0.45865   0.46964   0.47648   0.50106
 Alpha virt. eigenvalues --    0.50696   0.50887   0.51347   0.52168   0.52494
 Alpha virt. eigenvalues --    0.52829   0.53086   0.53628   0.54615   0.54781
 Alpha virt. eigenvalues --    0.55525   0.56097   0.56338   0.56928   0.57005
 Alpha virt. eigenvalues --    0.57595   0.57997   0.58133   0.58927   0.59785
 Alpha virt. eigenvalues --    0.60037   0.60352   0.60582   0.61126   0.61517
 Alpha virt. eigenvalues --    0.62100   0.62410   0.63367   0.63669   0.64320
 Alpha virt. eigenvalues --    0.64909   0.66018   0.66203   0.66432   0.67425
 Alpha virt. eigenvalues --    0.67628   0.68065   0.69077   0.69871   0.70414
 Alpha virt. eigenvalues --    0.70723   0.71613   0.72597   0.73142   0.73422
 Alpha virt. eigenvalues --    0.74303   0.74380   0.75092   0.75985   0.76374
 Alpha virt. eigenvalues --    0.76509   0.77384   0.78880   0.80016   0.80273
 Alpha virt. eigenvalues --    0.80444   0.81370   0.81731   0.82472   0.82971
 Alpha virt. eigenvalues --    0.83485   0.84009   0.84554   0.84804   0.84852
 Alpha virt. eigenvalues --    0.85476   0.86018   0.86848   0.87150   0.87336
 Alpha virt. eigenvalues --    0.87958   0.88541   0.89190   0.90100   0.90272
 Alpha virt. eigenvalues --    0.90904   0.91285   0.92719   0.93190   0.93765
 Alpha virt. eigenvalues --    0.93937   0.94121   0.94978   0.95264   0.95704
 Alpha virt. eigenvalues --    0.96667   0.97314   0.97531   0.98653   0.99435
 Alpha virt. eigenvalues --    0.99548   1.00201   1.00628   1.01199   1.01725
 Alpha virt. eigenvalues --    1.02120   1.02768   1.03400   1.04244   1.04783
 Alpha virt. eigenvalues --    1.05527   1.06100   1.07253   1.07341   1.08737
 Alpha virt. eigenvalues --    1.09074   1.09469   1.10368   1.11657   1.12172
 Alpha virt. eigenvalues --    1.12691   1.13746   1.13869   1.14946   1.15867
 Alpha virt. eigenvalues --    1.17425   1.18133   1.18188   1.20753   1.21349
 Alpha virt. eigenvalues --    1.22427   1.22755   1.22877   1.24047   1.24747
 Alpha virt. eigenvalues --    1.26514   1.27350   1.27736   1.29585   1.30239
 Alpha virt. eigenvalues --    1.30982   1.32036   1.32885   1.33607   1.34599
 Alpha virt. eigenvalues --    1.35676   1.36417   1.36787   1.37823   1.38507
 Alpha virt. eigenvalues --    1.38763   1.39279   1.39563   1.40238   1.40830
 Alpha virt. eigenvalues --    1.41933   1.43069   1.43554   1.44153   1.45636
 Alpha virt. eigenvalues --    1.46882   1.47454   1.48754   1.49597   1.50685
 Alpha virt. eigenvalues --    1.52486   1.52796   1.53876   1.56775   1.57889
 Alpha virt. eigenvalues --    1.59936   1.61041   1.62065   1.63127   1.63827
 Alpha virt. eigenvalues --    1.64711   1.66462   1.66902   1.67857   1.69798
 Alpha virt. eigenvalues --    1.70080   1.70579   1.71032   1.71282   1.71654
 Alpha virt. eigenvalues --    1.72138   1.73668   1.74037   1.74365   1.74569
 Alpha virt. eigenvalues --    1.75108   1.75560   1.76903   1.77461   1.77784
 Alpha virt. eigenvalues --    1.78953   1.79622   1.80189   1.80543   1.81599
 Alpha virt. eigenvalues --    1.81856   1.82500   1.83027   1.83585   1.84239
 Alpha virt. eigenvalues --    1.84585   1.85619   1.86462   1.87027   1.87438
 Alpha virt. eigenvalues --    1.88048   1.88662   1.88986   1.89637   1.90322
 Alpha virt. eigenvalues --    1.91165   1.92309   1.92470   1.92935   1.93118
 Alpha virt. eigenvalues --    1.94237   1.95206   1.95594   1.96296   1.96437
 Alpha virt. eigenvalues --    1.97711   1.98552   1.99405   2.00198   2.01115
 Alpha virt. eigenvalues --    2.01771   2.02748   2.03231   2.04082   2.05081
 Alpha virt. eigenvalues --    2.05305   2.05761   2.05805   2.06742   2.07508
 Alpha virt. eigenvalues --    2.07967   2.09858   2.10310   2.12185   2.12213
 Alpha virt. eigenvalues --    2.13964   2.14582   2.16238   2.18594   2.19771
 Alpha virt. eigenvalues --    2.20053   2.21463   2.22414   2.23086   2.23821
 Alpha virt. eigenvalues --    2.24804   2.25592   2.26476   2.27632   2.28513
 Alpha virt. eigenvalues --    2.28674   2.29355   2.30103   2.30320   2.31430
 Alpha virt. eigenvalues --    2.32280   2.32646   2.33400   2.34073   2.34608
 Alpha virt. eigenvalues --    2.35981   2.36262   2.37253   2.37488   2.39006
 Alpha virt. eigenvalues --    2.39353   2.41244   2.42500   2.43284   2.43554
 Alpha virt. eigenvalues --    2.45143   2.45470   2.46153   2.47768   2.48232
 Alpha virt. eigenvalues --    2.49387   2.50075   2.51074   2.52764   2.52935
 Alpha virt. eigenvalues --    2.54435   2.55217   2.56490   2.57239   2.58350
 Alpha virt. eigenvalues --    2.59489   2.59949   2.60859   2.63303   2.65884
 Alpha virt. eigenvalues --    2.66728   2.68505   2.69349   2.70160   2.70543
 Alpha virt. eigenvalues --    2.70817   2.72744   2.73957   2.74646   2.76109
 Alpha virt. eigenvalues --    2.76973   2.77940   2.78290   2.80090   2.82981
 Alpha virt. eigenvalues --    2.83694   2.86662   2.87319   2.87404   2.89256
 Alpha virt. eigenvalues --    2.91423   2.93551   2.95060   2.95634   2.97046
 Alpha virt. eigenvalues --    2.99290   3.01197   3.03503   3.04421   3.06920
 Alpha virt. eigenvalues --    3.07360   3.08802   3.13497   3.16475   3.20305
 Alpha virt. eigenvalues --    3.22400   3.24708   3.44691   3.51064   3.77208
 Alpha virt. eigenvalues --    3.82375   3.94119   3.96346   3.97890   4.02676
 Alpha virt. eigenvalues --    4.08109   4.10184   4.11328   4.15119   4.18264
 Alpha virt. eigenvalues --    4.20873   4.25116   4.26513   4.28187   4.29041
 Alpha virt. eigenvalues --    4.30212   4.31190   4.35229   4.37097   4.40806
 Alpha virt. eigenvalues --    4.42752   4.47633   4.50772   4.51277   4.55272
 Alpha virt. eigenvalues --    4.56710   4.57637   4.65046   4.67859   4.71120
 Alpha virt. eigenvalues --    4.78432   4.82918   4.88914
          Condensed to atoms (all electrons):
 Mulliken atomic charges:
              1
     1  C    0.112542
     2  C    0.300991
     3  C   -0.272840
     4  C    0.145365
     5  C   -0.033912
     6  C    0.243586
     7  C    0.046291
     8  C    0.296283
     9  O   -0.506174
    10  C    0.613881
    11  C   -0.374551
    12  C    0.249073
    13  C   -0.306179
    14  C   -0.343153
    15  C   -0.585537
    16  O   -0.662001
    17  O   -0.639763
    18  O   -0.554032
    19  O   -0.553710
    20  C    0.101125
    21  C    0.083992
    22  C    0.078668
    23  C   -0.162344
    24  C    0.085662
    25  C   -0.344820
    26  O   -0.631798
    27  O   -0.640510
    28  C    0.593817
    29  O   -0.464575
    30  O   -0.498975
    31  C   -0.229434
    32  C    0.579036
    33  O   -0.560363
    34  O   -0.468925
    35  H    0.141209
    36  H    0.194961
    37  H    0.166923
    38  H    0.173781
    39  H    0.160933
    40  H    0.186676
    41  H    0.175271
    42  H    0.162018
    43  H    0.208293
    44  H    0.158995
    45  H    0.447867
    46  H    0.421345
    47  H    0.140411
    48  H    0.149106
    49  H    0.131011
    50  H    0.166444
    51  H    0.184710
    52  H    0.185302
    53  H    0.398931
    54  H    0.412833
    55  H    0.161681
    56  H    0.190641
    57  H    0.167992
    58  H    0.415947
 Sum of Mulliken atomic charges =   0.00000
 Mulliken charges with hydrogens summed into heavy atoms:
              1
     1  C    0.112542
     2  C    0.300991
     3  C   -0.131631
     4  C    0.145365
     5  C   -0.033912
     6  C    0.243586
     7  C    0.046291
     8  C    0.296283
     9  O   -0.506174
    10  C    0.613881
    11  C   -0.012667
    12  C    0.249073
    13  C    0.028535
    14  C    0.018794
    15  C   -0.056232
    16  O   -0.214134
    17  O   -0.218418
    18  O   -0.554032
    19  O   -0.553710
    20  C    0.241536
    21  C    0.233098
    22  C    0.209680
    23  C    0.004101
    24  C    0.085662
    25  C    0.025192
    26  O   -0.232867
    27  O   -0.227677
    28  C    0.593817
    29  O   -0.464575
    30  O   -0.498975
    31  C    0.290881
    32  C    0.579036
    33  O   -0.144416
    34  O   -0.468925
 Sum of Mulliken charges with hydrogens summed into heavy atoms =   0.00000
 Electronic spatial extent (au):  <R**2>=          13834.6922
 Charge=              0.0000 electrons
 Dipole moment (field-independent basis, Debye):
    X=             -2.3547    Y=             -1.6763    Z=             -1.8740  Tot=              3.4448
 Quadrupole moment (field-independent basis, Debye-Ang):
   XX=           -176.0259   YY=           -193.0895   ZZ=           -191.2826
   XY=             -1.2378   XZ=             -4.0610   YZ=             -2.7795
 Traceless Quadrupole moment (field-independent basis, Debye-Ang):
   XX=             10.7734   YY=             -6.2902   ZZ=             -4.4833
   XY=             -1.2378   XZ=             -4.0610   YZ=             -2.7795
 Octapole moment (field-independent basis, Debye-Ang**2):
  XXX=            -36.3718  YYY=            109.8953  ZZZ=             -2.8566  XYY=            -12.1312
  XXY=            -85.5418  XXZ=           -125.0975  XZZ=            -22.5725  YZZ=            -13.8748
  YYZ=            -17.5970  XYZ=             22.6083
 Hexadecapole moment (field-independent basis, Debye-Ang**3):
 XXXX=          -9390.9318 YYYY=          -4778.4757 ZZZZ=          -2402.8656 XXXY=             42.3108
 XXXZ=              2.4656 YYYX=            154.8821 YYYZ=             91.6459 ZZZX=            -86.6584
 ZZZY=            -35.7541 XXYY=          -2291.0989 XXZZ=          -1885.7542 YYZZ=          -1212.9038
 XXYZ=             -7.6848 YYXZ=             60.0551 ZZXY=            -69.1596
 N-N= 3.962133106095D+03 E-N=-1.193892441218D+04  KE= 1.703093283928D+03
 1\1\GINC-B0802\FOpt\RB3LYP\6-31G(d)\C23H24O11\CAOFEI\02-Feb-2021\0\\# 
 opt b3lyp/6-31g(d) geom=connectivity\\Title Card Required\\0,1\C,4.411
 3284964,-1.1806936812,-0.9105210424\C,3.7241519752,-2.0155492357,-0.01
 35386296\C,2.6099659457,-1.5893210274,0.7181246347\C,2.1470623885,-0.2
 835949109,0.5705803761\C,2.8270640402,0.5956294628,-0.3147618501\C,3.9
 473340849,0.1336980933,-1.059885175\C,0.9869444706,0.2346700312,1.2811
 888941\C,0.6568369607,1.5353476007,1.1302704648\O,1.3311319992,2.38085
 6704,0.28739893\C,2.3749898177,1.9516916349,-0.494831736\C,0.137606861
 4,-0.6753476933,2.140613299\C,-1.2526335609,-0.0835769083,2.4589334005
 \C,-1.0749277129,1.3750019033,2.9392779272\C,-0.4751015149,2.234407094
 9,1.8190760447\C,5.6003701359,-1.6833146975,-1.6918790381\O,4.59273961
 75,0.9422617293,-1.9165495917\O,4.1154953241,-3.3032941671,0.189131052
 1\O,2.8517388638,2.7770553254,-1.2755870942\O,-2.1194377413,0.01799312
 1,1.3351055024\C,-2.3875407144,-1.1270013126,0.4959316318\C,-3.8803618
 377,-1.0434827218,0.1456968352\C,-4.2003956002,0.288671436,-0.57342961
 6\C,-3.1160265292,0.7310746136,-1.5279155248\C,-1.9105074462,0.1458604
 209,-1.6081501611\C,-1.5501903789,-1.0707049811,-0.7841521414\O,-4.144
 222998,-2.1750340143,-0.6804186396\O,-4.4636209638,1.3322385576,0.3662
 955623\C,-0.8216604977,0.6864463313,-2.4707038536\O,-1.1735012028,1.79
 20328679,-3.1607294814\O,0.2909849366,0.1932161709,-2.5322354246\C,-0.
 1192159776,2.3877126198,-3.9377043048\C,-1.8840952541,-0.8838485071,3.
 6124286417\O,-3.2139625392,-1.0733054618,3.4668578831\O,-1.2703777977,
 -1.2659457498,4.5847645767\H,2.1404179312,-2.2967187424,1.3906560761\H
 ,0.6275254599,-0.8980814646,3.0950463323\H,0.0131165921,-1.641796427,1
 .6389642854\H,-0.4208524247,1.3680355466,3.8173733072\H,-2.0432978536,
 1.7820937283,3.2498356692\H,-1.2400697521,2.4896304278,1.0750555437\H,
 -0.1109084599,3.1851315825,2.2275750483\H,5.337301094,-2.5322454058,-2
 .3394895686\H,5.9897466716,-0.8934530307,-2.335322626\H,6.4208731573,-
 2.0040066363,-1.0334636505\H,4.1118486493,1.8119840464,-1.9118478099\H
 ,4.8862605152,-3.4968251297,-0.3669689044\H,-2.2019938046,-2.056576136
 8,1.045236724\H,-4.4712830238,-1.0748657885,1.0696640274\H,-5.14146094
 02,0.1578446681,-1.1260303531\H,-3.3301365036,1.6242381472,-2.10734705
 64\H,-1.7401408727,-1.9855585973,-1.3592036362\H,-0.4820503031,-1.0568
 712359,-0.5636423978\H,-5.0934230922,-2.1824586826,-0.8776869962\H,-3.
 6848310772,1.3399818419,0.9506226565\H,-0.5674971525,3.2626760717,-4.4
 094832516\H,0.7138782409,2.6804284428,-3.2928175144\H,0.2425725384,1.6
 859347522,-4.6938562761\H,-3.5035612105,-1.5503726367,4.2684480092\\Ve
 rsion=EM64L-G09RevB.01\State=1-A\HF=-1718.3705861\RMSD=7.224e-09\RMSF=
 6.648e-06\Dipole=-0.8154379,-0.9555043,0.5087545\Quadrupole=6.7400641,
 -5.2902041,-1.4498599,-2.4899073,-3.4838747,2.5896346\PG=C01 [X(C23H24
 O11)]\\@


 There ain't no surer way to find out whether you
 like people or hate them than to travel with them.
                                     -- Mark Twain
 Job cpu time:  0 days  5 hours 50 minutes 21.1 seconds.
 File lengths (MBytes):  RWF=    201 Int=      0 D2E=      0 Chk=     21 Scr=      1
 Normal termination of Gaussian 09 at Tue Feb  2 11:40:32 2021.
