 Entering Gaussian System, Link 0=g09
 Initial command:
 /public/software/g09/g09/l1.exe /tmp/Gau-27303.inp -scrdir=/tmp/
 Entering Link 1 = /public/software/g09/g09/l1.exe PID=     27304.
  
 Copyright (c) 1988,1990,1992,1993,1995,1998,2003,2009,2010,
            Gaussian, Inc.  All Rights Reserved.
  
 This is part of the Gaussian(R) 09 program.  It is based on
 the Gaussian(R) 03 system (copyright 2003, Gaussian, Inc.),
 the Gaussian(R) 98 system (copyright 1998, Gaussian, Inc.),
 the Gaussian(R) 94 system (copyright 1995, Gaussian, Inc.),
 the Gaussian 92(TM) system (copyright 1992, Gaussian, Inc.),
 the Gaussian 90(TM) system (copyright 1990, Gaussian, Inc.),
 the Gaussian 88(TM) system (copyright 1988, Gaussian, Inc.),
 the Gaussian 86(TM) system (copyright 1986, Carnegie Mellon
 University), and the Gaussian 82(TM) system (copyright 1983,
 Carnegie Mellon University). Gaussian is a federally registered
 trademark of Gaussian, Inc.
  
 This software contains proprietary and confidential information,
 including trade secrets, belonging to Gaussian, Inc.
  
 This software is provided under written license and may be
 used, copied, transmitted, or stored only in accord with that
 written license.
  
 The following legend is applicable only to US Government
 contracts under FAR:
  
                    RESTRICTED RIGHTS LEGEND
  
 Use, reproduction and disclosure by the US Government is
 subject to restrictions as set forth in subparagraphs (a)
 and (c) of the Commercial Computer Software - Restricted
 Rights clause in FAR 52.227-19.
  
 Gaussian, Inc.
 340 Quinnipiac St., Bldg. 40, Wallingford CT 06492
  
  
 ---------------------------------------------------------------
 Warning -- This program may not be used in any manner that
 competes with the business of Gaussian, Inc. or will provide
 assistance to any competitor of Gaussian, Inc.  The licensee
 of this program is prohibited from giving any competitor of
 Gaussian, Inc. access to this program.  By using this program,
 the user acknowledges that Gaussian, Inc. is engaged in the
 business of creating and licensing software in the field of
 computational chemistry and represents and warrants to the
 licensee that it is not a competitor of Gaussian, Inc. and that
 it will not use this program in any manner prohibited above.
 ---------------------------------------------------------------
  

 Cite this work as:
 Gaussian 09, Revision B.01,
 M. J. Frisch, G. W. Trucks, H. B. Schlegel, G. E. Scuseria, 
 M. A. Robb, J. R. Cheeseman, G. Scalmani, V. Barone, B. Mennucci, 
 G. A. Petersson, H. Nakatsuji, M. Caricato, X. Li, H. P. Hratchian, 
 A. F. Izmaylov, J. Bloino, G. Zheng, J. L. Sonnenberg, M. Hada, 
 M. Ehara, K. Toyota, R. Fukuda, J. Hasegawa, M. Ishida, T. Nakajima, 
 Y. Honda, O. Kitao, H. Nakai, T. Vreven, J. A. Montgomery, Jr., 
 J. E. Peralta, F. Ogliaro, M. Bearpark, J. J. Heyd, E. Brothers, 
 K. N. Kudin, V. N. Staroverov, T. Keith, R. Kobayashi, J. Normand, 
 K. Raghavachari, A. Rendell, J. C. Burant, S. S. Iyengar, J. Tomasi, 
 M. Cossi, N. Rega, J. M. Millam, M. Klene, J. E. Knox, J. B. Cross, 
 V. Bakken, C. Adamo, J. Jaramillo, R. Gomperts, R. E. Stratmann, 
 O. Yazyev, A. J. Austin, R. Cammi, C. Pomelli, J. W. Ochterski, 
 R. L. Martin, K. Morokuma, V. G. Zakrzewski, G. A. Voth, 
 P. Salvador, J. J. Dannenberg, S. Dapprich, A. D. Daniels, 
 O. Farkas, J. B. Foresman, J. V. Ortiz, J. Cioslowski, 
 and D. J. Fox, Gaussian, Inc., Wallingford CT, 2010.
 
 ******************************************
 Gaussian 09:  EM64L-G09RevB.01 12-Aug-2010
                 2-Feb-2021 
 ******************************************
 %mem=600MW
 %nprocshared=10
 Will use up to   10 processors via shared memory.
 --------------------------------------
 # opt b3lyp/6-31g(d) geom=connectivity
 --------------------------------------
 1/14=-1,18=20,19=15,26=3,38=1,57=2/1,3;
 2/9=110,12=2,17=6,18=5,40=1/2;
 3/5=1,6=6,7=1,11=2,16=1,25=1,30=1,71=1,74=-5/1,2,3;
 4//1;
 5/5=2,38=5/2;
 6/7=2,8=2,9=2,10=2,28=1/1;
 7//1,2,3,16;
 1/14=-1,18=20,19=15/3(2);
 2/9=110/2;
 99//99;
 2/9=110/2;
 3/5=1,6=6,7=1,11=2,16=1,25=1,30=1,71=1,74=-5/1,2,3;
 4/5=5,16=3/1;
 5/5=2,38=5/2;
 7//1,2,3,16;
 1/14=-1,18=20,19=15/3(-5);
 2/9=110/2;
 6/7=2,8=2,9=2,10=2,19=2,28=1/1;
 99/9=1/99;
 -------------------
 Title Card Required
 -------------------
 Symbolic Z-matrix:
 Charge =  0 Multiplicity = 1
 C                     4.31129  -0.95193  -0.93716 
 C                     3.57642  -1.84823  -0.15618 
 C                     2.49192  -1.42617   0.61671 
 C                     2.10265  -0.08077   0.64496 
 C                     2.85428   0.83691  -0.09949 
 C                     3.94449   0.40202  -0.88539 
 C                     0.9381    0.38563   1.41604 
 C                     0.693     1.70594   1.44569 
 O                     1.47586   2.64729   0.75132 
 C                     2.50942   2.27516  -0.0504 
 C                     0.01747  -0.59995   2.10812 
 C                    -1.38589  -0.01954   2.42482 
 C                    -1.19112   1.34592   3.10961 
 C                    -0.45179   2.32776   2.19698 
 C                     5.47111  -1.41261  -1.77609 
 O                     4.69384   1.27766  -1.63551 
 O                     3.85889  -3.18431  -0.09051 
 O                     3.15704   3.0899   -0.70291 
 O                    -2.1544    0.2461    1.23625 
 C                    -2.5216   -0.87853   0.4159 
 C                    -4.01711  -0.75521   0.0584 
 C                    -4.28294   0.53786  -0.75389 
 C                    -3.22649   0.85494  -1.76829 
 C                    -2.04745   0.20903  -1.84104 
 C                    -1.67445  -0.88519  -0.87465 
 O                    -4.42857  -1.92396  -0.66064 
 O                    -4.36382   1.66208   0.11886 
 C                    -1.08252   0.63446  -2.89295 
 O                     0.09132  -0.03117  -2.75006 
 O                    -1.32398   1.46851  -3.75247 
 C                     1.08968   0.33618  -3.70327 
 C                    -2.10623  -0.93318   3.43747 
 O                    -3.44139  -0.73727   3.47837 
 O                    -1.59049  -1.76146   4.17073 
 H                     1.97008  -2.18148   1.19871 
 H                     0.5159   -0.92175   3.0325 
 H                    -0.11131  -1.49835   1.49624 
 H                    -0.63353   1.22227   4.04791 
 H                    -2.16034   1.78612   3.37747 
 H                    -1.15459   2.74994   1.4677 
 H                    -0.08467   3.16454   2.80303 
 H                     5.17467  -2.26416  -2.39791 
 H                     5.83478  -0.64166  -2.46156 
 H                     6.30401  -1.70871  -1.13035 
 H                     4.35466   2.1921   -1.50475 
 H                     4.67634  -3.37242  -0.57842 
 H                    -2.35709  -1.82412   0.94639 
 H                    -4.60135  -0.71619   0.98534 
 H                    -5.24531   0.45049  -1.27022 
 H                    -3.4591    1.66265  -2.46035 
 H                    -1.78992  -1.84926  -1.3852 
 H                    -0.6225   -0.78821  -0.60251 
 H                    -5.37883  -1.82611  -0.85145 
 H                    -3.53751   1.65638   0.64265 
 H                     1.97191  -0.28479  -3.52537 
 H                     0.73737   0.1511   -4.72286 
 H                     1.37194   1.38555  -3.57298 
 H                    -3.76218  -1.35782   4.16667 
 

 GradGradGradGradGradGradGradGradGradGradGradGradGradGradGradGradGradGrad
 Berny optimization.
 Initialization pass.
                           ----------------------------
                           !    Initial Parameters    !
                           ! (Angstroms and Degrees)  !
 --------------------------                            --------------------------
 ! Name  Definition              Value          Derivative Info.                !
 --------------------------------------------------------------------------------
 ! R1    R(1,2)                  1.3976         estimate D2E/DX2                !
 ! R2    R(1,6)                  1.4037         estimate D2E/DX2                !
 ! R3    R(1,15)                 1.5037         estimate D2E/DX2                !
 ! R4    R(2,3)                  1.397          estimate D2E/DX2                !
 ! R5    R(2,17)                 1.3672         estimate D2E/DX2                !
 ! R6    R(3,4)                  1.4009         estimate D2E/DX2                !
 ! R7    R(3,35)                 1.087          estimate D2E/DX2                !
 ! R8    R(4,5)                  1.4005         estimate D2E/DX2                !
 ! R9    R(4,7)                  1.4725         estimate D2E/DX2                !
 ! R10   R(5,6)                  1.4126         estimate D2E/DX2                !
 ! R11   R(5,10)                 1.4798         estimate D2E/DX2                !
 ! R12   R(6,16)                 1.3751         estimate D2E/DX2                !
 ! R13   R(7,8)                  1.3432         estimate D2E/DX2                !
 ! R14   R(7,11)                 1.5159         estimate D2E/DX2                !
 ! R15   R(8,9)                  1.4075         estimate D2E/DX2                !
 ! R16   R(8,14)                 1.5039         estimate D2E/DX2                !
 ! R17   R(9,10)                 1.36           estimate D2E/DX2                !
 ! R18   R(10,18)                1.2284         estimate D2E/DX2                !
 ! R19   R(11,12)                1.5513         estimate D2E/DX2                !
 ! R20   R(11,36)                1.0984         estimate D2E/DX2                !
 ! R21   R(11,37)                1.0946         estimate D2E/DX2                !
 ! R22   R(12,13)                1.5399         estimate D2E/DX2                !
 ! R23   R(12,19)                1.4401         estimate D2E/DX2                !
 ! R24   R(12,32)                1.5424         estimate D2E/DX2                !
 ! R25   R(13,14)                1.5308         estimate D2E/DX2                !
 ! R26   R(13,38)                1.0985         estimate D2E/DX2                !
 ! R27   R(13,39)                1.0977         estimate D2E/DX2                !
 ! R28   R(14,40)                1.0973         estimate D2E/DX2                !
 ! R29   R(14,41)                1.0965         estimate D2E/DX2                !
 ! R30   R(15,42)                1.0953         estimate D2E/DX2                !
 ! R31   R(15,43)                1.0938         estimate D2E/DX2                !
 ! R32   R(15,44)                1.0947         estimate D2E/DX2                !
 ! R33   R(16,45)                0.984          estimate D2E/DX2                !
 ! R34   R(17,46)                0.9704         estimate D2E/DX2                !
 ! R35   R(18,45)                1.698          estimate D2E/DX2                !
 ! R36   R(19,20)                1.4397         estimate D2E/DX2                !
 ! R37   R(20,21)                1.5426         estimate D2E/DX2                !
 ! R38   R(20,25)                1.5438         estimate D2E/DX2                !
 ! R39   R(20,47)                1.0966         estimate D2E/DX2                !
 ! R40   R(21,22)                1.55           estimate D2E/DX2                !
 ! R41   R(21,26)                1.4326         estimate D2E/DX2                !
 ! R42   R(21,48)                1.0964         estimate D2E/DX2                !
 ! R43   R(22,23)                1.4985         estimate D2E/DX2                !
 ! R44   R(22,27)                1.4255         estimate D2E/DX2                !
 ! R45   R(22,49)                1.0956         estimate D2E/DX2                !
 ! R46   R(23,24)                1.3463         estimate D2E/DX2                !
 ! R47   R(23,50)                1.0888         estimate D2E/DX2                !
 ! R48   R(24,25)                1.5068         estimate D2E/DX2                !
 ! R49   R(24,28)                1.4895         estimate D2E/DX2                !
 ! R50   R(25,51)                1.097          estimate D2E/DX2                !
 ! R51   R(25,52)                1.0909         estimate D2E/DX2                !
 ! R52   R(26,53)                0.9741         estimate D2E/DX2                !
 ! R53   R(27,54)                0.9783         estimate D2E/DX2                !
 ! R54   R(28,29)                1.357          estimate D2E/DX2                !
 ! R55   R(28,30)                1.2218         estimate D2E/DX2                !
 ! R56   R(29,31)                1.4284         estimate D2E/DX2                !
 ! R57   R(31,55)                1.0934         estimate D2E/DX2                !
 ! R58   R(31,56)                1.0945         estimate D2E/DX2                !
 ! R59   R(31,57)                1.0944         estimate D2E/DX2                !
 ! R60   R(32,33)                1.3501         estimate D2E/DX2                !
 ! R61   R(32,34)                1.2205         estimate D2E/DX2                !
 ! R62   R(33,58)                0.9807         estimate D2E/DX2                !
 ! A1    A(2,1,6)              117.4244         estimate D2E/DX2                !
 ! A2    A(2,1,15)             121.3879         estimate D2E/DX2                !
 ! A3    A(6,1,15)             121.1722         estimate D2E/DX2                !
 ! A4    A(1,2,3)              121.5727         estimate D2E/DX2                !
 ! A5    A(1,2,17)             123.0195         estimate D2E/DX2                !
 ! A6    A(3,2,17)             115.4078         estimate D2E/DX2                !
 ! A7    A(2,3,4)              121.1333         estimate D2E/DX2                !
 ! A8    A(2,3,35)             117.3209         estimate D2E/DX2                !
 ! A9    A(4,3,35)             121.5441         estimate D2E/DX2                !
 ! A10   A(3,4,5)              117.9995         estimate D2E/DX2                !
 ! A11   A(3,4,7)              122.3115         estimate D2E/DX2                !
 ! A12   A(5,4,7)              119.6877         estimate D2E/DX2                !
 ! A13   A(4,5,6)              120.5467         estimate D2E/DX2                !
 ! A14   A(4,5,10)             119.6137         estimate D2E/DX2                !
 ! A15   A(6,5,10)             119.837          estimate D2E/DX2                !
 ! A16   A(1,6,5)              121.2751         estimate D2E/DX2                !
 ! A17   A(1,6,16)             116.8525         estimate D2E/DX2                !
 ! A18   A(5,6,16)             121.8723         estimate D2E/DX2                !
 ! A19   A(4,7,8)              117.8535         estimate D2E/DX2                !
 ! A20   A(4,7,11)             120.8938         estimate D2E/DX2                !
 ! A21   A(8,7,11)             121.2113         estimate D2E/DX2                !
 ! A22   A(7,8,9)              123.0262         estimate D2E/DX2                !
 ! A23   A(7,8,14)             123.8047         estimate D2E/DX2                !
 ! A24   A(9,8,14)             113.1602         estimate D2E/DX2                !
 ! A25   A(8,9,10)             122.0406         estimate D2E/DX2                !
 ! A26   A(5,10,9)             117.5555         estimate D2E/DX2                !
 ! A27   A(5,10,18)            120.2739         estimate D2E/DX2                !
 ! A28   A(9,10,18)            122.1629         estimate D2E/DX2                !
 ! A29   A(7,11,12)            113.5378         estimate D2E/DX2                !
 ! A30   A(7,11,36)            107.4044         estimate D2E/DX2                !
 ! A31   A(7,11,37)            110.4801         estimate D2E/DX2                !
 ! A32   A(12,11,36)           110.3834         estimate D2E/DX2                !
 ! A33   A(12,11,37)           108.347          estimate D2E/DX2                !
 ! A34   A(36,11,37)           106.4614         estimate D2E/DX2                !
 ! A35   A(11,12,13)           107.9457         estimate D2E/DX2                !
 ! A36   A(11,12,19)           112.5366         estimate D2E/DX2                !
 ! A37   A(11,12,32)           109.5662         estimate D2E/DX2                !
 ! A38   A(13,12,19)           105.7207         estimate D2E/DX2                !
 ! A39   A(13,12,32)           106.9988         estimate D2E/DX2                !
 ! A40   A(19,12,32)           113.697          estimate D2E/DX2                !
 ! A41   A(12,13,14)           111.3886         estimate D2E/DX2                !
 ! A42   A(12,13,38)           110.1354         estimate D2E/DX2                !
 ! A43   A(12,13,39)           110.6357         estimate D2E/DX2                !
 ! A44   A(14,13,38)           109.6509         estimate D2E/DX2                !
 ! A45   A(14,13,39)           108.3431         estimate D2E/DX2                !
 ! A46   A(38,13,39)           106.5525         estimate D2E/DX2                !
 ! A47   A(8,14,13)            113.5948         estimate D2E/DX2                !
 ! A48   A(8,14,40)            108.3378         estimate D2E/DX2                !
 ! A49   A(8,14,41)            109.6818         estimate D2E/DX2                !
 ! A50   A(13,14,40)           109.4912         estimate D2E/DX2                !
 ! A51   A(13,14,41)           108.7628         estimate D2E/DX2                !
 ! A52   A(40,14,41)           106.7492         estimate D2E/DX2                !
 ! A53   A(1,15,42)            110.2526         estimate D2E/DX2                !
 ! A54   A(1,15,43)            112.9622         estimate D2E/DX2                !
 ! A55   A(1,15,44)            109.9141         estimate D2E/DX2                !
 ! A56   A(42,15,43)           106.3898         estimate D2E/DX2                !
 ! A57   A(42,15,44)           109.2998         estimate D2E/DX2                !
 ! A58   A(43,15,44)           107.8991         estimate D2E/DX2                !
 ! A59   A(6,16,45)            109.3554         estimate D2E/DX2                !
 ! A60   A(2,17,46)            109.8362         estimate D2E/DX2                !
 ! A61   A(12,19,20)           117.5363         estimate D2E/DX2                !
 ! A62   A(19,20,21)           108.4746         estimate D2E/DX2                !
 ! A63   A(19,20,25)           109.8621         estimate D2E/DX2                !
 ! A64   A(19,20,47)           111.0801         estimate D2E/DX2                !
 ! A65   A(21,20,25)           109.7921         estimate D2E/DX2                !
 ! A66   A(21,20,47)           109.0558         estimate D2E/DX2                !
 ! A67   A(25,20,47)           108.5632         estimate D2E/DX2                !
 ! A68   A(20,21,22)           110.758          estimate D2E/DX2                !
 ! A69   A(20,21,26)           109.2417         estimate D2E/DX2                !
 ! A70   A(20,21,48)           108.8761         estimate D2E/DX2                !
 ! A71   A(22,21,26)           111.6114         estimate D2E/DX2                !
 ! A72   A(22,21,48)           108.783          estimate D2E/DX2                !
 ! A73   A(26,21,48)           107.4765         estimate D2E/DX2                !
 ! A74   A(21,22,23)           114.2274         estimate D2E/DX2                !
 ! A75   A(21,22,27)           110.2917         estimate D2E/DX2                !
 ! A76   A(21,22,49)           109.3355         estimate D2E/DX2                !
 ! A77   A(23,22,27)           106.7119         estimate D2E/DX2                !
 ! A78   A(23,22,49)           108.4877         estimate D2E/DX2                !
 ! A79   A(27,22,49)           107.5519         estimate D2E/DX2                !
 ! A80   A(22,23,24)           123.5351         estimate D2E/DX2                !
 ! A81   A(22,23,50)           115.8892         estimate D2E/DX2                !
 ! A82   A(24,23,50)           120.5736         estimate D2E/DX2                !
 ! A83   A(23,24,25)           122.0411         estimate D2E/DX2                !
 ! A84   A(23,24,28)           117.9342         estimate D2E/DX2                !
 ! A85   A(25,24,28)           119.9998         estimate D2E/DX2                !
 ! A86   A(20,25,24)           113.4024         estimate D2E/DX2                !
 ! A87   A(20,25,51)           109.5782         estimate D2E/DX2                !
 ! A88   A(20,25,52)           108.6769         estimate D2E/DX2                !
 ! A89   A(24,25,51)           108.2801         estimate D2E/DX2                !
 ! A90   A(24,25,52)           109.5203         estimate D2E/DX2                !
 ! A91   A(51,25,52)           107.201          estimate D2E/DX2                !
 ! A92   A(21,26,53)           107.2501         estimate D2E/DX2                !
 ! A93   A(22,27,54)           105.9776         estimate D2E/DX2                !
 ! A94   A(24,28,29)           110.2381         estimate D2E/DX2                !
 ! A95   A(24,28,30)           124.3178         estimate D2E/DX2                !
 ! A96   A(29,28,30)           125.4435         estimate D2E/DX2                !
 ! A97   A(28,29,31)           114.0914         estimate D2E/DX2                !
 ! A98   A(29,31,55)           108.0178         estimate D2E/DX2                !
 ! A99   A(29,31,56)           110.6822         estimate D2E/DX2                !
 ! A100  A(29,31,57)           110.328          estimate D2E/DX2                !
 ! A101  A(55,31,56)           108.3755         estimate D2E/DX2                !
 ! A102  A(55,31,57)           108.4859         estimate D2E/DX2                !
 ! A103  A(56,31,57)           110.8579         estimate D2E/DX2                !
 ! A104  A(12,32,33)           113.3156         estimate D2E/DX2                !
 ! A105  A(12,32,34)           126.8022         estimate D2E/DX2                !
 ! A106  A(33,32,34)           119.8782         estimate D2E/DX2                !
 ! A107  A(32,33,58)           104.6516         estimate D2E/DX2                !
 ! D1    D(6,1,2,3)              1.9116         estimate D2E/DX2                !
 ! D2    D(6,1,2,17)          -178.0819         estimate D2E/DX2                !
 ! D3    D(15,1,2,3)          -179.505          estimate D2E/DX2                !
 ! D4    D(15,1,2,17)            0.5016         estimate D2E/DX2                !
 ! D5    D(2,1,6,5)             -1.5            estimate D2E/DX2                !
 ! D6    D(2,1,6,16)           178.6133         estimate D2E/DX2                !
 ! D7    D(15,1,6,5)           179.9133         estimate D2E/DX2                !
 ! D8    D(15,1,6,16)            0.0266         estimate D2E/DX2                !
 ! D9    D(2,1,15,42)           51.0057         estimate D2E/DX2                !
 ! D10   D(2,1,15,43)          169.8859         estimate D2E/DX2                !
 ! D11   D(2,1,15,44)          -69.5493         estimate D2E/DX2                !
 ! D12   D(6,1,15,42)         -130.4638         estimate D2E/DX2                !
 ! D13   D(6,1,15,43)          -11.5836         estimate D2E/DX2                !
 ! D14   D(6,1,15,44)          108.9812         estimate D2E/DX2                !
 ! D15   D(1,2,3,4)             -0.391          estimate D2E/DX2                !
 ! D16   D(1,2,3,35)          -179.9289         estimate D2E/DX2                !
 ! D17   D(17,2,3,4)           179.603          estimate D2E/DX2                !
 ! D18   D(17,2,3,35)            0.065          estimate D2E/DX2                !
 ! D19   D(1,2,17,46)            5.9537         estimate D2E/DX2                !
 ! D20   D(3,2,17,46)         -174.0401         estimate D2E/DX2                !
 ! D21   D(2,3,4,5)             -1.5686         estimate D2E/DX2                !
 ! D22   D(2,3,4,7)            178.0033         estimate D2E/DX2                !
 ! D23   D(35,3,4,5)           177.9498         estimate D2E/DX2                !
 ! D24   D(35,3,4,7)            -2.4783         estimate D2E/DX2                !
 ! D25   D(3,4,5,6)              1.9602         estimate D2E/DX2                !
 ! D26   D(3,4,5,10)          -177.4512         estimate D2E/DX2                !
 ! D27   D(7,4,5,6)           -177.6234         estimate D2E/DX2                !
 ! D28   D(7,4,5,10)             2.9653         estimate D2E/DX2                !
 ! D29   D(3,4,7,8)            176.0422         estimate D2E/DX2                !
 ! D30   D(3,4,7,11)            -6.2702         estimate D2E/DX2                !
 ! D31   D(5,4,7,8)             -4.3929         estimate D2E/DX2                !
 ! D32   D(5,4,7,11)           173.2947         estimate D2E/DX2                !
 ! D33   D(4,5,6,1)             -0.4339         estimate D2E/DX2                !
 ! D34   D(4,5,6,16)           179.447          estimate D2E/DX2                !
 ! D35   D(10,5,6,1)           178.9761         estimate D2E/DX2                !
 ! D36   D(10,5,6,16)           -1.143          estimate D2E/DX2                !
 ! D37   D(4,5,10,9)             1.2925         estimate D2E/DX2                !
 ! D38   D(4,5,10,18)         -179.6941         estimate D2E/DX2                !
 ! D39   D(6,5,10,9)          -178.123          estimate D2E/DX2                !
 ! D40   D(6,5,10,18)            0.8904         estimate D2E/DX2                !
 ! D41   D(1,6,16,45)         -178.8912         estimate D2E/DX2                !
 ! D42   D(5,6,16,45)            1.2228         estimate D2E/DX2                !
 ! D43   D(4,7,8,9)              1.5734         estimate D2E/DX2                !
 ! D44   D(4,7,8,14)          -179.589          estimate D2E/DX2                !
 ! D45   D(11,7,8,9)          -176.1064         estimate D2E/DX2                !
 ! D46   D(11,7,8,14)            2.7312         estimate D2E/DX2                !
 ! D47   D(4,7,11,12)         -159.271          estimate D2E/DX2                !
 ! D48   D(4,7,11,36)           78.4067         estimate D2E/DX2                !
 ! D49   D(4,7,11,37)          -37.3199         estimate D2E/DX2                !
 ! D50   D(8,7,11,12)           18.3385         estimate D2E/DX2                !
 ! D51   D(8,7,11,36)         -103.9839         estimate D2E/DX2                !
 ! D52   D(8,7,11,37)          140.2895         estimate D2E/DX2                !
 ! D53   D(7,8,9,10)             2.8843         estimate D2E/DX2                !
 ! D54   D(14,8,9,10)         -176.0652         estimate D2E/DX2                !
 ! D55   D(7,8,14,13)            9.1171         estimate D2E/DX2                !
 ! D56   D(7,8,14,40)         -112.777          estimate D2E/DX2                !
 ! D57   D(7,8,14,41)          131.0555         estimate D2E/DX2                !
 ! D58   D(9,8,14,13)         -171.9429         estimate D2E/DX2                !
 ! D59   D(9,8,14,40)           66.163          estimate D2E/DX2                !
 ! D60   D(9,8,14,41)          -50.0045         estimate D2E/DX2                !
 ! D61   D(8,9,10,5)            -4.2511         estimate D2E/DX2                !
 ! D62   D(8,9,10,18)          176.7554         estimate D2E/DX2                !
 ! D63   D(7,11,12,13)         -48.9004         estimate D2E/DX2                !
 ! D64   D(7,11,12,19)          67.3788         estimate D2E/DX2                !
 ! D65   D(7,11,12,32)        -165.0838         estimate D2E/DX2                !
 ! D66   D(36,11,12,13)         71.7572         estimate D2E/DX2                !
 ! D67   D(36,11,12,19)       -171.9636         estimate D2E/DX2                !
 ! D68   D(36,11,12,32)        -44.4261         estimate D2E/DX2                !
 ! D69   D(37,11,12,13)       -172.0298         estimate D2E/DX2                !
 ! D70   D(37,11,12,19)        -55.7506         estimate D2E/DX2                !
 ! D71   D(37,11,12,32)         71.7869         estimate D2E/DX2                !
 ! D72   D(11,12,13,14)         60.8854         estimate D2E/DX2                !
 ! D73   D(11,12,13,38)        -61.0036         estimate D2E/DX2                !
 ! D74   D(11,12,13,39)       -178.5405         estimate D2E/DX2                !
 ! D75   D(19,12,13,14)        -59.7578         estimate D2E/DX2                !
 ! D76   D(19,12,13,38)        178.3531         estimate D2E/DX2                !
 ! D77   D(19,12,13,39)         60.8163         estimate D2E/DX2                !
 ! D78   D(32,12,13,14)        178.7325         estimate D2E/DX2                !
 ! D79   D(32,12,13,38)         56.8435         estimate D2E/DX2                !
 ! D80   D(32,12,13,39)        -60.6933         estimate D2E/DX2                !
 ! D81   D(11,12,19,20)         64.3089         estimate D2E/DX2                !
 ! D82   D(13,12,19,20)       -178.0873         estimate D2E/DX2                !
 ! D83   D(32,12,19,20)        -61.0081         estimate D2E/DX2                !
 ! D84   D(11,12,32,33)       -161.914          estimate D2E/DX2                !
 ! D85   D(11,12,32,34)         18.8244         estimate D2E/DX2                !
 ! D86   D(13,12,32,33)         81.3045         estimate D2E/DX2                !
 ! D87   D(13,12,32,34)        -97.9572         estimate D2E/DX2                !
 ! D88   D(19,12,32,33)        -35.0289         estimate D2E/DX2                !
 ! D89   D(19,12,32,34)        145.7095         estimate D2E/DX2                !
 ! D90   D(12,13,14,8)         -41.56           estimate D2E/DX2                !
 ! D91   D(12,13,14,40)         79.691          estimate D2E/DX2                !
 ! D92   D(12,13,14,41)       -164.0074         estimate D2E/DX2                !
 ! D93   D(38,13,14,8)          80.6093         estimate D2E/DX2                !
 ! D94   D(38,13,14,40)       -158.1397         estimate D2E/DX2                !
 ! D95   D(38,13,14,41)        -41.8381         estimate D2E/DX2                !
 ! D96   D(39,13,14,8)        -163.4717         estimate D2E/DX2                !
 ! D97   D(39,13,14,40)        -42.2207         estimate D2E/DX2                !
 ! D98   D(39,13,14,41)         74.0809         estimate D2E/DX2                !
 ! D99   D(12,19,20,21)        133.3101         estimate D2E/DX2                !
 ! D100  D(12,19,20,25)       -106.6713         estimate D2E/DX2                !
 ! D101  D(12,19,20,47)         13.4619         estimate D2E/DX2                !
 ! D102  D(19,20,21,22)         61.6139         estimate D2E/DX2                !
 ! D103  D(19,20,21,26)       -175.0546         estimate D2E/DX2                !
 ! D104  D(19,20,21,48)        -57.957          estimate D2E/DX2                !
 ! D105  D(25,20,21,22)        -58.4483         estimate D2E/DX2                !
 ! D106  D(25,20,21,26)         64.8832         estimate D2E/DX2                !
 ! D107  D(25,20,21,48)       -178.0193         estimate D2E/DX2                !
 ! D108  D(47,20,21,22)       -177.2812         estimate D2E/DX2                !
 ! D109  D(47,20,21,26)        -53.9497         estimate D2E/DX2                !
 ! D110  D(47,20,21,48)         63.1478         estimate D2E/DX2                !
 ! D111  D(19,20,25,24)        -71.5162         estimate D2E/DX2                !
 ! D112  D(19,20,25,51)        167.3744         estimate D2E/DX2                !
 ! D113  D(19,20,25,52)         50.5317         estimate D2E/DX2                !
 ! D114  D(21,20,25,24)         47.6983         estimate D2E/DX2                !
 ! D115  D(21,20,25,51)        -73.4111         estimate D2E/DX2                !
 ! D116  D(21,20,25,52)        169.7463         estimate D2E/DX2                !
 ! D117  D(47,20,25,24)        166.8341         estimate D2E/DX2                !
 ! D118  D(47,20,25,51)         45.7246         estimate D2E/DX2                !
 ! D119  D(47,20,25,52)        -71.118          estimate D2E/DX2                !
 ! D120  D(20,21,22,23)         39.8029         estimate D2E/DX2                !
 ! D121  D(20,21,22,27)        -80.368          estimate D2E/DX2                !
 ! D122  D(20,21,22,49)        161.5662         estimate D2E/DX2                !
 ! D123  D(26,21,22,23)        -82.1507         estimate D2E/DX2                !
 ! D124  D(26,21,22,27)        157.6783         estimate D2E/DX2                !
 ! D125  D(26,21,22,49)         39.6126         estimate D2E/DX2                !
 ! D126  D(48,21,22,23)        159.4297         estimate D2E/DX2                !
 ! D127  D(48,21,22,27)         39.2588         estimate D2E/DX2                !
 ! D128  D(48,21,22,49)        -78.807          estimate D2E/DX2                !
 ! D129  D(20,21,26,53)        178.6042         estimate D2E/DX2                !
 ! D130  D(22,21,26,53)        -58.5721         estimate D2E/DX2                !
 ! D131  D(48,21,26,53)         60.6253         estimate D2E/DX2                !
 ! D132  D(21,22,23,24)         -9.9053         estimate D2E/DX2                !
 ! D133  D(21,22,23,50)        170.6248         estimate D2E/DX2                !
 ! D134  D(27,22,23,24)        112.2471         estimate D2E/DX2                !
 ! D135  D(27,22,23,50)        -67.2228         estimate D2E/DX2                !
 ! D136  D(49,22,23,24)       -132.1335         estimate D2E/DX2                !
 ! D137  D(49,22,23,50)         48.3967         estimate D2E/DX2                !
 ! D138  D(21,22,27,54)         54.3338         estimate D2E/DX2                !
 ! D139  D(23,22,27,54)        -70.2645         estimate D2E/DX2                !
 ! D140  D(49,22,27,54)        173.4901         estimate D2E/DX2                !
 ! D141  D(22,23,24,25)         -1.309          estimate D2E/DX2                !
 ! D142  D(22,23,24,28)       -179.4936         estimate D2E/DX2                !
 ! D143  D(50,23,24,25)        178.137          estimate D2E/DX2                !
 ! D144  D(50,23,24,28)         -0.0475         estimate D2E/DX2                !
 ! D145  D(23,24,25,20)        -18.3162         estimate D2E/DX2                !
 ! D146  D(23,24,25,51)        103.5204         estimate D2E/DX2                !
 ! D147  D(23,24,25,52)       -139.8934         estimate D2E/DX2                !
 ! D148  D(28,24,25,20)        159.8317         estimate D2E/DX2                !
 ! D149  D(28,24,25,51)        -78.3316         estimate D2E/DX2                !
 ! D150  D(28,24,25,52)         38.2545         estimate D2E/DX2                !
 ! D151  D(23,24,28,29)        174.5109         estimate D2E/DX2                !
 ! D152  D(23,24,28,30)         -5.214          estimate D2E/DX2                !
 ! D153  D(25,24,28,29)         -3.7122         estimate D2E/DX2                !
 ! D154  D(25,24,28,30)        176.563          estimate D2E/DX2                !
 ! D155  D(24,28,29,31)       -178.7408         estimate D2E/DX2                !
 ! D156  D(30,28,29,31)          0.9802         estimate D2E/DX2                !
 ! D157  D(28,29,31,55)       -177.6631         estimate D2E/DX2                !
 ! D158  D(28,29,31,56)        -59.1652         estimate D2E/DX2                !
 ! D159  D(28,29,31,57)         63.9081         estimate D2E/DX2                !
 ! D160  D(12,32,33,58)       -178.7243         estimate D2E/DX2                !
 ! D161  D(34,32,33,58)          0.5939         estimate D2E/DX2                !
 --------------------------------------------------------------------------------
 Trust Radius=3.00D-01 FncErr=1.00D-07 GrdErr=1.00D-06
 Number of steps in this run=    340 maximum allowed number of steps=    348.
 GradGradGradGradGradGradGradGradGradGradGradGradGradGradGradGradGradGrad

 Stoichiometry    C23H24O11
 Framework group  C1[X(C23H24O11)]
 Deg. of freedom   168
 Full point group                 C1      NOp   1
 Largest Abelian subgroup         C1      NOp   1
 Largest concise Abelian subgroup C1      NOp   1
                         Standard orientation:                         
 ---------------------------------------------------------------------
 Center     Atomic      Atomic             Coordinates (Angstroms)
 Number     Number       Type             X           Y           Z
 ---------------------------------------------------------------------
      1          6           0        4.395475   -0.465807   -1.048672
      2          6           0        3.462850   -1.179480   -1.806425
      3          6           0        2.211679   -1.525193   -1.289999
      4          6           0        1.845301   -1.175145    0.016013
      5          6           0        2.784170   -0.496128    0.802617
      6          6           0        4.044284   -0.142313    0.271335
      7          6           0        0.518235   -1.488366    0.571929
      8          6           0        0.289710   -1.184101    1.860089
      9          8           0        1.244987   -0.555981    2.681106
     10          6           0        2.455767   -0.159192    2.205661
     11          6           0       -0.569291   -2.085536   -0.299030
     12          6           0       -1.998708   -1.883131    0.268769
     13          6           0       -1.985462   -2.306367    1.749328
     14          6           0       -1.011115   -1.452899    2.565257
     15          6           0        5.736859   -0.086320   -1.612502
     16          8           0        4.982039    0.534220    1.015546
     17          8           0        3.700712   -1.586795   -3.089671
     18          8           0        3.268055    0.441119    2.904801
     19          8           0       -2.404983   -0.501544    0.261510
     20          6           0       -2.543603    0.144729   -1.017445
     21          6           0       -3.880134    0.914772   -1.033711
     22          6           0       -3.895783    2.011231    0.061743
     23          6           0       -2.596206    2.740226    0.220743
     24          6           0       -1.450620    2.356521   -0.373425
     25          6           0       -1.372383    1.125727   -1.239092
     26          8           0       -4.089846    1.468988   -2.337999
     27          8           0       -4.202209    1.438119    1.330508
     28          6           0       -0.227340    3.167595   -0.119745
     29          8           0        0.853313    2.578504   -0.691187
     30          8           0       -0.211772    4.209644    0.517905
     31          6           0        2.080722    3.275917   -0.473551
     32          6           0       -2.981719   -2.822181   -0.459886
     33          8           0       -4.273664   -2.456190   -0.319747
     34          8           0       -2.698722   -3.819319   -1.104358
     35          1           0        1.540451   -2.081633   -1.939122
     36          1           0       -0.350022   -3.156016   -0.410674
     37          1           0       -0.533945   -1.655139   -1.304821
     38          1           0       -1.710931   -3.366334    1.837161
     39          1           0       -2.985833   -2.204893    2.189649
     40          1           0       -1.479618   -0.489899    2.804334
     41          1           0       -0.816550   -1.955368    3.520210
     42          1           0        5.614402    0.408695   -2.581859
     43          1           0        6.284939    0.613850   -0.975437
     44          1           0        6.354944   -0.980989   -1.738638
     45          1           0        4.630459    0.687597    1.921750
     46          1           0        4.619074   -1.389147   -3.333006
     47          1           0       -2.543281   -0.589167   -1.832321
     48          1           0       -4.697701    0.210417   -0.839897
     49          1           0       -4.678509    2.742573   -0.168173
     50          1           0       -2.618798    3.617039    0.865830
     51          1           0       -1.353053    1.443973   -2.288740
     52          1           0       -0.435863    0.601525   -1.043619
     53          1           0       -4.948925    1.928002   -2.322119
     54          1           0       -3.553360    0.718277    1.464630
     55          1           0        2.872003    2.742610   -1.007445
     56          1           0        2.022378    4.294214   -0.870555
     57          1           0        2.327915    3.286882    0.592556
     58          1           0       -4.779604   -3.140545   -0.807017
 ---------------------------------------------------------------------
 Rotational constants (GHZ):      0.1763547      0.0953975      0.0829355
 Standard basis: 6-31G(d) (6D, 7F)
 There are   558 symmetry adapted basis functions of A   symmetry.
 Integral buffers will be    131072 words long.
 Raffenetti 2 integral format.
 Two-electron integral symmetry is turned on.
   558 basis functions,  1048 primitive gaussians,   558 cartesian basis functions
   125 alpha electrons      125 beta electrons
       nuclear repulsion energy      3922.7916883875 Hartrees.
 NAtoms=   58 NActive=   58 NUniq=   58 SFac= 1.00D+00 NAtFMM=   50 NAOKFM=T Big=T
 One-electron integrals computed using PRISM.
 NBasis=   558 RedAO= T  NBF=   558
 NBsUse=   558 1.00D-06 NBFU=   558
 Harris functional with IExCor=  402 diagonalized for initial guess.
 ExpMin= 1.61D-01 ExpMax= 5.48D+03 ExpMxC= 8.25D+02 IAcc=1 IRadAn=         1 AccDes= 0.00D+00
 HarFok:  IExCor=  402 AccDes= 0.00D+00 IRadAn=         1 IDoV= 1
 ScaDFX=  1.000000  1.000000  1.000000  1.000000
 FoFCou: FMM=F IPFlag=           0 FMFlag=      100000 FMFlg1=        2001
         NFxFlg=           0 DoJE=T BraDBF=F KetDBF=T FulRan=T
         Omega=  0.000000  0.000000  1.000000  0.000000  0.000000 ICntrl=     500 IOpCl=  0
         NMat0=    1 NMatS0=    1 NMatT0=    0 NMatD0=    1 NMtDS0=    0 NMtDT0=    0
         I1Cent=           4 NGrid=           0.
 Petite list used in FoFCou.
 Initial guess orbital symmetries:
       Occupied  (A) (A) (A) (A) (A) (A) (A) (A) (A) (A) (A) (A)
                 (A) (A) (A) (A) (A) (A) (A) (A) (A) (A) (A) (A)
                 (A) (A) (A) (A) (A) (A) (A) (A) (A) (A) (A) (A)
                 (A) (A) (A) (A) (A) (A) (A) (A) (A) (A) (A) (A)
                 (A) (A) (A) (A) (A) (A) (A) (A) (A) (A) (A) (A)
                 (A) (A) (A) (A) (A) (A) (A) (A) (A) (A) (A) (A)
                 (A) (A) (A) (A) (A) (A) (A) (A) (A) (A) (A) (A)
                 (A) (A) (A) (A) (A) (A) (A) (A) (A) (A) (A) (A)
                 (A) (A) (A) (A) (A) (A) (A) (A) (A) (A) (A) (A)
                 (A) (A) (A) (A) (A) (A) (A) (A) (A) (A) (A) (A)
                 (A) (A) (A) (A) (A)
       Virtual   (A) (A) (A) (A) (A) (A) (A) (A) (A) (A) (A) (A)
                 (A) (A) (A) (A) (A) (A) (A) (A) (A) (A) (A) (A)
                 (A) (A) (A) (A) (A) (A) (A) (A) (A) (A) (A) (A)
                 (A) (A) (A) (A) (A) (A) (A) (A) (A) (A) (A) (A)
                 (A) (A) (A) (A) (A) (A) (A) (A) (A) (A) (A) (A)
                 (A) (A) (A) (A) (A) (A) (A) (A) (A) (A) (A) (A)
                 (A) (A) (A) (A) (A) (A) (A) (A) (A) (A) (A) (A)
                 (A) (A) (A) (A) (A) (A) (A) (A) (A) (A) (A) (A)
                 (A) (A) (A) (A) (A) (A) (A) (A) (A) (A) (A) (A)
                 (A) (A) (A) (A) (A) (A) (A) (A) (A) (A) (A) (A)
                 (A) (A) (A) (A) (A) (A) (A) (A) (A) (A) (A) (A)
                 (A) (A) (A) (A) (A) (A) (A) (A) (A) (A) (A) (A)
                 (A) (A) (A) (A) (A) (A) (A) (A) (A) (A) (A) (A)
                 (A) (A) (A) (A) (A) (A) (A) (A) (A) (A) (A) (A)
                 (A) (A) (A) (A) (A) (A) (A) (A) (A) (A) (A) (A)
                 (A) (A) (A) (A) (A) (A) (A) (A) (A) (A) (A) (A)
                 (A) (A) (A) (A) (A) (A) (A) (A) (A) (A) (A) (A)
                 (A) (A) (A) (A) (A) (A) (A) (A) (A) (A) (A) (A)
                 (A) (A) (A) (A) (A) (A) (A) (A) (A) (A) (A) (A)
                 (A) (A) (A) (A) (A) (A) (A) (A) (A) (A) (A) (A)
                 (A) (A) (A) (A) (A) (A) (A) (A) (A) (A) (A) (A)
                 (A) (A) (A) (A) (A) (A) (A) (A) (A) (A) (A) (A)
                 (A) (A) (A) (A) (A) (A) (A) (A) (A) (A) (A) (A)
                 (A) (A) (A) (A) (A) (A) (A) (A) (A) (A) (A) (A)
                 (A) (A) (A) (A) (A) (A) (A) (A) (A) (A) (A) (A)
                 (A) (A) (A) (A) (A) (A) (A) (A) (A) (A) (A) (A)
                 (A) (A) (A) (A) (A) (A) (A) (A) (A) (A) (A) (A)
                 (A) (A) (A) (A) (A) (A) (A) (A) (A) (A) (A) (A)
                 (A) (A) (A) (A) (A) (A) (A) (A) (A) (A) (A) (A)
                 (A) (A) (A) (A) (A) (A) (A) (A) (A) (A) (A) (A)
                 (A) (A) (A) (A) (A) (A) (A) (A) (A) (A) (A) (A)
                 (A) (A) (A) (A) (A) (A) (A) (A) (A) (A) (A) (A)
                 (A) (A) (A) (A) (A) (A) (A) (A) (A) (A) (A) (A)
                 (A) (A) (A) (A) (A) (A) (A) (A) (A) (A) (A) (A)
                 (A) (A) (A) (A) (A) (A) (A) (A) (A) (A) (A) (A)
                 (A) (A) (A) (A) (A) (A) (A) (A) (A) (A) (A) (A)
                 (A)
 The electronic state of the initial guess is 1-A.
 Requested convergence on RMS density matrix=1.00D-08 within 128 cycles.
 Requested convergence on MAX density matrix=1.00D-06.
 Requested convergence on             energy=1.00D-06.
 No special actions if energy rises.
 Integral accuracy reduced to 1.0D-05 until final iterations.
 Initial convergence to 1.0D-05 achieved.  Increase integral accuracy.
 SCF Done:  E(RB3LYP) =  -1718.35449305     A.U. after   15 cycles
             Convg  =    0.4301D-08             -V/T =  2.0091

 **********************************************************************

            Population analysis using the SCF density.

 **********************************************************************

 Orbital symmetries:
       Occupied  (A) (A) (A) (A) (A) (A) (A) (A) (A) (A) (A) (A)
                 (A) (A) (A) (A) (A) (A) (A) (A) (A) (A) (A) (A)
                 (A) (A) (A) (A) (A) (A) (A) (A) (A) (A) (A) (A)
                 (A) (A) (A) (A) (A) (A) (A) (A) (A) (A) (A) (A)
                 (A) (A) (A) (A) (A) (A) (A) (A) (A) (A) (A) (A)
                 (A) (A) (A) (A) (A) (A) (A) (A) (A) (A) (A) (A)
                 (A) (A) (A) (A) (A) (A) (A) (A) (A) (A) (A) (A)
                 (A) (A) (A) (A) (A) (A) (A) (A) (A) (A) (A) (A)
                 (A) (A) (A) (A) (A) (A) (A) (A) (A) (A) (A) (A)
                 (A) (A) (A) (A) (A) (A) (A) (A) (A) (A) (A) (A)
                 (A) (A) (A) (A) (A)
       Virtual   (A) (A) (A) (A) (A) (A) (A) (A) (A) (A) (A) (A)
                 (A) (A) (A) (A) (A) (A) (A) (A) (A) (A) (A) (A)
                 (A) (A) (A) (A) (A) (A) (A) (A) (A) (A) (A) (A)
                 (A) (A) (A) (A) (A) (A) (A) (A) (A) (A) (A) (A)
                 (A) (A) (A) (A) (A) (A) (A) (A) (A) (A) (A) (A)
                 (A) (A) (A) (A) (A) (A) (A) (A) (A) (A) (A) (A)
                 (A) (A) (A) (A) (A) (A) (A) (A) (A) (A) (A) (A)
                 (A) (A) (A) (A) (A) (A) (A) (A) (A) (A) (A) (A)
                 (A) (A) (A) (A) (A) (A) (A) (A) (A) (A) (A) (A)
                 (A) (A) (A) (A) (A) (A) (A) (A) (A) (A) (A) (A)
                 (A) (A) (A) (A) (A) (A) (A) (A) (A) (A) (A) (A)
                 (A) (A) (A) (A) (A) (A) (A) (A) (A) (A) (A) (A)
                 (A) (A) (A) (A) (A) (A) (A) (A) (A) (A) (A) (A)
                 (A) (A) (A) (A) (A) (A) (A) (A) (A) (A) (A) (A)
                 (A) (A) (A) (A) (A) (A) (A) (A) (A) (A) (A) (A)
                 (A) (A) (A) (A) (A) (A) (A) (A) (A) (A) (A) (A)
                 (A) (A) (A) (A) (A) (A) (A) (A) (A) (A) (A) (A)
                 (A) (A) (A) (A) (A) (A) (A) (A) (A) (A) (A) (A)
                 (A) (A) (A) (A) (A) (A) (A) (A) (A) (A) (A) (A)
                 (A) (A) (A) (A) (A) (A) (A) (A) (A) (A) (A) (A)
                 (A) (A) (A) (A) (A) (A) (A) (A) (A) (A) (A) (A)
                 (A) (A) (A) (A) (A) (A) (A) (A) (A) (A) (A) (A)
                 (A) (A) (A) (A) (A) (A) (A) (A) (A) (A) (A) (A)
                 (A) (A) (A) (A) (A) (A) (A) (A) (A) (A) (A) (A)
                 (A) (A) (A) (A) (A) (A) (A) (A) (A) (A) (A) (A)
                 (A) (A) (A) (A) (A) (A) (A) (A) (A) (A) (A) (A)
                 (A) (A) (A) (A) (A) (A) (A) (A) (A) (A) (A) (A)
                 (A) (A) (A) (A) (A) (A) (A) (A) (A) (A) (A) (A)
                 (A) (A) (A) (A) (A) (A) (A) (A) (A) (A) (A) (A)
                 (A) (A) (A) (A) (A) (A) (A) (A) (A) (A) (A) (A)
                 (A) (A) (A) (A) (A) (A) (A) (A) (A) (A) (A) (A)
                 (A) (A) (A) (A) (A) (A) (A) (A) (A) (A) (A) (A)
                 (A) (A) (A) (A) (A) (A) (A) (A) (A) (A) (A) (A)
                 (A) (A) (A) (A) (A) (A) (A) (A) (A) (A) (A) (A)
                 (A) (A) (A) (A) (A) (A) (A) (A) (A) (A) (A) (A)
                 (A) (A) (A) (A) (A) (A) (A) (A) (A) (A) (A) (A)
                 (A)
 The electronic state is 1-A.
 Alpha  occ. eigenvalues --  -19.22607 -19.21959 -19.19568 -19.19287 -19.18820
 Alpha  occ. eigenvalues --  -19.16745 -19.16368 -19.15801 -19.14530 -19.13985
 Alpha  occ. eigenvalues --  -19.12896 -10.34409 -10.33332 -10.31023 -10.29245
 Alpha  occ. eigenvalues --  -10.27451 -10.26900 -10.26760 -10.26001 -10.24450
 Alpha  occ. eigenvalues --  -10.24316 -10.23511 -10.22352 -10.22043 -10.21810
 Alpha  occ. eigenvalues --  -10.21761 -10.21713 -10.20698 -10.20528 -10.20251
 Alpha  occ. eigenvalues --  -10.19851 -10.19537 -10.19306 -10.19209  -1.13095
 Alpha  occ. eigenvalues --   -1.12163  -1.09666  -1.07545  -1.06511  -1.05511
 Alpha  occ. eigenvalues --   -1.03217  -1.03050  -1.02765  -1.01386  -1.00695
 Alpha  occ. eigenvalues --   -0.88088  -0.86305  -0.83440  -0.81095  -0.79000
 Alpha  occ. eigenvalues --   -0.77326  -0.76017  -0.75528  -0.74352  -0.71480
 Alpha  occ. eigenvalues --   -0.70938  -0.69599  -0.66381  -0.65502  -0.64827
 Alpha  occ. eigenvalues --   -0.63704  -0.62398  -0.61496  -0.59563  -0.58185
 Alpha  occ. eigenvalues --   -0.57077  -0.55822  -0.55025  -0.54059  -0.52119
 Alpha  occ. eigenvalues --   -0.51087  -0.50932  -0.50437  -0.49967  -0.49698
 Alpha  occ. eigenvalues --   -0.49254  -0.48305  -0.48197  -0.47713  -0.47339
 Alpha  occ. eigenvalues --   -0.47047  -0.46359  -0.45865  -0.45571  -0.45290
 Alpha  occ. eigenvalues --   -0.44928  -0.43824  -0.43387  -0.43075  -0.42817
 Alpha  occ. eigenvalues --   -0.42491  -0.42077  -0.41470  -0.41266  -0.41215
 Alpha  occ. eigenvalues --   -0.40487  -0.39960  -0.39489  -0.39283  -0.39213
 Alpha  occ. eigenvalues --   -0.38543  -0.37938  -0.37755  -0.37574  -0.37232
 Alpha  occ. eigenvalues --   -0.36483  -0.35934  -0.35159  -0.34809  -0.34505
 Alpha  occ. eigenvalues --   -0.34338  -0.33722  -0.33476  -0.32535  -0.30134
 Alpha  occ. eigenvalues --   -0.29970  -0.29229  -0.28275  -0.28011  -0.26875
 Alpha  occ. eigenvalues --   -0.26750  -0.26484  -0.24753  -0.23558  -0.22073
 Alpha virt. eigenvalues --   -0.04405  -0.03783  -0.03172  -0.02532   0.03406
 Alpha virt. eigenvalues --    0.04674   0.05300   0.05327   0.06083   0.07257
 Alpha virt. eigenvalues --    0.08087   0.09087   0.09283   0.10100   0.10804
 Alpha virt. eigenvalues --    0.11074   0.12391   0.12795   0.13236   0.13472
 Alpha virt. eigenvalues --    0.14031   0.14565   0.15109   0.15320   0.15809
 Alpha virt. eigenvalues --    0.15933   0.16007   0.16567   0.16850   0.17202
 Alpha virt. eigenvalues --    0.17638   0.17986   0.18255   0.18510   0.19007
 Alpha virt. eigenvalues --    0.19498   0.20069   0.20225   0.20992   0.21384
 Alpha virt. eigenvalues --    0.22071   0.22504   0.23377   0.23753   0.24118
 Alpha virt. eigenvalues --    0.24603   0.25494   0.25841   0.26728   0.27193
 Alpha virt. eigenvalues --    0.27628   0.29187   0.30164   0.30761   0.31810
 Alpha virt. eigenvalues --    0.32655   0.33506   0.33985   0.36841   0.37244
 Alpha virt. eigenvalues --    0.39041   0.39738   0.40646   0.40967   0.42016
 Alpha virt. eigenvalues --    0.43088   0.44936   0.45804   0.46888   0.49511
 Alpha virt. eigenvalues --    0.50221   0.50310   0.50910   0.51066   0.51653
 Alpha virt. eigenvalues --    0.52261   0.52414   0.53363   0.54379   0.54481
 Alpha virt. eigenvalues --    0.54794   0.54897   0.55443   0.56529   0.57155
 Alpha virt. eigenvalues --    0.57411   0.57889   0.58188   0.58667   0.59247
 Alpha virt. eigenvalues --    0.59499   0.59694   0.60081   0.60539   0.60866
 Alpha virt. eigenvalues --    0.61712   0.62592   0.63186   0.63881   0.64334
 Alpha virt. eigenvalues --    0.64498   0.65485   0.65710   0.66100   0.66680
 Alpha virt. eigenvalues --    0.67133   0.68019   0.68607   0.69436   0.69742
 Alpha virt. eigenvalues --    0.70657   0.71563   0.72123   0.72865   0.73424
 Alpha virt. eigenvalues --    0.73866   0.74064   0.75291   0.75521   0.76061
 Alpha virt. eigenvalues --    0.76537   0.77164   0.78247   0.78789   0.79190
 Alpha virt. eigenvalues --    0.79622   0.81130   0.81161   0.81555   0.82113
 Alpha virt. eigenvalues --    0.82850   0.83744   0.83951   0.84535   0.84958
 Alpha virt. eigenvalues --    0.85461   0.85512   0.86304   0.86874   0.87052
 Alpha virt. eigenvalues --    0.87330   0.88087   0.88478   0.89486   0.90134
 Alpha virt. eigenvalues --    0.90794   0.90888   0.91538   0.92443   0.92828
 Alpha virt. eigenvalues --    0.93538   0.93628   0.94423   0.94499   0.95431
 Alpha virt. eigenvalues --    0.95799   0.96474   0.96824   0.97645   0.98444
 Alpha virt. eigenvalues --    0.98746   0.99598   1.00128   1.00336   1.00420
 Alpha virt. eigenvalues --    1.01275   1.01885   1.02616   1.03134   1.03864
 Alpha virt. eigenvalues --    1.04169   1.05633   1.06397   1.07217   1.08075
 Alpha virt. eigenvalues --    1.08180   1.08796   1.09358   1.10119   1.11146
 Alpha virt. eigenvalues --    1.11615   1.12716   1.13011   1.13516   1.15273
 Alpha virt. eigenvalues --    1.15916   1.16442   1.18005   1.18551   1.20980
 Alpha virt. eigenvalues --    1.21443   1.22271   1.22653   1.23174   1.23985
 Alpha virt. eigenvalues --    1.25235   1.26147   1.26210   1.27219   1.28255
 Alpha virt. eigenvalues --    1.30089   1.30499   1.31387   1.33271   1.34392
 Alpha virt. eigenvalues --    1.34516   1.36101   1.36308   1.36730   1.37750
 Alpha virt. eigenvalues --    1.38503   1.39113   1.39618   1.40107   1.40762
 Alpha virt. eigenvalues --    1.41317   1.42018   1.43162   1.44355   1.45541
 Alpha virt. eigenvalues --    1.46180   1.46537   1.47476   1.48851   1.49518
 Alpha virt. eigenvalues --    1.51763   1.53516   1.53734   1.56048   1.57191
 Alpha virt. eigenvalues --    1.58791   1.59715   1.61189   1.61396   1.63682
 Alpha virt. eigenvalues --    1.64565   1.64707   1.65026   1.67133   1.68326
 Alpha virt. eigenvalues --    1.68765   1.69177   1.70404   1.70822   1.71047
 Alpha virt. eigenvalues --    1.72247   1.72687   1.73279   1.73962   1.74215
 Alpha virt. eigenvalues --    1.74731   1.75712   1.76444   1.77366   1.77917
 Alpha virt. eigenvalues --    1.78154   1.79052   1.79636   1.79826   1.80554
 Alpha virt. eigenvalues --    1.81063   1.81576   1.82010   1.83078   1.83748
 Alpha virt. eigenvalues --    1.83984   1.84805   1.85754   1.86164   1.86957
 Alpha virt. eigenvalues --    1.87263   1.87605   1.87885   1.88484   1.88995
 Alpha virt. eigenvalues --    1.89292   1.89990   1.90552   1.91775   1.92311
 Alpha virt. eigenvalues --    1.93217   1.94083   1.94342   1.94770   1.95971
 Alpha virt. eigenvalues --    1.96817   1.98035   1.98455   1.99664   2.00126
 Alpha virt. eigenvalues --    2.00719   2.01308   2.01878   2.02849   2.04004
 Alpha virt. eigenvalues --    2.04218   2.04352   2.05452   2.05618   2.06583
 Alpha virt. eigenvalues --    2.07366   2.08061   2.09299   2.10752   2.12352
 Alpha virt. eigenvalues --    2.12622   2.13248   2.15787   2.17230   2.18277
 Alpha virt. eigenvalues --    2.20580   2.21020   2.21643   2.22379   2.23005
 Alpha virt. eigenvalues --    2.23601   2.24802   2.25478   2.25892   2.27546
 Alpha virt. eigenvalues --    2.28214   2.29444   2.30051   2.30448   2.30654
 Alpha virt. eigenvalues --    2.31610   2.32023   2.32701   2.33435   2.33716
 Alpha virt. eigenvalues --    2.35596   2.36077   2.36275   2.36967   2.37479
 Alpha virt. eigenvalues --    2.38941   2.39147   2.41945   2.42008   2.42736
 Alpha virt. eigenvalues --    2.43674   2.43911   2.45446   2.46722   2.47732
 Alpha virt. eigenvalues --    2.49149   2.50717   2.51068   2.52053   2.52697
 Alpha virt. eigenvalues --    2.53526   2.53704   2.55706   2.56272   2.57658
 Alpha virt. eigenvalues --    2.58236   2.58597   2.59781   2.63282   2.64660
 Alpha virt. eigenvalues --    2.65734   2.66330   2.66953   2.69287   2.69869
 Alpha virt. eigenvalues --    2.70880   2.71472   2.71997   2.74325   2.74485
 Alpha virt. eigenvalues --    2.75750   2.77361   2.77651   2.78695   2.81113
 Alpha virt. eigenvalues --    2.83635   2.85097   2.86232   2.87669   2.88959
 Alpha virt. eigenvalues --    2.91343   2.92332   2.93599   2.96019   2.96117
 Alpha virt. eigenvalues --    2.97815   2.98212   3.01961   3.03820   3.05556
 Alpha virt. eigenvalues --    3.06452   3.08464   3.11880   3.14165   3.17000
 Alpha virt. eigenvalues --    3.22231   3.22841   3.41085   3.49639   3.75273
 Alpha virt. eigenvalues --    3.84577   3.93581   3.96323   3.97253   4.00993
 Alpha virt. eigenvalues --    4.05798   4.08813   4.09380   4.13675   4.17096
 Alpha virt. eigenvalues --    4.20228   4.22394   4.23964   4.24639   4.26869
 Alpha virt. eigenvalues --    4.28869   4.31450   4.33280   4.35910   4.39595
 Alpha virt. eigenvalues --    4.41969   4.43864   4.47022   4.48724   4.52734
 Alpha virt. eigenvalues --    4.54400   4.61030   4.62964   4.65382   4.72683
 Alpha virt. eigenvalues --    4.74659   4.79661   4.87739
          Condensed to atoms (all electrons):
 Mulliken atomic charges:
              1
     1  C    0.111348
     2  C    0.296527
     3  C   -0.272022
     4  C    0.127709
     5  C   -0.063176
     6  C    0.227437
     7  C    0.064976
     8  C    0.282515
     9  O   -0.512996
    10  C    0.639606
    11  C   -0.359508
    12  C    0.246069
    13  C   -0.316163
    14  C   -0.343695
    15  C   -0.572793
    16  O   -0.673629
    17  O   -0.641255
    18  O   -0.536531
    19  O   -0.544493
    20  C    0.084967
    21  C    0.096330
    22  C    0.065576
    23  C   -0.139637
    24  C    0.063524
    25  C   -0.337220
    26  O   -0.637219
    27  O   -0.638793
    28  C    0.598135
    29  O   -0.461867
    30  O   -0.492879
    31  C   -0.225644
    32  C    0.583373
    33  O   -0.561561
    34  O   -0.471685
    35  H    0.143147
    36  H    0.193302
    37  H    0.173199
    38  H    0.170625
    39  H    0.174551
    40  H    0.186954
    41  H    0.177001
    42  H    0.154564
    43  H    0.206839
    44  H    0.166780
    45  H    0.450582
    46  H    0.419360
    47  H    0.147698
    48  H    0.146563
    49  H    0.133125
    50  H    0.172026
    51  H    0.177480
    52  H    0.178954
    53  H    0.399936
    54  H    0.413729
    55  H    0.165759
    56  H    0.168847
    57  H    0.176330
    58  H    0.417326
 Sum of Mulliken atomic charges =   0.00000
 Mulliken charges with hydrogens summed into heavy atoms:
              1
     1  C    0.111348
     2  C    0.296527
     3  C   -0.128876
     4  C    0.127709
     5  C   -0.063176
     6  C    0.227437
     7  C    0.064976
     8  C    0.282515
     9  O   -0.512996
    10  C    0.639606
    11  C    0.006994
    12  C    0.246069
    13  C    0.029013
    14  C    0.020260
    15  C   -0.044610
    16  O   -0.223047
    17  O   -0.221895
    18  O   -0.536531
    19  O   -0.544493
    20  C    0.232665
    21  C    0.242894
    22  C    0.198701
    23  C    0.032389
    24  C    0.063524
    25  C    0.019214
    26  O   -0.237284
    27  O   -0.225064
    28  C    0.598135
    29  O   -0.461867
    30  O   -0.492879
    31  C    0.285291
    32  C    0.583373
    33  O   -0.144236
    34  O   -0.471685
 Sum of Mulliken charges with hydrogens summed into heavy atoms =   0.00000
 Electronic spatial extent (au):  <R**2>=          14051.5515
 Charge=              0.0000 electrons
 Dipole moment (field-independent basis, Debye):
    X=             -1.2031    Y=             -3.3714    Z=             -3.3570  Tot=              4.9075
 Quadrupole moment (field-independent basis, Debye-Ang):
   XX=           -170.4370   YY=           -203.4400   ZZ=           -199.5692
   XY=              4.4842   XZ=            -10.7326   YZ=            -14.1139
 Traceless Quadrupole moment (field-independent basis, Debye-Ang):
   XX=             20.7117   YY=            -12.2913   ZZ=             -8.4204
   XY=              4.4842   XZ=            -10.7326   YZ=            -14.1139
 Octapole moment (field-independent basis, Debye-Ang**2):
  XXX=            -58.5145  YYY=            -14.6930  ZZZ=            -19.5435  XYY=            -21.8200
  XXY=            -18.2359  XXZ=           -144.5074  XZZ=             -0.0745  YZZ=            -13.2784
  YYZ=              0.5814  XYZ=             21.3745
 Hexadecapole moment (field-independent basis, Debye-Ang**3):
 XXXX=          -9517.8452 YYYY=          -4989.9128 ZZZZ=          -2725.8991 XXXY=             46.6136
 XXXZ=            -10.8646 YYYX=             84.2752 YYYZ=           -171.6237 ZZZX=           -168.2370
 ZZZY=            -23.5973 XXYY=          -2212.7426 XXZZ=          -2064.9112 YYZZ=          -1207.8360
 XXYZ=            -34.2286 YYXZ=             21.2395 ZZXY=             18.6769
 N-N= 3.922791688388D+03 E-N=-1.185906064838D+04  KE= 1.702834938940D+03
 Calling FoFJK, ICntrl=      2127 FMM=T ISym2X=0 I1Cent= 0 IOpClX= 0 NMat=1 NMatS=1 NMatT=0.
 ***** Axes restored to original set *****
 -------------------------------------------------------------------
 Center     Atomic                   Forces (Hartrees/Bohr)
 Number     Number              X              Y              Z
 -------------------------------------------------------------------
      1        6           0.001972093    0.007413881   -0.003925029
      2        6          -0.004876466   -0.002528958    0.005696335
      3        6          -0.007794990   -0.001504307    0.005089781
      4        6          -0.005944710   -0.020586592    0.007434670
      5        6          -0.008352982    0.025662260    0.002594909
      6        6           0.014474680    0.015429399   -0.013938855
      7        6           0.008186786   -0.001079848   -0.013019748
      8        6           0.002605121    0.007775331   -0.001040442
      9        8          -0.009439996   -0.001370519    0.007227964
     10        6           0.019336529   -0.032902831   -0.010372425
     11        6           0.002425141    0.001268640    0.001447220
     12        6           0.008974307    0.003062064    0.002919920
     13        6          -0.001879850    0.006010285    0.001506499
     14        6           0.003481241    0.006977551   -0.007664454
     15        6          -0.000809889   -0.000394965   -0.001894948
     16        8          -0.003719923   -0.021016917    0.006700912
     17        8           0.001722567    0.004095483   -0.002034829
     18        8          -0.015668167    0.018156933    0.009834664
     19        8          -0.000099990   -0.004391386    0.012439017
     20        6          -0.000635263   -0.008517564   -0.018199438
     21        6          -0.011810260    0.000572343    0.002891047
     22        6           0.011472064    0.001964030    0.007762345
     23        6           0.003672354   -0.009726642   -0.008700721
     24        6          -0.007680066    0.008948640    0.003235946
     25        6           0.000334909   -0.002476691    0.002609983
     26        8           0.008220260    0.000200232   -0.002792477
     27        8          -0.006059883    0.005176089    0.006477729
     28        6          -0.009638471    0.004652790    0.001506484
     29        8          -0.000141791    0.004631180   -0.006554924
     30        8           0.010049694   -0.009677288    0.005766049
     31        6           0.009949491   -0.000895005   -0.005306047
     32        6          -0.004567969   -0.018140175    0.006173925
     33        8          -0.002110234    0.003687622   -0.001806309
     34        8           0.004680079    0.012592965   -0.010182899
     35        1           0.000983272    0.001459111   -0.001333469
     36        1          -0.007173372   -0.002883225    0.000707551
     37        1           0.002559900   -0.000063788    0.000348079
     38        1          -0.000383804   -0.004251554   -0.002363566
     39        1           0.000394347   -0.002968652   -0.000757402
     40        1           0.000856410    0.001854925   -0.000385079
     41        1           0.000525746    0.001448297   -0.001597890
     42        1           0.001987454   -0.003837701   -0.000426802
     43        1          -0.002155116    0.001173884    0.004273551
     44        1           0.004251137   -0.002544885   -0.001587652
     45        1          -0.006921751   -0.001032337    0.005218411
     46        1          -0.000563862    0.000651921   -0.000631048
     47        1          -0.001222320    0.001396910    0.001988506
     48        1           0.001882790    0.006590005    0.002094221
     49        1          -0.003489896    0.001125072    0.003283362
     50        1           0.002828214   -0.001088034    0.000591900
     51        1           0.000338243   -0.002386949    0.002791069
     52        1           0.000896821   -0.001597256   -0.001589684
     53        1           0.004997910    0.000168583    0.001446865
     54        1          -0.004259280   -0.001628930   -0.003424748
     55        1          -0.003378357   -0.001515259    0.004496219
     56        1          -0.001219816    0.003914193    0.000622335
     57        1          -0.002238508    0.000184267   -0.002897234
     58        1           0.000177420    0.002763371   -0.002749348
 -------------------------------------------------------------------
 Cartesian Forces:  Max     0.032902831 RMS     0.007109179

 GradGradGradGradGradGradGradGradGradGradGradGradGradGradGradGradGradGrad
 Berny optimization.
 Internal  Forces:  Max     0.027396993 RMS     0.004589517
 Search for a local minimum.
 Step number   1 out of a maximum of  340
 All quantities printed in internal units (Hartrees-Bohrs-Radians)
 Mixed Optimization -- RFO/linear search
 Second derivative matrix not updated -- first step.
 ITU=  0
     Eigenvalues ---    0.00230   0.00468   0.00496   0.00514   0.00561
     Eigenvalues ---    0.00700   0.00717   0.00905   0.01161   0.01165
     Eigenvalues ---    0.01167   0.01187   0.01261   0.01261   0.01274
     Eigenvalues ---    0.01316   0.01354   0.01365   0.01370   0.01428
     Eigenvalues ---    0.01513   0.01651   0.01703   0.01713   0.01809
     Eigenvalues ---    0.01914   0.01983   0.02021   0.02036   0.02100
     Eigenvalues ---    0.02109   0.02124   0.02126   0.02261   0.02352
     Eigenvalues ---    0.02800   0.03117   0.03437   0.03723   0.04036
     Eigenvalues ---    0.04396   0.04668   0.04865   0.04937   0.05034
     Eigenvalues ---    0.05356   0.05434   0.05765   0.05875   0.06137
     Eigenvalues ---    0.06395   0.06823   0.06938   0.07075   0.07318
     Eigenvalues ---    0.07750   0.08107   0.08133   0.08200   0.08313
     Eigenvalues ---    0.09454   0.09506   0.09517   0.09555   0.10033
     Eigenvalues ---    0.10107   0.10502   0.11539   0.11849   0.14264
     Eigenvalues ---    0.14484   0.15999   0.15999   0.16000   0.16000
     Eigenvalues ---    0.16000   0.16000   0.16000   0.16000   0.16000
     Eigenvalues ---    0.16000   0.16000   0.16000   0.16689   0.16716
     Eigenvalues ---    0.16998   0.18388   0.18908   0.19853   0.22927
     Eigenvalues ---    0.23521   0.24331   0.24938   0.24986   0.24989
     Eigenvalues ---    0.24991   0.24993   0.24996   0.24998   0.24999
     Eigenvalues ---    0.24999   0.25000   0.25000   0.25000   0.25000
     Eigenvalues ---    0.25000   0.25000   0.26852   0.27006   0.27269
     Eigenvalues ---    0.27439   0.27471   0.28305   0.28564   0.30355
     Eigenvalues ---    0.30973   0.31369   0.31902   0.31988   0.32682
     Eigenvalues ---    0.33504   0.33853   0.33860   0.33939   0.33985
     Eigenvalues ---    0.34016   0.34056   0.34074   0.34083   0.34171
     Eigenvalues ---    0.34207   0.34275   0.34289   0.34297   0.34304
     Eigenvalues ---    0.34373   0.34419   0.34709   0.34720   0.34954
     Eigenvalues ---    0.35164   0.38393   0.39571   0.39633   0.40620
     Eigenvalues ---    0.40863   0.41222   0.41639   0.43250   0.44403
     Eigenvalues ---    0.45249   0.45481   0.45954   0.49697   0.50179
     Eigenvalues ---    0.50685   0.51251   0.51521   0.51707   0.52538
     Eigenvalues ---    0.52656   0.53297   0.53517   0.53563   0.55005
     Eigenvalues ---    0.91532   0.94606   0.95145
 RFO step:  Lambda=-2.69331999D-02 EMin= 2.30000000D-03
 Linear search not attempted -- first point.
 Maximum step size (   0.300) exceeded in Quadratic search.
    -- Step size scaled by   0.980
 Iteration  1 RMS(Cart)=  0.14571381 RMS(Int)=  0.00216687
 Iteration  2 RMS(Cart)=  0.00541251 RMS(Int)=  0.00032674
 Iteration  3 RMS(Cart)=  0.00000733 RMS(Int)=  0.00032671
 Iteration  4 RMS(Cart)=  0.00000001 RMS(Int)=  0.00032671
 Variable       Old X    -DE/DX   Delta X   Delta X   Delta X     New X
                                 (Linear)    (Quad)   (Total)
    R1        2.64110   0.00638   0.00000   0.01185   0.01214   2.65324
    R2        2.65263  -0.00099   0.00000  -0.00224  -0.00234   2.65029
    R3        2.84165   0.00404   0.00000   0.01141   0.01141   2.85306
    R4        2.63997   0.00165   0.00000   0.00257   0.00294   2.64291
    R5        2.58361  -0.00453   0.00000  -0.00819  -0.00819   2.57543
    R6        2.64726  -0.00439   0.00000  -0.00872  -0.00863   2.63863
    R7        2.05410  -0.00220   0.00000  -0.00570  -0.00570   2.04841
    R8        2.64649   0.01193   0.00000   0.02703   0.02641   2.67290
    R9        2.78262  -0.00902   0.00000  -0.02190  -0.02183   2.76079
   R10        2.66936   0.00137   0.00000   0.00502   0.00362   2.67297
   R11        2.79648  -0.00992   0.00000  -0.02390  -0.02510   2.77138
   R12        2.59858  -0.02740   0.00000  -0.05056  -0.05080   2.54778
   R13        2.53826   0.00353   0.00000   0.00661   0.00697   2.54523
   R14        2.86460  -0.00233   0.00000  -0.00648  -0.00651   2.85809
   R15        2.65986  -0.01978   0.00000  -0.04299  -0.04266   2.61719
   R16        2.84192  -0.00612   0.00000  -0.01508  -0.01508   2.82684
   R17        2.56994  -0.00280   0.00000  -0.00587  -0.00591   2.56403
   R18        2.32135  -0.00050   0.00000  -0.00070  -0.00059   2.32077
   R19        2.93157  -0.00435   0.00000  -0.01730  -0.01727   2.91430
   R20        2.07567  -0.00181   0.00000  -0.00486  -0.00486   2.07080
   R21        2.06846  -0.00044   0.00000  -0.00117  -0.00117   2.06729
   R22        2.91003   0.00070   0.00000   0.00101   0.00097   2.91100
   R23        2.72140  -0.01098   0.00000  -0.02546  -0.02546   2.69594
   R24        2.91475  -0.00530   0.00000  -0.01675  -0.01675   2.89800
   R25        2.89289   0.00420   0.00000   0.01201   0.01206   2.90494
   R26        2.07579  -0.00173   0.00000  -0.00465  -0.00465   2.07114
   R27        2.07433  -0.00172   0.00000  -0.00461  -0.00461   2.06972
   R28        2.07356   0.00042   0.00000   0.00112   0.00112   2.07467
   R29        2.07205   0.00040   0.00000   0.00106   0.00106   2.07311
   R30        2.06982   0.00269   0.00000   0.00714   0.00714   2.07696
   R31        2.06705  -0.00256   0.00000  -0.00678  -0.00678   2.06028
   R32        2.06869   0.00298   0.00000   0.00791   0.00791   2.07659
   R33        1.85957   0.00488   0.00000   0.00803   0.00901   1.86858
   R34        1.83378  -0.00028   0.00000  -0.00049  -0.00049   1.83329
   R35        3.20880   0.00346   0.00000   0.02723   0.02832   3.23712
   R36        2.72056   0.00031   0.00000   0.00073   0.00073   2.72128
   R37        2.91505  -0.00637   0.00000  -0.01985  -0.01970   2.89534
   R38        2.91731  -0.00358   0.00000  -0.01083  -0.01095   2.90636
   R39        2.07236  -0.00043   0.00000  -0.00113  -0.00113   2.07122
   R40        2.92907  -0.00347   0.00000  -0.01155  -0.01144   2.91762
   R41        2.70719  -0.00342   0.00000  -0.00774  -0.00774   2.69946
   R42        2.07190   0.00100   0.00000   0.00267   0.00267   2.07457
   R43        2.83183   0.00653   0.00000   0.01765   0.01771   2.84954
   R44        2.69385   0.00525   0.00000   0.01161   0.01161   2.70546
   R45        2.07042   0.00143   0.00000   0.00379   0.00379   2.07422
   R46        2.54421  -0.00445   0.00000  -0.00759  -0.00765   2.53656
   R47        2.05750  -0.00179   0.00000  -0.00465  -0.00465   2.05285
   R48        2.84738   0.00441   0.00000   0.01288   0.01274   2.86012
   R49        2.81475   0.00423   0.00000   0.01146   0.01146   2.82621
   R50        2.07304   0.00076   0.00000   0.00204   0.00204   2.07507
   R51        2.06151   0.00033   0.00000   0.00085   0.00085   2.06236
   R52        1.84087  -0.00514   0.00000  -0.00912  -0.00912   1.83175
   R53        1.84881  -0.00542   0.00000  -0.00976  -0.00976   1.83905
   R54        2.56431  -0.00156   0.00000  -0.00271  -0.00271   2.56160
   R55        2.30880  -0.01265   0.00000  -0.01273  -0.01273   2.29606
   R56        2.69926   0.00467   0.00000   0.01042   0.01042   2.70968
   R57        2.06628  -0.00114   0.00000  -0.00300  -0.00300   2.06328
   R58        2.06832  -0.00085   0.00000  -0.00225  -0.00225   2.06607
   R59        2.06820  -0.00074   0.00000  -0.00196  -0.00196   2.06624
   R60        2.55128   0.00271   0.00000   0.00460   0.00460   2.55587
   R61        2.30648  -0.01268   0.00000  -0.01270  -0.01270   2.29378
   R62        1.85323  -0.00373   0.00000  -0.00678  -0.00678   1.84645
    A1        2.04944  -0.00058   0.00000  -0.00161  -0.00204   2.04741
    A2        2.11862  -0.00084   0.00000  -0.00316  -0.00295   2.11567
    A3        2.11485   0.00142   0.00000   0.00484   0.00506   2.11991
    A4        2.12184   0.00424   0.00000   0.01458   0.01460   2.13645
    A5        2.14709  -0.00694   0.00000  -0.02435  -0.02437   2.12272
    A6        2.01425   0.00270   0.00000   0.00977   0.00975   2.02400
    A7        2.11417  -0.00584   0.00000  -0.02123  -0.02140   2.09278
    A8        2.04764   0.00285   0.00000   0.01027   0.01035   2.05799
    A9        2.12135   0.00298   0.00000   0.01094   0.01102   2.13237
   A10        2.05948   0.00566   0.00000   0.02113   0.02071   2.08019
   A11        2.13474   0.00384   0.00000   0.00743   0.00826   2.14300
   A12        2.08894  -0.00950   0.00000  -0.02853  -0.02895   2.05999
   A13        2.10394  -0.00374   0.00000  -0.01430  -0.01345   2.09049
   A14        2.08765   0.00276   0.00000   0.01080   0.01167   2.09933
   A15        2.09155   0.00097   0.00000   0.00348   0.00175   2.09330
   A16        2.11665   0.00027   0.00000   0.00175   0.00186   2.11851
   A17        2.03946   0.00501   0.00000   0.01320   0.01495   2.05441
   A18        2.12707  -0.00528   0.00000  -0.01495  -0.01682   2.11026
   A19        2.05693   0.00372   0.00000   0.01509   0.01503   2.07196
   A20        2.10999  -0.00109   0.00000  -0.00593  -0.00588   2.10411
   A21        2.11554  -0.00261   0.00000  -0.00869  -0.00875   2.10678
   A22        2.14721   0.00182   0.00000   0.00245   0.00262   2.14983
   A23        2.16080   0.00764   0.00000   0.03207   0.03195   2.19275
   A24        1.97502  -0.00945   0.00000  -0.03449  -0.03454   1.94047
   A25        2.13001   0.00081   0.00000  -0.00070  -0.00114   2.12887
   A26        2.05173   0.00042   0.00000   0.00165   0.00148   2.05321
   A27        2.09917   0.02597   0.00000   0.09435   0.09318   2.19235
   A28        2.13215  -0.02638   0.00000  -0.09597  -0.09463   2.03751
   A29        1.98161  -0.00165   0.00000  -0.01157  -0.01150   1.97011
   A30        1.87456   0.00605   0.00000   0.04608   0.04599   1.92055
   A31        1.92824  -0.00147   0.00000  -0.00765  -0.00759   1.92065
   A32        1.92655  -0.00498   0.00000  -0.03418  -0.03401   1.89255
   A33        1.89101   0.00309   0.00000   0.01798   0.01797   1.90899
   A34        1.85810  -0.00113   0.00000  -0.01139  -0.01138   1.84672
   A35        1.88401   0.00269   0.00000   0.02109   0.02096   1.90497
   A36        1.96413   0.00350   0.00000   0.01771   0.01770   1.98184
   A37        1.91229  -0.00279   0.00000  -0.00665  -0.00697   1.90532
   A38        1.84517  -0.00329   0.00000  -0.01519  -0.01535   1.82982
   A39        1.86748   0.00311   0.00000   0.01873   0.01864   1.88612
   A40        1.98439  -0.00287   0.00000  -0.03264  -0.03252   1.95187
   A41        1.94410   0.00089   0.00000  -0.00039  -0.00038   1.94372
   A42        1.92223  -0.00353   0.00000  -0.02813  -0.02818   1.89405
   A43        1.93096  -0.00110   0.00000  -0.00980  -0.00976   1.92119
   A44        1.91377   0.00232   0.00000   0.01469   0.01462   1.92839
   A45        1.89094   0.00047   0.00000   0.01464   0.01453   1.90547
   A46        1.85969   0.00104   0.00000   0.01032   0.00990   1.86959
   A47        1.98260  -0.00698   0.00000  -0.02758  -0.02746   1.95515
   A48        1.89085   0.00150   0.00000   0.00598   0.00608   1.89694
   A49        1.91431   0.00132   0.00000  -0.00233  -0.00225   1.91206
   A50        1.91098   0.00348   0.00000   0.02026   0.02026   1.93124
   A51        1.89827   0.00293   0.00000   0.01340   0.01318   1.91145
   A52        1.86313  -0.00200   0.00000  -0.00876  -0.00892   1.85420
   A53        1.92427   0.00344   0.00000   0.02014   0.02005   1.94432
   A54        1.97156  -0.00689   0.00000  -0.03713  -0.03691   1.93466
   A55        1.91836   0.00599   0.00000   0.03028   0.03021   1.94858
   A56        1.85685   0.00223   0.00000   0.01371   0.01390   1.87075
   A57        1.90764  -0.00432   0.00000  -0.02065  -0.02100   1.88664
   A58        1.88319  -0.00076   0.00000  -0.00787  -0.00764   1.87556
   A59        1.90861  -0.01961   0.00000  -0.09898  -0.09988   1.80873
   A60        1.91700  -0.00134   0.00000  -0.00705  -0.00705   1.90996
   A61        2.05139   0.00602   0.00000   0.02130   0.02130   2.07269
   A62        1.89324  -0.00578   0.00000  -0.03181  -0.03199   1.86125
   A63        1.91746   0.00221   0.00000   0.01089   0.01104   1.92849
   A64        1.93871   0.00069   0.00000  -0.00292  -0.00338   1.93533
   A65        1.91623   0.00400   0.00000   0.02004   0.02024   1.93647
   A66        1.90338  -0.00055   0.00000  -0.00985  -0.01031   1.89308
   A67        1.89479  -0.00050   0.00000   0.01392   0.01391   1.90870
   A68        1.93309   0.00381   0.00000   0.00621   0.00627   1.93936
   A69        1.90663  -0.01134   0.00000  -0.06725  -0.06696   1.83967
   A70        1.90025   0.00152   0.00000   0.00543   0.00585   1.90609
   A71        1.94799   0.00515   0.00000   0.01625   0.01544   1.96343
   A72        1.89862  -0.00484   0.00000  -0.01788  -0.01836   1.88026
   A73        1.87582   0.00577   0.00000   0.05910   0.05920   1.93502
   A74        1.99364  -0.00600   0.00000  -0.01751  -0.01788   1.97577
   A75        1.92495   0.00091   0.00000   0.01538   0.01497   1.93992
   A76        1.90826   0.00078   0.00000  -0.01586  -0.01593   1.89234
   A77        1.86247   0.00738   0.00000   0.05143   0.05140   1.91387
   A78        1.89347   0.00188   0.00000   0.00801   0.00793   1.90140
   A79        1.87714  -0.00490   0.00000  -0.04245  -0.04246   1.83468
   A80        2.15609   0.00274   0.00000   0.00922   0.00926   2.16536
   A81        2.02265   0.00106   0.00000   0.00813   0.00801   2.03066
   A82        2.10441  -0.00381   0.00000  -0.01752  -0.01762   2.08679
   A83        2.13002   0.00093   0.00000   0.00288   0.00274   2.13276
   A84        2.05834  -0.00207   0.00000  -0.00693  -0.00690   2.05144
   A85        2.09439   0.00116   0.00000   0.00438   0.00442   2.09881
   A86        1.97925  -0.00435   0.00000  -0.01877  -0.01889   1.96036
   A87        1.91250  -0.00154   0.00000  -0.01325  -0.01314   1.89936
   A88        1.89677   0.00279   0.00000   0.01355   0.01371   1.91048
   A89        1.88984   0.00368   0.00000   0.02517   0.02514   1.91499
   A90        1.91149   0.00096   0.00000   0.00302   0.00306   1.91456
   A91        1.87101  -0.00144   0.00000  -0.00955  -0.00960   1.86141
[...]
     51          1           0       -1.215622    1.078406   -2.469911
     52          1           0       -0.326672    0.485888   -1.075446
     53          1           0       -4.591212    1.236330   -3.057441
     54          1           0       -3.954569    0.623667    1.072293
     55          1           0        2.754242    2.899605   -0.641913
     56          1           0        1.783800    4.408600   -0.756708
     57          1           0        1.941397    3.568190    0.807196
     58          1           0       -4.615531   -3.355220   -0.295074
 ---------------------------------------------------------------------
 Rotational constants (GHZ):      0.1794715      0.0970086      0.0825336

 **********************************************************************

            Population analysis using the SCF density.

 **********************************************************************

 Orbital symmetries:
       Occupied  (A) (A) (A) (A) (A) (A) (A) (A) (A) (A) (A) (A)
                 (A) (A) (A) (A) (A) (A) (A) (A) (A) (A) (A) (A)
                 (A) (A) (A) (A) (A) (A) (A) (A) (A) (A) (A) (A)
                 (A) (A) (A) (A) (A) (A) (A) (A) (A) (A) (A) (A)
                 (A) (A) (A) (A) (A) (A) (A) (A) (A) (A) (A) (A)
                 (A) (A) (A) (A) (A) (A) (A) (A) (A) (A) (A) (A)
                 (A) (A) (A) (A) (A) (A) (A) (A) (A) (A) (A) (A)
                 (A) (A) (A) (A) (A) (A) (A) (A) (A) (A) (A) (A)
                 (A) (A) (A) (A) (A) (A) (A) (A) (A) (A) (A) (A)
                 (A) (A) (A) (A) (A) (A) (A) (A) (A) (A) (A) (A)
                 (A) (A) (A) (A) (A)
       Virtual   (A) (A) (A) (A) (A) (A) (A) (A) (A) (A) (A) (A)
                 (A) (A) (A) (A) (A) (A) (A) (A) (A) (A) (A) (A)
                 (A) (A) (A) (A) (A) (A) (A) (A) (A) (A) (A) (A)
                 (A) (A) (A) (A) (A) (A) (A) (A) (A) (A) (A) (A)
                 (A) (A) (A) (A) (A) (A) (A) (A) (A) (A) (A) (A)
                 (A) (A) (A) (A) (A) (A) (A) (A) (A) (A) (A) (A)
                 (A) (A) (A) (A) (A) (A) (A) (A) (A) (A) (A) (A)
                 (A) (A) (A) (A) (A) (A) (A) (A) (A) (A) (A) (A)
                 (A) (A) (A) (A) (A) (A) (A) (A) (A) (A) (A) (A)
                 (A) (A) (A) (A) (A) (A) (A) (A) (A) (A) (A) (A)
                 (A) (A) (A) (A) (A) (A) (A) (A) (A) (A) (A) (A)
                 (A) (A) (A) (A) (A) (A) (A) (A) (A) (A) (A) (A)
                 (A) (A) (A) (A) (A) (A) (A) (A) (A) (A) (A) (A)
                 (A) (A) (A) (A) (A) (A) (A) (A) (A) (A) (A) (A)
                 (A) (A) (A) (A) (A) (A) (A) (A) (A) (A) (A) (A)
                 (A) (A) (A) (A) (A) (A) (A) (A) (A) (A) (A) (A)
                 (A) (A) (A) (A) (A) (A) (A) (A) (A) (A) (A) (A)
                 (A) (A) (A) (A) (A) (A) (A) (A) (A) (A) (A) (A)
                 (A) (A) (A) (A) (A) (A) (A) (A) (A) (A) (A) (A)
                 (A) (A) (A) (A) (A) (A) (A) (A) (A) (A) (A) (A)
                 (A) (A) (A) (A) (A) (A) (A) (A) (A) (A) (A) (A)
                 (A) (A) (A) (A) (A) (A) (A) (A) (A) (A) (A) (A)
                 (A) (A) (A) (A) (A) (A) (A) (A) (A) (A) (A) (A)
                 (A) (A) (A) (A) (A) (A) (A) (A) (A) (A) (A) (A)
                 (A) (A) (A) (A) (A) (A) (A) (A) (A) (A) (A) (A)
                 (A) (A) (A) (A) (A) (A) (A) (A) (A) (A) (A) (A)
                 (A) (A) (A) (A) (A) (A) (A) (A) (A) (A) (A) (A)
                 (A) (A) (A) (A) (A) (A) (A) (A) (A) (A) (A) (A)
                 (A) (A) (A) (A) (A) (A) (A) (A) (A) (A) (A) (A)
                 (A) (A) (A) (A) (A) (A) (A) (A) (A) (A) (A) (A)
                 (A) (A) (A) (A) (A) (A) (A) (A) (A) (A) (A) (A)
                 (A) (A) (A) (A) (A) (A) (A) (A) (A) (A) (A) (A)
                 (A) (A) (A) (A) (A) (A) (A) (A) (A) (A) (A) (A)
                 (A) (A) (A) (A) (A) (A) (A) (A) (A) (A) (A) (A)
                 (A) (A) (A) (A) (A) (A) (A) (A) (A) (A) (A) (A)
                 (A) (A) (A) (A) (A) (A) (A) (A) (A) (A) (A) (A)
                 (A)
 The electronic state is 1-A.
 Alpha  occ. eigenvalues --  -19.22213 -19.22068 -19.19798 -19.18823 -19.17892
 Alpha  occ. eigenvalues --  -19.17608 -19.16163 -19.15918 -19.14507 -19.14015
 Alpha  occ. eigenvalues --  -19.12605 -10.33985 -10.33000 -10.30815 -10.28519
 Alpha  occ. eigenvalues --  -10.27243 -10.27223 -10.27138 -10.25490 -10.24248
 Alpha  occ. eigenvalues --  -10.24161 -10.23201 -10.22659 -10.21612 -10.21418
 Alpha  occ. eigenvalues --  -10.21367 -10.21304 -10.20879 -10.20581 -10.20409
 Alpha  occ. eigenvalues --  -10.20116 -10.19481 -10.19400 -10.19165  -1.13005
 Alpha  occ. eigenvalues --   -1.12663  -1.09410  -1.08071  -1.06915  -1.06106
 Alpha  occ. eigenvalues --   -1.03745  -1.03322  -1.03032  -1.01359  -1.00426
 Alpha  occ. eigenvalues --   -0.88020  -0.86090  -0.83394  -0.81031  -0.78817
 Alpha  occ. eigenvalues --   -0.77310  -0.76473  -0.75331  -0.74198  -0.71396
 Alpha  occ. eigenvalues --   -0.71055  -0.69326  -0.66565  -0.66171  -0.64764
 Alpha  occ. eigenvalues --   -0.63774  -0.62206  -0.61635  -0.59348  -0.57828
 Alpha  occ. eigenvalues --   -0.57391  -0.55851  -0.55329  -0.53955  -0.52391
 Alpha  occ. eigenvalues --   -0.51249  -0.50967  -0.50505  -0.49866  -0.49589
 Alpha  occ. eigenvalues --   -0.49465  -0.48172  -0.48001  -0.47292  -0.47052
 Alpha  occ. eigenvalues --   -0.46825  -0.46223  -0.45782  -0.45670  -0.44978
 Alpha  occ. eigenvalues --   -0.44752  -0.43997  -0.43408  -0.43066  -0.42423
 Alpha  occ. eigenvalues --   -0.42353  -0.42097  -0.41631  -0.41433  -0.40985
 Alpha  occ. eigenvalues --   -0.40653  -0.40099  -0.39982  -0.39256  -0.39004
 Alpha  occ. eigenvalues --   -0.38603  -0.37880  -0.37702  -0.37569  -0.37068
 Alpha  occ. eigenvalues --   -0.36600  -0.35930  -0.35350  -0.34987  -0.34424
 Alpha  occ. eigenvalues --   -0.34242  -0.33914  -0.33302  -0.32659  -0.30306
 Alpha  occ. eigenvalues --   -0.29646  -0.29335  -0.28682  -0.27484  -0.26845
 Alpha  occ. eigenvalues --   -0.26565  -0.26257  -0.25081  -0.23703  -0.22005
 Alpha virt. eigenvalues --   -0.04837  -0.03761  -0.03090  -0.01715   0.03696
 Alpha virt. eigenvalues --    0.04694   0.05463   0.05623   0.06036   0.07563
 Alpha virt. eigenvalues --    0.08224   0.09274   0.09761   0.10424   0.11410
 Alpha virt. eigenvalues --    0.11728   0.12336   0.12988   0.13481   0.14186
 Alpha virt. eigenvalues --    0.14265   0.14995   0.15099   0.15357   0.16092
 Alpha virt. eigenvalues --    0.16428   0.16725   0.16778   0.17201   0.17247
 Alpha virt. eigenvalues --    0.18093   0.18343   0.18820   0.18921   0.19267
 Alpha virt. eigenvalues --    0.19838   0.20045   0.20424   0.21011   0.21591
 Alpha virt. eigenvalues --    0.22608   0.22733   0.23311   0.23765   0.24200
 Alpha virt. eigenvalues --    0.24712   0.25896   0.26545   0.27066   0.27461
 Alpha virt. eigenvalues --    0.28504   0.29205   0.30332   0.30962   0.31937
 Alpha virt. eigenvalues --    0.32569   0.33455   0.33571   0.35938   0.37890
 Alpha virt. eigenvalues --    0.39514   0.39940   0.40072   0.41347   0.42290
 Alpha virt. eigenvalues --    0.43176   0.44854   0.46134   0.46804   0.49458
 Alpha virt. eigenvalues --    0.50119   0.50430   0.50841   0.51162   0.51957
 Alpha virt. eigenvalues --    0.52321   0.52736   0.53191   0.53754   0.54569
 Alpha virt. eigenvalues --    0.54761   0.55389   0.55716   0.56244   0.56971
 Alpha virt. eigenvalues --    0.57377   0.58021   0.58257   0.58900   0.59434
 Alpha virt. eigenvalues --    0.59649   0.60111   0.60775   0.60990   0.61379
 Alpha virt. eigenvalues --    0.62629   0.63171   0.63526   0.63661   0.64173
 Alpha virt. eigenvalues --    0.64675   0.65686   0.65800   0.66439   0.67156
 Alpha virt. eigenvalues --    0.67397   0.68514   0.69050   0.69205   0.69887
 Alpha virt. eigenvalues --    0.70904   0.72043   0.72310   0.72632   0.73228
 Alpha virt. eigenvalues --    0.74078   0.74277   0.75346   0.75720   0.75749
 Alpha virt. eigenvalues --    0.76120   0.77274   0.78816   0.79434   0.79686
 Alpha virt. eigenvalues --    0.80334   0.80814   0.80989   0.82063   0.82350
 Alpha virt. eigenvalues --    0.82844   0.83635   0.83913   0.84258   0.84722
 Alpha virt. eigenvalues --    0.85343   0.85647   0.86405   0.86711   0.87445
 Alpha virt. eigenvalues --    0.87939   0.88402   0.88746   0.89587   0.90403
 Alpha virt. eigenvalues --    0.90631   0.90843   0.92024   0.92948   0.93154
 Alpha virt. eigenvalues --    0.93762   0.94290   0.94641   0.95380   0.95517
 Alpha virt. eigenvalues --    0.96205   0.96842   0.97174   0.98447   0.98925
 Alpha virt. eigenvalues --    0.99343   1.00063   1.00464   1.00737   1.01206
 Alpha virt. eigenvalues --    1.01799   1.02568   1.03713   1.03895   1.04640
 Alpha virt. eigenvalues --    1.04834   1.05227   1.06382   1.07021   1.07508
 Alpha virt. eigenvalues --    1.08239   1.08625   1.09836   1.10722   1.11103
 Alpha virt. eigenvalues --    1.11759   1.12741   1.13291   1.14682   1.15446
 Alpha virt. eigenvalues --    1.16080   1.17254   1.17829   1.20004   1.20695
 Alpha virt. eigenvalues --    1.22137   1.22230   1.22733   1.23567   1.24155
 Alpha virt. eigenvalues --    1.25566   1.27139   1.27289   1.28005   1.29607
 Alpha virt. eigenvalues --    1.30790   1.31767   1.32402   1.33713   1.34151
 Alpha virt. eigenvalues --    1.35349   1.36035   1.36959   1.37540   1.37919
 Alpha virt. eigenvalues --    1.38513   1.39070   1.39558   1.40006   1.40903
 Alpha virt. eigenvalues --    1.41390   1.42547   1.42925   1.43805   1.44945
 Alpha virt. eigenvalues --    1.46203   1.46601   1.48207   1.49303   1.50129
 Alpha virt. eigenvalues --    1.52659   1.53590   1.53938   1.56936   1.57070
 Alpha virt. eigenvalues --    1.59588   1.60302   1.62077   1.63175   1.63660
 Alpha virt. eigenvalues --    1.64149   1.65850   1.66251   1.67352   1.69236
 Alpha virt. eigenvalues --    1.69424   1.70028   1.70639   1.70706   1.71219
 Alpha virt. eigenvalues --    1.72103   1.73049   1.73366   1.73728   1.74091
 Alpha virt. eigenvalues --    1.74599   1.75072   1.76188   1.76839   1.77293
 Alpha virt. eigenvalues --    1.78446   1.79146   1.79867   1.80157   1.80825
 Alpha virt. eigenvalues --    1.81329   1.82378   1.82676   1.82874   1.83944
 Alpha virt. eigenvalues --    1.84842   1.85332   1.86368   1.86574   1.87461
 Alpha virt. eigenvalues --    1.87992   1.88084   1.88462   1.88997   1.89538
 Alpha virt. eigenvalues --    1.89875   1.90806   1.91757   1.92214   1.92671
 Alpha virt. eigenvalues --    1.94317   1.94838   1.94992   1.95732   1.96032
 Alpha virt. eigenvalues --    1.97424   1.98243   1.98949   1.99862   2.00759
 Alpha virt. eigenvalues --    2.01281   2.02206   2.02580   2.04014   2.04085
 Alpha virt. eigenvalues --    2.04583   2.04644   2.05424   2.06480   2.06897
 Alpha virt. eigenvalues --    2.07305   2.08976   2.10571   2.12506   2.13278
 Alpha virt. eigenvalues --    2.13409   2.15441   2.16304   2.17819   2.19391
 Alpha virt. eigenvalues --    2.20149   2.21152   2.22073   2.22641   2.23531
 Alpha virt. eigenvalues --    2.23932   2.25068   2.25881   2.27046   2.27643
 Alpha virt. eigenvalues --    2.28490   2.29514   2.30225   2.30667   2.31006
 Alpha virt. eigenvalues --    2.31496   2.32002   2.32949   2.33379   2.33892
 Alpha virt. eigenvalues --    2.35754   2.36393   2.37160   2.37393   2.38254
 Alpha virt. eigenvalues --    2.39064   2.40292   2.42243   2.42507   2.42825
 Alpha virt. eigenvalues --    2.44830   2.45102   2.45621   2.47519   2.48413
 Alpha virt. eigenvalues --    2.48950   2.50554   2.50995   2.52787   2.53193
 Alpha virt. eigenvalues --    2.54567   2.54819   2.55810   2.56556   2.57336
 Alpha virt. eigenvalues --    2.58183   2.59550   2.60462   2.63393   2.64558
 Alpha virt. eigenvalues --    2.66171   2.68049   2.68983   2.69602   2.69803
 Alpha virt. eigenvalues --    2.71779   2.72422   2.72872   2.74470   2.75469
 Alpha virt. eigenvalues --    2.76418   2.77852   2.79038   2.79841   2.82205
 Alpha virt. eigenvalues --    2.84046   2.85973   2.86687   2.86981   2.89716
 Alpha virt. eigenvalues --    2.90830   2.92567   2.94414   2.95320   2.96532
 Alpha virt. eigenvalues --    2.98178   2.99003   3.03097   3.03666   3.06409
 Alpha virt. eigenvalues --    3.06603   3.08414   3.12727   3.16533   3.19569
 Alpha virt. eigenvalues --    3.22360   3.24037   3.43830   3.50294   3.76685
 Alpha virt. eigenvalues --    3.81748   3.94826   3.95677   3.97659   4.02930
 Alpha virt. eigenvalues --    4.07435   4.09657   4.10873   4.14314   4.17363
 Alpha virt. eigenvalues --    4.21961   4.24638   4.26017   4.26603   4.29248
 Alpha virt. eigenvalues --    4.29977   4.30661   4.34845   4.37565   4.40569
 Alpha virt. eigenvalues --    4.41382   4.45435   4.48763   4.50917   4.53832
 Alpha virt. eigenvalues --    4.56303   4.61151   4.64708   4.67039   4.71502
 Alpha virt. eigenvalues --    4.77278   4.82125   4.88112
          Condensed to atoms (all electrons):
 Mulliken atomic charges:
              1
     1  C    0.110218
     2  C    0.301065
     3  C   -0.272152
     4  C    0.142833
     5  C   -0.053195
     6  C    0.237364
     7  C    0.043861
     8  C    0.296165
     9  O   -0.497896
    10  C    0.610044
    11  C   -0.373123
    12  C    0.245605
    13  C   -0.307196
    14  C   -0.342180
    15  C   -0.586099
    16  O   -0.665642
    17  O   -0.637130
    18  O   -0.547859
    19  O   -0.550539
    20  C    0.095586
    21  C    0.085574
    22  C    0.075733
    23  C   -0.149059
    24  C    0.076531
    25  C   -0.339684
    26  O   -0.632707
    27  O   -0.637294
    28  C    0.587680
    29  O   -0.471474
    30  O   -0.490208
    31  C   -0.229055
    32  C    0.581159
    33  O   -0.559052
    34  O   -0.468533
    35  H    0.145172
    36  H    0.197126
    37  H    0.166482
    38  H    0.173249
    39  H    0.164012
    40  H    0.191810
    41  H    0.177204
    42  H    0.161576
    43  H    0.209104
    44  H    0.162935
    45  H    0.448921
    46  H    0.422497
    47  H    0.140699
    48  H    0.149322
    49  H    0.131289
    50  H    0.171768
    51  H    0.181571
    52  H    0.179067
    53  H    0.399163
    54  H    0.409709
    55  H    0.166417
    56  H    0.169963
    57  H    0.184959
    58  H    0.416645
 Sum of Mulliken atomic charges =   0.00000
 Mulliken charges with hydrogens summed into heavy atoms:
              1
     1  C    0.110218
     2  C    0.301065
     3  C   -0.126980
     4  C    0.142833
     5  C   -0.053195
     6  C    0.237364
     7  C    0.043861
     8  C    0.296165
     9  O   -0.497896
    10  C    0.610044
    11  C   -0.009515
    12  C    0.245605
    13  C    0.030066
    14  C    0.026834
    15  C   -0.052484
    16  O   -0.216722
    17  O   -0.214633
    18  O   -0.547859
    19  O   -0.550539
    20  C    0.236285
    21  C    0.234895
    22  C    0.207022
    23  C    0.022709
    24  C    0.076531
    25  C    0.020954
    26  O   -0.233544
    27  O   -0.227586
    28  C    0.587680
    29  O   -0.471474
    30  O   -0.490208
    31  C    0.292283
    32  C    0.581159
    33  O   -0.142407
    34  O   -0.468533
 Sum of Mulliken charges with hydrogens summed into heavy atoms =   0.00000
 Electronic spatial extent (au):  <R**2>=          13952.7146
 Charge=              0.0000 electrons
 Dipole moment (field-independent basis, Debye):
    X=             -0.6093    Y=             -3.9406    Z=             -3.2916  Tot=              5.1706
 Quadrupole moment (field-independent basis, Debye-Ang):
   XX=           -172.1527   YY=           -210.0951   ZZ=           -191.1513
   XY=              3.9019   XZ=             -6.7827   YZ=             -8.9210
 Traceless Quadrupole moment (field-independent basis, Debye-Ang):
   XX=             18.9803   YY=            -18.9621   ZZ=             -0.0182
   XY=              3.9019   XZ=             -6.7827   YZ=             -8.9210
 Octapole moment (field-independent basis, Debye-Ang**2):
  XXX=            -21.2657  YYY=              2.5524  ZZZ=             -9.3335  XYY=             -5.9563
  XXY=            -64.2223  XXZ=           -140.8061  XZZ=            -22.3479  YZZ=            -17.0993
  YYZ=            -24.5255  XYZ=             16.7697
 Hexadecapole moment (field-independent basis, Debye-Ang**3):
 XXXX=          -9701.1357 YYYY=          -5159.2826 ZZZZ=          -2470.2606 XXXY=             69.5195
 XXXZ=              7.4838 YYYX=            169.6269 YYYZ=            -26.8273 ZZZX=           -107.0039
 ZZZY=            -39.4944 XXYY=          -2269.3822 XXZZ=          -1924.6892 YYZZ=          -1171.5545
 XXYZ=            -18.3654 YYXZ=             48.6715 ZZXY=            -49.0077
 N-N= 3.948781121774D+03 E-N=-1.191134690489D+04  KE= 1.703095092367D+03
 1\1\GINC-B0800\FOpt\RB3LYP\6-31G(d)\C23H24O11\CAOFEI\02-Feb-2021\0\\# 
 opt b3lyp/6-31g(d) geom=connectivity\\Title Card Required\\0,1\C,4.374
 3459939,-1.1792252024,-0.8055154163\C,3.6252003338,-2.0087299836,0.047
 1208421\C,2.5037061983,-1.5571401437,0.7517362554\C,2.099115478,-0.229
 3647936,0.6271858249\C,2.8425718607,0.644328642,-0.2116944887\C,3.9685
 848729,0.156317651,-0.9323304207\C,0.9347953649,0.3166201948,1.3085870
 256\C,0.6589972214,1.6326044908,1.1794964366\O,1.4047050207,2.47546422
 68,0.395785759\C,2.462247484,2.0282363824,-0.3539829165\C,0.0228169762
 ,-0.5829710882,2.111580635\C,-1.3615421101,0.0416812239,2.3872666415\C
 ,-1.1650026824,1.4876642586,2.8971044492\C,-0.4858618596,2.3502680301,
 1.8261241266\C,5.5705915806,-1.7089176975,-1.557888561\O,4.6668349957,
 0.9582591432,-1.7551203068\O,3.9581942331,-3.3150127363,0.2266563624\O
 ,3.0121480746,2.8541222451,-1.0838624654\O,-2.1840260282,0.1755151043,
 1.232413355\C,-2.4219890852,-0.9581268535,0.3677156894\C,-3.9252419026
 ,-0.9658351883,0.0563543929\C,-4.3530847259,0.352320105,-0.6252655419\
 C,-3.3404734489,0.8553214533,-1.6230174587\C,-2.1008410415,0.356662192
 5,-1.7515395343\C,-1.6106115534,-0.8139183137,-0.9249338987\O,-4.12667
 11936,-2.0967207891,-0.7892463455\O,-4.6398682259,1.3655122769,0.33938
 00513\C,-1.1979565065,1.0149164951,-2.7448505738\O,0.0595292427,0.5111
 564839,-2.6993747956\O,-1.5259545509,1.9028194516,-3.5070840999\C,0.99
 28306411,1.1109492789,-3.6157027117\C,-2.0525025519,-0.7557110778,3.50
 95260844\O,-3.3894143927,-0.8544107373,3.3471994373\O,-1.4744765723,-1
 .2042784598,4.4754490505\H,1.9843204273,-2.2618229302,1.3893841787\H,0
 .4676156534,-0.8405550362,3.0791387089\H,-0.1071180744,-1.5346519386,1
 .5844223818\H,-0.5555163902,1.44792702,3.8060579871\H,-2.1354967756,1.
 9176224666,3.1668532001\H,-1.2041359491,2.6407341103,1.0495405112\H,-0
 .1173165246,3.2826254837,2.2710813388\H,5.3012472472,-2.5376169099,-2.
 2287788663\H,6.0087957713,-0.9220930516,-2.1730937303\H,6.3571728923,-
 2.0690880128,-0.8789715739\H,4.2430420466,1.857215442,-1.7124236588\H,
 4.7443060822,-3.5233767179,-0.3020006393\H,-2.1662825408,-1.8913133819
 ,0.881439869\H,-4.4892501466,-1.0588929006,0.9924525616\H,-5.307558036
 7,0.1727874443,-1.1403041095\H,-3.6298497235,1.7118083276,-2.226172890
 9\H,-1.7082295791,-1.7431415195,-1.5004556216\H,-0.5505822177,-0.69543
 48777,-0.6954680625\H,-5.0743369196,-2.1545690445,-0.9858805474\H,-3.8
 372812994,1.4227747998,0.8870001479\H,1.9209193382,0.5514865632,-3.495
 9813594\H,0.6225979317,1.0363095793,-4.6411065753\H,1.1504425675,2.162
 9428827,-3.3647849011\H,-3.7192029212,-1.3320541432,4.1327787875\\Vers
 ion=EM64L-G09RevB.01\State=1-A\HF=-1718.3697852\RMSD=6.750e-09\RMSF=8.
 062e-06\Dipole=-0.0255212,-1.7793402,0.985635\Quadrupole=10.3555739,-6
 .503262,-3.8523119,-1.3713125,-9.1185545,10.4672373\PG=C01 [X(C23H24O1
 1)]\\@


 WHAT THE SLIME CONTAINS, THE GLOWING REVEALS
 BY THE FLAME'S BRIGHT HUE WHEN YOU IGNITE IT.
   --  LEONARD THURNEYSSER, 1531-1596
 DESCRIBING HIS FLAME PHOTOLYSIS ANALYTIC METHOD
 Job cpu time:  0 days  5 hours 36 minutes 15.3 seconds.
 File lengths (MBytes):  RWF=    201 Int=      0 D2E=      0 Chk=     21 Scr=      1
 Normal termination of Gaussian 09 at Tue Feb  2 12:16:56 2021.
