 Entering Gaussian System, Link 0=g09
 Initial command:
 /public/software/g09/g09/l1.exe /tmp/Gau-1800.inp -scrdir=/tmp/
 Entering Link 1 = /public/software/g09/g09/l1.exe PID=      1801.
  
 Copyright (c) 1988,1990,1992,1993,1995,1998,2003,2009,2010,
            Gaussian, Inc.  All Rights Reserved.
  
 This is part of the Gaussian(R) 09 program.  It is based on
 the Gaussian(R) 03 system (copyright 2003, Gaussian, Inc.),
 the Gaussian(R) 98 system (copyright 1998, Gaussian, Inc.),
 the Gaussian(R) 94 system (copyright 1995, Gaussian, Inc.),
 the Gaussian 92(TM) system (copyright 1992, Gaussian, Inc.),
 the Gaussian 90(TM) system (copyright 1990, Gaussian, Inc.),
 the Gaussian 88(TM) system (copyright 1988, Gaussian, Inc.),
 the Gaussian 86(TM) system (copyright 1986, Carnegie Mellon
 University), and the Gaussian 82(TM) system (copyright 1983,
 Carnegie Mellon University). Gaussian is a federally registered
 trademark of Gaussian, Inc.
  
 This software contains proprietary and confidential information,
 including trade secrets, belonging to Gaussian, Inc.
  
 This software is provided under written license and may be
 used, copied, transmitted, or stored only in accord with that
 written license.
  
 The following legend is applicable only to US Government
 contracts under FAR:
  
                    RESTRICTED RIGHTS LEGEND
  
 Use, reproduction and disclosure by the US Government is
 subject to restrictions as set forth in subparagraphs (a)
 and (c) of the Commercial Computer Software - Restricted
 Rights clause in FAR 52.227-19.
  
 Gaussian, Inc.
 340 Quinnipiac St., Bldg. 40, Wallingford CT 06492
  
  
 ---------------------------------------------------------------
 Warning -- This program may not be used in any manner that
 competes with the business of Gaussian, Inc. or will provide
 assistance to any competitor of Gaussian, Inc.  The licensee
 of this program is prohibited from giving any competitor of
 Gaussian, Inc. access to this program.  By using this program,
 the user acknowledges that Gaussian, Inc. is engaged in the
 business of creating and licensing software in the field of
 computational chemistry and represents and warrants to the
 licensee that it is not a competitor of Gaussian, Inc. and that
 it will not use this program in any manner prohibited above.
 ---------------------------------------------------------------
  

 Cite this work as:
 Gaussian 09, Revision B.01,
 M. J. Frisch, G. W. Trucks, H. B. Schlegel, G. E. Scuseria, 
 M. A. Robb, J. R. Cheeseman, G. Scalmani, V. Barone, B. Mennucci, 
 G. A. Petersson, H. Nakatsuji, M. Caricato, X. Li, H. P. Hratchian, 
 A. F. Izmaylov, J. Bloino, G. Zheng, J. L. Sonnenberg, M. Hada, 
 M. Ehara, K. Toyota, R. Fukuda, J. Hasegawa, M. Ishida, T. Nakajima, 
 Y. Honda, O. Kitao, H. Nakai, T. Vreven, J. A. Montgomery, Jr., 
 J. E. Peralta, F. Ogliaro, M. Bearpark, J. J. Heyd, E. Brothers, 
 K. N. Kudin, V. N. Staroverov, T. Keith, R. Kobayashi, J. Normand, 
 K. Raghavachari, A. Rendell, J. C. Burant, S. S. Iyengar, J. Tomasi, 
 M. Cossi, N. Rega, J. M. Millam, M. Klene, J. E. Knox, J. B. Cross, 
 V. Bakken, C. Adamo, J. Jaramillo, R. Gomperts, R. E. Stratmann, 
 O. Yazyev, A. J. Austin, R. Cammi, C. Pomelli, J. W. Ochterski, 
 R. L. Martin, K. Morokuma, V. G. Zakrzewski, G. A. Voth, 
 P. Salvador, J. J. Dannenberg, S. Dapprich, A. D. Daniels, 
 O. Farkas, J. B. Foresman, J. V. Ortiz, J. Cioslowski, 
 and D. J. Fox, Gaussian, Inc., Wallingford CT, 2010.
 
 ******************************************
 Gaussian 09:  EM64L-G09RevB.01 12-Aug-2010
                 2-Feb-2021 
 ******************************************
 %mem=600MW
 %nprocshared=10
 Will use up to   10 processors via shared memory.
 --------------------------------------
 # opt b3lyp/6-31g(d) geom=connectivity
 --------------------------------------
 1/14=-1,18=20,19=15,26=3,38=1,57=2/1,3;
 2/9=110,12=2,17=6,18=5,40=1/2;
 3/5=1,6=6,7=1,11=2,16=1,25=1,30=1,71=1,74=-5/1,2,3;
 4//1;
 5/5=2,38=5/2;
 6/7=2,8=2,9=2,10=2,28=1/1;
 7//1,2,3,16;
 1/14=-1,18=20,19=15/3(2);
 2/9=110/2;
 99//99;
 2/9=110/2;
 3/5=1,6=6,7=1,11=2,16=1,25=1,30=1,71=1,74=-5/1,2,3;
 4/5=5,16=3/1;
 5/5=2,38=5/2;
 7//1,2,3,16;
 1/14=-1,18=20,19=15/3(-5);
 2/9=110/2;
 6/7=2,8=2,9=2,10=2,19=2,28=1/1;
 99/9=1/99;
 -------------------
 Title Card Required
 -------------------
 Symbolic Z-matrix:
 Charge =  0 Multiplicity = 1
 C                     5.31807  -0.98153   2.80127 
 C                     4.36035  -0.03022   3.15842 
 C                     3.34879   0.35348   2.27323 
 C                     3.26917  -0.20365   0.98651 
 C                     4.24309  -1.13938   0.60756 
 C                     5.2597   -1.51963   1.50821 
 C                     2.21149   0.17518   0.03097 
 C                     2.2502   -0.37074  -1.19524 
 O                     3.22933  -1.2999   -1.59238 
 C                     4.21206  -1.72246  -0.75224 
 C                     1.11783   1.14634   0.43186 
 C                    -0.09703   1.20113  -0.5419 
 C                     0.4464    1.2076   -1.9829 
 C                     1.27273  -0.04017  -2.28639 
 C                     6.42062  -1.37096   3.74749 
 O                     6.24019  -2.42179   1.16939 
 O                     4.42525   0.5357    4.40141 
 O                     5.05341  -2.5479   -1.09682 
 O                    -0.88269   0.0338   -0.24558 
 C                    -2.04004  -0.26     -1.0495 
 C                    -2.39454  -1.7294   -0.75664 
 C                    -3.60127  -2.18217  -1.59362 
 C                    -4.72024  -1.19341  -1.5794 
 C                    -4.57047   0.07852  -1.16535 
 C                    -3.24586   0.63597  -0.7166 
 O                    -1.27222  -2.57557  -1.06063 
 O                    -4.09289  -3.41348  -1.0706 
 C                    -5.76654   0.96545  -1.18571 
 O                    -5.50387   2.10663  -0.49897 
 O                    -6.81931   0.695    -1.74168 
 C                    -6.60121   3.02025  -0.4612 
 C                    -0.81437   2.53335  -0.24814 
 O                    -1.29497   2.61731   1.01072 
 O                    -0.99143   3.45471  -1.02885 
 H                     2.62887   1.0979    2.59827 
 H                     1.57027   2.14308   0.52653 
 H                     0.73608   0.86033   1.42124 
 H                     1.07483   2.09679  -2.13499 
 H                    -0.36245   1.29209  -2.71743 
 H                     0.61489  -0.90211  -2.44387 
 H                     1.8131    0.12047  -3.22712 
 H                     6.65897  -2.43612   3.6588 
 H                     7.31952  -0.78452   3.5334 
 H                     6.13745  -1.20755   4.79218 
 H                     6.0918   -2.73481   0.24933 
 H                     3.68833   1.15588   4.5211 
 H                    -1.78144  -0.18136  -2.11052 
 H                    -2.59073  -1.87125   0.31438 
 H                    -3.30177  -2.37475  -2.63052 
 H                    -5.68772  -1.55691  -1.92286 
 H                    -3.08964   1.60873  -1.19566 
 H                    -3.28235   0.81444   0.36532 
 H                    -0.52025  -2.18784  -0.57083 
 H                    -3.31563  -4.00292  -1.02732 
 H                    -6.2908    3.89793   0.11247 
 H                    -6.86593   3.34397  -1.47272 
 H                    -7.46193   2.5661    0.03978 
 H                    -1.7532    3.48438   1.04431 
 

 GradGradGradGradGradGradGradGradGradGradGradGradGradGradGradGradGradGrad
 Berny optimization.
 Initialization pass.
                           ----------------------------
                           !    Initial Parameters    !
                           ! (Angstroms and Degrees)  !
 --------------------------                            --------------------------
 ! Name  Definition              Value          Derivative Info.                !
 --------------------------------------------------------------------------------
 ! R1    R(1,2)                  1.3963         estimate D2E/DX2                !
 ! R2    R(1,6)                  1.4018         estimate D2E/DX2                !
 ! R3    R(1,15)                 1.5042         estimate D2E/DX2                !
 ! R4    R(2,3)                  1.3979         estimate D2E/DX2                !
 ! R5    R(2,17)                 1.3673         estimate D2E/DX2                !
 ! R6    R(3,4)                  1.4044         estimate D2E/DX2                !
 ! R7    R(3,35)                 1.0854         estimate D2E/DX2                !
 ! R8    R(4,5)                  1.4028         estimate D2E/DX2                !
 ! R9    R(4,7)                  1.4749         estimate D2E/DX2                !
 ! R10   R(5,6)                  1.4104         estimate D2E/DX2                !
 ! R11   R(5,10)                 1.4799         estimate D2E/DX2                !
 ! R12   R(6,16)                 1.3748         estimate D2E/DX2                !
 ! R13   R(7,8)                  1.3428         estimate D2E/DX2                !
 ! R14   R(7,11)                 1.5166         estimate D2E/DX2                !
 ! R15   R(8,9)                  1.407          estimate D2E/DX2                !
 ! R16   R(8,14)                 1.5018         estimate D2E/DX2                !
 ! R17   R(9,10)                 1.3602         estimate D2E/DX2                !
 ! R18   R(10,18)                1.228          estimate D2E/DX2                !
 ! R19   R(11,12)                1.5579         estimate D2E/DX2                !
 ! R20   R(11,36)                1.0987         estimate D2E/DX2                !
 ! R21   R(11,37)                1.0984         estimate D2E/DX2                !
 ! R22   R(12,13)                1.5401         estimate D2E/DX2                !
 ! R23   R(12,19)                1.438          estimate D2E/DX2                !
 ! R24   R(12,32)                1.5413         estimate D2E/DX2                !
 ! R25   R(13,14)                1.527          estimate D2E/DX2                !
 ! R26   R(13,38)                1.0994         estimate D2E/DX2                !
 ! R27   R(13,39)                1.0959         estimate D2E/DX2                !
 ! R28   R(14,40)                1.0957         estimate D2E/DX2                !
 ! R29   R(14,41)                1.0967         estimate D2E/DX2                !
 ! R30   R(15,42)                1.0951         estimate D2E/DX2                !
 ! R31   R(15,43)                1.0944         estimate D2E/DX2                !
 ! R32   R(15,44)                1.0947         estimate D2E/DX2                !
 ! R33   R(16,45)                0.9831         estimate D2E/DX2                !
 ! R34   R(17,46)                0.9706         estimate D2E/DX2                !
 ! R35   R(18,45)                1.7104         estimate D2E/DX2                !
 ! R36   R(19,20)                1.4395         estimate D2E/DX2                !
 ! R37   R(20,21)                1.5397         estimate D2E/DX2                !
 ! R38   R(20,25)                1.5387         estimate D2E/DX2                !
 ! R39   R(20,47)                1.0949         estimate D2E/DX2                !
 ! R40   R(21,22)                1.5368         estimate D2E/DX2                !
 ! R41   R(21,26)                1.4381         estimate D2E/DX2                !
 ! R42   R(21,48)                1.098          estimate D2E/DX2                !
 ! R43   R(22,23)                1.4933         estimate D2E/DX2                !
 ! R44   R(22,27)                1.4253         estimate D2E/DX2                !
 ! R45   R(22,49)                1.0963         estimate D2E/DX2                !
 ! R46   R(23,24)                1.346          estimate D2E/DX2                !
 ! R47   R(23,50)                1.0891         estimate D2E/DX2                !
 ! R48   R(24,25)                1.5056         estimate D2E/DX2                !
 ! R49   R(24,28)                1.4892         estimate D2E/DX2                !
 ! R50   R(25,51)                1.0955         estimate D2E/DX2                !
 ! R51   R(25,52)                1.0972         estimate D2E/DX2                !
 ! R52   R(26,53)                0.9776         estimate D2E/DX2                !
 ! R53   R(27,54)                0.9764         estimate D2E/DX2                !
 ! R54   R(28,29)                1.3575         estimate D2E/DX2                !
 ! R55   R(28,30)                1.2209         estimate D2E/DX2                !
 ! R56   R(29,31)                1.4284         estimate D2E/DX2                !
 ! R57   R(31,55)                1.0935         estimate D2E/DX2                !
 ! R58   R(31,56)                1.0945         estimate D2E/DX2                !
 ! R59   R(31,57)                1.0946         estimate D2E/DX2                !
 ! R60   R(32,33)                1.3501         estimate D2E/DX2                !
 ! R61   R(32,34)                1.2206         estimate D2E/DX2                !
 ! R62   R(33,58)                0.9813         estimate D2E/DX2                !
 ! A1    A(2,1,6)              117.963          estimate D2E/DX2                !
 ! A2    A(2,1,15)             121.2133         estimate D2E/DX2                !
 ! A3    A(6,1,15)             120.7577         estimate D2E/DX2                !
 ! A4    A(1,2,3)              121.4244         estimate D2E/DX2                !
 ! A5    A(1,2,17)             118.8123         estimate D2E/DX2                !
 ! A6    A(3,2,17)             119.7628         estimate D2E/DX2                !
 ! A7    A(2,3,4)              120.8175         estimate D2E/DX2                !
 ! A8    A(2,3,35)             118.5937         estimate D2E/DX2                !
 ! A9    A(4,3,35)             120.5872         estimate D2E/DX2                !
 ! A10   A(3,4,5)              118.2146         estimate D2E/DX2                !
 ! A11   A(3,4,7)              122.1641         estimate D2E/DX2                !
 ! A12   A(5,4,7)              119.6179         estimate D2E/DX2                !
 ! A13   A(4,5,6)              120.5156         estimate D2E/DX2                !
 ! A14   A(4,5,10)             119.7686         estimate D2E/DX2                !
 ! A15   A(6,5,10)             119.713          estimate D2E/DX2                !
 ! A16   A(1,6,5)              121.0358         estimate D2E/DX2                !
 ! A17   A(1,6,16)             116.7143         estimate D2E/DX2                !
 ! A18   A(5,6,16)             122.2491         estimate D2E/DX2                !
 ! A19   A(4,7,8)              117.8095         estimate D2E/DX2                !
 ! A20   A(4,7,11)             120.6888         estimate D2E/DX2                !
 ! A21   A(8,7,11)             121.5013         estimate D2E/DX2                !
 ! A22   A(7,8,9)              123.112          estimate D2E/DX2                !
 ! A23   A(7,8,14)             123.7272         estimate D2E/DX2                !
 ! A24   A(9,8,14)             113.1543         estimate D2E/DX2                !
 ! A25   A(8,9,10)             122.2475         estimate D2E/DX2                !
 ! A26   A(5,10,9)             117.4061         estimate D2E/DX2                !
 ! A27   A(5,10,18)            120.5519         estimate D2E/DX2                !
 ! A28   A(9,10,18)            122.0401         estimate D2E/DX2                !
 ! A29   A(7,11,12)            114.8122         estimate D2E/DX2                !
 ! A30   A(7,11,36)            107.8639         estimate D2E/DX2                !
 ! A31   A(7,11,37)            108.7843         estimate D2E/DX2                !
 ! A32   A(12,11,36)           110.0642         estimate D2E/DX2                !
 ! A33   A(12,11,37)           107.5262         estimate D2E/DX2                !
 ! A34   A(36,11,37)           107.5619         estimate D2E/DX2                !
 ! A35   A(11,12,13)           108.0479         estimate D2E/DX2                !
 ! A36   A(11,12,19)           105.5873         estimate D2E/DX2                !
 ! A37   A(11,12,32)           105.9138         estimate D2E/DX2                !
 ! A38   A(13,12,19)           112.8933         estimate D2E/DX2                !
 ! A39   A(13,12,32)           109.8111         estimate D2E/DX2                !
 ! A40   A(19,12,32)           114.0862         estimate D2E/DX2                !
 ! A41   A(12,13,14)           111.9299         estimate D2E/DX2                !
 ! A42   A(12,13,38)           109.5442         estimate D2E/DX2                !
 ! A43   A(12,13,39)           111.5327         estimate D2E/DX2                !
 ! A44   A(14,13,38)           108.909          estimate D2E/DX2                !
 ! A45   A(14,13,39)           109.2199         estimate D2E/DX2                !
 ! A46   A(38,13,39)           105.4746         estimate D2E/DX2                !
 ! A47   A(8,14,13)            112.8094         estimate D2E/DX2                !
 ! A48   A(8,14,40)            108.787          estimate D2E/DX2                !
 ! A49   A(8,14,41)            109.5594         estimate D2E/DX2                !
 ! A50   A(13,14,40)           110.2723         estimate D2E/DX2                !
 ! A51   A(13,14,41)           108.5067         estimate D2E/DX2                !
 ! A52   A(40,14,41)           106.7241         estimate D2E/DX2                !
 ! A53   A(1,15,42)            111.1253         estimate D2E/DX2                !
 ! A54   A(1,15,43)            109.8914         estimate D2E/DX2                !
 ! A55   A(1,15,44)            111.8438         estimate D2E/DX2                !
 ! A56   A(42,15,43)           109.062          estimate D2E/DX2                !
 ! A57   A(42,15,44)           106.1887         estimate D2E/DX2                !
 ! A58   A(43,15,44)           108.6127         estimate D2E/DX2                !
 ! A59   A(6,16,45)            109.3861         estimate D2E/DX2                !
 ! A60   A(2,17,46)            109.9098         estimate D2E/DX2                !
 ! A61   A(12,19,20)           119.3331         estimate D2E/DX2                !
 ! A62   A(19,20,21)           105.8829         estimate D2E/DX2                !
 ! A63   A(19,20,25)           112.9792         estimate D2E/DX2                !
 ! A64   A(19,20,47)           109.6728         estimate D2E/DX2                !
 ! A65   A(21,20,25)           109.5201         estimate D2E/DX2                !
 ! A66   A(21,20,47)           107.8931         estimate D2E/DX2                !
 ! A67   A(25,20,47)           110.6664         estimate D2E/DX2                !
 ! A68   A(20,21,22)           111.0002         estimate D2E/DX2                !
 ! A69   A(20,21,26)           109.978          estimate D2E/DX2                !
 ! A70   A(20,21,48)           110.4842         estimate D2E/DX2                !
 ! A71   A(22,21,26)           108.9259         estimate D2E/DX2                !
 ! A72   A(22,21,48)           110.6627         estimate D2E/DX2                !
 ! A73   A(26,21,48)           105.6415         estimate D2E/DX2                !
 ! A74   A(21,22,23)           112.8383         estimate D2E/DX2                !
 ! A75   A(21,22,27)           108.9968         estimate D2E/DX2                !
 ! A76   A(21,22,49)           110.6306         estimate D2E/DX2                !
 ! A77   A(23,22,27)           108.0633         estimate D2E/DX2                !
 ! A78   A(23,22,49)           109.2703         estimate D2E/DX2                !
 ! A79   A(27,22,49)           106.8305         estimate D2E/DX2                !
 ! A80   A(22,23,24)           123.0419         estimate D2E/DX2                !
 ! A81   A(22,23,50)           116.2094         estimate D2E/DX2                !
 ! A82   A(24,23,50)           120.7481         estimate D2E/DX2                !
 ! A83   A(23,24,25)           122.648          estimate D2E/DX2                !
 ! A84   A(23,24,28)           117.9848         estimate D2E/DX2                !
 ! A85   A(25,24,28)           119.3536         estimate D2E/DX2                !
 ! A86   A(20,25,24)           114.1664         estimate D2E/DX2                !
 ! A87   A(20,25,51)           108.1008         estimate D2E/DX2                !
 ! A88   A(20,25,52)           109.5199         estimate D2E/DX2                !
 ! A89   A(24,25,51)           108.8984         estimate D2E/DX2                !
 ! A90   A(24,25,52)           108.9585         estimate D2E/DX2                !
 ! A91   A(51,25,52)           106.9496         estimate D2E/DX2                !
 ! A92   A(21,26,53)           105.1314         estimate D2E/DX2                !
 ! A93   A(22,27,54)           105.2603         estimate D2E/DX2                !
 ! A94   A(24,28,29)           109.7755         estimate D2E/DX2                !
 ! A95   A(24,28,30)           124.532          estimate D2E/DX2                !
 ! A96   A(29,28,30)           125.6924         estimate D2E/DX2                !
 ! A97   A(28,29,31)           113.7284         estimate D2E/DX2                !
 ! A98   A(29,31,55)           108.0084         estimate D2E/DX2                !
 ! A99   A(29,31,56)           110.5201         estimate D2E/DX2                !
 ! A100  A(29,31,57)           110.5381         estimate D2E/DX2                !
 ! A101  A(55,31,56)           108.4262         estimate D2E/DX2                !
 ! A102  A(55,31,57)           108.4289         estimate D2E/DX2                !
 ! A103  A(56,31,57)           110.825          estimate D2E/DX2                !
 ! A104  A(12,32,33)           113.3988         estimate D2E/DX2                !
 ! A105  A(12,32,34)           126.7312         estimate D2E/DX2                !
 ! A106  A(33,32,34)           119.8568         estimate D2E/DX2                !
 ! A107  A(32,33,58)           104.6609         estimate D2E/DX2                !
 ! D1    D(6,1,2,3)              1.706          estimate D2E/DX2                !
 ! D2    D(6,1,2,17)          -178.0527         estimate D2E/DX2                !
 ! D3    D(15,1,2,3)           178.7738         estimate D2E/DX2                !
 ! D4    D(15,1,2,17)           -0.9849         estimate D2E/DX2                !
 ! D5    D(2,1,6,5)             -1.7049         estimate D2E/DX2                !
 ! D6    D(2,1,6,16)           177.974          estimate D2E/DX2                !
 ! D7    D(15,1,6,5)          -178.7866         estimate D2E/DX2                !
 ! D8    D(15,1,6,16)            0.8922         estimate D2E/DX2                !
 ! D9    D(2,1,15,42)          144.0581         estimate D2E/DX2                !
 ! D10   D(2,1,15,43)          -95.1357         estimate D2E/DX2                !
 ! D11   D(2,1,15,44)           25.5757         estimate D2E/DX2                !
 ! D12   D(6,1,15,42)          -38.9557         estimate D2E/DX2                !
 ! D13   D(6,1,15,43)           81.8504         estimate D2E/DX2                !
 ! D14   D(6,1,15,44)         -157.4381         estimate D2E/DX2                !
 ! D15   D(1,2,3,4)             -0.3944         estimate D2E/DX2                !
 ! D16   D(1,2,3,35)          -179.9351         estimate D2E/DX2                !
 ! D17   D(17,2,3,4)           179.3621         estimate D2E/DX2                !
 ! D18   D(17,2,3,35)           -0.1787         estimate D2E/DX2                !
 ! D19   D(1,2,17,46)         -178.4227         estimate D2E/DX2                !
 ! D20   D(3,2,17,46)            1.8145         estimate D2E/DX2                !
 ! D21   D(2,3,4,5)             -0.9422         estimate D2E/DX2                !
 ! D22   D(2,3,4,7)            179.7352         estimate D2E/DX2                !
 ! D23   D(35,3,4,5)           178.5894         estimate D2E/DX2                !
 ! D24   D(35,3,4,7)            -0.7333         estimate D2E/DX2                !
 ! D25   D(3,4,5,6)              0.9334         estimate D2E/DX2                !
 ! D26   D(3,4,5,10)          -178.4573         estimate D2E/DX2                !
 ! D27   D(7,4,5,6)           -179.7261         estimate D2E/DX2                !
 ! D28   D(7,4,5,10)             0.8832         estimate D2E/DX2                !
 ! D29   D(3,4,7,8)            177.3142         estimate D2E/DX2                !
 ! D30   D(3,4,7,11)            -2.9028         estimate D2E/DX2                !
 ! D31   D(5,4,7,8)             -1.9993         estimate D2E/DX2                !
 ! D32   D(5,4,7,11)           177.7838         estimate D2E/DX2                !
 ! D33   D(4,5,6,1)              0.4001         estimate D2E/DX2                !
 ! D34   D(4,5,6,16)          -179.2607         estimate D2E/DX2                !
 ! D35   D(10,5,6,1)           179.7912         estimate D2E/DX2                !
 ! D36   D(10,5,6,16)            0.1304         estimate D2E/DX2                !
 ! D37   D(4,5,10,9)             0.8629         estimate D2E/DX2                !
 ! D38   D(4,5,10,18)         -179.6235         estimate D2E/DX2                !
 ! D39   D(6,5,10,9)          -178.5328         estimate D2E/DX2                !
 ! D40   D(6,5,10,18)            0.9809         estimate D2E/DX2                !
 ! D41   D(1,6,16,45)          179.4538         estimate D2E/DX2                !
 ! D42   D(5,6,16,45)           -0.8716         estimate D2E/DX2                !
 ! D43   D(4,7,8,9)              1.3977         estimate D2E/DX2                !
 ! D44   D(4,7,8,14)          -177.6149         estimate D2E/DX2                !
 ! D45   D(11,7,8,9)          -178.3835         estimate D2E/DX2                !
 ! D46   D(11,7,8,14)            2.6039         estimate D2E/DX2                !
 ! D47   D(4,7,11,12)         -166.5084         estimate D2E/DX2                !
 ! D48   D(4,7,11,36)           70.3908         estimate D2E/DX2                !
 ! D49   D(4,7,11,37)          -45.999          estimate D2E/DX2                !
 ! D50   D(8,7,11,12)           13.2666         estimate D2E/DX2                !
 ! D51   D(8,7,11,36)         -109.8342         estimate D2E/DX2                !
 ! D52   D(8,7,11,37)          133.776          estimate D2E/DX2                !
 ! D53   D(7,8,9,10)             0.4125         estimate D2E/DX2                !
 ! D54   D(14,8,9,10)          179.5194         estimate D2E/DX2                !
 ! D55   D(7,8,14,13)           13.797          estimate D2E/DX2                !
 ! D56   D(7,8,14,40)         -108.8928         estimate D2E/DX2                !
 ! D57   D(7,8,14,41)          134.7843         estimate D2E/DX2                !
 ! D58   D(9,8,14,13)         -165.3035         estimate D2E/DX2                !
 ! D59   D(9,8,14,40)           72.0067         estimate D2E/DX2                !
 ! D60   D(9,8,14,41)          -44.3163         estimate D2E/DX2                !
 ! D61   D(8,9,10,5)            -1.5524         estimate D2E/DX2                !
 ! D62   D(8,9,10,18)          178.9416         estimate D2E/DX2                !
 ! D63   D(7,11,12,13)         -43.2            estimate D2E/DX2                !
 ! D64   D(7,11,12,19)          77.8423         estimate D2E/DX2                !
 ! D65   D(7,11,12,32)        -160.8176         estimate D2E/DX2                !
 ! D66   D(36,11,12,13)         78.7143         estimate D2E/DX2                !
 ! D67   D(36,11,12,19)       -160.2435         estimate D2E/DX2                !
 ! D68   D(36,11,12,32)        -38.9034         estimate D2E/DX2                !
 ! D69   D(37,11,12,13)       -164.3999         estimate D2E/DX2                !
 ! D70   D(37,11,12,19)        -43.3577         estimate D2E/DX2                !
 ! D71   D(37,11,12,32)         77.9824         estimate D2E/DX2                !
 ! D72   D(11,12,13,14)         59.9104         estimate D2E/DX2                !
 ! D73   D(11,12,13,38)        -60.995          estimate D2E/DX2                !
 ! D74   D(11,12,13,39)       -177.382          estimate D2E/DX2                !
 ! D75   D(19,12,13,14)        -56.4729         estimate D2E/DX2                !
 ! D76   D(19,12,13,38)       -177.3783         estimate D2E/DX2                !
 ! D77   D(19,12,13,39)         66.2347         estimate D2E/DX2                !
 ! D78   D(32,12,13,14)        174.9918         estimate D2E/DX2                !
 ! D79   D(32,12,13,38)         54.0864         estimate D2E/DX2                !
 ! D80   D(32,12,13,39)        -62.3006         estimate D2E/DX2                !
 ! D81   D(11,12,19,20)       -175.5851         estimate D2E/DX2                !
 ! D82   D(13,12,19,20)        -57.7489         estimate D2E/DX2                !
 ! D83   D(32,12,19,20)         68.5331         estimate D2E/DX2                !
 ! D84   D(11,12,32,33)        -62.1793         estimate D2E/DX2                !
 ! D85   D(11,12,32,34)        119.1552         estimate D2E/DX2                !
 ! D86   D(13,12,32,33)       -178.6114         estimate D2E/DX2                !
 ! D87   D(13,12,32,34)          2.7231         estimate D2E/DX2                !
 ! D88   D(19,12,32,33)         53.512          estimate D2E/DX2                !
 ! D89   D(19,12,32,34)       -125.1536         estimate D2E/DX2                !
 ! D90   D(12,13,14,8)         -45.8259         estimate D2E/DX2                !
 ! D91   D(12,13,14,40)         76.0296         estimate D2E/DX2                !
 ! D92   D(12,13,14,41)       -167.4108         estimate D2E/DX2                !
 ! D93   D(38,13,14,8)          75.4468         estimate D2E/DX2                !
 ! D94   D(38,13,14,40)       -162.6977         estimate D2E/DX2                !
 ! D95   D(38,13,14,41)        -46.138          estimate D2E/DX2                !
 ! D96   D(39,13,14,8)        -169.8384         estimate D2E/DX2                !
 ! D97   D(39,13,14,40)        -47.9829         estimate D2E/DX2                !
 ! D98   D(39,13,14,41)         68.5767         estimate D2E/DX2                !
 ! D99   D(12,19,20,21)        163.9141         estimate D2E/DX2                !
 ! D100  D(12,19,20,25)        -76.2181         estimate D2E/DX2                !
 ! D101  D(12,19,20,47)         47.7487         estimate D2E/DX2                !
 ! D102  D(19,20,21,22)       -178.3255         estimate D2E/DX2                !
 ! D103  D(19,20,21,26)        -57.7139         estimate D2E/DX2                !
 ! D104  D(19,20,21,48)         58.5209         estimate D2E/DX2                !
 ! D105  D(25,20,21,22)         59.5665         estimate D2E/DX2                !
 ! D106  D(25,20,21,26)       -179.8218         estimate D2E/DX2                !
 ! D107  D(25,20,21,48)        -63.5871         estimate D2E/DX2                !
 ! D108  D(47,20,21,22)        -60.96           estimate D2E/DX2                !
 ! D109  D(47,20,21,26)         59.6516         estimate D2E/DX2                !
 ! D110  D(47,20,21,48)        175.8864         estimate D2E/DX2                !
 ! D111  D(19,20,25,24)       -160.0561         estimate D2E/DX2                !
 ! D112  D(19,20,25,51)         78.6013         estimate D2E/DX2                !
 ! D113  D(19,20,25,52)        -37.5848         estimate D2E/DX2                !
 ! D114  D(21,20,25,24)        -42.2993         estimate D2E/DX2                !
 ! D115  D(21,20,25,51)       -163.6419         estimate D2E/DX2                !
 ! D116  D(21,20,25,52)         80.172          estimate D2E/DX2                !
 ! D117  D(47,20,25,24)         76.5245         estimate D2E/DX2                !
 ! D118  D(47,20,25,51)        -44.818          estimate D2E/DX2                !
 ! D119  D(47,20,25,52)       -161.0042         estimate D2E/DX2                !
 ! D120  D(20,21,22,23)        -46.0931         estimate D2E/DX2                !
 ! D121  D(20,21,22,27)       -166.1467         estimate D2E/DX2                !
 ! D122  D(20,21,22,49)         76.6717         estimate D2E/DX2                !
 ! D123  D(26,21,22,23)       -167.325          estimate D2E/DX2                !
 ! D124  D(26,21,22,27)         72.6214         estimate D2E/DX2                !
 ! D125  D(26,21,22,49)        -44.5602         estimate D2E/DX2                !
 ! D126  D(48,21,22,23)         76.9578         estimate D2E/DX2                !
 ! D127  D(48,21,22,27)        -43.0958         estimate D2E/DX2                !
 ! D128  D(48,21,22,49)       -160.2775         estimate D2E/DX2                !
 ! D129  D(20,21,26,53)         52.7214         estimate D2E/DX2                !
 ! D130  D(22,21,26,53)        174.5756         estimate D2E/DX2                !
 ! D131  D(48,21,26,53)        -66.518          estimate D2E/DX2                !
 ! D132  D(21,22,23,24)         15.3633         estimate D2E/DX2                !
 ! D133  D(21,22,23,50)       -164.3554         estimate D2E/DX2                !
 ! D134  D(27,22,23,24)        135.9519         estimate D2E/DX2                !
 ! D135  D(27,22,23,50)        -43.7668         estimate D2E/DX2                !
 ! D136  D(49,22,23,24)       -108.1578         estimate D2E/DX2                !
 ! D137  D(49,22,23,50)         72.1236         estimate D2E/DX2                !
 ! D138  D(21,22,27,54)        -52.3644         estimate D2E/DX2                !
 ! D139  D(23,22,27,54)       -175.324          estimate D2E/DX2                !
 ! D140  D(49,22,27,54)         67.2033         estimate D2E/DX2                !
 ! D141  D(22,23,24,25)          1.9497         estimate D2E/DX2                !
 ! D142  D(22,23,24,28)       -179.3992         estimate D2E/DX2                !
 ! D143  D(50,23,24,25)       -178.344          estimate D2E/DX2                !
 ! D144  D(50,23,24,28)          0.3071         estimate D2E/DX2                !
 ! D145  D(23,24,25,20)         12.3375         estimate D2E/DX2                !
 ! D146  D(23,24,25,51)        133.2381         estimate D2E/DX2                !
 ! D147  D(23,24,25,52)       -110.4399         estimate D2E/DX2                !
 ! D148  D(28,24,25,20)       -166.2958         estimate D2E/DX2                !
 ! D149  D(28,24,25,51)        -45.3952         estimate D2E/DX2                !
 ! D150  D(28,24,25,52)         70.9268         estimate D2E/DX2                !
 ! D151  D(23,24,28,29)        167.9765         estimate D2E/DX2                !
 ! D152  D(23,24,28,30)        -12.0837         estimate D2E/DX2                !
 ! D153  D(25,24,28,29)        -13.3265         estimate D2E/DX2                !
 ! D154  D(25,24,28,30)        166.6132         estimate D2E/DX2                !
 ! D155  D(24,28,29,31)       -179.8001         estimate D2E/DX2                !
 ! D156  D(30,28,29,31)          0.261          estimate D2E/DX2                !
 ! D157  D(28,29,31,55)        179.8582         estimate D2E/DX2                !
 ! D158  D(28,29,31,56)        -61.681          estimate D2E/DX2                !
 ! D159  D(28,29,31,57)         61.384          estimate D2E/DX2                !
 ! D160  D(12,32,33,58)       -177.5618         estimate D2E/DX2                !
 ! D161  D(34,32,33,58)          1.2051         estimate D2E/DX2                !
 --------------------------------------------------------------------------------
 Trust Radius=3.00D-01 FncErr=1.00D-07 GrdErr=1.00D-06
 Number of steps in this run=    340 maximum allowed number of steps=    348.
 GradGradGradGradGradGradGradGradGradGradGradGradGradGradGradGradGradGrad

 Stoichiometry    C23H24O11
 Framework group  C1[X(C23H24O11)]
 Deg. of freedom   168
 Full point group                 C1      NOp   1
 Largest Abelian subgroup         C1      NOp   1
 Largest concise Abelian subgroup C1      NOp   1
                         Standard orientation:                         
 ---------------------------------------------------------------------
 Center     Atomic      Atomic             Coordinates (Angstroms)
 Number     Number       Type             X           Y           Z
 ---------------------------------------------------------------------
      1          6           0        5.816828   -0.712212   -1.145593
      2          6           0        4.846529   -1.705653   -1.291791
      3          6           0        3.587047   -1.587434   -0.697002
      4          6           0        3.259840   -0.462495    0.077476
      5          6           0        4.237161    0.528154    0.254049
      6          6           0        5.504991    0.399187   -0.350291
      7          6           0        1.938608   -0.304543    0.713595
      8          6           0        1.738072    0.779379    1.480408
      9          8           0        2.714423    1.773340    1.676725
     10          6           0        3.940875    1.711540    1.091798
     11          6           0        0.847595   -1.335681    0.498170
     12          6           0       -0.574741   -0.886209    0.947661
     13          6           0       -0.443520   -0.179027    2.309467
     14          6           0        0.464802    1.045964    2.230771
     15          6           0        7.179935   -0.856754   -1.764998
     16          8           0        6.493750    1.340664   -0.188962
     17          8           0        5.146676   -2.816284   -2.030656
     18          8           0        4.783377    2.590720    1.250508
     19          8           0       -1.050934   -0.014244   -0.091884
     20          6           0       -2.316324    0.652249    0.071372
     21          6           0       -2.334444    1.783654   -0.972747
     22          6           0       -3.629516    2.604913   -0.872487
     23          6           0       -4.850465    1.751442   -0.768516
     24          6           0       -4.806140    0.440970   -0.464587
     25          6           0       -3.519669   -0.278736   -0.158407
     26          8           0       -1.210851    2.657860   -0.769476
     27          8           0       -3.755544    3.416542   -2.037288
     28          6           0       -6.092867   -0.306243   -0.404121
     29          8           0       -5.847244   -1.640329   -0.351432
     30          8           0       -7.196683    0.215453   -0.401763
     31          6           0       -7.029080   -2.440599   -0.295506
     32          6           0       -1.395957   -2.180626    1.108206
     33          8           0       -1.530825   -2.876046   -0.041123
     34          8           0       -1.922979   -2.588655    2.130711
     35          1           0        2.867947   -2.387817   -0.839778
     36          1           0        1.139379   -2.251357    1.030666
     37          1           0        0.795395   -1.577038   -0.572083
     38          1           0       -0.032708   -0.880207    3.049944
     39          1           0       -1.421335    0.121560    2.702465
     40          1           0       -0.060879    1.878063    1.749349
     41          1           0        0.701144    1.370237    3.251441
     42          1           0        7.557094    0.108578   -2.118730
     43          1           0        7.880700   -1.267188   -1.031345
     44          1           0        7.162527   -1.516255   -2.638510
     45          1           0        6.158930    2.071936    0.376412
     46          1           0        4.377061   -3.406470   -2.067788
     47          1           0       -2.366236    1.110275    1.064614
     48          1           0       -2.212238    1.374837   -1.984493
     49          1           0       -3.589747    3.285663   -0.014028
     50          1           0       -5.801410    2.247084   -0.958641
     51          1           0       -3.658179   -0.884865    0.743574
     52          1           0       -3.295312   -0.972224   -0.978459
     53          1           0       -0.429591    2.070379   -0.756043
     54          1           0       -2.909226    3.898472   -2.107526
     55          1           0       -6.725090   -3.490369   -0.258648
     56          1           0       -7.603006   -2.214660    0.608706
     57          1           0       -7.638805   -2.288186   -1.191643
     58          1           0       -2.099084   -3.640063    0.196096
 ---------------------------------------------------------------------
 Rotational constants (GHZ):      0.2350868      0.0561634      0.0514995
 Standard basis: 6-31G(d) (6D, 7F)
 There are   558 symmetry adapted basis functions of A   symmetry.
 Integral buffers will be    131072 words long.
 Raffenetti 2 integral format.
 Two-electron integral symmetry is turned on.
   558 basis functions,  1048 primitive gaussians,   558 cartesian basis functions
   125 alpha electrons      125 beta electrons
       nuclear repulsion energy      3669.4785319070 Hartrees.
 NAtoms=   58 NActive=   58 NUniq=   58 SFac= 1.00D+00 NAtFMM=   50 NAOKFM=T Big=T
 One-electron integrals computed using PRISM.
 NBasis=   558 RedAO= T  NBF=   558
 NBsUse=   558 1.00D-06 NBFU=   558
 Harris functional with IExCor=  402 diagonalized for initial guess.
 ExpMin= 1.61D-01 ExpMax= 5.48D+03 ExpMxC= 8.25D+02 IAcc=1 IRadAn=         1 AccDes= 0.00D+00
 HarFok:  IExCor=  402 AccDes= 0.00D+00 IRadAn=         1 IDoV= 1
 ScaDFX=  1.000000  1.000000  1.000000  1.000000
 FoFCou: FMM=F IPFlag=           0 FMFlag=      100000 FMFlg1=        2001
         NFxFlg=           0 DoJE=T BraDBF=F KetDBF=T FulRan=T
         Omega=  0.000000  0.000000  1.000000  0.000000  0.000000 ICntrl=     500 IOpCl=  0
         NMat0=    1 NMatS0=    1 NMatT0=    0 NMatD0=    1 NMtDS0=    0 NMtDT0=    0
         I1Cent=           4 NGrid=           0.
 Petite list used in FoFCou.
 Initial guess orbital symmetries:
       Occupied  (A) (A) (A) (A) (A) (A) (A) (A) (A) (A) (A) (A)
                 (A) (A) (A) (A) (A) (A) (A) (A) (A) (A) (A) (A)
                 (A) (A) (A) (A) (A) (A) (A) (A) (A) (A) (A) (A)
                 (A) (A) (A) (A) (A) (A) (A) (A) (A) (A) (A) (A)
                 (A) (A) (A) (A) (A) (A) (A) (A) (A) (A) (A) (A)
                 (A) (A) (A) (A) (A) (A) (A) (A) (A) (A) (A) (A)
                 (A) (A) (A) (A) (A) (A) (A) (A) (A) (A) (A) (A)
                 (A) (A) (A) (A) (A) (A) (A) (A) (A) (A) (A) (A)
                 (A) (A) (A) (A) (A) (A) (A) (A) (A) (A) (A) (A)
                 (A) (A) (A) (A) (A) (A) (A) (A) (A) (A) (A) (A)
                 (A) (A) (A) (A) (A)
       Virtual   (A) (A) (A) (A) (A) (A) (A) (A) (A) (A) (A) (A)
                 (A) (A) (A) (A) (A) (A) (A) (A) (A) (A) (A) (A)
                 (A) (A) (A) (A) (A) (A) (A) (A) (A) (A) (A) (A)
                 (A) (A) (A) (A) (A) (A) (A) (A) (A) (A) (A) (A)
                 (A) (A) (A) (A) (A) (A) (A) (A) (A) (A) (A) (A)
                 (A) (A) (A) (A) (A) (A) (A) (A) (A) (A) (A) (A)
                 (A) (A) (A) (A) (A) (A) (A) (A) (A) (A) (A) (A)
                 (A) (A) (A) (A) (A) (A) (A) (A) (A) (A) (A) (A)
                 (A) (A) (A) (A) (A) (A) (A) (A) (A) (A) (A) (A)
                 (A) (A) (A) (A) (A) (A) (A) (A) (A) (A) (A) (A)
                 (A) (A) (A) (A) (A) (A) (A) (A) (A) (A) (A) (A)
                 (A) (A) (A) (A) (A) (A) (A) (A) (A) (A) (A) (A)
                 (A) (A) (A) (A) (A) (A) (A) (A) (A) (A) (A) (A)
                 (A) (A) (A) (A) (A) (A) (A) (A) (A) (A) (A) (A)
                 (A) (A) (A) (A) (A) (A) (A) (A) (A) (A) (A) (A)
                 (A) (A) (A) (A) (A) (A) (A) (A) (A) (A) (A) (A)
                 (A) (A) (A) (A) (A) (A) (A) (A) (A) (A) (A) (A)
                 (A) (A) (A) (A) (A) (A) (A) (A) (A) (A) (A) (A)
                 (A) (A) (A) (A) (A) (A) (A) (A) (A) (A) (A) (A)
                 (A) (A) (A) (A) (A) (A) (A) (A) (A) (A) (A) (A)
                 (A) (A) (A) (A) (A) (A) (A) (A) (A) (A) (A) (A)
                 (A) (A) (A) (A) (A) (A) (A) (A) (A) (A) (A) (A)
                 (A) (A) (A) (A) (A) (A) (A) (A) (A) (A) (A) (A)
                 (A) (A) (A) (A) (A) (A) (A) (A) (A) (A) (A) (A)
                 (A) (A) (A) (A) (A) (A) (A) (A) (A) (A) (A) (A)
                 (A) (A) (A) (A) (A) (A) (A) (A) (A) (A) (A) (A)
                 (A) (A) (A) (A) (A) (A) (A) (A) (A) (A) (A) (A)
                 (A) (A) (A) (A) (A) (A) (A) (A) (A) (A) (A) (A)
                 (A) (A) (A) (A) (A) (A) (A) (A) (A) (A) (A) (A)
                 (A) (A) (A) (A) (A) (A) (A) (A) (A) (A) (A) (A)
                 (A) (A) (A) (A) (A) (A) (A) (A) (A) (A) (A) (A)
                 (A) (A) (A) (A) (A) (A) (A) (A) (A) (A) (A) (A)
                 (A) (A) (A) (A) (A) (A) (A) (A) (A) (A) (A) (A)
                 (A) (A) (A) (A) (A) (A) (A) (A) (A) (A) (A) (A)
                 (A) (A) (A) (A) (A) (A) (A) (A) (A) (A) (A) (A)
                 (A) (A) (A) (A) (A) (A) (A) (A) (A) (A) (A) (A)
                 (A)
 The electronic state of the initial guess is 1-A.
 Requested convergence on RMS density matrix=1.00D-08 within 128 cycles.
 Requested convergence on MAX density matrix=1.00D-06.
 Requested convergence on             energy=1.00D-06.
 No special actions if energy rises.
 Integral accuracy reduced to 1.0D-05 until final iterations.
 Initial convergence to 1.0D-05 achieved.  Increase integral accuracy.
 SCF Done:  E(RB3LYP) =  -1718.35666124     A.U. after   15 cycles
             Convg  =    0.3800D-08             -V/T =  2.0091

 **********************************************************************

            Population analysis using the SCF density.

 **********************************************************************

 Orbital symmetries:
       Occupied  (A) (A) (A) (A) (A) (A) (A) (A) (A) (A) (A) (A)
                 (A) (A) (A) (A) (A) (A) (A) (A) (A) (A) (A) (A)
                 (A) (A) (A) (A) (A) (A) (A) (A) (A) (A) (A) (A)
                 (A) (A) (A) (A) (A) (A) (A) (A) (A) (A) (A) (A)
                 (A) (A) (A) (A) (A) (A) (A) (A) (A) (A) (A) (A)
                 (A) (A) (A) (A) (A) (A) (A) (A) (A) (A) (A) (A)
                 (A) (A) (A) (A) (A) (A) (A) (A) (A) (A) (A) (A)
                 (A) (A) (A) (A) (A) (A) (A) (A) (A) (A) (A) (A)
                 (A) (A) (A) (A) (A) (A) (A) (A) (A) (A) (A) (A)
                 (A) (A) (A) (A) (A) (A) (A) (A) (A) (A) (A) (A)
                 (A) (A) (A) (A) (A)
       Virtual   (A) (A) (A) (A) (A) (A) (A) (A) (A) (A) (A) (A)
                 (A) (A) (A) (A) (A) (A) (A) (A) (A) (A) (A) (A)
                 (A) (A) (A) (A) (A) (A) (A) (A) (A) (A) (A) (A)
                 (A) (A) (A) (A) (A) (A) (A) (A) (A) (A) (A) (A)
                 (A) (A) (A) (A) (A) (A) (A) (A) (A) (A) (A) (A)
                 (A) (A) (A) (A) (A) (A) (A) (A) (A) (A) (A) (A)
                 (A) (A) (A) (A) (A) (A) (A) (A) (A) (A) (A) (A)
                 (A) (A) (A) (A) (A) (A) (A) (A) (A) (A) (A) (A)
                 (A) (A) (A) (A) (A) (A) (A) (A) (A) (A) (A) (A)
                 (A) (A) (A) (A) (A) (A) (A) (A) (A) (A) (A) (A)
                 (A) (A) (A) (A) (A) (A) (A) (A) (A) (A) (A) (A)
                 (A) (A) (A) (A) (A) (A) (A) (A) (A) (A) (A) (A)
                 (A) (A) (A) (A) (A) (A) (A) (A) (A) (A) (A) (A)
                 (A) (A) (A) (A) (A) (A) (A) (A) (A) (A) (A) (A)
                 (A) (A) (A) (A) (A) (A) (A) (A) (A) (A) (A) (A)
                 (A) (A) (A) (A) (A) (A) (A) (A) (A) (A) (A) (A)
                 (A) (A) (A) (A) (A) (A) (A) (A) (A) (A) (A) (A)
                 (A) (A) (A) (A) (A) (A) (A) (A) (A) (A) (A) (A)
                 (A) (A) (A) (A) (A) (A) (A) (A) (A) (A) (A) (A)
                 (A) (A) (A) (A) (A) (A) (A) (A) (A) (A) (A) (A)
                 (A) (A) (A) (A) (A) (A) (A) (A) (A) (A) (A) (A)
                 (A) (A) (A) (A) (A) (A) (A) (A) (A) (A) (A) (A)
                 (A) (A) (A) (A) (A) (A) (A) (A) (A) (A) (A) (A)
                 (A) (A) (A) (A) (A) (A) (A) (A) (A) (A) (A) (A)
                 (A) (A) (A) (A) (A) (A) (A) (A) (A) (A) (A) (A)
                 (A) (A) (A) (A) (A) (A) (A) (A) (A) (A) (A) (A)
                 (A) (A) (A) (A) (A) (A) (A) (A) (A) (A) (A) (A)
                 (A) (A) (A) (A) (A) (A) (A) (A) (A) (A) (A) (A)
                 (A) (A) (A) (A) (A) (A) (A) (A) (A) (A) (A) (A)
                 (A) (A) (A) (A) (A) (A) (A) (A) (A) (A) (A) (A)
                 (A) (A) (A) (A) (A) (A) (A) (A) (A) (A) (A) (A)
                 (A) (A) (A) (A) (A) (A) (A) (A) (A) (A) (A) (A)
                 (A) (A) (A) (A) (A) (A) (A) (A) (A) (A) (A) (A)
                 (A) (A) (A) (A) (A) (A) (A) (A) (A) (A) (A) (A)
                 (A) (A) (A) (A) (A) (A) (A) (A) (A) (A) (A) (A)
                 (A) (A) (A) (A) (A) (A) (A) (A) (A) (A) (A) (A)
                 (A)
 The electronic state is 1-A.
 Alpha  occ. eigenvalues --  -19.22716 -19.22134 -19.20597 -19.19588 -19.18947
 Alpha  occ. eigenvalues --  -19.16624 -19.16509 -19.15933 -19.14816 -19.14537
 Alpha  occ. eigenvalues --  -19.14211 -10.34559 -10.33358 -10.32318 -10.29274
 Alpha  occ. eigenvalues --  -10.27657 -10.26806 -10.26572 -10.26211 -10.25261
 Alpha  occ. eigenvalues --  -10.25021 -10.24858 -10.22683 -10.22656 -10.22208
 Alpha  occ. eigenvalues --  -10.21769 -10.21596 -10.21489 -10.21061 -10.20787
 Alpha  occ. eigenvalues --  -10.20642 -10.19965 -10.19912 -10.17704  -1.13305
 Alpha  occ. eigenvalues --   -1.12274  -1.10974  -1.07587  -1.06745  -1.05312
 Alpha  occ. eigenvalues --   -1.03560  -1.03459  -1.02713  -1.02028  -1.01528
 Alpha  occ. eigenvalues --   -0.88277  -0.86416  -0.84945  -0.80884  -0.79745
 Alpha  occ. eigenvalues --   -0.77144  -0.76636  -0.75603  -0.75244  -0.72495
 Alpha  occ. eigenvalues --   -0.70408  -0.69169  -0.66741  -0.65579  -0.64955
 Alpha  occ. eigenvalues --   -0.64294  -0.63350  -0.61514  -0.59501  -0.58147
 Alpha  occ. eigenvalues --   -0.57115  -0.55921  -0.54986  -0.54437  -0.53333
 Alpha  occ. eigenvalues --   -0.52383  -0.52056  -0.51219  -0.50630  -0.49346
 Alpha  occ. eigenvalues --   -0.49314  -0.49079  -0.48678  -0.48297  -0.47830
 Alpha  occ. eigenvalues --   -0.47443  -0.46743  -0.46515  -0.45751  -0.45178
 Alpha  occ. eigenvalues --   -0.44535  -0.44292  -0.44012  -0.43652  -0.43206
 Alpha  occ. eigenvalues --   -0.43005  -0.42228  -0.41926  -0.41539  -0.40917
 Alpha  occ. eigenvalues --   -0.40726  -0.39787  -0.39731  -0.39354  -0.38885
 Alpha  occ. eigenvalues --   -0.38808  -0.38370  -0.37860  -0.37442  -0.37181
 Alpha  occ. eigenvalues --   -0.36606  -0.35619  -0.35416  -0.35125  -0.34758
 Alpha  occ. eigenvalues --   -0.34153  -0.34072  -0.33676  -0.33075  -0.31348
 Alpha  occ. eigenvalues --   -0.31225  -0.28998  -0.28537  -0.28184  -0.28157
 Alpha  occ. eigenvalues --   -0.27755  -0.26762  -0.26066  -0.23681  -0.22034
 Alpha virt. eigenvalues --   -0.04896  -0.04412  -0.03185  -0.02835   0.03250
 Alpha virt. eigenvalues --    0.04651   0.05136   0.05707   0.06152   0.06673
 Alpha virt. eigenvalues --    0.07140   0.08732   0.09709   0.09970   0.10213
 Alpha virt. eigenvalues --    0.10461   0.11235   0.11832   0.12381   0.12960
 Alpha virt. eigenvalues --    0.13549   0.14010   0.14525   0.15169   0.15241
 Alpha virt. eigenvalues --    0.15483   0.15682   0.16374   0.16606   0.16808
 Alpha virt. eigenvalues --    0.17220   0.17546   0.17775   0.18178   0.18438
 Alpha virt. eigenvalues --    0.18659   0.19324   0.19712   0.20633   0.21379
 Alpha virt. eigenvalues --    0.21729   0.22571   0.22880   0.23764   0.24618
 Alpha virt. eigenvalues --    0.24913   0.25365   0.25569   0.26210   0.27130
 Alpha virt. eigenvalues --    0.27481   0.28205   0.29432   0.31171   0.31817
 Alpha virt. eigenvalues --    0.32093   0.33439   0.34242   0.35815   0.37907
 Alpha virt. eigenvalues --    0.38862   0.39520   0.40127   0.40820   0.41438
 Alpha virt. eigenvalues --    0.42661   0.45485   0.47056   0.48289   0.48674
 Alpha virt. eigenvalues --    0.50021   0.50656   0.50775   0.51399   0.51774
 Alpha virt. eigenvalues --    0.52062   0.52266   0.52662   0.53300   0.53482
 Alpha virt. eigenvalues --    0.54609   0.55239   0.55439   0.55936   0.56171
 Alpha virt. eigenvalues --    0.56489   0.56970   0.57345   0.58343   0.58493
 Alpha virt. eigenvalues --    0.58913   0.59949   0.60545   0.60789   0.61558
 Alpha virt. eigenvalues --    0.61838   0.62645   0.62890   0.63073   0.63898
 Alpha virt. eigenvalues --    0.64644   0.64895   0.65576   0.66169   0.67152
 Alpha virt. eigenvalues --    0.67610   0.68213   0.68401   0.69752   0.70293
 Alpha virt. eigenvalues --    0.70689   0.71434   0.71756   0.72064   0.72697
 Alpha virt. eigenvalues --    0.73415   0.73601   0.73732   0.74779   0.75097
 Alpha virt. eigenvalues --    0.76037   0.76119   0.76801   0.77761   0.78129
 Alpha virt. eigenvalues --    0.78406   0.78644   0.80444   0.81096   0.81951
 Alpha virt. eigenvalues --    0.82881   0.82932   0.83276   0.84161   0.84359
 Alpha virt. eigenvalues --    0.84436   0.85373   0.85749   0.86695   0.87077
 Alpha virt. eigenvalues --    0.87518   0.87587   0.88373   0.89259   0.89617
 Alpha virt. eigenvalues --    0.90034   0.90675   0.91162   0.91933   0.92118
 Alpha virt. eigenvalues --    0.92701   0.93449   0.93711   0.93972   0.94810
 Alpha virt. eigenvalues --    0.95378   0.95932   0.96329   0.96631   0.96916
 Alpha virt. eigenvalues --    0.97613   0.98206   0.98384   0.99246   1.00504
 Alpha virt. eigenvalues --    1.01038   1.01291   1.01472   1.02334   1.02610
 Alpha virt. eigenvalues --    1.03193   1.03361   1.05047   1.05787   1.06808
 Alpha virt. eigenvalues --    1.07395   1.08699   1.09684   1.10070   1.11031
 Alpha virt. eigenvalues --    1.11812   1.12346   1.12757   1.14788   1.15271
 Alpha virt. eigenvalues --    1.15533   1.16500   1.17571   1.18891   1.19116
 Alpha virt. eigenvalues --    1.21228   1.21462   1.21738   1.22541   1.22762
 Alpha virt. eigenvalues --    1.24271   1.24924   1.25466   1.27052   1.28799
 Alpha virt. eigenvalues --    1.30150   1.30789   1.31801   1.32576   1.33669
 Alpha virt. eigenvalues --    1.34643   1.35370   1.35830   1.36410   1.37003
 Alpha virt. eigenvalues --    1.37560   1.38210   1.38818   1.39236   1.40536
 Alpha virt. eigenvalues --    1.41262   1.41564   1.41983   1.43045   1.44547
 Alpha virt. eigenvalues --    1.44827   1.46469   1.46969   1.48477   1.49915
 Alpha virt. eigenvalues --    1.50627   1.52554   1.54188   1.55670   1.58412
 Alpha virt. eigenvalues --    1.59165   1.61932   1.62337   1.63492   1.63771
 Alpha virt. eigenvalues --    1.64458   1.65452   1.66008   1.66967   1.68010
 Alpha virt. eigenvalues --    1.68358   1.69613   1.70254   1.70374   1.70903
 Alpha virt. eigenvalues --    1.72046   1.72194   1.72560   1.72910   1.73535
 Alpha virt. eigenvalues --    1.73872   1.75070   1.75524   1.76502   1.77449
 Alpha virt. eigenvalues --    1.77611   1.77756   1.79977   1.80351   1.80969
 Alpha virt. eigenvalues --    1.81395   1.81545   1.81730   1.82373   1.82863
 Alpha virt. eigenvalues --    1.83365   1.83976   1.84434   1.84951   1.85711
 Alpha virt. eigenvalues --    1.86571   1.87226   1.87540   1.88111   1.89567
 Alpha virt. eigenvalues --    1.89810   1.90172   1.90813   1.91493   1.92577
 Alpha virt. eigenvalues --    1.93115   1.93612   1.94161   1.94697   1.95477
 Alpha virt. eigenvalues --    1.95567   1.97822   1.98213   1.98398   1.99605
 Alpha virt. eigenvalues --    2.00640   2.01179   2.01597   2.02882   2.03159
 Alpha virt. eigenvalues --    2.03725   2.04210   2.04794   2.05715   2.06279
 Alpha virt. eigenvalues --    2.08094   2.08244   2.09137   2.10019   2.10691
 Alpha virt. eigenvalues --    2.11883   2.13239   2.14056   2.14832   2.15862
 Alpha virt. eigenvalues --    2.18804   2.19576   2.20050   2.21672   2.22939
 Alpha virt. eigenvalues --    2.23641   2.24237   2.25819   2.26812   2.27430
 Alpha virt. eigenvalues --    2.27852   2.28842   2.29066   2.30003   2.30811
 Alpha virt. eigenvalues --    2.31341   2.32605   2.32985   2.33655   2.34013
 Alpha virt. eigenvalues --    2.34424   2.35622   2.36063   2.36900   2.38528
 Alpha virt. eigenvalues --    2.39034   2.39697   2.41994   2.42319   2.43144
 Alpha virt. eigenvalues --    2.43681   2.44403   2.46086   2.46858   2.47436
 Alpha virt. eigenvalues --    2.48794   2.49275   2.50712   2.51385   2.53443
 Alpha virt. eigenvalues --    2.54065   2.54867   2.55709   2.56748   2.58320
 Alpha virt. eigenvalues --    2.58647   2.60118   2.61197   2.61721   2.63480
 Alpha virt. eigenvalues --    2.64928   2.65978   2.66209   2.68124   2.69370
 Alpha virt. eigenvalues --    2.69830   2.70549   2.70720   2.73215   2.74397
 Alpha virt. eigenvalues --    2.75265   2.76654   2.77764   2.80067   2.80653
 Alpha virt. eigenvalues --    2.83432   2.84638   2.84913   2.89545   2.90752
 Alpha virt. eigenvalues --    2.91224   2.93235   2.94118   2.96239   2.96832
 Alpha virt. eigenvalues --    2.98641   2.99895   3.01071   3.04293   3.05669
 Alpha virt. eigenvalues --    3.07631   3.09819   3.10975   3.12176   3.15693
 Alpha virt. eigenvalues --    3.22003   3.22393   3.40928   3.49378   3.75398
 Alpha virt. eigenvalues --    3.88425   3.92078   3.95330   3.96059   3.98931
 Alpha virt. eigenvalues --    4.05393   4.06218   4.07518   4.13482   4.17134
 Alpha virt. eigenvalues --    4.17478   4.18137   4.22105   4.23383   4.24171
 Alpha virt. eigenvalues --    4.24975   4.31192   4.32904   4.34273   4.36768
 Alpha virt. eigenvalues --    4.39688   4.43332   4.47839   4.48715   4.51120
 Alpha virt. eigenvalues --    4.54586   4.55095   4.58165   4.63317   4.71967
 Alpha virt. eigenvalues --    4.73854   4.79961   4.87817
          Condensed to atoms (all electrons):
 Mulliken atomic charges:
              1
     1  C    0.092214
     2  C    0.333909
     3  C   -0.310134
     4  C    0.122619
     5  C   -0.065451
     6  C    0.234302
     7  C    0.072829
     8  C    0.272277
     9  O   -0.511892
    10  C    0.635122
    11  C   -0.375692
    12  C    0.260044
    13  C   -0.304775
    14  C   -0.357786
    15  C   -0.510392
    16  O   -0.663982
    17  O   -0.644051
    18  O   -0.532181
    19  O   -0.551394
    20  C    0.121041
    21  C    0.088583
    22  C    0.101511
    23  C   -0.136536
    24  C    0.056582
    25  C   -0.373217
    26  O   -0.662485
    27  O   -0.637353
    28  C    0.599715
    29  O   -0.461931
    30  O   -0.487069
    31  C   -0.221786
    32  C    0.587262
    33  O   -0.565604
    34  O   -0.475301
    35  H    0.115174
    36  H    0.169956
    37  H    0.189387
    38  H    0.170611
    39  H    0.167717
    40  H    0.182654
    41  H    0.178147
    42  H    0.175812
    43  H    0.169770
    44  H    0.168049
    45  H    0.449715
    46  H    0.414349
    47  H    0.142434
    48  H    0.146557
    49  H    0.149115
    50  H    0.183685
    51  H    0.171272
    52  H    0.182568
    53  H    0.411529
    54  H    0.406403
    55  H    0.161056
    56  H    0.174319
    57  H    0.174377
    58  H    0.416346
 Sum of Mulliken atomic charges =   0.00000
 Mulliken charges with hydrogens summed into heavy atoms:
              1
     1  C    0.092214
     2  C    0.333909
     3  C   -0.194961
     4  C    0.122619
     5  C   -0.065451
     6  C    0.234302
     7  C    0.072829
     8  C    0.272277
     9  O   -0.511892
    10  C    0.635122
    11  C   -0.016348
    12  C    0.260044
    13  C    0.033553
    14  C    0.003016
    15  C    0.003239
    16  O   -0.214268
    17  O   -0.229702
    18  O   -0.532181
    19  O   -0.551394
    20  C    0.263476
    21  C    0.235139
    22  C    0.250625
    23  C    0.047150
    24  C    0.056582
    25  C   -0.019377
    26  O   -0.250956
    27  O   -0.230951
    28  C    0.599715
    29  O   -0.461931
    30  O   -0.487069
    31  C    0.287967
    32  C    0.587262
    33  O   -0.149258
    34  O   -0.475301
 Sum of Mulliken charges with hydrogens summed into heavy atoms =   0.00000
 Electronic spatial extent (au):  <R**2>=          20371.5045
 Charge=              0.0000 electrons
 Dipole moment (field-independent basis, Debye):
    X=             -1.7644    Y=             -6.2658    Z=             -0.0003  Tot=              6.5095
 Quadrupole moment (field-independent basis, Debye-Ang):
   XX=           -233.6907   YY=           -186.9864   ZZ=           -197.2110
   XY=              4.2195   XZ=             -7.0462   YZ=              6.5825
 Traceless Quadrupole moment (field-independent basis, Debye-Ang):
   XX=            -27.7280   YY=             18.9763   ZZ=              8.7517
   XY=              4.2195   XZ=             -7.0462   YZ=              6.5825
 Octapole moment (field-independent basis, Debye-Ang**2):
  XXX=            -61.9805  YYY=            -91.4368  ZZZ=             -5.0314  XYY=            -61.0746
  XXY=           -178.1965  XXZ=             12.6531  XZZ=              2.0234  YZZ=              2.9011
  YYZ=            -34.2877  XYZ=            -43.4654
 Hexadecapole moment (field-independent basis, Debye-Ang**3):
 XXXX=         -22533.9192 YYYY=          -3347.8478 ZZZZ=          -1835.0426 XXXY=            835.4864
 XXXZ=           -138.1865 YYYX=            112.1609 YYYZ=             42.2176 ZZZX=             23.8414
 ZZZY=             54.9767 XXYY=          -3908.4594 XXZZ=          -3827.1486 YYZZ=           -959.2075
 XXYZ=             69.5015 YYXZ=            -81.4944 ZZXY=              4.9502
 N-N= 3.669478531907D+03 E-N=-1.135159863388D+04  KE= 1.702840545943D+03
 Calling FoFJK, ICntrl=      2127 FMM=T ISym2X=0 I1Cent= 0 IOpClX= 0 NMat=1 NMatS=1 NMatT=0.
 ***** Axes restored to original set *****
 -------------------------------------------------------------------
 Center     Atomic                   Forces (Hartrees/Bohr)
 Number     Number              X              Y              Z
 -------------------------------------------------------------------
      1        6           0.006206433   -0.002241565    0.004806099
      2        6          -0.008903861    0.006082885   -0.001821439
      3        6          -0.004809092   -0.000408137   -0.006967834
      4        6          -0.011544213    0.014905089    0.012236398
      5        6          -0.005527700   -0.007487775   -0.025698077
      6        6           0.019162956   -0.016294042   -0.003507085
      7        6           0.010460579   -0.008972438    0.006998707
      8        6           0.006660333   -0.003644547   -0.007662091
      9        8          -0.010505397    0.006205572   -0.003927088
     10        6           0.012490923    0.006068020    0.036604914
     11        6           0.000728670   -0.006677275    0.001873248
     12        6           0.016821344    0.002057384   -0.000817458
     13        6          -0.000923464    0.003094191   -0.002847614
     14        6           0.003414965   -0.007980814   -0.002350118
     15        6          -0.002244924   -0.005470952    0.004711195
     16        8          -0.010247419    0.014819385    0.015931453
     17        8           0.005314544   -0.004598208   -0.000027900
     18        8          -0.012512730    0.000364014   -0.021821851
     19        8          -0.000118130    0.007175482    0.000380746
     20        6          -0.010870738   -0.006884078    0.006538760
     21        6           0.018428061    0.004277437   -0.005562899
     22        6           0.004539398   -0.009939290    0.009325166
     23        6          -0.000915659    0.005881034    0.003113780
     24        6          -0.000127435   -0.011572739   -0.009243492
     25        6           0.005378300    0.006823473    0.001915915
     26        8          -0.001746620    0.002314661   -0.003566845
     27        8           0.000588787   -0.006359829    0.002506759
     28        6           0.001079315   -0.009472832   -0.006167955
     29        8          -0.008011117   -0.000090056   -0.003180397
     30        8           0.007783488    0.009694477    0.009794825
     31        6          -0.005350589    0.009865568    0.002946981
     32        6          -0.018022647    0.011500716   -0.006259962
     33        8           0.001240969   -0.002122045    0.003614904
     34        8           0.008832241   -0.012700407    0.001023938
     35        1          -0.001026367    0.000385653   -0.000216738
     36        1          -0.003400044    0.001344091    0.000867783
     37        1          -0.000397657    0.002950250   -0.001883887
     38        1          -0.003501367   -0.000720300    0.003927469
     39        1           0.000309876    0.001177918    0.001526915
     40        1          -0.000488925   -0.002448940   -0.001489463
     41        1           0.000809507   -0.002471506    0.000160980
     42        1           0.002321084    0.002012550   -0.004268531
     43        1           0.003289824   -0.001643494    0.001411501
     44        1          -0.000587262    0.004339826   -0.002022154
     45        1          -0.007084642    0.004065706   -0.002367079
     46        1           0.000302838   -0.001455760   -0.002285672
     47        1          -0.000919648    0.000108525   -0.001266881
     48        1          -0.010000872    0.006059998   -0.000523791
     49        1           0.006709443    0.005480319   -0.004250571
     50        1           0.001015524    0.001738563    0.001772487
     51        1          -0.002251259    0.001898517    0.002674456
     52        1           0.002952051    0.000880691   -0.000402300
     53        1          -0.004346645   -0.002963221   -0.001940543
     54        1          -0.004070579    0.001292910   -0.000689034
     55        1           0.004630809   -0.002951738    0.000265427
     56        1          -0.002525012   -0.002935116    0.000726571
     57        1          -0.000663084   -0.000639018   -0.003838949
     58        1           0.002172833   -0.003718782    0.001218322
 -------------------------------------------------------------------
 Cartesian Forces:  Max     0.036604914 RMS     0.007267693

 GradGradGradGradGradGradGradGradGradGradGradGradGradGradGradGradGradGrad
 Berny optimization.
 Internal  Forces:  Max     0.029173634 RMS     0.004457973
 Search for a local minimum.
 Step number   1 out of a maximum of  340
 All quantities printed in internal units (Hartrees-Bohrs-Radians)
 Mixed Optimization -- RFO/linear search
 Second derivative matrix not updated -- first step.
 ITU=  0
     Eigenvalues ---    0.00230   0.00468   0.00506   0.00567   0.00598
     Eigenvalues ---    0.00702   0.00710   0.00909   0.01160   0.01170
     Eigenvalues ---    0.01188   0.01190   0.01212   0.01279   0.01290
     Eigenvalues ---    0.01316   0.01358   0.01366   0.01366   0.01414
     Eigenvalues ---    0.01528   0.01637   0.01716   0.01733   0.01791
     Eigenvalues ---    0.01901   0.02007   0.02025   0.02040   0.02071
     Eigenvalues ---    0.02110   0.02124   0.02127   0.02254   0.02352
     Eigenvalues ---    0.02787   0.03080   0.03414   0.03566   0.04053
     Eigenvalues ---    0.04367   0.04759   0.04768   0.04944   0.05024
     Eigenvalues ---    0.05144   0.05436   0.05756   0.05781   0.05878
     Eigenvalues ---    0.06101   0.06694   0.07157   0.07175   0.07250
     Eigenvalues ---    0.07846   0.08102   0.08141   0.08202   0.08285
     Eigenvalues ---    0.09454   0.09601   0.09649   0.09914   0.10001
     Eigenvalues ---    0.10104   0.10500   0.11860   0.12028   0.14318
     Eigenvalues ---    0.14635   0.15999   0.16000   0.16000   0.16000
     Eigenvalues ---    0.16000   0.16000   0.16000   0.16000   0.16000
     Eigenvalues ---    0.16000   0.16000   0.16000   0.16598   0.16724
     Eigenvalues ---    0.17051   0.18928   0.19324   0.19853   0.23013
     Eigenvalues ---    0.23528   0.24357   0.24963   0.24986   0.24992
     Eigenvalues ---    0.24993   0.24994   0.24996   0.24998   0.24999
     Eigenvalues ---    0.25000   0.25000   0.25000   0.25000   0.25000
     Eigenvalues ---    0.25000   0.25000   0.26507   0.27352   0.27530
     Eigenvalues ---    0.27786   0.28090   0.28402   0.28788   0.30345
     Eigenvalues ---    0.31166   0.31552   0.31941   0.32435   0.32692
     Eigenvalues ---    0.33540   0.33746   0.33826   0.33863   0.33900
     Eigenvalues ---    0.33999   0.34048   0.34091   0.34143   0.34165
     Eigenvalues ---    0.34183   0.34230   0.34252   0.34280   0.34291
     Eigenvalues ---    0.34292   0.34306   0.34409   0.34476   0.34919
     Eigenvalues ---    0.35349   0.38445   0.39658   0.39853   0.39866
     Eigenvalues ---    0.40804   0.41222   0.41677   0.43308   0.44416
     Eigenvalues ---    0.45121   0.45393   0.45985   0.49800   0.50311
     Eigenvalues ---    0.50716   0.51137   0.51499   0.51856   0.52081
     Eigenvalues ---    0.52664   0.53261   0.53450   0.53651   0.55001
     Eigenvalues ---    0.91714   0.94988   0.95138
 RFO step:  Lambda=-2.53943648D-02 EMin= 2.30000000D-03
 Linear search not attempted -- first point.
 Iteration  1 RMS(Cart)=  0.11533087 RMS(Int)=  0.00205601
 Iteration  2 RMS(Cart)=  0.00469532 RMS(Int)=  0.00035978
 Iteration  3 RMS(Cart)=  0.00001102 RMS(Int)=  0.00035974
 Iteration  4 RMS(Cart)=  0.00000002 RMS(Int)=  0.00035974
 Variable       Old X    -DE/DX   Delta X   Delta X   Delta X     New X
                                 (Linear)    (Quad)   (Total)
    R1        2.63871   0.00514   0.00000   0.00976   0.01006   2.64877
    R2        2.64896  -0.00111   0.00000  -0.00227  -0.00235   2.64660
    R3        2.84252   0.00213   0.00000   0.00617   0.00617   2.84870
    R4        2.64160   0.00449   0.00000   0.00846   0.00883   2.65043
    R5        2.58382  -0.00434   0.00000  -0.00803  -0.00803   2.57579
    R6        2.65395  -0.00620   0.00000  -0.01312  -0.01304   2.64091
    R7        2.05112   0.00088   0.00000   0.00233   0.00233   2.05344
    R8        2.65082   0.00830   0.00000   0.01971   0.01908   2.66990
    R9        2.78711  -0.01038   0.00000  -0.02655  -0.02648   2.76062
   R10        2.66529   0.00444   0.00000   0.01178   0.01037   2.67565
   R11        2.79655  -0.00987   0.00000  -0.02443  -0.02564   2.77091
   R12        2.59798  -0.02917   0.00000  -0.05506  -0.05531   2.54267
   R13        2.53752   0.00360   0.00000   0.00763   0.00798   2.54550
   R14        2.86589  -0.00222   0.00000  -0.00628  -0.00626   2.85963
   R15        2.65892  -0.02015   0.00000  -0.04439  -0.04406   2.61486
   R16        2.83794  -0.00522   0.00000  -0.01153  -0.01161   2.82633
   R17        2.57041  -0.00166   0.00000  -0.00373  -0.00376   2.56664
   R18        2.32056  -0.00177   0.00000  -0.00206  -0.00194   2.31862
   R19        2.94404  -0.00408   0.00000  -0.01836  -0.01829   2.92574
   R20        2.07625  -0.00011   0.00000  -0.00029  -0.00029   2.07596
   R21        2.07562  -0.00233   0.00000  -0.00640  -0.00640   2.06922
   R22        2.91033  -0.00132   0.00000  -0.00671  -0.00665   2.90368
   R23        2.71736  -0.00823   0.00000  -0.01940  -0.01940   2.69796
   R24        2.91268  -0.00348   0.00000  -0.01124  -0.01124   2.90145
   R25        2.88568   0.00446   0.00000   0.01281   0.01277   2.89846
   R26        2.07760  -0.00313   0.00000  -0.00862  -0.00862   2.06898
   R27        2.07089  -0.00116   0.00000  -0.00316  -0.00316   2.06772
   R28        2.07052   0.00244   0.00000   0.00664   0.00664   2.07716
   R29        2.07249  -0.00010   0.00000  -0.00028  -0.00028   2.07221
   R30        2.06944  -0.00111   0.00000  -0.00302  -0.00302   2.06641
   R31        2.06817   0.00155   0.00000   0.00420   0.00420   2.07237
   R32        2.06860  -0.00113   0.00000  -0.00306  -0.00306   2.06554
   R33        1.85781   0.00473   0.00000   0.00788   0.00886   1.86668
   R34        1.83411  -0.00144   0.00000  -0.00258  -0.00258   1.83153
   R35        3.23211   0.00346   0.00000   0.02851   0.02961   3.26172
   R36        2.72021  -0.00209   0.00000  -0.00495  -0.00495   2.71526
   R37        2.90956  -0.00781   0.00000  -0.02323  -0.02323   2.88633
   R38        2.90771   0.00012   0.00000  -0.00225  -0.00220   2.90550
   R39        2.06906   0.00102   0.00000   0.00277   0.00277   2.07183
   R40        2.90412  -0.00826   0.00000  -0.02726  -0.02725   2.87687
   R41        2.71754  -0.00321   0.00000  -0.00757  -0.00757   2.70997
   R42        2.07500   0.00050   0.00000   0.00136   0.00136   2.07636
   R43        2.82192   0.00329   0.00000   0.01050   0.01046   2.83238
   R44        2.69336   0.00625   0.00000   0.01414   0.01414   2.70750
   R45        2.07178   0.00489   0.00000   0.01334   0.01334   2.08512
   R46        2.54354  -0.00429   0.00000  -0.00684  -0.00687   2.53667
   R47        2.05807  -0.00204   0.00000  -0.00545  -0.00545   2.05262
   R48        2.84511   0.00558   0.00000   0.01571   0.01571   2.86081
   R49        2.81414   0.00451   0.00000   0.01251   0.01251   2.82665
   R50        2.07022   0.00020   0.00000   0.00053   0.00053   2.07075
   R51        2.07332  -0.00035   0.00000  -0.00097  -0.00097   2.07235
   R52        1.84738  -0.00549   0.00000  -0.01009  -0.01009   1.83729
   R53        1.84522  -0.00405   0.00000  -0.00742  -0.00742   1.83780
   R54        2.56536  -0.00114   0.00000  -0.00204  -0.00204   2.56332
   R55        2.30716  -0.01332   0.00000  -0.01366  -0.01366   2.29350
   R56        2.69926   0.00514   0.00000   0.01175   0.01175   2.71101
   R57        2.06645  -0.00092   0.00000  -0.00248  -0.00248   2.06397
   R58        2.06840  -0.00092   0.00000  -0.00251  -0.00251   2.06589
   R59        2.06841  -0.00097   0.00000  -0.00264  -0.00264   2.06577
   R60        2.55131   0.00292   0.00000   0.00507   0.00507   2.55638
   R61        2.30652  -0.01152   0.00000  -0.01179  -0.01179   2.29472
   R62        1.85435  -0.00426   0.00000  -0.00793  -0.00793   1.84642
    A1        2.05884  -0.00385   0.00000  -0.01278  -0.01322   2.04562
    A2        2.11557   0.00329   0.00000   0.01162   0.01180   2.12737
    A3        2.10762   0.00058   0.00000   0.00178   0.00195   2.10957
    A4        2.11926   0.00436   0.00000   0.01538   0.01541   2.13467
    A5        2.07367  -0.00960   0.00000  -0.03463  -0.03465   2.03902
    A6        2.09026   0.00524   0.00000   0.01926   0.01924   2.10950
    A7        2.10866  -0.00339   0.00000  -0.01285  -0.01303   2.09563
    A8        2.06985   0.00235   0.00000   0.00998   0.01007   2.07992
    A9        2.10464   0.00104   0.00000   0.00288   0.00297   2.10761
   A10        2.06323   0.00377   0.00000   0.01416   0.01372   2.07696
   A11        2.13217   0.00478   0.00000   0.01229   0.01314   2.14531
   A12        2.08773  -0.00855   0.00000  -0.02641  -0.02684   2.06089
   A13        2.10339  -0.00367   0.00000  -0.01475  -0.01389   2.08950
   A14        2.09036   0.00208   0.00000   0.00794   0.00882   2.09917
   A15        2.08939   0.00159   0.00000   0.00682   0.00509   2.09447
   A16        2.11247   0.00279   0.00000   0.01110   0.01123   2.12370
   A17        2.03705   0.00317   0.00000   0.00671   0.00846   2.04551
   A18        2.13365  -0.00596   0.00000  -0.01779  -0.01968   2.11397
   A19        2.05616   0.00444   0.00000   0.01754   0.01746   2.07363
   A20        2.10642  -0.00158   0.00000  -0.00777  -0.00773   2.09869
   A21        2.12060  -0.00286   0.00000  -0.00976  -0.00973   2.11087
   A22        2.14871   0.00103   0.00000  -0.00040  -0.00022   2.14849
   A23        2.15945   0.00668   0.00000   0.03048   0.03026   2.18971
   A24        1.97492  -0.00769   0.00000  -0.02987  -0.02993   1.94498
   A25        2.13362  -0.00023   0.00000  -0.00332  -0.00374   2.12988
   A26        2.04912   0.00124   0.00000   0.00479   0.00463   2.05375
   A27        2.10403   0.02453   0.00000   0.09165   0.09046   2.19449
   A28        2.13000  -0.02578   0.00000  -0.09642  -0.09508   2.03492
   A29        2.00385  -0.00165   0.00000  -0.01609  -0.01595   1.98790
   A30        1.88258   0.00312   0.00000   0.02775   0.02771   1.91029
   A31        1.89864   0.00173   0.00000   0.01557   0.01535   1.91399
   A32        1.92098  -0.00205   0.00000  -0.01238  -0.01238   1.90860
   A33        1.87669  -0.00017   0.00000  -0.00454  -0.00444   1.87225
   A34        1.87731  -0.00097   0.00000  -0.01027  -0.01058   1.86673
   A35        1.88579   0.00389   0.00000   0.02861   0.02836   1.91416
   A36        1.84285  -0.00212   0.00000  -0.01895  -0.01884   1.82401
   A37        1.84855   0.00088   0.00000   0.01951   0.01906   1.86760
   A38        1.97036   0.00026   0.00000  -0.00173  -0.00155   1.96882
   A39        1.91657  -0.00051   0.00000   0.00545   0.00470   1.92126
   A40        1.99118  -0.00201   0.00000  -0.02878  -0.02867   1.96251
   A41        1.95354  -0.00031   0.00000  -0.00800  -0.00765   1.94589
   A42        1.91191  -0.00386   0.00000  -0.02552  -0.02555   1.88635
   A43        1.94661   0.00069   0.00000  -0.00166  -0.00170   1.94492
   A44        1.90082   0.00418   0.00000   0.02788   0.02766   1.92848
   A45        1.90625  -0.00067   0.00000   0.00712   0.00695   1.91320
   A46        1.84088   0.00010   0.00000   0.00159   0.00132   1.84219
   A47        1.96890  -0.00540   0.00000  -0.02407  -0.02407   1.94482
   A48        1.89869   0.00093   0.00000   0.00499   0.00507   1.90376
   A49        1.91217   0.00088   0.00000  -0.00424  -0.00405   1.90812
   A50        1.92461   0.00247   0.00000   0.01412   0.01416   1.93877
   A51        1.89380   0.00302   0.00000   0.01839   0.01822   1.91202
   A52        1.86269  -0.00174   0.00000  -0.00855  -0.00872   1.85397
   A53        1.93950  -0.00154   0.00000  -0.00691  -0.00686   1.93264
   A54        1.91797   0.00460   0.00000   0.02019   0.02026   1.93823
   A55        1.95204  -0.00350   0.00000  -0.01568  -0.01562   1.93642
   A56        1.90349  -0.00325   0.00000  -0.02361  -0.02356   1.87993
   A57        1.85334   0.00491   0.00000   0.03518   0.03521   1.88856
   A58        1.89565  -0.00132   0.00000  -0.00969  -0.00961   1.88604
   A59        1.90915  -0.01927   0.00000  -0.09987  -0.10078   1.80836
   A60        1.91829  -0.00424   0.00000  -0.02289  -0.02289   1.89540
   A61        2.08275   0.00396   0.00000   0.01439   0.01439   2.09714
   A62        1.84801  -0.00479   0.00000  -0.03005  -0.03033   1.81767
   A63        1.97186   0.00098   0.00000   0.01417   0.01441   1.98627
   A64        1.91415   0.00107   0.00000   0.00006  -0.00027   1.91388
   A65        1.91149   0.00553   0.00000   0.02827   0.02831   1.93979
   A66        1.88309  -0.00200   0.00000  -0.01070  -0.01082   1.87227
   A67        1.93149  -0.00103   0.00000  -0.00362  -0.00352   1.92797
   A68        1.93732   0.00275   0.00000   0.00832   0.00850   1.94582
   A69        1.91948   0.00421   0.00000   0.02123   0.02114   1.94062
   A70        1.92831  -0.00329   0.00000  -0.01715  -0.01804   1.91028
   A71        1.90112  -0.00766   0.00000  -0.03761  -0.03755   1.86356
   A72        1.93143  -0.00135   0.00000  -0.03371  -0.03362   1.89781
   A73        1.84379   0.00539   0.00000   0.06108   0.06076   1.90455
   A74        1.96940  -0.00279   0.00000  -0.01641  -0.01674   1.95266
   A75        1.90235   0.00438   0.00000   0.02598   0.02608   1.92843
   A76        1.93087  -0.00398   0.00000  -0.03797  -0.03832   1.89255
   A77        1.88606  -0.00049   0.00000   0.00074   0.00092   1.88698
   A78        1.90713   0.00135   0.00000   0.00085  -0.00009   1.90704
   A79        1.86454   0.00189   0.00000   0.03053   0.03084   1.89538
   A80        2.14749   0.00234   0.00000   0.01417   0.01411   2.16160
   A81        2.02824   0.00033   0.00000   0.00101   0.00103   2.02927
   A82        2.10745  -0.00267   0.00000  -0.01516  -0.01514   2.09231
   A83        2.14061   0.00124   0.00000   0.00624   0.00619   2.14680
   A84        2.05922  -0.00212   0.00000  -0.00848  -0.00850   2.05073
   A85        2.08311   0.00090   0.00000   0.00253   0.00251   2.08563
   A86        1.99258  -0.00757   0.00000  -0.03565  -0.03554   1.95704
   A87        1.88671   0.00464   0.00000   0.03086   0.03102   1.91774
   A88        1.91148   0.00012   0.00000  -0.00847  -0.00843   1.90305
   A89        1.90063   0.00170   0.00000   0.00406   0.00427   1.90490
   A90        1.90168   0.00370   0.00000   0.02331   0.02308   1.92476
   A91        1.86662  -0.00233   0.00000  -0.01309  -0.01310   1.85352
   A92        1.83489   0.00037   0.00000   0.00200   0.00200   1.83689
[...]
     50          1           0       -5.568803    2.345903   -1.034908
     51          1           0       -3.735759   -1.037695    0.597929
     52          1           0       -3.248790   -1.000615   -1.085117
     53          1           0       -0.258604    1.885815   -0.677439
     54          1           0       -2.548054    4.021328   -1.723346
     55          1           0       -6.986933   -3.256028   -0.321391
     56          1           0       -7.923412   -1.834255    0.249325
     57          1           0       -7.683190   -2.087687   -1.494528
     58          1           0       -2.079053   -3.736447    0.334473
 ---------------------------------------------------------------------
 Rotational constants (GHZ):      0.2327845      0.0573199      0.0526453

 **********************************************************************

            Population analysis using the SCF density.

 **********************************************************************

 Orbital symmetries:
       Occupied  (A) (A) (A) (A) (A) (A) (A) (A) (A) (A) (A) (A)
                 (A) (A) (A) (A) (A) (A) (A) (A) (A) (A) (A) (A)
                 (A) (A) (A) (A) (A) (A) (A) (A) (A) (A) (A) (A)
                 (A) (A) (A) (A) (A) (A) (A) (A) (A) (A) (A) (A)
                 (A) (A) (A) (A) (A) (A) (A) (A) (A) (A) (A) (A)
                 (A) (A) (A) (A) (A) (A) (A) (A) (A) (A) (A) (A)
                 (A) (A) (A) (A) (A) (A) (A) (A) (A) (A) (A) (A)
                 (A) (A) (A) (A) (A) (A) (A) (A) (A) (A) (A) (A)
                 (A) (A) (A) (A) (A) (A) (A) (A) (A) (A) (A) (A)
                 (A) (A) (A) (A) (A) (A) (A) (A) (A) (A) (A) (A)
                 (A) (A) (A) (A) (A)
       Virtual   (A) (A) (A) (A) (A) (A) (A) (A) (A) (A) (A) (A)
                 (A) (A) (A) (A) (A) (A) (A) (A) (A) (A) (A) (A)
                 (A) (A) (A) (A) (A) (A) (A) (A) (A) (A) (A) (A)
                 (A) (A) (A) (A) (A) (A) (A) (A) (A) (A) (A) (A)
                 (A) (A) (A) (A) (A) (A) (A) (A) (A) (A) (A) (A)
                 (A) (A) (A) (A) (A) (A) (A) (A) (A) (A) (A) (A)
                 (A) (A) (A) (A) (A) (A) (A) (A) (A) (A) (A) (A)
                 (A) (A) (A) (A) (A) (A) (A) (A) (A) (A) (A) (A)
                 (A) (A) (A) (A) (A) (A) (A) (A) (A) (A) (A) (A)
                 (A) (A) (A) (A) (A) (A) (A) (A) (A) (A) (A) (A)
                 (A) (A) (A) (A) (A) (A) (A) (A) (A) (A) (A) (A)
                 (A) (A) (A) (A) (A) (A) (A) (A) (A) (A) (A) (A)
                 (A) (A) (A) (A) (A) (A) (A) (A) (A) (A) (A) (A)
                 (A) (A) (A) (A) (A) (A) (A) (A) (A) (A) (A) (A)
                 (A) (A) (A) (A) (A) (A) (A) (A) (A) (A) (A) (A)
                 (A) (A) (A) (A) (A) (A) (A) (A) (A) (A) (A) (A)
                 (A) (A) (A) (A) (A) (A) (A) (A) (A) (A) (A) (A)
                 (A) (A) (A) (A) (A) (A) (A) (A) (A) (A) (A) (A)
                 (A) (A) (A) (A) (A) (A) (A) (A) (A) (A) (A) (A)
                 (A) (A) (A) (A) (A) (A) (A) (A) (A) (A) (A) (A)
                 (A) (A) (A) (A) (A) (A) (A) (A) (A) (A) (A) (A)
                 (A) (A) (A) (A) (A) (A) (A) (A) (A) (A) (A) (A)
                 (A) (A) (A) (A) (A) (A) (A) (A) (A) (A) (A) (A)
                 (A) (A) (A) (A) (A) (A) (A) (A) (A) (A) (A) (A)
                 (A) (A) (A) (A) (A) (A) (A) (A) (A) (A) (A) (A)
                 (A) (A) (A) (A) (A) (A) (A) (A) (A) (A) (A) (A)
                 (A) (A) (A) (A) (A) (A) (A) (A) (A) (A) (A) (A)
                 (A) (A) (A) (A) (A) (A) (A) (A) (A) (A) (A) (A)
                 (A) (A) (A) (A) (A) (A) (A) (A) (A) (A) (A) (A)
                 (A) (A) (A) (A) (A) (A) (A) (A) (A) (A) (A) (A)
                 (A) (A) (A) (A) (A) (A) (A) (A) (A) (A) (A) (A)
                 (A) (A) (A) (A) (A) (A) (A) (A) (A) (A) (A) (A)
                 (A) (A) (A) (A) (A) (A) (A) (A) (A) (A) (A) (A)
                 (A) (A) (A) (A) (A) (A) (A) (A) (A) (A) (A) (A)
                 (A) (A) (A) (A) (A) (A) (A) (A) (A) (A) (A) (A)
                 (A) (A) (A) (A) (A) (A) (A) (A) (A) (A) (A) (A)
                 (A)
 The electronic state is 1-A.
 Alpha  occ. eigenvalues --  -19.22257 -19.22115 -19.19971 -19.19956 -19.18209
 Alpha  occ. eigenvalues --  -19.17134 -19.16630 -19.16459 -19.14957 -19.14411
 Alpha  occ. eigenvalues --  -19.13722 -10.34230 -10.32956 -10.31930 -10.28515
 Alpha  occ. eigenvalues --  -10.27422 -10.27101 -10.26895 -10.25898 -10.25173
 Alpha  occ. eigenvalues --  -10.24783 -10.24637 -10.22892 -10.22062 -10.21751
 Alpha  occ. eigenvalues --  -10.21704 -10.21218 -10.21083 -10.20930 -10.20923
 Alpha  occ. eigenvalues --  -10.20592 -10.20076 -10.19950 -10.17873  -1.13148
 Alpha  occ. eigenvalues --   -1.12651  -1.10606  -1.08120  -1.06584  -1.06531
 Alpha  occ. eigenvalues --   -1.04049  -1.04017  -1.03012  -1.01867  -1.01597
 Alpha  occ. eigenvalues --   -0.88187  -0.86335  -0.84795  -0.80877  -0.79511
 Alpha  occ. eigenvalues --   -0.77189  -0.76604  -0.75824  -0.74979  -0.72471
 Alpha  occ. eigenvalues --   -0.70434  -0.69063  -0.66943  -0.65986  -0.64771
 Alpha  occ. eigenvalues --   -0.64169  -0.63359  -0.61715  -0.59178  -0.58031
 Alpha  occ. eigenvalues --   -0.57293  -0.56001  -0.55027  -0.54357  -0.53481
 Alpha  occ. eigenvalues --   -0.52654  -0.52026  -0.51406  -0.50608  -0.49352
 Alpha  occ. eigenvalues --   -0.48923  -0.48722  -0.48653  -0.48173  -0.47744
 Alpha  occ. eigenvalues --   -0.47393  -0.46800  -0.46492  -0.45598  -0.44777
 Alpha  occ. eigenvalues --   -0.44416  -0.44176  -0.44057  -0.43803  -0.42902
 Alpha  occ. eigenvalues --   -0.42736  -0.42211  -0.41783  -0.41479  -0.41096
 Alpha  occ. eigenvalues --   -0.40540  -0.39965  -0.39629  -0.39255  -0.39097
 Alpha  occ. eigenvalues --   -0.38755  -0.38420  -0.37912  -0.37567  -0.37417
 Alpha  occ. eigenvalues --   -0.36403  -0.35832  -0.35768  -0.35190  -0.34874
 Alpha  occ. eigenvalues --   -0.34327  -0.34099  -0.33911  -0.33251  -0.31165
 Alpha  occ. eigenvalues --   -0.30801  -0.28983  -0.28546  -0.28535  -0.28373
 Alpha  occ. eigenvalues --   -0.27260  -0.26491  -0.26044  -0.23815  -0.21829
 Alpha virt. eigenvalues --   -0.04864  -0.04681  -0.03014  -0.02378   0.03562
 Alpha virt. eigenvalues --    0.04726   0.05053   0.06174   0.06215   0.07115
 Alpha virt. eigenvalues --    0.07489   0.09140   0.09717   0.10109   0.10842
 Alpha virt. eigenvalues --    0.11087   0.11713   0.12395   0.12729   0.13103
 Alpha virt. eigenvalues --    0.13807   0.14307   0.14751   0.15530   0.15672
 Alpha virt. eigenvalues --    0.15894   0.16192   0.16566   0.16772   0.16961
 Alpha virt. eigenvalues --    0.17365   0.17747   0.17896   0.18230   0.19092
 Alpha virt. eigenvalues --    0.19127   0.19783   0.20014   0.21064   0.21393
 Alpha virt. eigenvalues --    0.21714   0.22575   0.23489   0.23666   0.24475
 Alpha virt. eigenvalues --    0.25225   0.25807   0.26337   0.26905   0.27732
 Alpha virt. eigenvalues --    0.27851   0.28862   0.29652   0.31646   0.32060
 Alpha virt. eigenvalues --    0.32425   0.33306   0.34243   0.36100   0.37652
 Alpha virt. eigenvalues --    0.39177   0.39618   0.40073   0.40787   0.41881
 Alpha virt. eigenvalues --    0.43310   0.45690   0.47144   0.48340   0.48827
 Alpha virt. eigenvalues --    0.50155   0.50634   0.50939   0.51251   0.51879
 Alpha virt. eigenvalues --    0.52221   0.52517   0.52595   0.53123   0.53528
 Alpha virt. eigenvalues --    0.54477   0.55147   0.55531   0.55864   0.56004
 Alpha virt. eigenvalues --    0.56264   0.57280   0.57411   0.58402   0.58539
 Alpha virt. eigenvalues --    0.58968   0.60129   0.60625   0.61276   0.61490
 Alpha virt. eigenvalues --    0.61648   0.62652   0.63192   0.63765   0.64066
 Alpha virt. eigenvalues --    0.64778   0.65253   0.65745   0.66317   0.66557
 Alpha virt. eigenvalues --    0.67253   0.68339   0.68949   0.69208   0.69793
 Alpha virt. eigenvalues --    0.70789   0.70960   0.71522   0.71904   0.72192
 Alpha virt. eigenvalues --    0.73149   0.73679   0.74137   0.74488   0.75813
 Alpha virt. eigenvalues --    0.76201   0.76329   0.76931   0.77949   0.78499
 Alpha virt. eigenvalues --    0.78759   0.79556   0.80420   0.81491   0.81963
 Alpha virt. eigenvalues --    0.82900   0.83229   0.83500   0.84260   0.84424
 Alpha virt. eigenvalues --    0.85022   0.85658   0.86289   0.86575   0.87147
 Alpha virt. eigenvalues --    0.87536   0.87667   0.88494   0.88801   0.90383
 Alpha virt. eigenvalues --    0.90452   0.91170   0.91750   0.91982   0.92499
 Alpha virt. eigenvalues --    0.92987   0.93227   0.93760   0.93841   0.95395
 Alpha virt. eigenvalues --    0.95614   0.96267   0.96791   0.97267   0.97386
 Alpha virt. eigenvalues --    0.98189   0.98684   0.98824   0.99896   1.00278
 Alpha virt. eigenvalues --    1.00979   1.01343   1.01710   1.02540   1.03041
 Alpha virt. eigenvalues --    1.03543   1.04220   1.04931   1.05101   1.06051
 Alpha virt. eigenvalues --    1.07800   1.08403   1.10154   1.10566   1.11041
 Alpha virt. eigenvalues --    1.11696   1.12813   1.13829   1.15545   1.16153
 Alpha virt. eigenvalues --    1.16525   1.17142   1.18495   1.18531   1.19292
 Alpha virt. eigenvalues --    1.20786   1.21681   1.22944   1.23687   1.24241
 Alpha virt. eigenvalues --    1.25003   1.25229   1.26637   1.27585   1.29355
 Alpha virt. eigenvalues --    1.30144   1.30586   1.32066   1.34029   1.34100
 Alpha virt. eigenvalues --    1.34686   1.35258   1.35989   1.36705   1.37668
 Alpha virt. eigenvalues --    1.37984   1.38335   1.38386   1.39330   1.40661
 Alpha virt. eigenvalues --    1.42034   1.42570   1.42719   1.43357   1.44991
 Alpha virt. eigenvalues --    1.45579   1.45899   1.47365   1.49044   1.50894
 Alpha virt. eigenvalues --    1.51390   1.53488   1.55348   1.56713   1.58821
 Alpha virt. eigenvalues --    1.59578   1.61576   1.62088   1.63861   1.64683
 Alpha virt. eigenvalues --    1.65523   1.66200   1.66359   1.67130   1.68264
 Alpha virt. eigenvalues --    1.69321   1.69857   1.70123   1.70759   1.71138
 Alpha virt. eigenvalues --    1.71533   1.71594   1.72580   1.73552   1.73900
 Alpha virt. eigenvalues --    1.74097   1.74822   1.75421   1.76425   1.76919
 Alpha virt. eigenvalues --    1.77309   1.78056   1.79905   1.80752   1.80971
 Alpha virt. eigenvalues --    1.81328   1.81853   1.81999   1.82982   1.83343
 Alpha virt. eigenvalues --    1.83479   1.84309   1.84490   1.85417   1.86003
 Alpha virt. eigenvalues --    1.86470   1.87141   1.87844   1.88724   1.89616
 Alpha virt. eigenvalues --    1.89968   1.90419   1.91742   1.92118   1.92481
 Alpha virt. eigenvalues --    1.93549   1.93779   1.94641   1.95289   1.95568
 Alpha virt. eigenvalues --    1.96550   1.97546   1.98144   1.98688   1.99656
 Alpha virt. eigenvalues --    2.00622   2.01466   2.02429   2.03530   2.03610
 Alpha virt. eigenvalues --    2.03909   2.04936   2.05801   2.06321   2.06622
 Alpha virt. eigenvalues --    2.07280   2.08887   2.09632   2.09945   2.11084
 Alpha virt. eigenvalues --    2.11827   2.13747   2.15003   2.15256   2.17160
 Alpha virt. eigenvalues --    2.18661   2.19441   2.20326   2.21457   2.21897
 Alpha virt. eigenvalues --    2.23004   2.25152   2.25760   2.27663   2.28270
 Alpha virt. eigenvalues --    2.28320   2.29040   2.29251   2.29575   2.31276
 Alpha virt. eigenvalues --    2.32263   2.33163   2.33213   2.33813   2.34445
 Alpha virt. eigenvalues --    2.34790   2.35121   2.35702   2.38307   2.38957
 Alpha virt. eigenvalues --    2.40552   2.40861   2.41755   2.43247   2.43505
 Alpha virt. eigenvalues --    2.44965   2.45862   2.46602   2.47513   2.47784
 Alpha virt. eigenvalues --    2.48171   2.49162   2.50603   2.52391   2.54346
 Alpha virt. eigenvalues --    2.54587   2.55817   2.56668   2.56942   2.57749
 Alpha virt. eigenvalues --    2.58347   2.60405   2.61240   2.61815   2.64091
 Alpha virt. eigenvalues --    2.65710   2.66803   2.68593   2.69339   2.69766
 Alpha virt. eigenvalues --    2.69903   2.70603   2.71984   2.74013   2.75112
 Alpha virt. eigenvalues --    2.75806   2.77125   2.79232   2.79823   2.81542
 Alpha virt. eigenvalues --    2.84026   2.85023   2.86380   2.89869   2.90638
 Alpha virt. eigenvalues --    2.91586   2.93190   2.94350   2.96641   2.97159
 Alpha virt. eigenvalues --    2.99220   2.99496   3.02566   3.05449   3.07231
 Alpha virt. eigenvalues --    3.07753   3.09828   3.12072   3.13970   3.16398
 Alpha virt. eigenvalues --    3.22374   3.23186   3.43528   3.50074   3.78382
 Alpha virt. eigenvalues --    3.88463   3.91598   3.94854   3.96218   3.99819
 Alpha virt. eigenvalues --    4.05428   4.06387   4.07939   4.13703   4.17515
 Alpha virt. eigenvalues --    4.18092   4.18708   4.21440   4.24577   4.24924
 Alpha virt. eigenvalues --    4.25701   4.30878   4.32895   4.35033   4.37638
 Alpha virt. eigenvalues --    4.40703   4.43825   4.48091   4.51456   4.53016
 Alpha virt. eigenvalues --    4.55823   4.57145   4.59900   4.65114   4.71567
 Alpha virt. eigenvalues --    4.75113   4.80815   4.87931
          Condensed to atoms (all electrons):
 Mulliken atomic charges:
              1
     1  C    0.098245
     2  C    0.322362
     3  C   -0.307064
     4  C    0.138769
     5  C   -0.063499
     6  C    0.240378
     7  C    0.054171
     8  C    0.279136
     9  O   -0.497118
    10  C    0.597060
    11  C   -0.371557
    12  C    0.246618
    13  C   -0.304340
    14  C   -0.360994
    15  C   -0.517763
    16  O   -0.654573
    17  O   -0.633323
    18  O   -0.533159
    19  O   -0.551844
    20  C    0.127038
    21  C    0.094074
    22  C    0.105562
    23  C   -0.148363
    24  C    0.058321
    25  C   -0.366079
    26  O   -0.651990
    27  O   -0.635903
    28  C    0.596705
    29  O   -0.469876
    30  O   -0.487955
    31  C   -0.217287
    32  C    0.587932
    33  O   -0.568135
    34  O   -0.466636
    35  H    0.120744
    36  H    0.163830
    37  H    0.186747
    38  H    0.166742
    39  H    0.169340
    40  H    0.190040
    41  H    0.177283
    42  H    0.184932
    43  H    0.165688
    44  H    0.165842
    45  H    0.448478
    46  H    0.414018
    47  H    0.139353
    48  H    0.140787
    49  H    0.142604
    50  H    0.185701
    51  H    0.173701
    52  H    0.177233
    53  H    0.413543
    54  H    0.408784
    55  H    0.161534
    56  H    0.174574
    57  H    0.173986
    58  H    0.415602
 Sum of Mulliken atomic charges =   0.00000
 Mulliken charges with hydrogens summed into heavy atoms:
              1
     1  C    0.098245
     2  C    0.322362
     3  C   -0.186320
     4  C    0.138769
     5  C   -0.063499
     6  C    0.240378
     7  C    0.054171
     8  C    0.279136
     9  O   -0.497118
    10  C    0.597060
    11  C   -0.020980
    12  C    0.246618
    13  C    0.031743
    14  C    0.006328
    15  C   -0.001301
    16  O   -0.206095
    17  O   -0.219305
    18  O   -0.533159
    19  O   -0.551844
    20  C    0.266391
    21  C    0.234860
    22  C    0.248166
    23  C    0.037339
    24  C    0.058321
    25  C   -0.015145
    26  O   -0.238447
    27  O   -0.227119
    28  C    0.596705
    29  O   -0.469876
    30  O   -0.487955
    31  C    0.292807
    32  C    0.587932
    33  O   -0.152532
    34  O   -0.466636
 Sum of Mulliken charges with hydrogens summed into heavy atoms =   0.00000
 Electronic spatial extent (au):  <R**2>=          20025.3196
 Charge=              0.0000 electrons
 Dipole moment (field-independent basis, Debye):
    X=             -1.3810    Y=             -6.7558    Z=              0.0088  Tot=              6.8955
 Quadrupole moment (field-independent basis, Debye-Ang):
   XX=           -228.4746   YY=           -187.0503   ZZ=           -197.7524
   XY=              3.6657   XZ=             -8.8425   YZ=              7.2594
 Traceless Quadrupole moment (field-independent basis, Debye-Ang):
   XX=            -24.0488   YY=             17.3754   ZZ=              6.6734
   XY=              3.6657   XZ=             -8.8425   YZ=              7.2594
 Octapole moment (field-independent basis, Debye-Ang**2):
  XXX=            -75.2595  YYY=            -98.9434  ZZZ=             -7.8174  XYY=            -49.0437
  XXY=           -187.8088  XXZ=             24.2333  XZZ=              4.9535  YZZ=              1.1593
  YYZ=            -31.5862  XYZ=            -47.2558
 Hexadecapole moment (field-independent basis, Debye-Ang**3):
 XXXX=         -21518.2922 YYYY=          -3302.0326 ZZZZ=          -1910.4663 XXXY=            848.6898
 XXXZ=           -263.8329 YYYX=             90.0416 YYYZ=             46.5663 ZZZX=             43.4443
 ZZZY=             67.3959 XXYY=          -3879.5975 XXZZ=          -3781.8983 YYZZ=           -972.5054
 XXYZ=            119.9157 YYXZ=            -92.6107 ZZXY=             -2.8829
 N-N= 3.688878576412D+03 E-N=-1.139072837333D+04  KE= 1.703108831645D+03
 1\1\GINC-B0803\FOpt\RB3LYP\6-31G(d)\C23H24O11\CAOFEI\02-Feb-2021\0\\# 
 opt b3lyp/6-31g(d) geom=connectivity\\Title Card Required\\0,1\C,5.248
 6738774,-1.0698456337,2.7970746698\C,4.3250002379,-0.0678032687,3.1311
 684566\C,3.3233175618,0.3692796002,2.2550576007\C,3.2160700729,-0.1976
 474937,0.9845752238\C,4.1368337015,-1.2110066361,0.6080857579\C,5.1459
 945648,-1.6394188609,1.5206571653\C,2.2064571539,0.2010569104,0.014829
 1434\C,2.2035756719,-0.3847986129,-1.2030905118\O,3.0936206039,-1.3643
 73843,-1.5578684016\C,4.0684906728,-1.8171266529,-0.7001476021\C,1.194
 8771333,1.2741033962,0.3583942805\C,0.0007699789,1.3344335579,-0.61680
 62228\C,0.5020156695,1.2387984896,-2.0658245356\C,1.2419919722,-0.0805
 603875,-2.3115890757\C,6.3037000743,-1.5039374035,3.7804970526\O,6.022
 7254299,-2.5977537367,1.1816490363\O,4.4540470647,0.4696310007,4.37658
 33236\O,4.8074381019,-2.7026989875,-1.1255048149\O,-0.8343008535,0.233
 1637895,-0.2255951886\C,-1.999811286,-0.1064282602,-0.9941457377\C,-2.
 2379187044,-1.5910694251,-0.7142083556\C,-3.3765111163,-2.1203769568,-
 1.5808836999\C,-4.5780501376,-1.2266565142,-1.4852371802\C,-4.52102663
 ,0.0478565726,-1.0682673331\C,-3.2388644739,0.7183664586,-0.6105888284
 \O,-1.090879867,-2.3798163935,-1.0047919106\O,-3.7535980414,-3.4346973
 28,-1.1952874504\C,-5.8012439741,0.8167488826,-1.0391582579\O,-5.62048
 51665,2.0659733408,-0.5433888001\O,-6.8829366055,0.4003616128,-1.40206
 50045\C,-6.8070998945,2.8725418839,-0.4779389529\C,-0.7454436541,2.666
 2953862,-0.4048703345\O,-1.1442357278,2.8235724257,0.877931126\O,-0.95
 80505056,3.4936185478,-1.2633663077\H,2.6411937355,1.1511138327,2.5758
 650052\H,1.689139822,2.2559538011,0.3875732827\H,0.7829523939,1.104259
 5609,1.357880567\H,1.1754173308,2.085847395,-2.235935746\H,-0.31748378
 79,1.3658279729,-2.7778272439\H,0.536678951,-0.9170418911,-2.406702134
 \H,1.7949023506,-0.0351823104,-3.257101949\H,6.8922303531,-2.326361477
 7,3.3724172922\H,6.9811847034,-0.676305113,4.0232928279\H,5.8505868521
 ,-1.8278815275,4.7244780838\H,5.8026003176,-2.8838706766,0.256573576\H
 ,3.7667262189,1.1418426254,4.5061502627\H,-1.7910339718,0.0105376994,-
 2.065063512\H,-2.5265839893,-1.7107071279,0.3417485793\H,-3.0207734205
 ,-2.1275528703,-2.6281522505\H,-5.5330297402,-1.650384802,-1.783428728
 4\H,-3.1790968044,1.7232324773,-1.04002768\H,-3.2516688649,0.851991143
 6,0.4787972037\H,-0.3720216725,-2.0242179285,-0.4560547171\H,-2.936253
 5312,-3.9604340373,-1.2121648232\H,-6.4877726531,3.8308596217,-0.06696
 20626\H,-7.2363510112,3.0047700086,-1.4745677701\H,-7.5536240746,2.404
 5996132,0.169236011\H,-1.6130624023,3.6793185497,0.9140976156\\Version
 =EM64L-G09RevB.01\State=1-A\HF=-1718.3720195\RMSD=8.242e-09\RMSF=1.607
 e-06\Dipole=-0.4363435,2.4279276,1.1289576\Quadrupole=-19.7609483,8.01
 51821,11.7457662,-2.2158491,-2.9080886,5.0645075\PG=C01 [X(C23H24O11)]
 \\@


 THERE ARE PEOPLE SO ADDICTED TO EXAGERATING THEY
 CAN'T TELL THE TRUTH WITHOUT LYING. -- FORTUNE COOKIE
 Job cpu time:  0 days 13 hours  8 minutes 33.3 seconds.
 File lengths (MBytes):  RWF=    201 Int=      0 D2E=      0 Chk=     21 Scr=      1
 Normal termination of Gaussian 09 at Tue Feb  2 12:33:58 2021.
