 Entering Gaussian System, Link 0=g09
 Initial command:
 /public/software/g09/g09/l1.exe /tmp/Gau-8535.inp -scrdir=/tmp/
 Entering Link 1 = /public/software/g09/g09/l1.exe PID=      8536.
  
 Copyright (c) 1988,1990,1992,1993,1995,1998,2003,2009,2010,
            Gaussian, Inc.  All Rights Reserved.
  
 This is part of the Gaussian(R) 09 program.  It is based on
 the Gaussian(R) 03 system (copyright 2003, Gaussian, Inc.),
 the Gaussian(R) 98 system (copyright 1998, Gaussian, Inc.),
 the Gaussian(R) 94 system (copyright 1995, Gaussian, Inc.),
 the Gaussian 92(TM) system (copyright 1992, Gaussian, Inc.),
 the Gaussian 90(TM) system (copyright 1990, Gaussian, Inc.),
 the Gaussian 88(TM) system (copyright 1988, Gaussian, Inc.),
 the Gaussian 86(TM) system (copyright 1986, Carnegie Mellon
 University), and the Gaussian 82(TM) system (copyright 1983,
 Carnegie Mellon University). Gaussian is a federally registered
 trademark of Gaussian, Inc.
  
 This software contains proprietary and confidential information,
 including trade secrets, belonging to Gaussian, Inc.
  
 This software is provided under written license and may be
 used, copied, transmitted, or stored only in accord with that
 written license.
  
 The following legend is applicable only to US Government
 contracts under FAR:
  
                    RESTRICTED RIGHTS LEGEND
  
 Use, reproduction and disclosure by the US Government is
 subject to restrictions as set forth in subparagraphs (a)
 and (c) of the Commercial Computer Software - Restricted
 Rights clause in FAR 52.227-19.
  
 Gaussian, Inc.
 340 Quinnipiac St., Bldg. 40, Wallingford CT 06492
  
  
 ---------------------------------------------------------------
 Warning -- This program may not be used in any manner that
 competes with the business of Gaussian, Inc. or will provide
 assistance to any competitor of Gaussian, Inc.  The licensee
 of this program is prohibited from giving any competitor of
 Gaussian, Inc. access to this program.  By using this program,
 the user acknowledges that Gaussian, Inc. is engaged in the
 business of creating and licensing software in the field of
 computational chemistry and represents and warrants to the
 licensee that it is not a competitor of Gaussian, Inc. and that
 it will not use this program in any manner prohibited above.
 ---------------------------------------------------------------
  

 Cite this work as:
 Gaussian 09, Revision B.01,
 M. J. Frisch, G. W. Trucks, H. B. Schlegel, G. E. Scuseria, 
 M. A. Robb, J. R. Cheeseman, G. Scalmani, V. Barone, B. Mennucci, 
 G. A. Petersson, H. Nakatsuji, M. Caricato, X. Li, H. P. Hratchian, 
 A. F. Izmaylov, J. Bloino, G. Zheng, J. L. Sonnenberg, M. Hada, 
 M. Ehara, K. Toyota, R. Fukuda, J. Hasegawa, M. Ishida, T. Nakajima, 
 Y. Honda, O. Kitao, H. Nakai, T. Vreven, J. A. Montgomery, Jr., 
 J. E. Peralta, F. Ogliaro, M. Bearpark, J. J. Heyd, E. Brothers, 
 K. N. Kudin, V. N. Staroverov, T. Keith, R. Kobayashi, J. Normand, 
 K. Raghavachari, A. Rendell, J. C. Burant, S. S. Iyengar, J. Tomasi, 
 M. Cossi, N. Rega, J. M. Millam, M. Klene, J. E. Knox, J. B. Cross, 
 V. Bakken, C. Adamo, J. Jaramillo, R. Gomperts, R. E. Stratmann, 
 O. Yazyev, A. J. Austin, R. Cammi, C. Pomelli, J. W. Ochterski, 
 R. L. Martin, K. Morokuma, V. G. Zakrzewski, G. A. Voth, 
 P. Salvador, J. J. Dannenberg, S. Dapprich, A. D. Daniels, 
 O. Farkas, J. B. Foresman, J. V. Ortiz, J. Cioslowski, 
 and D. J. Fox, Gaussian, Inc., Wallingford CT, 2010.
 
 ******************************************
 Gaussian 09:  EM64L-G09RevB.01 12-Aug-2010
                 2-Feb-2021 
 ******************************************
 %mem=600MW
 %nprocshared=10
 Will use up to   10 processors via shared memory.
 --------------------------------------
 # opt b3lyp/6-31g(d) geom=connectivity
 --------------------------------------
 1/14=-1,18=20,19=15,26=3,38=1,57=2/1,3;
 2/9=110,12=2,17=6,18=5,40=1/2;
 3/5=1,6=6,7=1,11=2,16=1,25=1,30=1,71=1,74=-5/1,2,3;
 4//1;
 5/5=2,38=5/2;
 6/7=2,8=2,9=2,10=2,28=1/1;
 7//1,2,3,16;
 1/14=-1,18=20,19=15/3(2);
 2/9=110/2;
 99//99;
 2/9=110/2;
 3/5=1,6=6,7=1,11=2,16=1,25=1,30=1,71=1,74=-5/1,2,3;
 4/5=5,16=3/1;
 5/5=2,38=5/2;
 7//1,2,3,16;
 1/14=-1,18=20,19=15/3(-5);
 2/9=110/2;
 6/7=2,8=2,9=2,10=2,19=2,28=1/1;
 99/9=1/99;
 -------------------
 Title Card Required
 -------------------
 Symbolic Z-matrix:
 Charge =  0 Multiplicity = 1
 C                     3.66742  -3.69688   0.40892 
 C                     3.22421  -2.45811   0.88117 
 C                     2.04927  -1.87148   0.40478 
 C                     1.26806  -2.50301  -0.57215 
 C                     1.69221  -3.75054  -1.04786 
 C                     2.88224  -4.33766  -0.56266 
 C                     0.02802  -1.90324  -1.09503 
 C                    -0.68525  -2.61337  -1.98314 
 O                    -0.28275  -3.87572  -2.45743 
 C                     0.87737  -4.46323  -2.05734 
 C                    -0.4125   -0.52887  -0.64032 
 C                    -1.56197   0.10848  -1.45877 
 C                    -2.59979  -0.97801  -1.79643 
 C                    -1.99275  -2.15317  -2.55927 
 C                     4.93402  -4.3212    0.92618 
 O                     3.32449  -5.55938  -1.01275 
 O                     3.89495  -1.73931   1.83155 
 O                     1.24218  -5.5509   -2.49625 
 O                    -2.2786    1.08884  -0.67787 
 C                    -1.53853   2.24594  -0.23876 
 C                    -2.41328   3.48131  -0.51524 
 C                    -1.72729   4.76397  -0.01458 
 C                    -1.13595   4.62408   1.34881 
 C                    -0.93337   3.43413   1.9436 
 C                    -1.25547   2.12805   1.2708 
 O                    -2.65581   3.6238   -1.92568 
 O                    -2.68592   5.81838   0.02483 
 C                    -0.34183   3.42777   3.31057 
 O                    -0.41767   2.17982   3.83781 
 O                     0.13971   4.4056    3.86082 
 C                     0.12466   2.07512   5.15498 
 C                    -1.03987   0.7126   -2.7819 
 O                    -1.99393   1.3913   -3.45941 
 O                     0.09575   0.65214  -3.22235 
 H                     1.76662  -0.91012   0.82539 
 H                     0.4432    0.15767  -0.65598 
 H                    -0.72875  -0.61531   0.40755 
 H                    -3.43397  -0.55793  -2.37307 
 H                    -3.05276  -1.34311  -0.86355 
 H                    -2.71079  -2.98206  -2.55153 
 H                    -1.83744  -1.87948  -3.6098 
 H                     5.15564  -5.28901   0.46768 
 H                     5.78601  -3.66464   0.72046 
 H                     4.85627  -4.48577   2.00605 
 H                     2.69892  -5.90426  -1.68898 
 H                     4.70672  -2.20665   2.08544 
 H                    -0.60036   2.34126  -0.7994 
 H                    -3.40226   3.36284  -0.05396 
 H                    -0.94307   5.07707  -0.71411 
 H                    -0.86948   5.55115   1.85444 
 H                    -0.41951   1.43239   1.40613 
 H                    -2.1192    1.6701    1.77047 
 H                    -2.93576   2.7398   -2.2436 
 H                    -3.10436   5.81798  -0.85723 
 H                     0.01164   1.03906   5.48598 
 H                     1.19074   2.32304   5.15151 
 H                    -0.42275   2.72169   5.84804 
 H                    -1.52731   1.74702  -4.24757 
 

 GradGradGradGradGradGradGradGradGradGradGradGradGradGradGradGradGradGrad
 Berny optimization.
 Initialization pass.
                           ----------------------------
                           !    Initial Parameters    !
                           ! (Angstroms and Degrees)  !
 --------------------------                            --------------------------
 ! Name  Definition              Value          Derivative Info.                !
 --------------------------------------------------------------------------------
 ! R1    R(1,2)                  1.3979         estimate D2E/DX2                !
 ! R2    R(1,6)                  1.4039         estimate D2E/DX2                !
 ! R3    R(1,15)                 1.5039         estimate D2E/DX2                !
 ! R4    R(2,3)                  1.397          estimate D2E/DX2                !
 ! R5    R(2,17)                 1.3674         estimate D2E/DX2                !
 ! R6    R(3,4)                  1.4013         estimate D2E/DX2                !
 ! R7    R(3,35)                 1.0868         estimate D2E/DX2                !
 ! R8    R(4,5)                  1.4009         estimate D2E/DX2                !
 ! R9    R(4,7)                  1.4734         estimate D2E/DX2                !
 ! R10   R(5,6)                  1.4129         estimate D2E/DX2                !
 ! R11   R(5,10)                 1.4802         estimate D2E/DX2                !
 ! R12   R(6,16)                 1.3751         estimate D2E/DX2                !
 ! R13   R(7,8)                  1.3423         estimate D2E/DX2                !
 ! R14   R(7,11)                 1.5132         estimate D2E/DX2                !
 ! R15   R(8,9)                  1.4073         estimate D2E/DX2                !
 ! R16   R(8,14)                 1.5011         estimate D2E/DX2                !
 ! R17   R(9,10)                 1.3606         estimate D2E/DX2                !
 ! R18   R(10,18)                1.2283         estimate D2E/DX2                !
 ! R19   R(11,12)                1.5483         estimate D2E/DX2                !
 ! R20   R(11,36)                1.0972         estimate D2E/DX2                !
 ! R21   R(11,37)                1.098          estimate D2E/DX2                !
 ! R22   R(12,13)                1.54           estimate D2E/DX2                !
 ! R23   R(12,19)                1.4438         estimate D2E/DX2                !
 ! R24   R(12,32)                1.5454         estimate D2E/DX2                !
 ! R25   R(13,14)                1.5269         estimate D2E/DX2                !
 ! R26   R(13,38)                1.0976         estimate D2E/DX2                !
 ! R27   R(13,39)                1.0994         estimate D2E/DX2                !
 ! R28   R(14,40)                1.0967         estimate D2E/DX2                !
 ! R29   R(14,41)                1.0967         estimate D2E/DX2                !
 ! R30   R(15,42)                1.0936         estimate D2E/DX2                !
 ! R31   R(15,43)                1.0951         estimate D2E/DX2                !
 ! R32   R(15,44)                1.0951         estimate D2E/DX2                !
 ! R33   R(16,45)                0.9836         estimate D2E/DX2                !
 ! R34   R(17,46)                0.9705         estimate D2E/DX2                !
 ! R35   R(18,45)                1.7025         estimate D2E/DX2                !
 ! R36   R(19,20)                1.442          estimate D2E/DX2                !
 ! R37   R(20,21)                1.5388         estimate D2E/DX2                !
 ! R38   R(20,25)                1.5404         estimate D2E/DX2                !
 ! R39   R(20,47)                1.0971         estimate D2E/DX2                !
 ! R40   R(21,22)                1.5383         estimate D2E/DX2                !
 ! R41   R(21,26)                1.4382         estimate D2E/DX2                !
 ! R42   R(21,48)                1.0977         estimate D2E/DX2                !
 ! R43   R(22,23)                1.4927         estimate D2E/DX2                !
 ! R44   R(22,27)                1.4256         estimate D2E/DX2                !
 ! R45   R(22,49)                1.0965         estimate D2E/DX2                !
 ! R46   R(23,24)                1.3457         estimate D2E/DX2                !
 ! R47   R(23,50)                1.0891         estimate D2E/DX2                !
 ! R48   R(24,25)                1.5041         estimate D2E/DX2                !
 ! R49   R(24,28)                1.4895         estimate D2E/DX2                !
 ! R50   R(25,51)                1.0959         estimate D2E/DX2                !
 ! R51   R(25,52)                1.0979         estimate D2E/DX2                !
 ! R52   R(26,53)                0.9803         estimate D2E/DX2                !
 ! R53   R(27,54)                0.9763         estimate D2E/DX2                !
 ! R54   R(28,29)                1.3569         estimate D2E/DX2                !
 ! R55   R(28,30)                1.221          estimate D2E/DX2                !
 ! R56   R(29,31)                1.4283         estimate D2E/DX2                !
 ! R57   R(31,55)                1.0935         estimate D2E/DX2                !
 ! R58   R(31,56)                1.0945         estimate D2E/DX2                !
 ! R59   R(31,57)                1.0945         estimate D2E/DX2                !
 ! R60   R(32,33)                1.3527         estimate D2E/DX2                !
 ! R61   R(32,34)                1.2195         estimate D2E/DX2                !
 ! R62   R(33,58)                0.9826         estimate D2E/DX2                !
 ! A1    A(2,1,6)              117.4484         estimate D2E/DX2                !
 ! A2    A(2,1,15)             121.2473         estimate D2E/DX2                !
 ! A3    A(6,1,15)             121.3039         estimate D2E/DX2                !
 ! A4    A(1,2,3)              121.5733         estimate D2E/DX2                !
 ! A5    A(1,2,17)             123.0336         estimate D2E/DX2                !
 ! A6    A(3,2,17)             115.3929         estimate D2E/DX2                !
 ! A7    A(2,3,4)              121.1574         estimate D2E/DX2                !
 ! A8    A(2,3,35)             117.2734         estimate D2E/DX2                !
 ! A9    A(4,3,35)             121.5688         estimate D2E/DX2                !
 ! A10   A(3,4,5)              117.9882         estimate D2E/DX2                !
 ! A11   A(3,4,7)              122.2203         estimate D2E/DX2                !
 ! A12   A(5,4,7)              119.7898         estimate D2E/DX2                !
 ! A13   A(4,5,6)              120.5605         estimate D2E/DX2                !
 ! A14   A(4,5,10)             119.5829         estimate D2E/DX2                !
 ! A15   A(6,5,10)             119.8537         estimate D2E/DX2                !
 ! A16   A(1,6,5)              121.2673         estimate D2E/DX2                !
 ! A17   A(1,6,16)             116.8832         estimate D2E/DX2                !
 ! A18   A(5,6,16)             121.8492         estimate D2E/DX2                !
 ! A19   A(4,7,8)              117.8181         estimate D2E/DX2                !
 ! A20   A(4,7,11)             120.5375         estimate D2E/DX2                !
 ! A21   A(8,7,11)             121.6441         estimate D2E/DX2                !
 ! A22   A(7,8,9)              123.0631         estimate D2E/DX2                !
 ! A23   A(7,8,14)             123.6825         estimate D2E/DX2                !
 ! A24   A(9,8,14)             113.2518         estimate D2E/DX2                !
 ! A25   A(8,9,10)             122.1478         estimate D2E/DX2                !
 ! A26   A(5,10,9)             117.5187         estimate D2E/DX2                !
 ! A27   A(5,10,18)            120.4343         estimate D2E/DX2                !
 ! A28   A(9,10,18)            122.0422         estimate D2E/DX2                !
 ! A29   A(7,11,12)            115.5403         estimate D2E/DX2                !
 ! A30   A(7,11,36)            109.6939         estimate D2E/DX2                !
 ! A31   A(7,11,37)            107.4059         estimate D2E/DX2                !
 ! A32   A(12,11,36)           108.2931         estimate D2E/DX2                !
 ! A33   A(12,11,37)           108.8479         estimate D2E/DX2                !
 ! A34   A(36,11,37)           106.7103         estimate D2E/DX2                !
 ! A35   A(11,12,13)           109.014          estimate D2E/DX2                !
 ! A36   A(11,12,19)           111.2287         estimate D2E/DX2                !
 ! A37   A(11,12,32)           111.2647         estimate D2E/DX2                !
 ! A38   A(13,12,19)           105.2576         estimate D2E/DX2                !
 ! A39   A(13,12,32)           108.4063         estimate D2E/DX2                !
 ! A40   A(19,12,32)           111.4282         estimate D2E/DX2                !
 ! A41   A(12,13,14)           112.6199         estimate D2E/DX2                !
 ! A42   A(12,13,38)           110.9365         estimate D2E/DX2                !
 ! A43   A(12,13,39)           109.0196         estimate D2E/DX2                !
 ! A44   A(14,13,38)           109.5256         estimate D2E/DX2                !
 ! A45   A(14,13,39)           109.3983         estimate D2E/DX2                !
 ! A46   A(38,13,39)           105.0547         estimate D2E/DX2                !
 ! A47   A(8,14,13)            112.9856         estimate D2E/DX2                !
 ! A48   A(8,14,40)            109.6259         estimate D2E/DX2                !
 ! A49   A(8,14,41)            108.7124         estimate D2E/DX2                !
 ! A50   A(13,14,40)           108.535          estimate D2E/DX2                !
 ! A51   A(13,14,41)           110.0483         estimate D2E/DX2                !
 ! A52   A(40,14,41)           106.7451         estimate D2E/DX2                !
 ! A53   A(1,15,42)            113.1947         estimate D2E/DX2                !
 ! A54   A(1,15,43)            109.9828         estimate D2E/DX2                !
 ! A55   A(1,15,44)            109.9841         estimate D2E/DX2                !
 ! A56   A(42,15,43)           107.1073         estimate D2E/DX2                !
 ! A57   A(42,15,44)           107.1466         estimate D2E/DX2                !
 ! A58   A(43,15,44)           109.3035         estimate D2E/DX2                !
 ! A59   A(6,16,45)            109.3904         estimate D2E/DX2                !
 ! A60   A(2,17,46)            109.8151         estimate D2E/DX2                !
 ! A61   A(12,19,20)           117.054          estimate D2E/DX2                !
 ! A62   A(19,20,21)           107.3222         estimate D2E/DX2                !
 ! A63   A(19,20,25)           109.3488         estimate D2E/DX2                !
 ! A64   A(19,20,47)           110.67           estimate D2E/DX2                !
 ! A65   A(21,20,25)           109.998          estimate D2E/DX2                !
 ! A66   A(21,20,47)           108.9391         estimate D2E/DX2                !
 ! A67   A(25,20,47)           110.5065         estimate D2E/DX2                !
 ! A68   A(20,21,22)           110.9423         estimate D2E/DX2                !
 ! A69   A(20,21,26)           110.586          estimate D2E/DX2                !
 ! A70   A(20,21,48)           110.4894         estimate D2E/DX2                !
 ! A71   A(22,21,26)           108.1654         estimate D2E/DX2                !
 ! A72   A(22,21,48)           110.7931         estimate D2E/DX2                !
 ! A73   A(26,21,48)           105.7162         estimate D2E/DX2                !
 ! A74   A(21,22,23)           113.315          estimate D2E/DX2                !
 ! A75   A(21,22,27)           109.0165         estimate D2E/DX2                !
 ! A76   A(21,22,49)           110.449          estimate D2E/DX2                !
 ! A77   A(23,22,27)           108.0873         estimate D2E/DX2                !
 ! A78   A(23,22,49)           109.0338         estimate D2E/DX2                !
 ! A79   A(27,22,49)           106.7003         estimate D2E/DX2                !
 ! A80   A(22,23,24)           123.1095         estimate D2E/DX2                !
 ! A81   A(22,23,50)           116.1812         estimate D2E/DX2                !
 ! A82   A(24,23,50)           120.7093         estimate D2E/DX2                !
 ! A83   A(23,24,25)           122.542          estimate D2E/DX2                !
 ! A84   A(23,24,28)           117.9837         estimate D2E/DX2                !
 ! A85   A(25,24,28)           119.4632         estimate D2E/DX2                !
 ! A86   A(20,25,24)           114.2842         estimate D2E/DX2                !
 ! A87   A(20,25,51)           108.045          estimate D2E/DX2                !
 ! A88   A(20,25,52)           109.4728         estimate D2E/DX2                !
 ! A89   A(24,25,51)           109.4277         estimate D2E/DX2                !
 ! A90   A(24,25,52)           109.0923         estimate D2E/DX2                !
 ! A91   A(51,25,52)           106.207          estimate D2E/DX2                !
 ! A92   A(21,26,53)           106.0741         estimate D2E/DX2                !
 ! A93   A(22,27,54)           105.2442         estimate D2E/DX2                !
 ! A94   A(24,28,29)           109.7753         estimate D2E/DX2                !
 ! A95   A(24,28,30)           124.527          estimate D2E/DX2                !
 ! A96   A(29,28,30)           125.6973         estimate D2E/DX2                !
 ! A97   A(28,29,31)           113.8614         estimate D2E/DX2                !
 ! A98   A(29,31,55)           108.0204         estimate D2E/DX2                !
 ! A99   A(29,31,56)           110.5057         estimate D2E/DX2                !
 ! A100  A(29,31,57)           110.5322         estimate D2E/DX2                !
 ! A101  A(55,31,56)           108.4353         estimate D2E/DX2                !
 ! A102  A(55,31,57)           108.441          estimate D2E/DX2                !
 ! A103  A(56,31,57)           110.8137         estimate D2E/DX2                !
 ! A104  A(12,32,33)           112.7475         estimate D2E/DX2                !
 ! A105  A(12,32,34)           127.1883         estimate D2E/DX2                !
 ! A106  A(33,32,34)           120.0487         estimate D2E/DX2                !
 ! A107  A(32,33,58)           104.3857         estimate D2E/DX2                !
 ! D1    D(6,1,2,3)             -0.2825         estimate D2E/DX2                !
 ! D2    D(6,1,2,17)           179.6002         estimate D2E/DX2                !
 ! D3    D(15,1,2,3)           179.9528         estimate D2E/DX2                !
 ! D4    D(15,1,2,17)           -0.1645         estimate D2E/DX2                !
 ! D5    D(2,1,6,5)              0.2205         estimate D2E/DX2                !
 ! D6    D(2,1,6,16)          -179.5965         estimate D2E/DX2                !
 ! D7    D(15,1,6,5)           179.985          estimate D2E/DX2                !
 ! D8    D(15,1,6,16)            0.168          estimate D2E/DX2                !
 ! D9    D(2,1,15,42)          179.9716         estimate D2E/DX2                !
 ! D10   D(2,1,15,43)          -60.2701         estimate D2E/DX2                !
 ! D11   D(2,1,15,44)           60.1623         estimate D2E/DX2                !
 ! D12   D(6,1,15,42)            0.2161         estimate D2E/DX2                !
 ! D13   D(6,1,15,43)          119.9744         estimate D2E/DX2                !
 ! D14   D(6,1,15,44)         -119.5932         estimate D2E/DX2                !
 ! D15   D(1,2,3,4)             -0.1927         estimate D2E/DX2                !
 ! D16   D(1,2,3,35)           179.5886         estimate D2E/DX2                !
 ! D17   D(17,2,3,4)           179.9162         estimate D2E/DX2                !
 ! D18   D(17,2,3,35)           -0.3026         estimate D2E/DX2                !
 ! D19   D(1,2,17,46)            1.7003         estimate D2E/DX2                !
 ! D20   D(3,2,17,46)         -178.4103         estimate D2E/DX2                !
 ! D21   D(2,3,4,5)              0.7191         estimate D2E/DX2                !
 ! D22   D(2,3,4,7)           -179.7505         estimate D2E/DX2                !
 ! D23   D(35,3,4,5)          -179.0527         estimate D2E/DX2                !
 ! D24   D(35,3,4,7)             0.4777         estimate D2E/DX2                !
 ! D25   D(3,4,5,6)             -0.7751         estimate D2E/DX2                !
 ! D26   D(3,4,5,10)           178.6072         estimate D2E/DX2                !
 ! D27   D(7,4,5,6)            179.6827         estimate D2E/DX2                !
 ! D28   D(7,4,5,10)            -0.935          estimate D2E/DX2                !
 ! D29   D(3,4,7,8)           -176.9021         estimate D2E/DX2                !
 ! D30   D(3,4,7,11)             3.2949         estimate D2E/DX2                !
 ! D31   D(5,4,7,8)              2.62           estimate D2E/DX2                !
 ! D32   D(5,4,7,11)          -177.1829         estimate D2E/DX2                !
 ! D33   D(4,5,6,1)              0.3155         estimate D2E/DX2                !
 ! D34   D(4,5,6,16)          -179.8766         estimate D2E/DX2                !
 ! D35   D(10,5,6,1)          -179.0651         estimate D2E/DX2                !
 ! D36   D(10,5,6,16)            0.7428         estimate D2E/DX2                !
 ! D37   D(4,5,10,9)            -1.6            estimate D2E/DX2                !
 ! D38   D(4,5,10,18)          179.1817         estimate D2E/DX2                !
 ! D39   D(6,5,10,9)           177.7867         estimate D2E/DX2                !
 ! D40   D(6,5,10,18)           -1.4316         estimate D2E/DX2                !
 ! D41   D(1,6,16,45)         -179.709          estimate D2E/DX2                !
 ! D42   D(5,6,16,45)            0.4751         estimate D2E/DX2                !
 ! D43   D(4,7,8,9)             -1.8057         estimate D2E/DX2                !
 ! D44   D(4,7,8,14)           177.5615         estimate D2E/DX2                !
 ! D45   D(11,7,8,9)           177.995          estimate D2E/DX2                !
 ! D46   D(11,7,8,14)           -2.6379         estimate D2E/DX2                !
 ! D47   D(4,7,11,12)          168.2723         estimate D2E/DX2                !
 ! D48   D(4,7,11,36)           45.5534         estimate D2E/DX2                !
 ! D49   D(4,7,11,37)          -70.0577         estimate D2E/DX2                !
 ! D50   D(8,7,11,12)          -11.523          estimate D2E/DX2                !
 ! D51   D(8,7,11,36)         -134.2418         estimate D2E/DX2                !
 ! D52   D(8,7,11,37)          110.147          estimate D2E/DX2                !
 ! D53   D(7,8,9,10)            -0.8325         estimate D2E/DX2                !
 ! D54   D(14,8,9,10)          179.7406         estimate D2E/DX2                !
 ! D55   D(7,8,14,13)          -14.0828         estimate D2E/DX2                !
 ! D56   D(7,8,14,40)         -135.2713         estimate D2E/DX2                !
 ! D57   D(7,8,14,41)          108.3858         estimate D2E/DX2                !
 ! D58   D(9,8,14,13)          165.34           estimate D2E/DX2                !
 ! D59   D(9,8,14,40)           44.1514         estimate D2E/DX2                !
 ! D60   D(9,8,14,41)          -72.1914         estimate D2E/DX2                !
 ! D61   D(8,9,10,5)             2.5351         estimate D2E/DX2                !
 ! D62   D(8,9,10,18)         -178.26           estimate D2E/DX2                !
 ! D63   D(7,11,12,13)          40.2615         estimate D2E/DX2                !
 ! D64   D(7,11,12,19)         155.8859         estimate D2E/DX2                !
 ! D65   D(7,11,12,32)         -79.2425         estimate D2E/DX2                !
 ! D66   D(36,11,12,13)        163.7204         estimate D2E/DX2                !
 ! D67   D(36,11,12,19)        -80.6553         estimate D2E/DX2                !
 ! D68   D(36,11,12,32)         44.2163         estimate D2E/DX2                !
 ! D69   D(37,11,12,13)        -80.6315         estimate D2E/DX2                !
 ! D70   D(37,11,12,19)         34.9929         estimate D2E/DX2                !
 ! D71   D(37,11,12,32)        159.8645         estimate D2E/DX2                !
 ! D72   D(11,12,13,14)        -57.1674         estimate D2E/DX2                !
 ! D73   D(11,12,13,38)        179.665          estimate D2E/DX2                !
 ! D74   D(11,12,13,39)         64.4482         estimate D2E/DX2                !
 ! D75   D(19,12,13,14)       -176.5723         estimate D2E/DX2                !
 ! D76   D(19,12,13,38)         60.2601         estimate D2E/DX2                !
 ! D77   D(19,12,13,39)        -54.9567         estimate D2E/DX2                !
 ! D78   D(32,12,13,14)         64.0955         estimate D2E/DX2                !
 ! D79   D(32,12,13,38)        -59.0721         estimate D2E/DX2                !
 ! D80   D(32,12,13,39)       -174.2889         estimate D2E/DX2                !
 ! D81   D(11,12,19,20)         63.0397         estimate D2E/DX2                !
 ! D82   D(13,12,19,20)       -179.0399         estimate D2E/DX2                !
 ! D83   D(32,12,19,20)        -61.7401         estimate D2E/DX2                !
 ! D84   D(11,12,32,33)       -173.9433         estimate D2E/DX2                !
 ! D85   D(11,12,32,34)          4.6086         estimate D2E/DX2                !
 ! D86   D(13,12,32,33)         66.1916         estimate D2E/DX2                !
 ! D87   D(13,12,32,34)       -115.2565         estimate D2E/DX2                !
 ! D88   D(19,12,32,33)        -49.1836         estimate D2E/DX2                !
 ! D89   D(19,12,32,34)        129.3682         estimate D2E/DX2                !
 ! D90   D(12,13,14,8)          44.6017         estimate D2E/DX2                !
 ! D91   D(12,13,14,40)        166.4061         estimate D2E/DX2                !
 ! D92   D(12,13,14,41)        -77.1176         estimate D2E/DX2                !
 ! D93   D(38,13,14,8)         168.5531         estimate D2E/DX2                !
 ! D94   D(38,13,14,40)        -69.6425         estimate D2E/DX2                !
 ! D95   D(38,13,14,41)         46.8338         estimate D2E/DX2                !
 ! D96   D(39,13,14,8)         -76.7987         estimate D2E/DX2                !
 ! D97   D(39,13,14,40)         45.0057         estimate D2E/DX2                !
 ! D98   D(39,13,14,41)        161.4821         estimate D2E/DX2                !
 ! D99   D(12,19,20,21)        134.3877         estimate D2E/DX2                !
 ! D100  D(12,19,20,25)       -106.3242         estimate D2E/DX2                !
 ! D101  D(12,19,20,47)         15.6344         estimate D2E/DX2                !
 ! D102  D(19,20,21,22)        177.3131         estimate D2E/DX2                !
 ! D103  D(19,20,21,26)        -62.6653         estimate D2E/DX2                !
 ! D104  D(19,20,21,48)         54.0296         estimate D2E/DX2                !
 ! D105  D(25,20,21,22)         58.4425         estimate D2E/DX2                !
 ! D106  D(25,20,21,26)        178.4641         estimate D2E/DX2                !
 ! D107  D(25,20,21,48)        -64.841          estimate D2E/DX2                !
 ! D108  D(47,20,21,22)        -62.8231         estimate D2E/DX2                !
 ! D109  D(47,20,21,26)         57.1984         estimate D2E/DX2                !
 ! D110  D(47,20,21,48)        173.8934         estimate D2E/DX2                !
 ! D111  D(19,20,25,24)       -159.7063         estimate D2E/DX2                !
 ! D112  D(19,20,25,51)         78.236          estimate D2E/DX2                !
 ! D113  D(19,20,25,52)        -37.0128         estimate D2E/DX2                !
 ! D114  D(21,20,25,24)        -42.086          estimate D2E/DX2                !
 ! D115  D(21,20,25,51)       -164.1437         estimate D2E/DX2                !
 ! D116  D(21,20,25,52)         80.6075         estimate D2E/DX2                !
 ! D117  D(47,20,25,24)         78.2367         estimate D2E/DX2                !
 ! D118  D(47,20,25,51)        -43.8209         estimate D2E/DX2                !
 ! D119  D(47,20,25,52)       -159.0697         estimate D2E/DX2                !
 ! D120  D(20,21,22,23)        -45.0415         estimate D2E/DX2                !
 ! D121  D(20,21,22,27)       -165.4474         estimate D2E/DX2                !
 ! D122  D(20,21,22,49)         77.6222         estimate D2E/DX2                !
 ! D123  D(26,21,22,23)       -166.4948         estimate D2E/DX2                !
 ! D124  D(26,21,22,27)         73.0993         estimate D2E/DX2                !
 ! D125  D(26,21,22,49)        -43.8311         estimate D2E/DX2                !
 ! D126  D(48,21,22,23)         78.0672         estimate D2E/DX2                !
 ! D127  D(48,21,22,27)        -42.3388         estimate D2E/DX2                !
 ! D128  D(48,21,22,49)       -159.2691         estimate D2E/DX2                !
 ! D129  D(20,21,26,53)         48.1008         estimate D2E/DX2                !
 ! D130  D(22,21,26,53)        169.7741         estimate D2E/DX2                !
 ! D131  D(48,21,26,53)        -71.5109         estimate D2E/DX2                !
 ! D132  D(21,22,23,24)         15.141          estimate D2E/DX2                !
 ! D133  D(21,22,23,50)       -164.8109         estimate D2E/DX2                !
 ! D134  D(27,22,23,24)        136.0728         estimate D2E/DX2                !
 ! D135  D(27,22,23,50)        -43.8791         estimate D2E/DX2                !
 ! D136  D(49,22,23,24)       -108.3032         estimate D2E/DX2                !
 ! D137  D(49,22,23,50)         71.7449         estimate D2E/DX2                !
 ! D138  D(21,22,27,54)        -51.2297         estimate D2E/DX2                !
 ! D139  D(23,22,27,54)       -174.7999         estimate D2E/DX2                !
 ! D140  D(49,22,27,54)         68.0595         estimate D2E/DX2                !
 ! D141  D(22,23,24,25)          1.5387         estimate D2E/DX2                !
 ! D142  D(22,23,24,28)       -179.6841         estimate D2E/DX2                !
 ! D143  D(50,23,24,25)       -178.5116         estimate D2E/DX2                !
 ! D144  D(50,23,24,28)          0.2656         estimate D2E/DX2                !
 ! D145  D(23,24,25,20)         12.6574         estimate D2E/DX2                !
 ! D146  D(23,24,25,51)        133.955          estimate D2E/DX2                !
 ! D147  D(23,24,25,52)       -110.2428         estimate D2E/DX2                !
 ! D148  D(28,24,25,20)       -166.1024         estimate D2E/DX2                !
 ! D149  D(28,24,25,51)        -44.8048         estimate D2E/DX2                !
 ! D150  D(28,24,25,52)         70.9975         estimate D2E/DX2                !
 ! D151  D(23,24,28,29)        169.8055         estimate D2E/DX2                !
 ! D152  D(23,24,28,30)        -10.4052         estimate D2E/DX2                !
 ! D153  D(25,24,28,29)        -11.3784         estimate D2E/DX2                !
 ! D154  D(25,24,28,30)        168.4108         estimate D2E/DX2                !
 ! D155  D(24,28,29,31)       -179.8579         estimate D2E/DX2                !
 ! D156  D(30,28,29,31)          0.3559         estimate D2E/DX2                !
 ! D157  D(28,29,31,55)        179.7996         estimate D2E/DX2                !
 ! D158  D(28,29,31,56)        -61.7297         estimate D2E/DX2                !
 ! D159  D(28,29,31,57)         61.3069         estimate D2E/DX2                !
 ! D160  D(12,32,33,58)        177.8336         estimate D2E/DX2                !
 ! D161  D(34,32,33,58)         -0.8336         estimate D2E/DX2                !
 --------------------------------------------------------------------------------
 Trust Radius=3.00D-01 FncErr=1.00D-07 GrdErr=1.00D-06
 Number of steps in this run=    340 maximum allowed number of steps=    348.
 GradGradGradGradGradGradGradGradGradGradGradGradGradGradGradGradGradGrad

 Stoichiometry    C23H24O11
 Framework group  C1[X(C23H24O11)]
 Deg. of freedom   168
 Full point group                 C1      NOp   1
 Largest Abelian subgroup         C1      NOp   1
 Largest concise Abelian subgroup C1      NOp   1
                         Standard orientation:                         
 ---------------------------------------------------------------------
 Center     Atomic      Atomic             Coordinates (Angstroms)
 Number     Number       Type             X           Y           Z
 ---------------------------------------------------------------------
      1          6           0        4.616929    2.207839   -0.641260
      2          6           0        3.241535    2.455999   -0.667795
      3          6           0        2.313215    1.466681   -0.334571
      4          6           0        2.726447    0.180338    0.037005
      5          6           0        4.101982   -0.081597    0.079723
      6          6           0        5.035498    0.923196   -0.259748
      7          6           0        1.767742   -0.882079    0.387724
      8          6           0        2.261571   -2.062960    0.791987
      9          8           0        3.640460   -2.336421    0.858077
     10          6           0        4.578508   -1.419240    0.497574
     11          6           0        0.277920   -0.637400    0.286381
     12          6           0       -0.615005   -1.896758    0.405004
     13          6           0       -0.042040   -2.816819    1.498957
     14          6           0        1.406987   -3.216464    1.230609
     15          6           0        5.609837    3.278035   -1.002432
     16          8           0        6.391038    0.694369   -0.229417
     17          8           0        2.709123    3.666966   -1.014026
     18          8           0        5.780489   -1.670590    0.526260
     19          8           0       -1.944013   -1.554922    0.853730
     20          6           0       -2.728432   -0.704543   -0.007060
     21          6           0       -4.136918   -1.317635   -0.096729
     22          6           0       -5.067468   -0.435533   -0.946694
     23          6           0       -4.963112    1.017662   -0.622038
     24          6           0       -3.949827    1.540218    0.092796
     25          6           0       -2.806395    0.707366    0.603856
     26          8           0       -4.082983   -2.622706   -0.698682
     27          8           0       -6.416958   -0.841391   -0.731176
     28          6           0       -3.963411    3.006193    0.356057
     29          8           0       -3.006156    3.318146    1.265705
     30          8           0       -4.724717    3.798025   -0.177067
     31          6           0       -2.944645    4.708717    1.585944
     32          6           0       -0.652987   -2.684122   -0.924221
     33          8           0       -1.525993   -3.717040   -0.895552
     34          8           0       -0.019216   -2.448202   -1.939087
     35          1           0        1.261471    1.737686   -0.372268
     36          1           0        0.048609   -0.141006   -0.664830
     37          1           0        0.005746    0.066769    1.083610
     38          1           0       -0.656243   -3.719256    1.613805
     39          1           0       -0.105469   -2.302882    2.468802
     40          1           0        1.822579   -3.655832    2.145450
     41          1           0        1.445484   -3.995829    0.460056
     42          1           0        6.648443    2.941927   -0.936602
     43          1           0        5.443542    3.610588   -2.032492
     44          1           0        5.503164    4.131632   -0.324756
     45          1           0        6.559284   -0.234945    0.045591
     46          1           0        3.420164    4.282779   -1.252842
     47          1           0       -2.292830   -0.664458   -1.013146
     48          1           0       -4.554175   -1.470186    0.907020
     49          1           0       -4.861884   -0.579135   -2.014165
     50          1           0       -5.763997    1.652750   -0.998035
     51          1           0       -1.860402    1.220060    0.395666
     52          1           0       -2.878897    0.629837    1.696635
     53          1           0       -3.363589   -3.104214   -0.238760
     54          1           0       -6.420145   -1.807412   -0.872340
     55          1           0       -2.150105    4.851146    2.323631
     56          1           0       -2.699949    5.296712    0.695776
     57          1           0       -3.889411    5.043557    2.025633
     58          1           0       -1.477574   -4.102715   -1.797981
 ---------------------------------------------------------------------
 Rotational constants (GHZ):      0.1683801      0.0720137      0.0542733
 Standard basis: 6-31G(d) (6D, 7F)
 There are   558 symmetry adapted basis functions of A   symmetry.
 Integral buffers will be    131072 words long.
 Raffenetti 2 integral format.
 Two-electron integral symmetry is turned on.
   558 basis functions,  1048 primitive gaussians,   558 cartesian basis functions
   125 alpha electrons      125 beta electrons
       nuclear repulsion energy      3688.0522907032 Hartrees.
 NAtoms=   58 NActive=   58 NUniq=   58 SFac= 1.00D+00 NAtFMM=   50 NAOKFM=T Big=T
 One-electron integrals computed using PRISM.
 NBasis=   558 RedAO= T  NBF=   558
 NBsUse=   558 1.00D-06 NBFU=   558
 Harris functional with IExCor=  402 diagonalized for initial guess.
 ExpMin= 1.61D-01 ExpMax= 5.48D+03 ExpMxC= 8.25D+02 IAcc=1 IRadAn=         1 AccDes= 0.00D+00
 HarFok:  IExCor=  402 AccDes= 0.00D+00 IRadAn=         1 IDoV= 1
 ScaDFX=  1.000000  1.000000  1.000000  1.000000
 FoFCou: FMM=F IPFlag=           0 FMFlag=      100000 FMFlg1=        2001
         NFxFlg=           0 DoJE=T BraDBF=F KetDBF=T FulRan=T
         Omega=  0.000000  0.000000  1.000000  0.000000  0.000000 ICntrl=     500 IOpCl=  0
         NMat0=    1 NMatS0=    1 NMatT0=    0 NMatD0=    1 NMtDS0=    0 NMtDT0=    0
         I1Cent=           4 NGrid=           0.
 Petite list used in FoFCou.
 Initial guess orbital symmetries:
       Occupied  (A) (A) (A) (A) (A) (A) (A) (A) (A) (A) (A) (A)
                 (A) (A) (A) (A) (A) (A) (A) (A) (A) (A) (A) (A)
                 (A) (A) (A) (A) (A) (A) (A) (A) (A) (A) (A) (A)
                 (A) (A) (A) (A) (A) (A) (A) (A) (A) (A) (A) (A)
                 (A) (A) (A) (A) (A) (A) (A) (A) (A) (A) (A) (A)
                 (A) (A) (A) (A) (A) (A) (A) (A) (A) (A) (A) (A)
                 (A) (A) (A) (A) (A) (A) (A) (A) (A) (A) (A) (A)
                 (A) (A) (A) (A) (A) (A) (A) (A) (A) (A) (A) (A)
                 (A) (A) (A) (A) (A) (A) (A) (A) (A) (A) (A) (A)
                 (A) (A) (A) (A) (A) (A) (A) (A) (A) (A) (A) (A)
                 (A) (A) (A) (A) (A)
       Virtual   (A) (A) (A) (A) (A) (A) (A) (A) (A) (A) (A) (A)
                 (A) (A) (A) (A) (A) (A) (A) (A) (A) (A) (A) (A)
                 (A) (A) (A) (A) (A) (A) (A) (A) (A) (A) (A) (A)
                 (A) (A) (A) (A) (A) (A) (A) (A) (A) (A) (A) (A)
                 (A) (A) (A) (A) (A) (A) (A) (A) (A) (A) (A) (A)
                 (A) (A) (A) (A) (A) (A) (A) (A) (A) (A) (A) (A)
                 (A) (A) (A) (A) (A) (A) (A) (A) (A) (A) (A) (A)
                 (A) (A) (A) (A) (A) (A) (A) (A) (A) (A) (A) (A)
                 (A) (A) (A) (A) (A) (A) (A) (A) (A) (A) (A) (A)
                 (A) (A) (A) (A) (A) (A) (A) (A) (A) (A) (A) (A)
                 (A) (A) (A) (A) (A) (A) (A) (A) (A) (A) (A) (A)
                 (A) (A) (A) (A) (A) (A) (A) (A) (A) (A) (A) (A)
                 (A) (A) (A) (A) (A) (A) (A) (A) (A) (A) (A) (A)
                 (A) (A) (A) (A) (A) (A) (A) (A) (A) (A) (A) (A)
                 (A) (A) (A) (A) (A) (A) (A) (A) (A) (A) (A) (A)
                 (A) (A) (A) (A) (A) (A) (A) (A) (A) (A) (A) (A)
                 (A) (A) (A) (A) (A) (A) (A) (A) (A) (A) (A) (A)
                 (A) (A) (A) (A) (A) (A) (A) (A) (A) (A) (A) (A)
                 (A) (A) (A) (A) (A) (A) (A) (A) (A) (A) (A) (A)
                 (A) (A) (A) (A) (A) (A) (A) (A) (A) (A) (A) (A)
                 (A) (A) (A) (A) (A) (A) (A) (A) (A) (A) (A) (A)
                 (A) (A) (A) (A) (A) (A) (A) (A) (A) (A) (A) (A)
                 (A) (A) (A) (A) (A) (A) (A) (A) (A) (A) (A) (A)
                 (A) (A) (A) (A) (A) (A) (A) (A) (A) (A) (A) (A)
                 (A) (A) (A) (A) (A) (A) (A) (A) (A) (A) (A) (A)
                 (A) (A) (A) (A) (A) (A) (A) (A) (A) (A) (A) (A)
                 (A) (A) (A) (A) (A) (A) (A) (A) (A) (A) (A) (A)
                 (A) (A) (A) (A) (A) (A) (A) (A) (A) (A) (A) (A)
                 (A) (A) (A) (A) (A) (A) (A) (A) (A) (A) (A) (A)
                 (A) (A) (A) (A) (A) (A) (A) (A) (A) (A) (A) (A)
                 (A) (A) (A) (A) (A) (A) (A) (A) (A) (A) (A) (A)
                 (A) (A) (A) (A) (A) (A) (A) (A) (A) (A) (A) (A)
                 (A) (A) (A) (A) (A) (A) (A) (A) (A) (A) (A) (A)
                 (A) (A) (A) (A) (A) (A) (A) (A) (A) (A) (A) (A)
                 (A) (A) (A) (A) (A) (A) (A) (A) (A) (A) (A) (A)
                 (A) (A) (A) (A) (A) (A) (A) (A) (A) (A) (A) (A)
                 (A)
 The electronic state of the initial guess is 1-A.
 Requested convergence on RMS density matrix=1.00D-08 within 128 cycles.
 Requested convergence on MAX density matrix=1.00D-06.
 Requested convergence on             energy=1.00D-06.
 No special actions if energy rises.
 Integral accuracy reduced to 1.0D-05 until final iterations.
 Initial convergence to 1.0D-05 achieved.  Increase integral accuracy.
 SCF Done:  E(RB3LYP) =  -1718.35780068     A.U. after   15 cycles
             Convg  =    0.4147D-08             -V/T =  2.0091

 **********************************************************************

            Population analysis using the SCF density.

 **********************************************************************

 Orbital symmetries:
       Occupied  (A) (A) (A) (A) (A) (A) (A) (A) (A) (A) (A) (A)
                 (A) (A) (A) (A) (A) (A) (A) (A) (A) (A) (A) (A)
                 (A) (A) (A) (A) (A) (A) (A) (A) (A) (A) (A) (A)
                 (A) (A) (A) (A) (A) (A) (A) (A) (A) (A) (A) (A)
                 (A) (A) (A) (A) (A) (A) (A) (A) (A) (A) (A) (A)
                 (A) (A) (A) (A) (A) (A) (A) (A) (A) (A) (A) (A)
                 (A) (A) (A) (A) (A) (A) (A) (A) (A) (A) (A) (A)
                 (A) (A) (A) (A) (A) (A) (A) (A) (A) (A) (A) (A)
                 (A) (A) (A) (A) (A) (A) (A) (A) (A) (A) (A) (A)
                 (A) (A) (A) (A) (A) (A) (A) (A) (A) (A) (A) (A)
                 (A) (A) (A) (A) (A)
       Virtual   (A) (A) (A) (A) (A) (A) (A) (A) (A) (A) (A) (A)
                 (A) (A) (A) (A) (A) (A) (A) (A) (A) (A) (A) (A)
                 (A) (A) (A) (A) (A) (A) (A) (A) (A) (A) (A) (A)
                 (A) (A) (A) (A) (A) (A) (A) (A) (A) (A) (A) (A)
                 (A) (A) (A) (A) (A) (A) (A) (A) (A) (A) (A) (A)
                 (A) (A) (A) (A) (A) (A) (A) (A) (A) (A) (A) (A)
                 (A) (A) (A) (A) (A) (A) (A) (A) (A) (A) (A) (A)
                 (A) (A) (A) (A) (A) (A) (A) (A) (A) (A) (A) (A)
                 (A) (A) (A) (A) (A) (A) (A) (A) (A) (A) (A) (A)
                 (A) (A) (A) (A) (A) (A) (A) (A) (A) (A) (A) (A)
                 (A) (A) (A) (A) (A) (A) (A) (A) (A) (A) (A) (A)
                 (A) (A) (A) (A) (A) (A) (A) (A) (A) (A) (A) (A)
                 (A) (A) (A) (A) (A) (A) (A) (A) (A) (A) (A) (A)
                 (A) (A) (A) (A) (A) (A) (A) (A) (A) (A) (A) (A)
                 (A) (A) (A) (A) (A) (A) (A) (A) (A) (A) (A) (A)
                 (A) (A) (A) (A) (A) (A) (A) (A) (A) (A) (A) (A)
                 (A) (A) (A) (A) (A) (A) (A) (A) (A) (A) (A) (A)
                 (A) (A) (A) (A) (A) (A) (A) (A) (A) (A) (A) (A)
                 (A) (A) (A) (A) (A) (A) (A) (A) (A) (A) (A) (A)
                 (A) (A) (A) (A) (A) (A) (A) (A) (A) (A) (A) (A)
                 (A) (A) (A) (A) (A) (A) (A) (A) (A) (A) (A) (A)
                 (A) (A) (A) (A) (A) (A) (A) (A) (A) (A) (A) (A)
                 (A) (A) (A) (A) (A) (A) (A) (A) (A) (A) (A) (A)
                 (A) (A) (A) (A) (A) (A) (A) (A) (A) (A) (A) (A)
                 (A) (A) (A) (A) (A) (A) (A) (A) (A) (A) (A) (A)
                 (A) (A) (A) (A) (A) (A) (A) (A) (A) (A) (A) (A)
                 (A) (A) (A) (A) (A) (A) (A) (A) (A) (A) (A) (A)
                 (A) (A) (A) (A) (A) (A) (A) (A) (A) (A) (A) (A)
                 (A) (A) (A) (A) (A) (A) (A) (A) (A) (A) (A) (A)
                 (A) (A) (A) (A) (A) (A) (A) (A) (A) (A) (A) (A)
                 (A) (A) (A) (A) (A) (A) (A) (A) (A) (A) (A) (A)
                 (A) (A) (A) (A) (A) (A) (A) (A) (A) (A) (A) (A)
                 (A) (A) (A) (A) (A) (A) (A) (A) (A) (A) (A) (A)
                 (A) (A) (A) (A) (A) (A) (A) (A) (A) (A) (A) (A)
                 (A) (A) (A) (A) (A) (A) (A) (A) (A) (A) (A) (A)
                 (A) (A) (A) (A) (A) (A) (A) (A) (A) (A) (A) (A)
                 (A)
 The electronic state is 1-A.
 Alpha  occ. eigenvalues --  -19.22842 -19.22585 -19.20217 -19.19517 -19.18381
 Alpha  occ. eigenvalues --  -19.16996 -19.16561 -19.14658 -19.14444 -19.14393
 Alpha  occ. eigenvalues --  -19.13823 -10.34825 -10.33254 -10.31934 -10.29097
 Alpha  occ. eigenvalues --  -10.27437 -10.26755 -10.26650 -10.25900 -10.24734
 Alpha  occ. eigenvalues --  -10.24476 -10.24340 -10.22271 -10.22004 -10.21961
 Alpha  occ. eigenvalues --  -10.21846 -10.21763 -10.21309 -10.20659 -10.20608
 Alpha  occ. eigenvalues --  -10.20385 -10.20353 -10.19680 -10.19150  -1.13771
 Alpha  occ. eigenvalues --   -1.12120  -1.10609  -1.07475  -1.06168  -1.05347
 Alpha  occ. eigenvalues --   -1.03919  -1.02873  -1.02662  -1.01647  -1.00705
 Alpha  occ. eigenvalues --   -0.88124  -0.86374  -0.84673  -0.81105  -0.79016
 Alpha  occ. eigenvalues --   -0.77325  -0.76114  -0.75905  -0.74755  -0.72045
 Alpha  occ. eigenvalues --   -0.70827  -0.69730  -0.66435  -0.65656  -0.65099
 Alpha  occ. eigenvalues --   -0.64074  -0.62277  -0.61408  -0.59428  -0.58806
 Alpha  occ. eigenvalues --   -0.57073  -0.55644  -0.54817  -0.53961  -0.53566
 Alpha  occ. eigenvalues --   -0.52215  -0.51197  -0.51096  -0.50812  -0.50003
 Alpha  occ. eigenvalues --   -0.49221  -0.48935  -0.48490  -0.47818  -0.47713
 Alpha  occ. eigenvalues --   -0.47142  -0.46489  -0.45893  -0.45336  -0.44810
 Alpha  occ. eigenvalues --   -0.44695  -0.44264  -0.44124  -0.43445  -0.42911
 Alpha  occ. eigenvalues --   -0.42657  -0.42112  -0.41934  -0.41381  -0.40973
 Alpha  occ. eigenvalues --   -0.40487  -0.40095  -0.39858  -0.39629  -0.39273
 Alpha  occ. eigenvalues --   -0.38973  -0.38404  -0.37759  -0.37649  -0.37472
 Alpha  occ. eigenvalues --   -0.36239  -0.35880  -0.35193  -0.34943  -0.34909
 Alpha  occ. eigenvalues --   -0.34699  -0.34059  -0.33483  -0.32624  -0.31182
 Alpha  occ. eigenvalues --   -0.30826  -0.29077  -0.28131  -0.27880  -0.27740
 Alpha  occ. eigenvalues --   -0.26981  -0.26704  -0.25476  -0.23459  -0.21984
 Alpha virt. eigenvalues --   -0.04576  -0.04257  -0.03373  -0.02942   0.03597
 Alpha virt. eigenvalues --    0.04432   0.05473   0.05891   0.06173   0.06964
 Alpha virt. eigenvalues --    0.08868   0.09234   0.09662   0.10498   0.11021
 Alpha virt. eigenvalues --    0.11103   0.11714   0.12161   0.12403   0.12784
 Alpha virt. eigenvalues --    0.13561   0.13980   0.14296   0.14805   0.15107
 Alpha virt. eigenvalues --    0.15280   0.15870   0.16207   0.17015   0.17085
 Alpha virt. eigenvalues --    0.17301   0.17661   0.17858   0.18124   0.18692
 Alpha virt. eigenvalues --    0.18911   0.19158   0.20310   0.20680   0.20876
 Alpha virt. eigenvalues --    0.21521   0.22174   0.22956   0.23637   0.23973
 Alpha virt. eigenvalues --    0.24404   0.25113   0.26062   0.26211   0.27430
 Alpha virt. eigenvalues --    0.27815   0.28994   0.29385   0.31474   0.31920
 Alpha virt. eigenvalues --    0.32289   0.33141   0.33926   0.36778   0.38272
 Alpha virt. eigenvalues --    0.38792   0.39815   0.40748   0.41535   0.42078
 Alpha virt. eigenvalues --    0.43167   0.45274   0.46810   0.48122   0.49503
 Alpha virt. eigenvalues --    0.49719   0.50740   0.50787   0.51375   0.51611
 Alpha virt. eigenvalues --    0.51982   0.52336   0.52686   0.53490   0.54301
 Alpha virt. eigenvalues --    0.54479   0.54892   0.55864   0.55917   0.56222
 Alpha virt. eigenvalues --    0.56834   0.57246   0.57761   0.58257   0.58689
 Alpha virt. eigenvalues --    0.59352   0.59541   0.60622   0.60994   0.61765
 Alpha virt. eigenvalues --    0.62301   0.62740   0.63195   0.63686   0.64031
 Alpha virt. eigenvalues --    0.64807   0.65198   0.65508   0.65709   0.66619
 Alpha virt. eigenvalues --    0.66958   0.67727   0.68840   0.69333   0.70170
 Alpha virt. eigenvalues --    0.71021   0.71218   0.72024   0.72564   0.72654
 Alpha virt. eigenvalues --    0.73322   0.73870   0.74680   0.75024   0.75821
 Alpha virt. eigenvalues --    0.75982   0.76444   0.76654   0.77949   0.78319
 Alpha virt. eigenvalues --    0.79575   0.80369   0.81011   0.81599   0.82266
 Alpha virt. eigenvalues --    0.82839   0.83337   0.83759   0.84457   0.84634
 Alpha virt. eigenvalues --    0.84754   0.85055   0.85645   0.86148   0.86698
 Alpha virt. eigenvalues --    0.86911   0.87352   0.88409   0.88973   0.89599
 Alpha virt. eigenvalues --    0.90364   0.90660   0.91511   0.92094   0.92098
 Alpha virt. eigenvalues --    0.92756   0.93090   0.93355   0.93963   0.94459
 Alpha virt. eigenvalues --    0.94953   0.95807   0.96820   0.96967   0.97521
 Alpha virt. eigenvalues --    0.97870   0.98308   0.98987   0.99996   1.00323
 Alpha virt. eigenvalues --    1.00688   1.01279   1.01953   1.02239   1.03279
 Alpha virt. eigenvalues --    1.03926   1.04654   1.05238   1.05919   1.06651
 Alpha virt. eigenvalues --    1.07216   1.08393   1.09234   1.10634   1.11369
 Alpha virt. eigenvalues --    1.12278   1.12645   1.13391   1.14144   1.15036
 Alpha virt. eigenvalues --    1.16225   1.17725   1.18021   1.20538   1.21091
 Alpha virt. eigenvalues --    1.21601   1.22817   1.23238   1.23583   1.23811
 Alpha virt. eigenvalues --    1.25205   1.25337   1.26156   1.26686   1.27773
 Alpha virt. eigenvalues --    1.29833   1.30486   1.31825   1.33427   1.33576
 Alpha virt. eigenvalues --    1.34561   1.34787   1.35252   1.36579   1.36973
 Alpha virt. eigenvalues --    1.38188   1.38419   1.38889   1.39565   1.40629
 Alpha virt. eigenvalues --    1.41700   1.42762   1.43219   1.43775   1.44655
 Alpha virt. eigenvalues --    1.44803   1.45414   1.46603   1.47502   1.49395
 Alpha virt. eigenvalues --    1.50354   1.50920   1.53816   1.56307   1.59179
 Alpha virt. eigenvalues --    1.60051   1.61280   1.62571   1.63661   1.65068
 Alpha virt. eigenvalues --    1.65440   1.65953   1.66242   1.68090   1.68428
 Alpha virt. eigenvalues --    1.68580   1.70021   1.70589   1.70960   1.71054
 Alpha virt. eigenvalues --    1.71155   1.72445   1.73372   1.73593   1.73829
 Alpha virt. eigenvalues --    1.74201   1.75311   1.75599   1.77072   1.77670
 Alpha virt. eigenvalues --    1.78094   1.78360   1.79207   1.79798   1.80804
 Alpha virt. eigenvalues --    1.81048   1.81567   1.82679   1.83152   1.83233
 Alpha virt. eigenvalues --    1.83615   1.83913   1.84776   1.85652   1.86280
 Alpha virt. eigenvalues --    1.86833   1.87780   1.88167   1.88483   1.89387
 Alpha virt. eigenvalues --    1.89968   1.90147   1.90652   1.91696   1.92684
 Alpha virt. eigenvalues --    1.92943   1.93656   1.94431   1.94812   1.95816
 Alpha virt. eigenvalues --    1.96276   1.97104   1.98213   1.98632   2.00017
 Alpha virt. eigenvalues --    2.00499   2.01088   2.01912   2.02749   2.03733
 Alpha virt. eigenvalues --    2.03834   2.04832   2.05252   2.05817   2.06073
 Alpha virt. eigenvalues --    2.07177   2.08292   2.09140   2.10698   2.11618
 Alpha virt. eigenvalues --    2.12727   2.13433   2.13590   2.14061   2.16219
 Alpha virt. eigenvalues --    2.18083   2.18557   2.20077   2.21482   2.23246
 Alpha virt. eigenvalues --    2.24288   2.24645   2.26135   2.26382   2.27077
 Alpha virt. eigenvalues --    2.28305   2.28622   2.29323   2.30135   2.30433
 Alpha virt. eigenvalues --    2.30818   2.31478   2.32621   2.33497   2.34409
 Alpha virt. eigenvalues --    2.34816   2.35496   2.36801   2.37424   2.37760
 Alpha virt. eigenvalues --    2.39168   2.40794   2.42151   2.42319   2.42767
 Alpha virt. eigenvalues --    2.43011   2.44168   2.45838   2.46732   2.47755
 Alpha virt. eigenvalues --    2.48604   2.49426   2.50792   2.52719   2.52928
 Alpha virt. eigenvalues --    2.53613   2.53744   2.55855   2.56803   2.58394
 Alpha virt. eigenvalues --    2.58622   2.59472   2.60928   2.62296   2.64526
 Alpha virt. eigenvalues --    2.64616   2.66646   2.67144   2.67971   2.69737
 Alpha virt. eigenvalues --    2.70273   2.70451   2.71828   2.72764   2.74850
 Alpha virt. eigenvalues --    2.76094   2.77003   2.77836   2.80640   2.81272
 Alpha virt. eigenvalues --    2.83704   2.84815   2.86235   2.87740   2.89887
 Alpha virt. eigenvalues --    2.91226   2.93932   2.94551   2.96071   2.96933
 Alpha virt. eigenvalues --    2.99181   3.00438   3.01634   3.04926   3.05902
 Alpha virt. eigenvalues --    3.07555   3.11738   3.12297   3.14611   3.16824
 Alpha virt. eigenvalues --    3.22376   3.22899   3.41222   3.49749   3.76727
 Alpha virt. eigenvalues --    3.87864   3.95090   3.96560   3.96817   3.99165
 Alpha virt. eigenvalues --    4.05012   4.07345   4.09638   4.12005   4.16057
 Alpha virt. eigenvalues --    4.17090   4.20545   4.22864   4.24088   4.25061
 Alpha virt. eigenvalues --    4.27498   4.29280   4.33374   4.34867   4.36818
 Alpha virt. eigenvalues --    4.40612   4.43600   4.44404   4.51475   4.52859
 Alpha virt. eigenvalues --    4.54194   4.58820   4.62909   4.64724   4.72097
 Alpha virt. eigenvalues --    4.74651   4.78566   4.87939
          Condensed to atoms (all electrons):
 Mulliken atomic charges:
              1
     1  C    0.119382
     2  C    0.294204
     3  C   -0.268925
     4  C    0.126880
     5  C   -0.065231
     6  C    0.229501
     7  C    0.092094
     8  C    0.280171
     9  O   -0.515470
    10  C    0.637774
    11  C   -0.381037
    12  C    0.254528
    13  C   -0.307142
    14  C   -0.366419
    15  C   -0.576142
    16  O   -0.672192
    17  O   -0.643051
    18  O   -0.535335
    19  O   -0.547584
    20  C    0.094243
    21  C    0.101800
    22  C    0.101936
    23  C   -0.136137
    24  C    0.052931
    25  C   -0.348548
    26  O   -0.685799
    27  O   -0.639668
    28  C    0.600675
    29  O   -0.461020
    30  O   -0.489005
    31  C   -0.222204
    32  C    0.587943
    33  O   -0.574232
    34  O   -0.461988
    35  H    0.136048
    36  H    0.179952
    37  H    0.182562
    38  H    0.171612
    39  H    0.170914
    40  H    0.180949
    41  H    0.178035
    42  H    0.209333
    43  H    0.160570
    44  H    0.160351
    45  H    0.450319
    46  H    0.419650
    47  H    0.148422
    48  H    0.142602
    49  H    0.146536
    50  H    0.182313
    51  H    0.162287
    52  H    0.176158
    53  H    0.424109
    54  H    0.405049
    55  H    0.164204
    56  H    0.172878
    57  H    0.173244
    58  H    0.424973
 Sum of Mulliken atomic charges =   0.00000
 Mulliken charges with hydrogens summed into heavy atoms:
              1
     1  C    0.119382
     2  C    0.294204
     3  C   -0.132878
     4  C    0.126880
     5  C   -0.065231
     6  C    0.229501
     7  C    0.092094
     8  C    0.280171
     9  O   -0.515470
    10  C    0.637774
    11  C   -0.018523
    12  C    0.254528
    13  C    0.035384
    14  C   -0.007435
    15  C   -0.045889
    16  O   -0.221874
    17  O   -0.223402
    18  O   -0.535335
    19  O   -0.547584
    20  C    0.242665
    21  C    0.244403
    22  C    0.248472
    23  C    0.046176
    24  C    0.052931
    25  C   -0.010104
    26  O   -0.261689
    27  O   -0.234619
    28  C    0.600675
    29  O   -0.461020
    30  O   -0.489005
    31  C    0.288122
    32  C    0.587943
    33  O   -0.149259
    34  O   -0.461988
 Sum of Mulliken charges with hydrogens summed into heavy atoms =   0.00000
 Electronic spatial extent (au):  <R**2>=          18794.3211
 Charge=              0.0000 electrons
 Dipole moment (field-independent basis, Debye):
    X=              0.4193    Y=              0.1264    Z=              1.3145  Tot=              1.3855
 Quadrupole moment (field-independent basis, Debye-Ang):
   XX=           -242.0363   YY=           -172.0558   ZZ=           -190.5116
   XY=             27.1970   XZ=             -6.4021   YZ=              3.2338
 Traceless Quadrupole moment (field-independent basis, Debye-Ang):
   XX=            -40.5017   YY=             29.4787   ZZ=             11.0230
   XY=             27.1970   XZ=             -6.4021   YZ=              3.2338
 Octapole moment (field-independent basis, Debye-Ang**2):
  XXX=             23.7857  YYY=              2.7388  ZZZ=              2.4054  XYY=             36.6749
  XXY=             28.8405  XXZ=            -18.5202  XZZ=            -22.1183  YZZ=              0.3304
  YYZ=              3.6322  XYZ=            -45.3232
 Hexadecapole moment (field-independent basis, Debye-Ang**3):
 XXXX=         -18349.4206 YYYY=          -5830.5512 ZZZZ=          -1039.6936 XXXY=            881.5480
 XXXZ=           -214.3613 YYYX=            450.2725 YYYZ=            212.1024 ZZZX=             31.7433
 ZZZY=             37.9288 XXYY=          -3842.1953 XXZZ=          -2803.6133 YYZZ=          -1123.4391
 XXYZ=             75.5570 YYXZ=           -174.9622 ZZXY=             10.3043
 N-N= 3.688052290703D+03 E-N=-1.138910477873D+04  KE= 1.702873432859D+03
 Calling FoFJK, ICntrl=      2127 FMM=T ISym2X=0 I1Cent= 0 IOpClX= 0 NMat=1 NMatS=1 NMatT=0.
 ***** Axes restored to original set *****
 -------------------------------------------------------------------
 Center     Atomic                   Forces (Hartrees/Bohr)
 Number     Number              X              Y              Z
 -------------------------------------------------------------------
      1        6          -0.000299150   -0.007339227   -0.004891898
      2        6          -0.004600722    0.005719341    0.000511711
      3        6          -0.006729731    0.006401475   -0.001089298
      4        6           0.001515550    0.018984733    0.012830445
      5        6          -0.017032830   -0.010713589   -0.018286381
      6        6           0.009204520   -0.022617812   -0.007554208
      7        6           0.014153564   -0.007415883   -0.001327195
      8        6          -0.000739359   -0.009358690   -0.001920550
      9        8          -0.008721787    0.008543415   -0.000860915
     10        6           0.030410436    0.006686922    0.024778871
     11        6           0.002605441    0.001578878    0.000508013
     12        6          -0.006620534   -0.007678120    0.008269258
     13        6          -0.008084757   -0.000801667    0.002985711
     14        6           0.002601518   -0.006463829   -0.005939874
     15        6           0.000373240   -0.000320200    0.000109889
     16        8           0.002859801    0.018071074    0.013345550
     17        8           0.000621537   -0.004247646   -0.002396389
     18        8          -0.021464785    0.000684664   -0.014048006
     19        8           0.008418410   -0.003336453   -0.013749571
     20        6          -0.009923654    0.007746403    0.011986659
     21        6           0.006621940   -0.007381751   -0.016910436
     22        6          -0.013451860    0.002407622   -0.004500641
     23        6          -0.000214269   -0.004717043    0.004500981
     24        6           0.002838377    0.011698764   -0.006611352
     25        6           0.002081366   -0.007265358   -0.001389934
     26        8           0.002835407    0.000026272    0.004760062
     27        8          -0.005552443    0.004226991   -0.002025667
     28        6           0.000694196    0.008880567   -0.007543786
     29        8           0.003550778    0.005294947    0.005524244
     30        8          -0.004541147   -0.014771598    0.001571913
     31        6           0.002808773   -0.005582193    0.009712428
     32        6           0.017923529    0.006998048   -0.004550037
     33        8          -0.002416501   -0.003171314   -0.004490203
     34        8          -0.011607693   -0.005275928    0.011172015
     35        1           0.000754763   -0.001659785   -0.001150165
     36        1           0.000804605   -0.002927686   -0.000150164
     37        1          -0.003159308    0.003395203   -0.001758771
     38        1           0.003741423    0.001882139   -0.000001031
     39        1           0.005125722    0.003143786    0.001293823
     40        1           0.001468946   -0.001049619   -0.002081755
     41        1          -0.000708658   -0.001619580   -0.003015915
     42        1          -0.003945321    0.002651807   -0.001202084
     43        1           0.004059013    0.000478703    0.002442063
     44        1           0.003431528   -0.000009592    0.003172649
     45        1          -0.006118775    0.006088641   -0.000557412
     46        1          -0.000558956   -0.000581968   -0.000537497
     47        1          -0.000542604    0.000889835   -0.000634911
     48        1           0.004440220    0.000456566    0.011490260
     49        1           0.005346267   -0.006816219   -0.004669413
     50        1          -0.000830384   -0.002468412    0.000680517
     51        1          -0.001490252   -0.000199795    0.003369628
     52        1          -0.000259339   -0.001699227   -0.002600692
     53        1           0.001770368    0.007966024    0.001577824
     54        1           0.001979003    0.001235309    0.003479816
     55        1          -0.002277165   -0.000353469   -0.005119293
     56        1          -0.001679962    0.003402295    0.001052769
     57        1           0.003075452    0.002211773   -0.001092380
     58        1          -0.004543745    0.000091458    0.003530728
 -------------------------------------------------------------------
 Cartesian Forces:  Max     0.030410436 RMS     0.007315879

 GradGradGradGradGradGradGradGradGradGradGradGradGradGradGradGradGradGrad
 Berny optimization.
 Internal  Forces:  Max     0.027707614 RMS     0.004541239
 Search for a local minimum.
 Step number   1 out of a maximum of  340
 All quantities printed in internal units (Hartrees-Bohrs-Radians)
 Mixed Optimization -- RFO/linear search
 Second derivative matrix not updated -- first step.
 ITU=  0
     Eigenvalues ---    0.00230   0.00458   0.00495   0.00551   0.00587
     Eigenvalues ---    0.00691   0.00715   0.00905   0.01113   0.01136
     Eigenvalues ---    0.01176   0.01186   0.01218   0.01296   0.01297
     Eigenvalues ---    0.01317   0.01353   0.01365   0.01366   0.01421
     Eigenvalues ---    0.01510   0.01644   0.01720   0.01739   0.01802
     Eigenvalues ---    0.01906   0.01980   0.02022   0.02032   0.02097
     Eigenvalues ---    0.02106   0.02123   0.02123   0.02262   0.02317
     Eigenvalues ---    0.02761   0.03058   0.03320   0.03586   0.03998
     Eigenvalues ---    0.04351   0.04740   0.04846   0.04866   0.05186
     Eigenvalues ---    0.05269   0.05432   0.05753   0.05817   0.05855
     Eigenvalues ---    0.06336   0.06631   0.07053   0.07153   0.07319
     Eigenvalues ---    0.07332   0.08142   0.08238   0.08250   0.08397
     Eigenvalues ---    0.09481   0.09635   0.09785   0.09906   0.10107
     Eigenvalues ---    0.10159   0.10500   0.11920   0.12040   0.14505
     Eigenvalues ---    0.14730   0.16000   0.16000   0.16000   0.16000
     Eigenvalues ---    0.16000   0.16000   0.16000   0.16000   0.16000
     Eigenvalues ---    0.16000   0.16000   0.16000   0.16605   0.16715
     Eigenvalues ---    0.17054   0.18816   0.19373   0.20008   0.23008
     Eigenvalues ---    0.23526   0.24375   0.24987   0.24994   0.24994
     Eigenvalues ---    0.24996   0.24998   0.24999   0.25000   0.25000
     Eigenvalues ---    0.25000   0.25000   0.25000   0.25000   0.25000
     Eigenvalues ---    0.25000   0.25000   0.27232   0.27413   0.27613
     Eigenvalues ---    0.27673   0.27978   0.28047   0.28843   0.30621
     Eigenvalues ---    0.31294   0.31636   0.31974   0.32499   0.32662
     Eigenvalues ---    0.33506   0.33745   0.33909   0.33913   0.33941
     Eigenvalues ---    0.33944   0.33996   0.34008   0.34053   0.34055
     Eigenvalues ---    0.34069   0.34134   0.34229   0.34229   0.34293
     Eigenvalues ---    0.34293   0.34398   0.34410   0.34632   0.34917
     Eigenvalues ---    0.35191   0.38365   0.39073   0.39310   0.39831
     Eigenvalues ---    0.40832   0.41235   0.41630   0.43259   0.44379
     Eigenvalues ---    0.45200   0.45449   0.45933   0.49733   0.50224
     Eigenvalues ---    0.50699   0.50887   0.51335   0.51480   0.52113
     Eigenvalues ---    0.52702   0.53278   0.53584   0.53728   0.54444
     Eigenvalues ---    0.91576   0.94948   0.95588
 RFO step:  Lambda=-2.65685607D-02 EMin= 2.30000000D-03
 Linear search not attempted -- first point.
 Iteration  1 RMS(Cart)=  0.06566464 RMS(Int)=  0.00186747
 Iteration  2 RMS(Cart)=  0.00493664 RMS(Int)=  0.00038775
 Iteration  3 RMS(Cart)=  0.00000923 RMS(Int)=  0.00038771
 Iteration  4 RMS(Cart)=  0.00000001 RMS(Int)=  0.00038771
 Variable       Old X    -DE/DX   Delta X   Delta X   Delta X     New X
                                 (Linear)    (Quad)   (Total)
    R1        2.64156   0.00554   0.00000   0.01039   0.01068   2.65224
    R2        2.65307  -0.00151   0.00000  -0.00338  -0.00348   2.64959
    R3        2.84191   0.00369   0.00000   0.01066   0.01066   2.85257
    R4        2.63992   0.00149   0.00000   0.00229   0.00266   2.64258
    R5        2.58401  -0.00455   0.00000  -0.00840  -0.00840   2.57561
    R6        2.64798  -0.00535   0.00000  -0.01093  -0.01083   2.63715
    R7        2.05366  -0.00211   0.00000  -0.00557  -0.00557   2.04809
    R8        2.64732   0.01156   0.00000   0.02683   0.02622   2.67355
    R9        2.78428  -0.00972   0.00000  -0.02428  -0.02420   2.76008
   R10        2.67000   0.00126   0.00000   0.00486   0.00345   2.67346
   R11        2.79716  -0.01026   0.00000  -0.02543  -0.02663   2.77052
   R12        2.59847  -0.02771   0.00000  -0.05224  -0.05248   2.54600
   R13        2.53658   0.00350   0.00000   0.00667   0.00707   2.54365
   R14        2.85949  -0.00117   0.00000  -0.00259  -0.00257   2.85692
   R15        2.65941  -0.01994   0.00000  -0.04418  -0.04386   2.61555
   R16        2.83665  -0.00436   0.00000  -0.01085  -0.01087   2.82578
   R17        2.57108  -0.00267   0.00000  -0.00577  -0.00583   2.56525
   R18        2.32118  -0.00107   0.00000  -0.00131  -0.00120   2.31998
   R19        2.92595  -0.00271   0.00000  -0.01160  -0.01157   2.91438
   R20        2.07336  -0.00120   0.00000  -0.00328  -0.00328   2.07008
   R21        2.07483  -0.00104   0.00000  -0.00283  -0.00283   2.07200
   R22        2.91014  -0.00156   0.00000  -0.00544  -0.00548   2.90466
   R23        2.72833  -0.00543   0.00000  -0.01301  -0.01301   2.71532
   R24        2.92036  -0.00560   0.00000  -0.01824  -0.01824   2.90212
   R25        2.88541   0.00470   0.00000   0.01257   0.01257   2.89798
   R26        2.07425  -0.00212   0.00000  -0.00580  -0.00580   2.06845
   R27        2.07763  -0.00206   0.00000  -0.00565  -0.00565   2.07198
   R28        2.07241  -0.00018   0.00000  -0.00050  -0.00050   2.07192
   R29        2.07237   0.00238   0.00000   0.00649   0.00649   2.07886
   R30        2.06664  -0.00264   0.00000  -0.00713  -0.00713   2.05951
   R31        2.06946   0.00299   0.00000   0.00810   0.00810   2.07756
   R32        2.06945   0.00288   0.00000   0.00782   0.00782   2.07727
   R33        1.85882   0.00478   0.00000   0.00803   0.00901   1.86783
   R34        1.83395  -0.00033   0.00000  -0.00059  -0.00059   1.83336
   R35        3.21733   0.00331   0.00000   0.02678   0.02787   3.24520
   R36        2.72502   0.00478   0.00000   0.01139   0.01139   2.73641
   R37        2.90782  -0.00226   0.00000  -0.00543  -0.00549   2.90233
   R38        2.91090   0.00031   0.00000   0.00072   0.00075   2.91166
   R39        2.07316  -0.00006   0.00000  -0.00017  -0.00017   2.07299
   R40        2.90703  -0.00778   0.00000  -0.02423  -0.02421   2.88282
   R41        2.71784  -0.00620   0.00000  -0.01460  -0.01460   2.70324
   R42        2.07430   0.00078   0.00000   0.00213   0.00213   2.07643
   R43        2.82074   0.00286   0.00000   0.00788   0.00788   2.82862
   R44        2.69397   0.00648   0.00000   0.01464   0.01464   2.70861
   R45        2.07214   0.00486   0.00000   0.01322   0.01322   2.08536
   R46        2.54293  -0.00501   0.00000  -0.00913  -0.00913   2.53380
   R47        2.05809  -0.00199   0.00000  -0.00529  -0.00529   2.05280
   R48        2.84230   0.00595   0.00000   0.01620   0.01620   2.85850
   R49        2.81472   0.00442   0.00000   0.01223   0.01223   2.82696
   R50        2.07104  -0.00059   0.00000  -0.00161  -0.00161   2.06943
   R51        2.07477  -0.00027   0.00000  -0.00074  -0.00074   2.07403
   R52        1.85242  -0.00820   0.00000  -0.01519  -0.01519   1.83723
   R53        1.84491  -0.00399   0.00000  -0.00729  -0.00729   1.83762
   R54        2.56412  -0.00096   0.00000  -0.00171  -0.00171   2.56241
   R55        2.30733  -0.01291   0.00000  -0.01323  -0.01323   2.29410
   R56        2.69909   0.00496   0.00000   0.01129   0.01129   2.71038
   R57        2.06643  -0.00098   0.00000  -0.00264  -0.00264   2.06379
   R58        2.06838  -0.00087   0.00000  -0.00235  -0.00235   2.06603
   R59        2.06839  -0.00092   0.00000  -0.00250  -0.00250   2.06589
   R60        2.55629   0.00385   0.00000   0.00673   0.00673   2.56303
   R61        2.30460  -0.01458   0.00000  -0.01484  -0.01484   2.28975
   R62        1.85681  -0.00496   0.00000  -0.00926  -0.00926   1.84755
    A1        2.04986  -0.00051   0.00000  -0.00148  -0.00191   2.04795
    A2        2.11616  -0.00107   0.00000  -0.00404  -0.00383   2.11233
    A3        2.11715   0.00158   0.00000   0.00553   0.00575   2.12290
    A4        2.12186   0.00438   0.00000   0.01533   0.01536   2.13721
    A5        2.14734  -0.00735   0.00000  -0.02631  -0.02633   2.12101
    A6        2.01399   0.00297   0.00000   0.01098   0.01097   2.02496
    A7        2.11460  -0.00596   0.00000  -0.02230  -0.02246   2.09214
    A8        2.04681   0.00301   0.00000   0.01131   0.01140   2.05820
    A9        2.12178   0.00295   0.00000   0.01099   0.01107   2.13284
   A10        2.05928   0.00577   0.00000   0.02195   0.02153   2.08081
   A11        2.13315   0.00377   0.00000   0.00745   0.00826   2.14141
   A12        2.09073  -0.00954   0.00000  -0.02939  -0.02979   2.06094
   A13        2.10418  -0.00378   0.00000  -0.01462  -0.01377   2.09041
   A14        2.08712   0.00296   0.00000   0.01168   0.01256   2.09967
   A15        2.09184   0.00082   0.00000   0.00296   0.00122   2.09307
   A16        2.11651   0.00009   0.00000   0.00116   0.00128   2.11779
   A17        2.04000   0.00499   0.00000   0.01355   0.01530   2.05529
   A18        2.12667  -0.00508   0.00000  -0.01471  -0.01657   2.11010
   A19        2.05631   0.00369   0.00000   0.01475   0.01470   2.07101
   A20        2.10378  -0.00080   0.00000  -0.00566  -0.00565   2.09813
   A21        2.12309  -0.00288   0.00000  -0.00907  -0.00905   2.11404
   A22        2.14786   0.00209   0.00000   0.00381   0.00399   2.15184
   A23        2.15867   0.00699   0.00000   0.02999   0.02986   2.18853
   A24        1.97662  -0.00907   0.00000  -0.03374  -0.03381   1.94280
   A25        2.13188   0.00036   0.00000  -0.00232  -0.00276   2.12912
   A26        2.05109   0.00045   0.00000   0.00174   0.00156   2.05265
   A27        2.10197   0.02577   0.00000   0.09567   0.09450   2.19648
   A28        2.13004  -0.02622   0.00000  -0.09738  -0.09604   2.03400
   A29        2.01656  -0.00168   0.00000  -0.01441  -0.01441   2.00215
   A30        1.91452  -0.00154   0.00000  -0.01428  -0.01425   1.90027
   A31        1.87459   0.00379   0.00000   0.03107   0.03098   1.90557
   A32        1.89007   0.00294   0.00000   0.01780   0.01777   1.90784
   A33        1.89975  -0.00368   0.00000  -0.02468  -0.02454   1.87521
   A34        1.86245   0.00025   0.00000   0.00566   0.00579   1.86824
   A35        1.90265   0.00317   0.00000   0.01760   0.01749   1.92015
   A36        1.94131   0.00028   0.00000   0.01038   0.01030   1.95160
   A37        1.94194  -0.00222   0.00000  -0.01909  -0.01902   1.92291
   A38        1.83709  -0.00101   0.00000  -0.00373  -0.00387   1.83322
   A39        1.89205  -0.00081   0.00000  -0.00225  -0.00212   1.88993
   A40        1.94479   0.00073   0.00000  -0.00164  -0.00163   1.94316
   A41        1.96559   0.00078   0.00000  -0.00039  -0.00027   1.96531
   A42        1.93621  -0.00079   0.00000  -0.01485  -0.01484   1.92136
   A43        1.90275  -0.00442   0.00000  -0.03068  -0.03073   1.87202
   A44        1.91158  -0.00098   0.00000   0.00332   0.00316   1.91474
   A45        1.90936   0.00354   0.00000   0.02139   0.02127   1.93063
   A46        1.83355   0.00199   0.00000   0.02314   0.02273   1.85629
   A47        1.97197  -0.00616   0.00000  -0.02782  -0.02775   1.94422
   A48        1.91333   0.00125   0.00000  -0.00232  -0.00214   1.91119
   A49        1.89739   0.00131   0.00000   0.00861   0.00872   1.90611
   A50        1.89429   0.00323   0.00000   0.01771   0.01752   1.91181
   A51        1.92070   0.00284   0.00000   0.01784   0.01791   1.93861
   A52        1.86305  -0.00229   0.00000  -0.01347  -0.01363   1.84942
   A53        1.97562  -0.00756   0.00000  -0.04166  -0.04140   1.93422
   A54        1.91956   0.00493   0.00000   0.02699   0.02689   1.94645
   A55        1.91958   0.00487   0.00000   0.02670   0.02660   1.94619
   A56        1.86937   0.00092   0.00000   0.00378   0.00403   1.87340
   A57        1.87006   0.00096   0.00000   0.00409   0.00433   1.87439
   A58        1.90771  -0.00441   0.00000  -0.02137  -0.02179   1.88592
   A59        1.90922  -0.01929   0.00000  -0.09965  -0.10054   1.80868
   A60        1.91664  -0.00164   0.00000  -0.00881  -0.00881   1.90783
   A61        2.04298   0.01314   0.00000   0.04752   0.04752   2.09050
   A62        1.87313   0.00218   0.00000   0.01334   0.01340   1.88653
   A63        1.90850  -0.00108   0.00000  -0.00225  -0.00240   1.90610
   A64        1.93156  -0.00040   0.00000  -0.00709  -0.00710   1.92446
   A65        1.91983   0.00095   0.00000   0.00779   0.00765   1.92748
   A66        1.90135  -0.00151   0.00000  -0.00713  -0.00710   1.89424
   A67        1.92870  -0.00008   0.00000  -0.00408  -0.00400   1.92470
   A68        1.93631   0.00457   0.00000   0.01884   0.01907   1.95538
   A69        1.93009   0.00613   0.00000   0.04051   0.04070   1.97079
   A70        1.92840  -0.00430   0.00000  -0.02747  -0.02839   1.90001
   A71        1.88784  -0.00990   0.00000  -0.05136  -0.05155   1.83630
   A72        1.93370  -0.00217   0.00000  -0.03820  -0.03796   1.89575
   A73        1.84510   0.00561   0.00000   0.05903   0.05829   1.90339
   A74        1.97772  -0.00278   0.00000  -0.01195  -0.01219   1.96553
   A75        1.90270   0.00478   0.00000   0.02439   0.02450   1.92720
   A76        1.92770  -0.00440   0.00000  -0.03970  -0.03998   1.88772
   A77        1.88648  -0.00169   0.00000  -0.00229  -0.00217   1.88431
   A78        1.90300   0.00250   0.00000   0.00307   0.00228   1.90528
   A79        1.86227   0.00192   0.00000   0.03000   0.03030   1.89257
   A80        2.14867   0.00201   0.00000   0.00978   0.00976   2.15843
   A81        2.02775   0.00060   0.00000   0.00373   0.00373   2.03148
   A82        2.10677  -0.00261   0.00000  -0.01351  -0.01350   2.09328
   A83        2.13876   0.00102   0.00000   0.00389   0.00384   2.14260
   A84        2.05920  -0.00192   0.00000  -0.00700  -0.00702   2.05218
   A85        2.08503   0.00092   0.00000   0.00339   0.00336   2.08839
   A86        1.99464  -0.00421   0.00000  -0.01565  -0.01562   1.97902
   A87        1.88574   0.00354   0.00000   0.02592   0.02598   1.91172
   A88        1.91066  -0.00103   0.00000  -0.01657  -0.01649   1.89417
   A89        1.90987   0.00014   0.00000  -0.00193  -0.00184   1.90804
   A90        1.90402   0.00321   0.00000   0.01839   0.01818   1.92220
   A91        1.85366  -0.00150   0.00000  -0.00998  -0.00987   1.84379
   A92        1.85134   0.00234   0.00000   0.01254   0.01254   1.86388
[...]
     52          1           0       -3.108093    0.472711    1.760197
     53          1           0       -3.168741   -3.200188   -0.268671
     54          1           0       -6.070932   -2.158682   -1.447746
     55          1           0       -2.798808    4.841838    2.406604
     56          1           0       -3.563481    5.299207    0.847234
     57          1           0       -4.582960    4.779816    2.208778
     58          1           0       -1.059210   -4.138726   -1.673518
 ---------------------------------------------------------------------
 Rotational constants (GHZ):      0.1711586      0.0692643      0.0536750

 **********************************************************************

            Population analysis using the SCF density.

 **********************************************************************

 Orbital symmetries:
       Occupied  (A) (A) (A) (A) (A) (A) (A) (A) (A) (A) (A) (A)
                 (A) (A) (A) (A) (A) (A) (A) (A) (A) (A) (A) (A)
                 (A) (A) (A) (A) (A) (A) (A) (A) (A) (A) (A) (A)
                 (A) (A) (A) (A) (A) (A) (A) (A) (A) (A) (A) (A)
                 (A) (A) (A) (A) (A) (A) (A) (A) (A) (A) (A) (A)
                 (A) (A) (A) (A) (A) (A) (A) (A) (A) (A) (A) (A)
                 (A) (A) (A) (A) (A) (A) (A) (A) (A) (A) (A) (A)
                 (A) (A) (A) (A) (A) (A) (A) (A) (A) (A) (A) (A)
                 (A) (A) (A) (A) (A) (A) (A) (A) (A) (A) (A) (A)
                 (A) (A) (A) (A) (A) (A) (A) (A) (A) (A) (A) (A)
                 (A) (A) (A) (A) (A)
       Virtual   (A) (A) (A) (A) (A) (A) (A) (A) (A) (A) (A) (A)
                 (A) (A) (A) (A) (A) (A) (A) (A) (A) (A) (A) (A)
                 (A) (A) (A) (A) (A) (A) (A) (A) (A) (A) (A) (A)
                 (A) (A) (A) (A) (A) (A) (A) (A) (A) (A) (A) (A)
                 (A) (A) (A) (A) (A) (A) (A) (A) (A) (A) (A) (A)
                 (A) (A) (A) (A) (A) (A) (A) (A) (A) (A) (A) (A)
                 (A) (A) (A) (A) (A) (A) (A) (A) (A) (A) (A) (A)
                 (A) (A) (A) (A) (A) (A) (A) (A) (A) (A) (A) (A)
                 (A) (A) (A) (A) (A) (A) (A) (A) (A) (A) (A) (A)
                 (A) (A) (A) (A) (A) (A) (A) (A) (A) (A) (A) (A)
                 (A) (A) (A) (A) (A) (A) (A) (A) (A) (A) (A) (A)
                 (A) (A) (A) (A) (A) (A) (A) (A) (A) (A) (A) (A)
                 (A) (A) (A) (A) (A) (A) (A) (A) (A) (A) (A) (A)
                 (A) (A) (A) (A) (A) (A) (A) (A) (A) (A) (A) (A)
                 (A) (A) (A) (A) (A) (A) (A) (A) (A) (A) (A) (A)
                 (A) (A) (A) (A) (A) (A) (A) (A) (A) (A) (A) (A)
                 (A) (A) (A) (A) (A) (A) (A) (A) (A) (A) (A) (A)
                 (A) (A) (A) (A) (A) (A) (A) (A) (A) (A) (A) (A)
                 (A) (A) (A) (A) (A) (A) (A) (A) (A) (A) (A) (A)
                 (A) (A) (A) (A) (A) (A) (A) (A) (A) (A) (A) (A)
                 (A) (A) (A) (A) (A) (A) (A) (A) (A) (A) (A) (A)
                 (A) (A) (A) (A) (A) (A) (A) (A) (A) (A) (A) (A)
                 (A) (A) (A) (A) (A) (A) (A) (A) (A) (A) (A) (A)
                 (A) (A) (A) (A) (A) (A) (A) (A) (A) (A) (A) (A)
                 (A) (A) (A) (A) (A) (A) (A) (A) (A) (A) (A) (A)
                 (A) (A) (A) (A) (A) (A) (A) (A) (A) (A) (A) (A)
                 (A) (A) (A) (A) (A) (A) (A) (A) (A) (A) (A) (A)
                 (A) (A) (A) (A) (A) (A) (A) (A) (A) (A) (A) (A)
                 (A) (A) (A) (A) (A) (A) (A) (A) (A) (A) (A) (A)
                 (A) (A) (A) (A) (A) (A) (A) (A) (A) (A) (A) (A)
                 (A) (A) (A) (A) (A) (A) (A) (A) (A) (A) (A) (A)
                 (A) (A) (A) (A) (A) (A) (A) (A) (A) (A) (A) (A)
                 (A) (A) (A) (A) (A) (A) (A) (A) (A) (A) (A) (A)
                 (A) (A) (A) (A) (A) (A) (A) (A) (A) (A) (A) (A)
                 (A) (A) (A) (A) (A) (A) (A) (A) (A) (A) (A) (A)
                 (A) (A) (A) (A) (A) (A) (A) (A) (A) (A) (A) (A)
                 (A)
 The electronic state is 1-A.
 Alpha  occ. eigenvalues --  -19.22398 -19.22152 -19.19676 -19.19674 -19.17986
 Alpha  occ. eigenvalues --  -19.17381 -19.16740 -19.15758 -19.14699 -19.14363
 Alpha  occ. eigenvalues --  -19.13459 -10.34240 -10.32884 -10.31665 -10.28276
 Alpha  occ. eigenvalues --  -10.27256 -10.27089 -10.26991 -10.25586 -10.24833
 Alpha  occ. eigenvalues --  -10.24358 -10.24352 -10.22565 -10.21656 -10.21577
 Alpha  occ. eigenvalues --  -10.21399 -10.21244 -10.21099 -10.20775 -10.20660
 Alpha  occ. eigenvalues --  -10.20426 -10.20417 -10.19958 -10.19270  -1.13211
 Alpha  occ. eigenvalues --   -1.12569  -1.10335  -1.07937  -1.06746  -1.06175
 Alpha  occ. eigenvalues --   -1.04212  -1.03620  -1.02954  -1.01479  -1.01326
 Alpha  occ. eigenvalues --   -0.88016  -0.86288  -0.84719  -0.81027  -0.78859
 Alpha  occ. eigenvalues --   -0.77178  -0.76388  -0.76144  -0.74606  -0.72158
 Alpha  occ. eigenvalues --   -0.70894  -0.69285  -0.66505  -0.66121  -0.65230
 Alpha  occ. eigenvalues --   -0.64042  -0.62182  -0.61536  -0.59195  -0.58568
 Alpha  occ. eigenvalues --   -0.57386  -0.55748  -0.55081  -0.53947  -0.53693
 Alpha  occ. eigenvalues --   -0.52291  -0.51302  -0.51181  -0.50807  -0.50022
 Alpha  occ. eigenvalues --   -0.49246  -0.48565  -0.48443  -0.47987  -0.47610
 Alpha  occ. eigenvalues --   -0.47002  -0.46479  -0.45733  -0.45150  -0.44755
 Alpha  occ. eigenvalues --   -0.44492  -0.44165  -0.44002  -0.43525  -0.43119
 Alpha  occ. eigenvalues --   -0.42399  -0.42020  -0.41742  -0.41364  -0.41083
 Alpha  occ. eigenvalues --   -0.40583  -0.40179  -0.39902  -0.39787  -0.39365
 Alpha  occ. eigenvalues --   -0.39221  -0.38659  -0.37780  -0.37608  -0.37579
 Alpha  occ. eigenvalues --   -0.36149  -0.35705  -0.35548  -0.35331  -0.35125
 Alpha  occ. eigenvalues --   -0.34506  -0.33971  -0.33692  -0.32745  -0.31203
 Alpha  occ. eigenvalues --   -0.30519  -0.28850  -0.28549  -0.28184  -0.27944
 Alpha  occ. eigenvalues --   -0.26947  -0.26580  -0.25669  -0.23585  -0.21927
 Alpha virt. eigenvalues --   -0.04775  -0.04426  -0.02965  -0.02512   0.03727
 Alpha virt. eigenvalues --    0.04641   0.05590   0.06160   0.06734   0.07334
 Alpha virt. eigenvalues --    0.08769   0.09601   0.10258   0.10812   0.11165
 Alpha virt. eigenvalues --    0.11239   0.11982   0.12536   0.12828   0.13299
 Alpha virt. eigenvalues --    0.13797   0.13965   0.14381   0.15098   0.15446
 Alpha virt. eigenvalues --    0.15861   0.16033   0.16259   0.16978   0.17064
 Alpha virt. eigenvalues --    0.17496   0.17591   0.17861   0.18479   0.18792
 Alpha virt. eigenvalues --    0.19071   0.19416   0.20351   0.20772   0.20979
 Alpha virt. eigenvalues --    0.22187   0.22759   0.23094   0.23749   0.24797
 Alpha virt. eigenvalues --    0.25115   0.25341   0.25935   0.26748   0.27643
 Alpha virt. eigenvalues --    0.28853   0.29509   0.29954   0.31329   0.31577
 Alpha virt. eigenvalues --    0.32643   0.33163   0.33923   0.36671   0.37910
 Alpha virt. eigenvalues --    0.39001   0.39965   0.40431   0.41102   0.42275
 Alpha virt. eigenvalues --    0.43508   0.45386   0.46654   0.47599   0.49232
 Alpha virt. eigenvalues --    0.50041   0.50571   0.50841   0.51566   0.51576
 Alpha virt. eigenvalues --    0.51900   0.52485   0.52941   0.53579   0.53860
 Alpha virt. eigenvalues --    0.54344   0.54999   0.55971   0.56008   0.56233
 Alpha virt. eigenvalues --    0.56576   0.57311   0.58106   0.58273   0.58704
 Alpha virt. eigenvalues --    0.59450   0.59860   0.60767   0.61109   0.61236
 Alpha virt. eigenvalues --    0.62232   0.62660   0.63201   0.63672   0.63839
 Alpha virt. eigenvalues --    0.64466   0.65493   0.65745   0.65930   0.66509
 Alpha virt. eigenvalues --    0.67057   0.67836   0.68965   0.69491   0.69791
 Alpha virt. eigenvalues --    0.71104   0.71264   0.71769   0.72314   0.72391
 Alpha virt. eigenvalues --    0.73339   0.73694   0.74130   0.75105   0.75568
 Alpha virt. eigenvalues --    0.75937   0.76479   0.76588   0.78423   0.78773
 Alpha virt. eigenvalues --    0.79969   0.80863   0.81115   0.81804   0.82300
 Alpha virt. eigenvalues --    0.82446   0.83237   0.84125   0.84513   0.84619
 Alpha virt. eigenvalues --    0.84747   0.85286   0.85827   0.85959   0.86526
 Alpha virt. eigenvalues --    0.87369   0.87997   0.88583   0.88831   0.90239
 Alpha virt. eigenvalues --    0.90610   0.91043   0.91550   0.92040   0.92544
 Alpha virt. eigenvalues --    0.92731   0.93471   0.93887   0.94540   0.95197
 Alpha virt. eigenvalues --    0.95576   0.96220   0.96567   0.97510   0.97825
 Alpha virt. eigenvalues --    0.98104   0.98715   0.99190   0.99601   1.00871
 Alpha virt. eigenvalues --    1.00938   1.01238   1.01957   1.02509   1.03141
 Alpha virt. eigenvalues --    1.03510   1.04598   1.04883   1.05327   1.06909
 Alpha virt. eigenvalues --    1.07059   1.08001   1.09331   1.10147   1.11368
 Alpha virt. eigenvalues --    1.11881   1.13281   1.14128   1.15197   1.15791
 Alpha virt. eigenvalues --    1.17112   1.17504   1.18358   1.20120   1.20670
 Alpha virt. eigenvalues --    1.21400   1.22404   1.23199   1.23809   1.23986
 Alpha virt. eigenvalues --    1.24677   1.26244   1.26999   1.27550   1.27721
 Alpha virt. eigenvalues --    1.29969   1.31347   1.32413   1.32873   1.33913
 Alpha virt. eigenvalues --    1.34380   1.35305   1.36418   1.36767   1.37238
 Alpha virt. eigenvalues --    1.38107   1.38328   1.38399   1.39503   1.40205
 Alpha virt. eigenvalues --    1.42116   1.42864   1.42990   1.43639   1.44856
 Alpha virt. eigenvalues --    1.45027   1.45508   1.47100   1.48785   1.50767
 Alpha virt. eigenvalues --    1.51275   1.52298   1.54487   1.57214   1.60274
 Alpha virt. eigenvalues --    1.61108   1.61648   1.62152   1.64119   1.64479
 Alpha virt. eigenvalues --    1.66103   1.66261   1.66570   1.67174   1.69335
 Alpha virt. eigenvalues --    1.69705   1.69932   1.70422   1.70606   1.70779
 Alpha virt. eigenvalues --    1.71060   1.72277   1.72668   1.73480   1.73574
 Alpha virt. eigenvalues --    1.73747   1.74952   1.75812   1.76577   1.77342
 Alpha virt. eigenvalues --    1.77550   1.79086   1.79639   1.80466   1.80571
 Alpha virt. eigenvalues --    1.80848   1.81832   1.82542   1.83365   1.83644
 Alpha virt. eigenvalues --    1.83770   1.84614   1.84993   1.85562   1.86862
 Alpha virt. eigenvalues --    1.87037   1.87861   1.88563   1.89137   1.89831
 Alpha virt. eigenvalues --    1.90427   1.90955   1.91652   1.92119   1.92475
 Alpha virt. eigenvalues --    1.93545   1.94029   1.95036   1.95389   1.96392
 Alpha virt. eigenvalues --    1.96876   1.97466   1.98620   1.98721   2.00315
 Alpha virt. eigenvalues --    2.00960   2.02360   2.02971   2.03656   2.03932
 Alpha virt. eigenvalues --    2.04204   2.05009   2.05444   2.06195   2.06807
 Alpha virt. eigenvalues --    2.07984   2.08878   2.09420   2.10152   2.11262
 Alpha virt. eigenvalues --    2.11475   2.13903   2.14441   2.15067   2.16233
 Alpha virt. eigenvalues --    2.17432   2.19115   2.20414   2.22029   2.22927
 Alpha virt. eigenvalues --    2.23261   2.24934   2.26187   2.26235   2.26905
 Alpha virt. eigenvalues --    2.27449   2.28849   2.29320   2.30287   2.30622
 Alpha virt. eigenvalues --    2.30701   2.31882   2.33323   2.33685   2.34318
 Alpha virt. eigenvalues --    2.34620   2.35920   2.37307   2.38294   2.38916
 Alpha virt. eigenvalues --    2.39129   2.41111   2.41959   2.42565   2.43192
 Alpha virt. eigenvalues --    2.44648   2.45676   2.46752   2.47261   2.47981
 Alpha virt. eigenvalues --    2.48222   2.49174   2.51797   2.53208   2.53848
 Alpha virt. eigenvalues --    2.54181   2.54496   2.56249   2.57017   2.57735
 Alpha virt. eigenvalues --    2.58672   2.59500   2.61850   2.63759   2.64590
 Alpha virt. eigenvalues --    2.65480   2.67862   2.68292   2.69376   2.69914
 Alpha virt. eigenvalues --    2.70225   2.71362   2.72706   2.74193   2.75489
 Alpha virt. eigenvalues --    2.77201   2.77321   2.79303   2.80765   2.81642
 Alpha virt. eigenvalues --    2.83792   2.85941   2.86758   2.87955   2.90271
 Alpha virt. eigenvalues --    2.91141   2.94059   2.94506   2.96542   2.96923
 Alpha virt. eigenvalues --    2.99775   3.00402   3.02947   3.06354   3.07142
 Alpha virt. eigenvalues --    3.08518   3.11473   3.12540   3.15678   3.17381
 Alpha virt. eigenvalues --    3.22566   3.23355   3.43949   3.50247   3.78832
 Alpha virt. eigenvalues --    3.88986   3.94413   3.95759   3.96485   3.99734
 Alpha virt. eigenvalues --    4.05436   4.07213   4.10499   4.13171   4.15817
 Alpha virt. eigenvalues --    4.17017   4.19716   4.21546   4.25285   4.25687
 Alpha virt. eigenvalues --    4.27370   4.31952   4.33086   4.35324   4.37391
 Alpha virt. eigenvalues --    4.41116   4.43778   4.47608   4.52325   4.55106
 Alpha virt. eigenvalues --    4.56882   4.60003   4.61473   4.66523   4.71304
 Alpha virt. eigenvalues --    4.76705   4.78999   4.88042
          Condensed to atoms (all electrons):
 Mulliken atomic charges:
              1
     1  C    0.110922
     2  C    0.299706
     3  C   -0.267883
     4  C    0.143253
     5  C   -0.060304
     6  C    0.238733
     7  C    0.065297
     8  C    0.284313
     9  O   -0.499637
    10  C    0.599736
    11  C   -0.380508
    12  C    0.251756
    13  C   -0.295468
    14  C   -0.364253
    15  C   -0.585876
    16  O   -0.659817
    17  O   -0.638082
    18  O   -0.537150
    19  O   -0.557110
    20  C    0.104291
    21  C    0.103944
    22  C    0.105554
    23  C   -0.147918
    24  C    0.056241
    25  C   -0.349613
    26  O   -0.672590
    27  O   -0.637437
    28  C    0.596394
    29  O   -0.468552
    30  O   -0.489068
    31  C   -0.217604
    32  C    0.595172
    33  O   -0.581517
    34  O   -0.455138
    35  H    0.140744
    36  H    0.182308
    37  H    0.173823
    38  H    0.170520
    39  H    0.164711
    40  H    0.180439
    41  H    0.178991
    42  H    0.209618
    43  H    0.162049
    44  H    0.161462
    45  H    0.449135
    46  H    0.422262
    47  H    0.154712
    48  H    0.136348
    49  H    0.144056
    50  H    0.184582
    51  H    0.166460
    52  H    0.173090
    53  H    0.415390
    54  H    0.407295
    55  H    0.163990
    56  H    0.173131
    57  H    0.173486
    58  H    0.421611
 Sum of Mulliken atomic charges =   0.00000
 Mulliken charges with hydrogens summed into heavy atoms:
              1
     1  C    0.110922
     2  C    0.299706
     3  C   -0.127139
     4  C    0.143253
     5  C   -0.060304
     6  C    0.238733
     7  C    0.065297
     8  C    0.284313
     9  O   -0.499637
    10  C    0.599736
    11  C   -0.024377
    12  C    0.251756
    13  C    0.039763
    14  C   -0.004824
    15  C   -0.052747
    16  O   -0.210682
    17  O   -0.215819
    18  O   -0.537150
    19  O   -0.557110
    20  C    0.259003
    21  C    0.240292
    22  C    0.249610
    23  C    0.036664
    24  C    0.056241
    25  C   -0.010064
    26  O   -0.257200
    27  O   -0.230141
    28  C    0.596394
    29  O   -0.468552
    30  O   -0.489068
    31  C    0.293002
    32  C    0.595172
    33  O   -0.159905
    34  O   -0.455138
 Sum of Mulliken charges with hydrogens summed into heavy atoms =   0.00000
 Electronic spatial extent (au):  <R**2>=          19115.2338
 Charge=              0.0000 electrons
 Dipole moment (field-independent basis, Debye):
    X=              0.7060    Y=              0.4094    Z=              1.2539  Tot=              1.4962
 Quadrupole moment (field-independent basis, Debye-Ang):
   XX=           -242.3785   YY=           -170.0653   ZZ=           -190.4577
   XY=             26.0718   XZ=             -9.9229   YZ=              3.8267
 Traceless Quadrupole moment (field-independent basis, Debye-Ang):
   XX=            -41.4113   YY=             30.9018   ZZ=             10.5095
   XY=             26.0718   XZ=             -9.9229   YZ=              3.8267
 Octapole moment (field-independent basis, Debye-Ang**2):
  XXX=             51.9595  YYY=              7.8044  ZZZ=              3.4017  XYY=             23.3329
  XXY=             39.6966  XXZ=            -14.0756  XZZ=            -20.9885  YZZ=              1.2799
  YYZ=             -9.8957  XYZ=            -44.2835
 Hexadecapole moment (field-independent basis, Debye-Ang**3):
 XXXX=         -19186.7997 YYYY=          -5512.4501 ZZZZ=          -1197.8354 XXXY=            943.8965
 XXXZ=           -336.5928 YYYX=            369.0809 YYYZ=            210.5489 ZZZX=             19.6289
 ZZZY=             45.0457 XXYY=          -3807.7709 XXZZ=          -2908.0680 YYZZ=          -1089.2088
 XXYZ=             83.7571 YYXZ=           -186.7562 ZZXY=             -3.3301
 N-N= 3.685912950459D+03 E-N=-1.138503098920D+04  KE= 1.703118616750D+03
 1\1\GINC-B0603\FOpt\RB3LYP\6-31G(d)\C23H24O11\CAOFEI\02-Feb-2021\0\\# 
 opt b3lyp/6-31g(d) geom=connectivity\\Title Card Required\\0,1\C,3.751
 1922506,-3.7761087429,0.1959582439\C,3.3372977514,-2.5422466423,0.7259
 307409\C,2.1459705599,-1.9142420977,0.3453668677\C,1.3174439063,-2.518
 1478376,-0.5974395927\C,1.6991857482,-3.7712020946,-1.1510783319\C,2.9
 176530091,-4.3887815669,-0.7503378087\C,0.06046981,-1.9335927934,-1.04
 47247898\C,-0.6944062983,-2.6160712065,-1.9332446466\O,-0.3175979329,-
 3.8232576359,-2.4630844599\C,0.8621157919,-4.436880258,-2.119215544\C,
 -0.4005698671,-0.5938988233,-0.5058628524\C,-1.5305067841,0.042069322,
 -1.3327055149\C,-2.5987069742,-1.0121596012,-1.6541269034\C,-2.0205019
 259,-2.1707158369,-2.4733788702\C,5.0454861581,-4.418755674,0.63080643
 12\O,3.3000485745,-5.5698123612,-1.2629173592\O,4.0883454691,-1.887546
 7827,1.6521097824\O,1.1026039822,-5.5137459447,-2.6632911689\O,-2.2300
 128873,1.0683710425,-0.6159920747\C,-1.5050821619,2.2178906437,-0.1292
 492438\C,-2.3059048587,3.4506727375,-0.5508495424\C,-1.5806900144,4.72
 74999646,-0.1316706794\C,-1.1728473383,4.6658813527,1.3108955515\C,-1.
 0546996013,3.5180389498,1.9964051457\C,-1.3672188849,2.1592743276,1.39
 80194911\O,-2.4813857442,3.5228393223,-1.959025749\O,-2.3981196706,5.8
 736460244,-0.3280629973\C,-0.6233514825,3.6109526765,3.4229970659\O,-0
 .6009514105,2.3913921563,4.014921635\O,-0.3296282194,4.6348396231,4.00
 68573736\C,-0.2066671127,2.3899147822,5.3958397144\C,-0.9551079877,0.6
 734241842,-2.6212123666\O,-1.9374032062,1.0239543436,-3.49245148\O,0.2
 128533515,0.895752086,-2.8389110003\H,1.9019146712,-0.9641217807,0.803
 65733\H,0.4524950861,0.0899833254,-0.4734066561\H,-0.7694220315,-0.708
 7667304,0.5214442068\H,-3.4309467904,-0.5421684436,-2.1829949697\H,-2.
 9814944191,-1.3783662193,-0.6949459939\H,-2.710247166,-3.0230052261,-2
 .468412781\H,-1.9061217199,-1.8853977018,-3.528973282\H,5.1940278971,-
 5.362606583,0.1048881145\H,5.9150901805,-3.7821368454,0.4117800594\H,5
 .0539672881,-4.6393747498,1.7081249756\H,2.5975923417,-5.8486482445,-1
 .9088719805\H,4.8904269474,-2.4003528011,1.8380382308\H,-0.5177590228,
 2.2679382592,-0.6051187336\H,-3.2819575922,3.4281238002,-0.040313998\H
 ,-0.670308736,4.8095733303,-0.7543650006\H,-0.953053169,5.6091577701,1
 .8032570934\H,-0.5977663522,1.4358233191,1.6853949753\H,-2.3078767212,
 1.7759221276,1.8158514537\H,-2.8860648982,2.6847626123,-2.239993494\H,
 -2.6936719616,5.8290091463,-1.2528931992\H,-0.2458291053,1.3465093437,
 5.7102496592\H,0.8054080413,2.7883130381,5.5061717069\H,-0.8927804893,
 2.9984475202,5.9908421231\H,-1.4949282984,1.4921340841,-4.2266848374\\
 Version=EM64L-G09RevB.01\State=1-A\HF=-1718.373832\RMSD=9.454e-09\RMSF
 =8.639e-06\Dipole=-0.1496374,-0.4766233,0.311338\Quadrupole=16.715411,
 -29.1626785,12.4472675,1.6165576,11.4140527,-20.769264\PG=C01 [X(C23H2
 4O11)]\\@


 READER, WHETHER YOU BE DILETTANTE OR PROFESSOR ... SHOW YOURSELF TO BE
 MORE HUMAN THAN CRITICAL, AND THEN YOUR PLEASURE WILL INCREASE.
                                           -- DOMENICO SCARLATTI (1738)
 Job cpu time:  0 days  3 hours 57 minutes 59.4 seconds.
 File lengths (MBytes):  RWF=    201 Int=      0 D2E=      0 Chk=     21 Scr=      1
 Normal termination of Gaussian 09 at Tue Feb  2 12:00:51 2021.
