 Entering Gaussian System, Link 0=g09
 Initial command:
 /public/software/g09/g09/l1.exe /tmp/Gau-13645.inp -scrdir=/tmp/
 Entering Link 1 = /public/software/g09/g09/l1.exe PID=     13646.
  
 Copyright (c) 1988,1990,1992,1993,1995,1998,2003,2009,2010,
            Gaussian, Inc.  All Rights Reserved.
  
 This is part of the Gaussian(R) 09 program.  It is based on
 the Gaussian(R) 03 system (copyright 2003, Gaussian, Inc.),
 the Gaussian(R) 98 system (copyright 1998, Gaussian, Inc.),
 the Gaussian(R) 94 system (copyright 1995, Gaussian, Inc.),
 the Gaussian 92(TM) system (copyright 1992, Gaussian, Inc.),
 the Gaussian 90(TM) system (copyright 1990, Gaussian, Inc.),
 the Gaussian 88(TM) system (copyright 1988, Gaussian, Inc.),
 the Gaussian 86(TM) system (copyright 1986, Carnegie Mellon
 University), and the Gaussian 82(TM) system (copyright 1983,
 Carnegie Mellon University). Gaussian is a federally registered
 trademark of Gaussian, Inc.
  
 This software contains proprietary and confidential information,
 including trade secrets, belonging to Gaussian, Inc.
  
 This software is provided under written license and may be
 used, copied, transmitted, or stored only in accord with that
 written license.
  
 The following legend is applicable only to US Government
 contracts under FAR:
  
                    RESTRICTED RIGHTS LEGEND
  
 Use, reproduction and disclosure by the US Government is
 subject to restrictions as set forth in subparagraphs (a)
 and (c) of the Commercial Computer Software - Restricted
 Rights clause in FAR 52.227-19.
  
 Gaussian, Inc.
 340 Quinnipiac St., Bldg. 40, Wallingford CT 06492
  
  
 ---------------------------------------------------------------
 Warning -- This program may not be used in any manner that
 competes with the business of Gaussian, Inc. or will provide
 assistance to any competitor of Gaussian, Inc.  The licensee
 of this program is prohibited from giving any competitor of
 Gaussian, Inc. access to this program.  By using this program,
 the user acknowledges that Gaussian, Inc. is engaged in the
 business of creating and licensing software in the field of
 computational chemistry and represents and warrants to the
 licensee that it is not a competitor of Gaussian, Inc. and that
 it will not use this program in any manner prohibited above.
 ---------------------------------------------------------------
  

 Cite this work as:
 Gaussian 09, Revision B.01,
 M. J. Frisch, G. W. Trucks, H. B. Schlegel, G. E. Scuseria, 
 M. A. Robb, J. R. Cheeseman, G. Scalmani, V. Barone, B. Mennucci, 
 G. A. Petersson, H. Nakatsuji, M. Caricato, X. Li, H. P. Hratchian, 
 A. F. Izmaylov, J. Bloino, G. Zheng, J. L. Sonnenberg, M. Hada, 
 M. Ehara, K. Toyota, R. Fukuda, J. Hasegawa, M. Ishida, T. Nakajima, 
 Y. Honda, O. Kitao, H. Nakai, T. Vreven, J. A. Montgomery, Jr., 
 J. E. Peralta, F. Ogliaro, M. Bearpark, J. J. Heyd, E. Brothers, 
 K. N. Kudin, V. N. Staroverov, T. Keith, R. Kobayashi, J. Normand, 
 K. Raghavachari, A. Rendell, J. C. Burant, S. S. Iyengar, J. Tomasi, 
 M. Cossi, N. Rega, J. M. Millam, M. Klene, J. E. Knox, J. B. Cross, 
 V. Bakken, C. Adamo, J. Jaramillo, R. Gomperts, R. E. Stratmann, 
 O. Yazyev, A. J. Austin, R. Cammi, C. Pomelli, J. W. Ochterski, 
 R. L. Martin, K. Morokuma, V. G. Zakrzewski, G. A. Voth, 
 P. Salvador, J. J. Dannenberg, S. Dapprich, A. D. Daniels, 
 O. Farkas, J. B. Foresman, J. V. Ortiz, J. Cioslowski, 
 and D. J. Fox, Gaussian, Inc., Wallingford CT, 2010.
 
 ******************************************
 Gaussian 09:  EM64L-G09RevB.01 12-Aug-2010
                 2-Feb-2021 
 ******************************************
 %mem=600MW
 %nprocshared=10
 Will use up to   10 processors via shared memory.
 --------------------------------------
 # opt b3lyp/6-31g(d) geom=connectivity
 --------------------------------------
 1/14=-1,18=20,19=15,26=3,38=1,57=2/1,3;
 2/9=110,12=2,17=6,18=5,40=1/2;
 3/5=1,6=6,7=1,11=2,16=1,25=1,30=1,71=1,74=-5/1,2,3;
 4//1;
 5/5=2,38=5/2;
 6/7=2,8=2,9=2,10=2,28=1/1;
 7//1,2,3,16;
 1/14=-1,18=20,19=15/3(2);
 2/9=110/2;
 99//99;
 2/9=110/2;
 3/5=1,6=6,7=1,11=2,16=1,25=1,30=1,71=1,74=-5/1,2,3;
 4/5=5,16=3/1;
 5/5=2,38=5/2;
 7//1,2,3,16;
 1/14=-1,18=20,19=15/3(-5);
 2/9=110/2;
 6/7=2,8=2,9=2,10=2,19=2,28=1/1;
 99/9=1/99;
 -------------------
 Title Card Required
 -------------------
 Symbolic Z-matrix:
 Charge =  0 Multiplicity = 1
 C                     4.13949  -1.27522  -0.96427 
 C                     3.7968    0.03773  -0.63487 
 C                     2.54514   0.56767  -0.96004 
 C                     1.59046  -0.20816  -1.63711 
 C                     1.94246  -1.51163  -2.01659 
 C                     3.20681  -2.03784  -1.68052 
 C                     0.24105   0.29799  -1.94592 
 C                    -0.57492  -0.48701  -2.66862 
 O                    -0.2078   -1.77041  -3.11446 
 C                     0.98657  -2.33499  -2.79043 
 C                    -0.23226   1.6367   -1.41844 
 C                    -1.77642   1.77442  -1.3716 
 C                    -2.32816   1.3521   -2.7452 
 C                    -1.97601  -0.10398  -3.06111 
 C                     5.49522  -1.83349  -0.62832 
 O                     3.58994  -3.30951  -2.03515 
 O                     4.71365   0.81269   0.01918 
 O                     1.28224  -3.47682  -3.13244 
 O                    -2.40562   0.90902  -0.40676 
 C                    -1.99928   1.02338   0.96854 
 C                    -3.27215   0.97771   1.83073 
 C                    -2.92348   1.01799   3.32977 
 C                    -1.78902   0.12023   3.70308 
 C                    -0.95944  -0.43001   2.79789 
 C                    -1.08762  -0.16458   1.32493 
 O                    -4.11701   2.10318   1.53214 
 O                    -4.06642   0.62482   4.08504 
 C                     0.1485   -1.30087   3.28413 
 O                     0.76872  -1.88337   2.22692 
 O                     0.45181  -1.44338   4.45795 
 C                     1.872    -2.71844   2.5824 
 C                    -2.15992   3.24854  -1.14784 
 O                    -3.47286   3.41613  -0.87082 
 O                    -1.41205   4.21205  -1.18419 
 H                     2.32816   1.59434  -0.68276 
 H                     0.19804   2.41491  -2.06377 
 H                     0.16344   1.81789  -0.41483 
 H                    -1.92827   2.00803  -3.53028 
 H                    -3.42025   1.45692  -2.77644 
 H                    -2.67408  -0.7697   -2.53814 
 H                    -2.11877  -0.27666  -4.13447 
 H                     5.43141  -2.89459  -0.36522 
 H                     6.1685   -1.7171   -1.48322 
 H                     5.93831  -1.33097   0.23743 
 H                     2.86399  -3.74002  -2.53961 
 H                     4.35918   1.70653   0.15233 
 H                    -1.49012   1.97994   1.14064 
 H                    -3.86734   0.08669   1.59276 
 H                    -2.68107   2.04248   3.63669 
 H                    -1.65581  -0.07158   4.76679 
 H                    -0.09532   0.03186   0.90998 
 H                    -1.45348  -1.07211   0.82674 
 H                    -4.18084   2.14047   0.55433 
 H                    -4.79831   1.1792    3.75361 
 H                     2.29293  -3.13251   1.66194 
 H                     2.64804  -2.13317   3.08545 
 H                     1.53771  -3.54663   3.21492 
 H                    -3.57645   4.38318  -0.73289 
 

 GradGradGradGradGradGradGradGradGradGradGradGradGradGradGradGradGradGrad
 Berny optimization.
 Initialization pass.
                           ----------------------------
                           !    Initial Parameters    !
                           ! (Angstroms and Degrees)  !
 --------------------------                            --------------------------
 ! Name  Definition              Value          Derivative Info.                !
 --------------------------------------------------------------------------------
 ! R1    R(1,2)                  1.3963         estimate D2E/DX2                !
 ! R2    R(1,6)                  1.4016         estimate D2E/DX2                !
 ! R3    R(1,15)                 1.5042         estimate D2E/DX2                !
 ! R4    R(2,3)                  1.3976         estimate D2E/DX2                !
 ! R5    R(2,17)                 1.3671         estimate D2E/DX2                !
 ! R6    R(3,4)                  1.4042         estimate D2E/DX2                !
 ! R7    R(3,35)                 1.0854         estimate D2E/DX2                !
 ! R8    R(4,5)                  1.4025         estimate D2E/DX2                !
 ! R9    R(4,7)                  1.4739         estimate D2E/DX2                !
 ! R10   R(5,6)                  1.4101         estimate D2E/DX2                !
 ! R11   R(5,10)                 1.48           estimate D2E/DX2                !
 ! R12   R(6,16)                 1.3747         estimate D2E/DX2                !
 ! R13   R(7,8)                  1.3433         estimate D2E/DX2                !
 ! R14   R(7,11)                 1.5147         estimate D2E/DX2                !
 ! R15   R(8,9)                  1.4074         estimate D2E/DX2                !
 ! R16   R(8,14)                 1.5046         estimate D2E/DX2                !
 ! R17   R(9,10)                 1.3602         estimate D2E/DX2                !
 ! R18   R(10,18)                1.2281         estimate D2E/DX2                !
 ! R19   R(11,12)                1.551          estimate D2E/DX2                !
 ! R20   R(11,36)                1.0987         estimate D2E/DX2                !
 ! R21   R(11,37)                1.0939         estimate D2E/DX2                !
 ! R22   R(12,13)                1.5393         estimate D2E/DX2                !
 ! R23   R(12,19)                1.4407         estimate D2E/DX2                !
 ! R24   R(12,32)                1.5395         estimate D2E/DX2                !
 ! R25   R(13,14)                1.531          estimate D2E/DX2                !
 ! R26   R(13,38)                1.0984         estimate D2E/DX2                !
 ! R27   R(13,39)                1.0975         estimate D2E/DX2                !
 ! R28   R(14,40)                1.0973         estimate D2E/DX2                !
 ! R29   R(14,41)                1.0965         estimate D2E/DX2                !
 ! R30   R(15,42)                1.0951         estimate D2E/DX2                !
 ! R31   R(15,43)                1.0944         estimate D2E/DX2                !
 ! R32   R(15,44)                1.0947         estimate D2E/DX2                !
 ! R33   R(16,45)                0.9833         estimate D2E/DX2                !
 ! R34   R(17,46)                0.9707         estimate D2E/DX2                !
 ! R35   R(18,45)                1.7096         estimate D2E/DX2                !
 ! R36   R(19,20)                1.4386         estimate D2E/DX2                !
 ! R37   R(20,21)                1.5381         estimate D2E/DX2                !
 ! R38   R(20,25)                1.5393         estimate D2E/DX2                !
 ! R39   R(20,47)                1.0972         estimate D2E/DX2                !
 ! R40   R(21,22)                1.5396         estimate D2E/DX2                !
 ! R41   R(21,26)                1.4386         estimate D2E/DX2                !
 ! R42   R(21,48)                1.0976         estimate D2E/DX2                !
 ! R43   R(22,23)                1.4941         estimate D2E/DX2                !
 ! R44   R(22,27)                1.4253         estimate D2E/DX2                !
 ! R45   R(22,49)                1.0966         estimate D2E/DX2                !
 ! R46   R(23,24)                1.3455         estimate D2E/DX2                !
 ! R47   R(23,50)                1.089          estimate D2E/DX2                !
 ! R48   R(24,25)                1.5022         estimate D2E/DX2                !
 ! R49   R(24,28)                1.4908         estimate D2E/DX2                !
 ! R50   R(25,51)                1.0934         estimate D2E/DX2                !
 ! R51   R(25,52)                1.098          estimate D2E/DX2                !
 ! R52   R(26,53)                0.9806         estimate D2E/DX2                !
 ! R53   R(27,54)                0.9761         estimate D2E/DX2                !
 ! R54   R(28,29)                1.3571         estimate D2E/DX2                !
 ! R55   R(28,30)                1.2207         estimate D2E/DX2                !
 ! R56   R(29,31)                1.4286         estimate D2E/DX2                !
 ! R57   R(31,55)                1.0936         estimate D2E/DX2                !
 ! R58   R(31,56)                1.0945         estimate D2E/DX2                !
 ! R59   R(31,57)                1.0944         estimate D2E/DX2                !
 ! R60   R(32,33)                1.3523         estimate D2E/DX2                !
 ! R61   R(32,34)                1.2202         estimate D2E/DX2                !
 ! R62   R(33,58)                0.9823         estimate D2E/DX2                !
 ! A1    A(2,1,6)              117.9594         estimate D2E/DX2                !
 ! A2    A(2,1,15)             121.1644         estimate D2E/DX2                !
 ! A3    A(6,1,15)             120.7945         estimate D2E/DX2                !
 ! A4    A(1,2,3)              121.4301         estimate D2E/DX2                !
 ! A5    A(1,2,17)             118.7689         estimate D2E/DX2                !
 ! A6    A(3,2,17)             119.801          estimate D2E/DX2                !
 ! A7    A(2,3,4)              120.7684         estimate D2E/DX2                !
 ! A8    A(2,3,35)             118.5739         estimate D2E/DX2                !
 ! A9    A(4,3,35)             120.6569         estimate D2E/DX2                !
 ! A10   A(3,4,5)              118.2512         estimate D2E/DX2                !
 ! A11   A(3,4,7)              122.2579         estimate D2E/DX2                !
 ! A12   A(5,4,7)              119.4885         estimate D2E/DX2                !
 ! A13   A(4,5,6)              120.4892         estimate D2E/DX2                !
 ! A14   A(4,5,10)             119.763          estimate D2E/DX2                !
 ! A15   A(6,5,10)             119.7432         estimate D2E/DX2                !
 ! A16   A(1,6,5)              121.0242         estimate D2E/DX2                !
 ! A17   A(1,6,16)             116.7249         estimate D2E/DX2                !
 ! A18   A(5,6,16)             122.2508         estimate D2E/DX2                !
 ! A19   A(4,7,8)              117.9162         estimate D2E/DX2                !
 ! A20   A(4,7,11)             121.1053         estimate D2E/DX2                !
 ! A21   A(8,7,11)             120.9329         estimate D2E/DX2                !
 ! A22   A(7,8,9)              123.0181         estimate D2E/DX2                !
 ! A23   A(7,8,14)             123.8654         estimate D2E/DX2                !
 ! A24   A(9,8,14)             113.1057         estimate D2E/DX2                !
 ! A25   A(8,9,10)             122.1464         estimate D2E/DX2                !
 ! A26   A(5,10,9)             117.4358         estimate D2E/DX2                !
 ! A27   A(5,10,18)            120.4882         estimate D2E/DX2                !
 ! A28   A(9,10,18)            122.0705         estimate D2E/DX2                !
 ! A29   A(7,11,12)            113.5839         estimate D2E/DX2                !
 ! A30   A(7,11,36)            107.4018         estimate D2E/DX2                !
 ! A31   A(7,11,37)            110.6615         estimate D2E/DX2                !
 ! A32   A(12,11,36)           110.1665         estimate D2E/DX2                !
 ! A33   A(12,11,37)           108.525          estimate D2E/DX2                !
 ! A34   A(36,11,37)           106.2524         estimate D2E/DX2                !
 ! A35   A(11,12,13)           107.7906         estimate D2E/DX2                !
 ! A36   A(11,12,19)           113.6835         estimate D2E/DX2                !
 ! A37   A(11,12,32)           109.7198         estimate D2E/DX2                !
 ! A38   A(13,12,19)           106.0368         estimate D2E/DX2                !
 ! A39   A(13,12,32)           107.6441         estimate D2E/DX2                !
 ! A40   A(19,12,32)           111.6549         estimate D2E/DX2                !
 ! A41   A(12,13,14)           111.2605         estimate D2E/DX2                !
 ! A42   A(12,13,38)           110.0877         estimate D2E/DX2                !
 ! A43   A(12,13,39)           110.8448         estimate D2E/DX2                !
 ! A44   A(14,13,38)           109.6772         estimate D2E/DX2                !
 ! A45   A(14,13,39)           108.2905         estimate D2E/DX2                !
 ! A46   A(38,13,39)           106.5513         estimate D2E/DX2                !
 ! A47   A(8,14,13)            113.7334         estimate D2E/DX2                !
 ! A48   A(8,14,40)            108.2789         estimate D2E/DX2                !
 ! A49   A(8,14,41)            109.6641         estimate D2E/DX2                !
 ! A50   A(13,14,40)           109.411          estimate D2E/DX2                !
 ! A51   A(13,14,41)           108.7726         estimate D2E/DX2                !
 ! A52   A(40,14,41)           106.7491         estimate D2E/DX2                !
 ! A53   A(1,15,42)            111.1471         estimate D2E/DX2                !
 ! A54   A(1,15,43)            109.9101         estimate D2E/DX2                !
 ! A55   A(1,15,44)            111.782          estimate D2E/DX2                !
 ! A56   A(42,15,43)           109.0614         estimate D2E/DX2                !
 ! A57   A(42,15,44)           106.1634         estimate D2E/DX2                !
 ! A58   A(43,15,44)           108.6603         estimate D2E/DX2                !
 ! A59   A(6,16,45)            109.3665         estimate D2E/DX2                !
 ! A60   A(2,17,46)            110.0414         estimate D2E/DX2                !
 ! A61   A(12,19,20)           117.9766         estimate D2E/DX2                !
 ! A62   A(19,20,21)           107.4444         estimate D2E/DX2                !
 ! A63   A(19,20,25)           109.1029         estimate D2E/DX2                !
 ! A64   A(19,20,47)           110.5069         estimate D2E/DX2                !
 ! A65   A(21,20,25)           109.721          estimate D2E/DX2                !
 ! A66   A(21,20,47)           108.7843         estimate D2E/DX2                !
 ! A67   A(25,20,47)           111.2033         estimate D2E/DX2                !
 ! A68   A(20,21,22)           110.9527         estimate D2E/DX2                !
 ! A69   A(20,21,26)           110.2694         estimate D2E/DX2                !
 ! A70   A(20,21,48)           110.5689         estimate D2E/DX2                !
 ! A71   A(22,21,26)           108.3376         estimate D2E/DX2                !
 ! A72   A(22,21,48)           110.8017         estimate D2E/DX2                !
 ! A73   A(26,21,48)           105.761          estimate D2E/DX2                !
 ! A74   A(21,22,23)           113.548          estimate D2E/DX2                !
 ! A75   A(21,22,27)           109.0945         estimate D2E/DX2                !
 ! A76   A(21,22,49)           110.3049         estimate D2E/DX2                !
 ! A77   A(23,22,27)           108.1035         estimate D2E/DX2                !
 ! A78   A(23,22,49)           108.88           estimate D2E/DX2                !
 ! A79   A(27,22,49)           106.659          estimate D2E/DX2                !
 ! A80   A(22,23,24)           123.0781         estimate D2E/DX2                !
 ! A81   A(22,23,50)           116.2794         estimate D2E/DX2                !
 ! A82   A(24,23,50)           120.6419         estimate D2E/DX2                !
 ! A83   A(23,24,25)           122.331          estimate D2E/DX2                !
 ! A84   A(23,24,28)           118.5348         estimate D2E/DX2                !
 ! A85   A(25,24,28)           119.1091         estimate D2E/DX2                !
 ! A86   A(20,25,24)           114.4521         estimate D2E/DX2                !
 ! A87   A(20,25,51)           108.1191         estimate D2E/DX2                !
 ! A88   A(20,25,52)           109.6021         estimate D2E/DX2                !
 ! A89   A(24,25,51)           109.0525         estimate D2E/DX2                !
 ! A90   A(24,25,52)           109.1044         estimate D2E/DX2                !
 ! A91   A(51,25,52)           106.1829         estimate D2E/DX2                !
 ! A92   A(21,26,53)           105.9578         estimate D2E/DX2                !
 ! A93   A(22,27,54)           105.3474         estimate D2E/DX2                !
 ! A94   A(24,28,29)           109.6522         estimate D2E/DX2                !
 ! A95   A(24,28,30)           124.5067         estimate D2E/DX2                !
 ! A96   A(29,28,30)           125.8336         estimate D2E/DX2                !
 ! A97   A(28,29,31)           114.205          estimate D2E/DX2                !
 ! A98   A(29,31,55)           108.0079         estimate D2E/DX2                !
 ! A99   A(29,31,56)           110.4491         estimate D2E/DX2                !
 ! A100  A(29,31,57)           110.5033         estimate D2E/DX2                !
 ! A101  A(55,31,56)           108.4471         estimate D2E/DX2                !
 ! A102  A(55,31,57)           108.5121         estimate D2E/DX2                !
 ! A103  A(56,31,57)           110.8314         estimate D2E/DX2                !
 ! A104  A(12,32,33)           112.9731         estimate D2E/DX2                !
 ! A105  A(12,32,34)           126.8018         estimate D2E/DX2                !
 ! A106  A(33,32,34)           120.2193         estimate D2E/DX2                !
 ! A107  A(32,33,58)           104.664          estimate D2E/DX2                !
 ! D1    D(6,1,2,3)              2.4067         estimate D2E/DX2                !
 ! D2    D(6,1,2,17)          -177.5565         estimate D2E/DX2                !
 ! D3    D(15,1,2,3)           179.1448         estimate D2E/DX2                !
 ! D4    D(15,1,2,17)           -0.8184         estimate D2E/DX2                !
 ! D5    D(2,1,6,5)             -2.2272         estimate D2E/DX2                !
 ! D6    D(2,1,6,16)           177.6193         estimate D2E/DX2                !
 ! D7    D(15,1,6,5)          -178.9779         estimate D2E/DX2                !
 ! D8    D(15,1,6,16)            0.8685         estimate D2E/DX2                !
 ! D9    D(2,1,15,42)          144.9602         estimate D2E/DX2                !
 ! D10   D(2,1,15,43)          -94.2078         estimate D2E/DX2                !
 ! D11   D(2,1,15,44)           26.5358         estimate D2E/DX2                !
 ! D12   D(6,1,15,42)          -38.3939         estimate D2E/DX2                !
 ! D13   D(6,1,15,43)           82.4381         estimate D2E/DX2                !
 ! D14   D(6,1,15,44)         -156.8184         estimate D2E/DX2                !
 ! D15   D(1,2,3,4)             -0.2613         estimate D2E/DX2                !
 ! D16   D(1,2,3,35)          -179.9326         estimate D2E/DX2                !
 ! D17   D(17,2,3,4)           179.7016         estimate D2E/DX2                !
 ! D18   D(17,2,3,35)            0.0303         estimate D2E/DX2                !
 ! D19   D(1,2,17,46)          177.7188         estimate D2E/DX2                !
 ! D20   D(3,2,17,46)           -2.245          estimate D2E/DX2                !
 ! D21   D(2,3,4,5)             -2.0789         estimate D2E/DX2                !
 ! D22   D(2,3,4,7)            177.3639         estimate D2E/DX2                !
 ! D23   D(35,3,4,5)           177.5856         estimate D2E/DX2                !
 ! D24   D(35,3,4,7)            -2.9717         estimate D2E/DX2                !
 ! D25   D(3,4,5,6)              2.2404         estimate D2E/DX2                !
 ! D26   D(3,4,5,10)          -176.9758         estimate D2E/DX2                !
 ! D27   D(7,4,5,6)           -177.2183         estimate D2E/DX2                !
 ! D28   D(7,4,5,10)             3.5656         estimate D2E/DX2                !
 ! D29   D(3,4,7,8)            176.0003         estimate D2E/DX2                !
 ! D30   D(3,4,7,11)            -6.4317         estimate D2E/DX2                !
 ! D31   D(5,4,7,8)             -4.5636         estimate D2E/DX2                !
 ! D32   D(5,4,7,11)           173.0044         estimate D2E/DX2                !
 ! D33   D(4,5,6,1)             -0.0889         estimate D2E/DX2                !
 ! D34   D(4,5,6,16)          -179.9268         estimate D2E/DX2                !
 ! D35   D(10,5,6,1)           179.1274         estimate D2E/DX2                !
 ! D36   D(10,5,6,16)           -0.7105         estimate D2E/DX2                !
 ! D37   D(4,5,10,9)             0.6493         estimate D2E/DX2                !
 ! D38   D(4,5,10,18)          179.8222         estimate D2E/DX2                !
 ! D39   D(6,5,10,9)          -178.5728         estimate D2E/DX2                !
 ! D40   D(6,5,10,18)            0.6002         estimate D2E/DX2                !
 ! D41   D(1,6,16,45)         -179.2712         estimate D2E/DX2                !
 ! D42   D(5,6,16,45)            0.5732         estimate D2E/DX2                !
 ! D43   D(4,7,8,9)              1.3466         estimate D2E/DX2                !
 ! D44   D(4,7,8,14)          -179.9288         estimate D2E/DX2                !
 ! D45   D(11,7,8,9)          -176.2258         estimate D2E/DX2                !
 ! D46   D(11,7,8,14)            2.4988         estimate D2E/DX2                !
 ! D47   D(4,7,11,12)         -158.2731         estimate D2E/DX2                !
 ! D48   D(4,7,11,36)           79.6515         estimate D2E/DX2                !
 ! D49   D(4,7,11,37)          -35.9203         estimate D2E/DX2                !
 ! D50   D(8,7,11,12)           19.2216         estimate D2E/DX2                !
 ! D51   D(8,7,11,36)         -102.8538         estimate D2E/DX2                !
 ! D52   D(8,7,11,37)          141.5743         estimate D2E/DX2                !
 ! D53   D(7,8,9,10)             3.0804         estimate D2E/DX2                !
 ! D54   D(14,8,9,10)         -175.7683         estimate D2E/DX2                !
 ! D55   D(7,8,14,13)            8.7028         estimate D2E/DX2                !
 ! D56   D(7,8,14,40)         -113.1382         estimate D2E/DX2                !
 ! D57   D(7,8,14,41)          130.7371         estimate D2E/DX2                !
 ! D58   D(9,8,14,13)         -172.4598         estimate D2E/DX2                !
 ! D59   D(9,8,14,40)           65.6992         estimate D2E/DX2                !
 ! D60   D(9,8,14,41)          -50.4255         estimate D2E/DX2                !
 ! D61   D(8,9,10,5)            -4.0048         estimate D2E/DX2                !
 ! D62   D(8,9,10,18)          176.8362         estimate D2E/DX2                !
 ! D63   D(7,11,12,13)         -49.7829         estimate D2E/DX2                !
 ! D64   D(7,11,12,19)          67.4468         estimate D2E/DX2                !
 ! D65   D(7,11,12,32)        -166.7305         estimate D2E/DX2                !
 ! D66   D(36,11,12,13)         70.7458         estimate D2E/DX2                !
 ! D67   D(36,11,12,19)       -172.0244         estimate D2E/DX2                !
 ! D68   D(36,11,12,32)        -46.2018         estimate D2E/DX2                !
 ! D69   D(37,11,12,13)       -173.3095         estimate D2E/DX2                !
 ! D70   D(37,11,12,19)        -56.0797         estimate D2E/DX2                !
 ! D71   D(37,11,12,32)         69.7429         estimate D2E/DX2                !
 ! D72   D(11,12,13,14)         60.9803         estimate D2E/DX2                !
 ! D73   D(11,12,13,38)        -60.823          estimate D2E/DX2                !
 ! D74   D(11,12,13,39)       -178.4566         estimate D2E/DX2                !
 ! D75   D(19,12,13,14)        -61.1045         estimate D2E/DX2                !
 ! D76   D(19,12,13,38)        177.0922         estimate D2E/DX2                !
 ! D77   D(19,12,13,39)         59.4586         estimate D2E/DX2                !
 ! D78   D(32,12,13,14)        179.2694         estimate D2E/DX2                !
 ! D79   D(32,12,13,38)         57.4662         estimate D2E/DX2                !
 ! D80   D(32,12,13,39)        -60.1674         estimate D2E/DX2                !
 ! D81   D(11,12,19,20)         57.5707         estimate D2E/DX2                !
 ! D82   D(13,12,19,20)        175.8147         estimate D2E/DX2                !
 ! D83   D(32,12,19,20)        -67.22           estimate D2E/DX2                !
 ! D84   D(11,12,32,33)       -169.482          estimate D2E/DX2                !
 ! D85   D(11,12,32,34)          9.6415         estimate D2E/DX2                !
 ! D86   D(13,12,32,33)         73.4785         estimate D2E/DX2                !
 ! D87   D(13,12,32,34)       -107.3981         estimate D2E/DX2                !
 ! D88   D(19,12,32,33)        -42.5099         estimate D2E/DX2                !
 ! D89   D(19,12,32,34)        136.6135         estimate D2E/DX2                !
 ! D90   D(12,13,14,8)         -41.1244         estimate D2E/DX2                !
 ! D91   D(12,13,14,40)         80.0867         estimate D2E/DX2                !
 ! D92   D(12,13,14,41)       -163.6507         estimate D2E/DX2                !
 ! D93   D(38,13,14,8)          80.9172         estimate D2E/DX2                !
 ! D94   D(38,13,14,40)       -157.8717         estimate D2E/DX2                !
 ! D95   D(38,13,14,41)        -41.6091         estimate D2E/DX2                !
 ! D96   D(39,13,14,8)        -163.1804         estimate D2E/DX2                !
 ! D97   D(39,13,14,40)        -41.9693         estimate D2E/DX2                !
 ! D98   D(39,13,14,41)         74.2933         estimate D2E/DX2                !
 ! D99   D(12,19,20,21)        136.7859         estimate D2E/DX2                !
 ! D100  D(12,19,20,25)       -104.3227         estimate D2E/DX2                !
 ! D101  D(12,19,20,47)         18.2378         estimate D2E/DX2                !
 ! D102  D(19,20,21,22)        176.9395         estimate D2E/DX2                !
 ! D103  D(19,20,21,26)        -63.0245         estimate D2E/DX2                !
 ! D104  D(19,20,21,48)         53.5817         estimate D2E/DX2                !
 ! D105  D(25,20,21,22)         58.446          estimate D2E/DX2                !
 ! D106  D(25,20,21,26)        178.482          estimate D2E/DX2                !
 ! D107  D(25,20,21,48)        -64.9118         estimate D2E/DX2                !
 ! D108  D(47,20,21,22)        -63.4076         estimate D2E/DX2                !
 ! D109  D(47,20,21,26)         56.6284         estimate D2E/DX2                !
 ! D110  D(47,20,21,48)        173.2346         estimate D2E/DX2                !
 ! D111  D(19,20,25,24)       -160.7304         estimate D2E/DX2                !
 ! D112  D(19,20,25,51)         77.5272         estimate D2E/DX2                !
 ! D113  D(19,20,25,52)        -37.8019         estimate D2E/DX2                !
 ! D114  D(21,20,25,24)        -43.2679         estimate D2E/DX2                !
 ! D115  D(21,20,25,51)       -165.0103         estimate D2E/DX2                !
 ! D116  D(21,20,25,52)         79.6607         estimate D2E/DX2                !
 ! D117  D(47,20,25,24)         77.128          estimate D2E/DX2                !
 ! D118  D(47,20,25,51)        -44.6144         estimate D2E/DX2                !
 ! D119  D(47,20,25,52)       -159.9435         estimate D2E/DX2                !
 ! D120  D(20,21,22,23)        -44.2401         estimate D2E/DX2                !
 ! D121  D(20,21,22,27)       -164.8748         estimate D2E/DX2                !
 ! D122  D(20,21,22,49)         78.2817         estimate D2E/DX2                !
 ! D123  D(26,21,22,23)       -165.42           estimate D2E/DX2                !
 ! D124  D(26,21,22,27)         73.9453         estimate D2E/DX2                !
 ! D125  D(26,21,22,49)        -42.8981         estimate D2E/DX2                !
 ! D126  D(48,21,22,23)         78.9838         estimate D2E/DX2                !
 ! D127  D(48,21,22,27)        -41.6509         estimate D2E/DX2                !
 ! D128  D(48,21,22,49)       -158.4944         estimate D2E/DX2                !
 ! D129  D(20,21,26,53)         48.1735         estimate D2E/DX2                !
 ! D130  D(22,21,26,53)        169.7745         estimate D2E/DX2                !
 ! D131  D(48,21,26,53)        -71.39           estimate D2E/DX2                !
 ! D132  D(21,22,23,24)         14.3571         estimate D2E/DX2                !
 ! D133  D(21,22,23,50)       -165.9034         estimate D2E/DX2                !
 ! D134  D(27,22,23,24)        135.5488         estimate D2E/DX2                !
 ! D135  D(27,22,23,50)        -44.7117         estimate D2E/DX2                !
 ! D136  D(49,22,23,24)       -108.9483         estimate D2E/DX2                !
 ! D137  D(49,22,23,50)         70.7912         estimate D2E/DX2                !
 ! D138  D(21,22,27,54)        -51.1108         estimate D2E/DX2                !
 ! D139  D(23,22,27,54)       -175.0262         estimate D2E/DX2                !
 ! D140  D(49,22,27,54)         68.0259         estimate D2E/DX2                !
 ! D141  D(22,23,24,25)          1.2517         estimate D2E/DX2                !
 ! D142  D(22,23,24,28)        179.4138         estimate D2E/DX2                !
 ! D143  D(50,23,24,25)       -178.4768         estimate D2E/DX2                !
 ! D144  D(50,23,24,28)         -0.3147         estimate D2E/DX2                !
 ! D145  D(23,24,25,20)         13.9824         estimate D2E/DX2                !
 ! D146  D(23,24,25,51)        135.2123         estimate D2E/DX2                !
 ! D147  D(23,24,25,52)       -109.2147         estimate D2E/DX2                !
 ! D148  D(28,24,25,20)       -164.1695         estimate D2E/DX2                !
 ! D149  D(28,24,25,51)        -42.9396         estimate D2E/DX2                !
 ! D150  D(28,24,25,52)         72.6334         estimate D2E/DX2                !
 ! D151  D(23,24,28,29)        172.766          estimate D2E/DX2                !
 ! D152  D(23,24,28,30)         -8.1817         estimate D2E/DX2                !
 ! D153  D(25,24,28,29)         -9.0115         estimate D2E/DX2                !
 ! D154  D(25,24,28,30)        170.0408         estimate D2E/DX2                !
 ! D155  D(24,28,29,31)        178.5949         estimate D2E/DX2                !
 ! D156  D(30,28,29,31)         -0.4419         estimate D2E/DX2                !
 ! D157  D(28,29,31,55)        179.9793         estimate D2E/DX2                !
 ! D158  D(28,29,31,56)        -61.5757         estimate D2E/DX2                !
 ! D159  D(28,29,31,57)         61.4245         estimate D2E/DX2                !
 ! D160  D(12,32,33,58)        178.7955         estimate D2E/DX2                !
 ! D161  D(34,32,33,58)         -0.3923         estimate D2E/DX2                !
 --------------------------------------------------------------------------------
 Trust Radius=3.00D-01 FncErr=1.00D-07 GrdErr=1.00D-06
 Number of steps in this run=    340 maximum allowed number of steps=    348.
 GradGradGradGradGradGradGradGradGradGradGradGradGradGradGradGradGradGrad

 Stoichiometry    C23H24O11
 Framework group  C1[X(C23H24O11)]
 Deg. of freedom   168
 Full point group                 C1      NOp   1
 Largest Abelian subgroup         C1      NOp   1
 Largest concise Abelian subgroup C1      NOp   1
                         Standard orientation:                         
 ---------------------------------------------------------------------
 Center     Atomic      Atomic             Coordinates (Angstroms)
 Number     Number       Type             X           Y           Z
 ---------------------------------------------------------------------
      1          6           0       -4.307554    0.404117    1.027756
      2          6           0       -3.319254    0.204145    1.993700
      3          6           0       -2.156415   -0.516637    1.708229
      4          6           0       -1.948512   -1.069532    0.434318
      5          6           0       -2.957120   -0.917094   -0.528185
      6          6           0       -4.125062   -0.185014   -0.230861
      7          6           0       -0.710249   -1.786402    0.080398
      8          6           0       -0.636378   -2.351246   -1.136083
      9          8           0       -1.670813   -2.263751   -2.086322
     10          6           0       -2.802425   -1.543682   -1.860072
     11          6           0        0.464435   -1.837716    1.035321
     12          6           0        1.816864   -2.141897    0.339624
     13          6           0        1.616859   -3.376329   -0.558004
     14          6           0        0.560538   -3.114432   -1.634835
     15          6           0       -5.565449    1.164609    1.346963
     16          8           0       -5.136576   -0.014157   -1.145926
     17          8           0       -3.504111    0.728702    3.242555
     18          8           0       -3.678743   -1.421479   -2.711726
     19          8           0        2.270509   -1.086656   -0.530091
     20          6           0        2.451716    0.223433    0.036009
     21          6           0        3.772808    0.785461   -0.515790
     22          6           0        4.009886    2.223106   -0.018485
     23          6           0        2.793577    3.087826   -0.090455
     24          6           0        1.554073    2.597855   -0.274604
     25          6           0        1.282207    1.125602   -0.397278
     26          8           0        4.878443   -0.029542   -0.088033
     27          8           0        5.030370    2.827514   -0.808829
     28          6           0        0.409987    3.552630   -0.317340
     29          8           0       -0.722716    2.892274   -0.667453
     30          8           0        0.491873    4.742209   -0.055881
     31          6           0       -1.890954    3.713591   -0.707400
     32          6           0        2.876084   -2.500934    1.397607
     33          8           0        4.129008   -2.557544    0.892028
     34          8           0        2.682681   -2.709057    2.584308
     35          1           0       -1.419026   -0.644872    2.494246
     36          1           0        0.243449   -2.608014    1.787004
     37          1           0        0.559054   -0.894841    1.581856
     38          1           0        1.318399   -4.240802    0.050374
     39          1           0        2.554953   -3.653307   -1.055869
     40          1           0        1.012051   -2.546746   -2.458151
     41          1           0        0.237472   -4.075084   -2.053257
     42          1           0       -5.904082    1.747995    0.484285
     43          1           0       -6.357280    0.468667    1.640854
     44          1           0       -5.411107    1.882608    2.158763
     45          1           0       -4.902811   -0.478058   -1.980777
     46          1           0       -2.762092    0.484859    3.818978
     47          1           0        2.522601    0.163305    1.129271
     48          1           0        3.780316    0.746211   -1.612695
     49          1           0        4.377209    2.212655    1.014715
     50          1           0        2.956314    4.159003    0.019570
     51          1           0        0.412012    0.871208    0.213853
     52          1           0        1.005052    0.896557   -1.434761
     53          1           0        4.617548   -0.956501   -0.273126
     54          1           0        5.773223    2.194328   -0.799787
     55          1           0       -2.736762    3.084416   -0.998314
     56          1           0       -2.096489    4.134460    0.281770
     57          1           0       -1.776144    4.507447   -1.451925
     58          1           0        4.698742   -2.772358    1.662869
 ---------------------------------------------------------------------
 Rotational constants (GHZ):      0.1585912      0.0947988      0.0741019
 Standard basis: 6-31G(d) (6D, 7F)
 There are   558 symmetry adapted basis functions of A   symmetry.
 Integral buffers will be    131072 words long.
 Raffenetti 2 integral format.
 Two-electron integral symmetry is turned on.
   558 basis functions,  1048 primitive gaussians,   558 cartesian basis functions
   125 alpha electrons      125 beta electrons
       nuclear repulsion energy      3846.4165544033 Hartrees.
 NAtoms=   58 NActive=   58 NUniq=   58 SFac= 1.00D+00 NAtFMM=   50 NAOKFM=T Big=T
 One-electron integrals computed using PRISM.
 NBasis=   558 RedAO= T  NBF=   558
 NBsUse=   558 1.00D-06 NBFU=   558
 Harris functional with IExCor=  402 diagonalized for initial guess.
 ExpMin= 1.61D-01 ExpMax= 5.48D+03 ExpMxC= 8.25D+02 IAcc=1 IRadAn=         1 AccDes= 0.00D+00
 HarFok:  IExCor=  402 AccDes= 0.00D+00 IRadAn=         1 IDoV= 1
 ScaDFX=  1.000000  1.000000  1.000000  1.000000
 FoFCou: FMM=F IPFlag=           0 FMFlag=      100000 FMFlg1=        2001
         NFxFlg=           0 DoJE=T BraDBF=F KetDBF=T FulRan=T
         Omega=  0.000000  0.000000  1.000000  0.000000  0.000000 ICntrl=     500 IOpCl=  0
         NMat0=    1 NMatS0=    1 NMatT0=    0 NMatD0=    1 NMtDS0=    0 NMtDT0=    0
         I1Cent=           4 NGrid=           0.
 Petite list used in FoFCou.
 Initial guess orbital symmetries:
       Occupied  (A) (A) (A) (A) (A) (A) (A) (A) (A) (A) (A) (A)
                 (A) (A) (A) (A) (A) (A) (A) (A) (A) (A) (A) (A)
                 (A) (A) (A) (A) (A) (A) (A) (A) (A) (A) (A) (A)
                 (A) (A) (A) (A) (A) (A) (A) (A) (A) (A) (A) (A)
                 (A) (A) (A) (A) (A) (A) (A) (A) (A) (A) (A) (A)
                 (A) (A) (A) (A) (A) (A) (A) (A) (A) (A) (A) (A)
                 (A) (A) (A) (A) (A) (A) (A) (A) (A) (A) (A) (A)
                 (A) (A) (A) (A) (A) (A) (A) (A) (A) (A) (A) (A)
                 (A) (A) (A) (A) (A) (A) (A) (A) (A) (A) (A) (A)
                 (A) (A) (A) (A) (A) (A) (A) (A) (A) (A) (A) (A)
                 (A) (A) (A) (A) (A)
       Virtual   (A) (A) (A) (A) (A) (A) (A) (A) (A) (A) (A) (A)
                 (A) (A) (A) (A) (A) (A) (A) (A) (A) (A) (A) (A)
                 (A) (A) (A) (A) (A) (A) (A) (A) (A) (A) (A) (A)
                 (A) (A) (A) (A) (A) (A) (A) (A) (A) (A) (A) (A)
                 (A) (A) (A) (A) (A) (A) (A) (A) (A) (A) (A) (A)
                 (A) (A) (A) (A) (A) (A) (A) (A) (A) (A) (A) (A)
                 (A) (A) (A) (A) (A) (A) (A) (A) (A) (A) (A) (A)
                 (A) (A) (A) (A) (A) (A) (A) (A) (A) (A) (A) (A)
                 (A) (A) (A) (A) (A) (A) (A) (A) (A) (A) (A) (A)
                 (A) (A) (A) (A) (A) (A) (A) (A) (A) (A) (A) (A)
                 (A) (A) (A) (A) (A) (A) (A) (A) (A) (A) (A) (A)
                 (A) (A) (A) (A) (A) (A) (A) (A) (A) (A) (A) (A)
                 (A) (A) (A) (A) (A) (A) (A) (A) (A) (A) (A) (A)
                 (A) (A) (A) (A) (A) (A) (A) (A) (A) (A) (A) (A)
                 (A) (A) (A) (A) (A) (A) (A) (A) (A) (A) (A) (A)
                 (A) (A) (A) (A) (A) (A) (A) (A) (A) (A) (A) (A)
                 (A) (A) (A) (A) (A) (A) (A) (A) (A) (A) (A) (A)
                 (A) (A) (A) (A) (A) (A) (A) (A) (A) (A) (A) (A)
                 (A) (A) (A) (A) (A) (A) (A) (A) (A) (A) (A) (A)
                 (A) (A) (A) (A) (A) (A) (A) (A) (A) (A) (A) (A)
                 (A) (A) (A) (A) (A) (A) (A) (A) (A) (A) (A) (A)
                 (A) (A) (A) (A) (A) (A) (A) (A) (A) (A) (A) (A)
                 (A) (A) (A) (A) (A) (A) (A) (A) (A) (A) (A) (A)
                 (A) (A) (A) (A) (A) (A) (A) (A) (A) (A) (A) (A)
                 (A) (A) (A) (A) (A) (A) (A) (A) (A) (A) (A) (A)
                 (A) (A) (A) (A) (A) (A) (A) (A) (A) (A) (A) (A)
                 (A) (A) (A) (A) (A) (A) (A) (A) (A) (A) (A) (A)
                 (A) (A) (A) (A) (A) (A) (A) (A) (A) (A) (A) (A)
                 (A) (A) (A) (A) (A) (A) (A) (A) (A) (A) (A) (A)
                 (A) (A) (A) (A) (A) (A) (A) (A) (A) (A) (A) (A)
                 (A) (A) (A) (A) (A) (A) (A) (A) (A) (A) (A) (A)
                 (A) (A) (A) (A) (A) (A) (A) (A) (A) (A) (A) (A)
                 (A) (A) (A) (A) (A) (A) (A) (A) (A) (A) (A) (A)
                 (A) (A) (A) (A) (A) (A) (A) (A) (A) (A) (A) (A)
                 (A) (A) (A) (A) (A) (A) (A) (A) (A) (A) (A) (A)
                 (A) (A) (A) (A) (A) (A) (A) (A) (A) (A) (A) (A)
                 (A)
 The electronic state of the initial guess is 1-A.
 Requested convergence on RMS density matrix=1.00D-08 within 128 cycles.
 Requested convergence on MAX density matrix=1.00D-06.
 Requested convergence on             energy=1.00D-06.
 No special actions if energy rises.
 Integral accuracy reduced to 1.0D-05 until final iterations.
 Initial convergence to 1.0D-05 achieved.  Increase integral accuracy.
 SCF Done:  E(RB3LYP) =  -1718.35876614     A.U. after   15 cycles
             Convg  =    0.3615D-08             -V/T =  2.0091

 **********************************************************************

            Population analysis using the SCF density.

 **********************************************************************

 Orbital symmetries:
       Occupied  (A) (A) (A) (A) (A) (A) (A) (A) (A) (A) (A) (A)
                 (A) (A) (A) (A) (A) (A) (A) (A) (A) (A) (A) (A)
                 (A) (A) (A) (A) (A) (A) (A) (A) (A) (A) (A) (A)
                 (A) (A) (A) (A) (A) (A) (A) (A) (A) (A) (A) (A)
                 (A) (A) (A) (A) (A) (A) (A) (A) (A) (A) (A) (A)
                 (A) (A) (A) (A) (A) (A) (A) (A) (A) (A) (A) (A)
                 (A) (A) (A) (A) (A) (A) (A) (A) (A) (A) (A) (A)
                 (A) (A) (A) (A) (A) (A) (A) (A) (A) (A) (A) (A)
                 (A) (A) (A) (A) (A) (A) (A) (A) (A) (A) (A) (A)
                 (A) (A) (A) (A) (A) (A) (A) (A) (A) (A) (A) (A)
                 (A) (A) (A) (A) (A)
       Virtual   (A) (A) (A) (A) (A) (A) (A) (A) (A) (A) (A) (A)
                 (A) (A) (A) (A) (A) (A) (A) (A) (A) (A) (A) (A)
                 (A) (A) (A) (A) (A) (A) (A) (A) (A) (A) (A) (A)
                 (A) (A) (A) (A) (A) (A) (A) (A) (A) (A) (A) (A)
                 (A) (A) (A) (A) (A) (A) (A) (A) (A) (A) (A) (A)
                 (A) (A) (A) (A) (A) (A) (A) (A) (A) (A) (A) (A)
                 (A) (A) (A) (A) (A) (A) (A) (A) (A) (A) (A) (A)
                 (A) (A) (A) (A) (A) (A) (A) (A) (A) (A) (A) (A)
                 (A) (A) (A) (A) (A) (A) (A) (A) (A) (A) (A) (A)
                 (A) (A) (A) (A) (A) (A) (A) (A) (A) (A) (A) (A)
                 (A) (A) (A) (A) (A) (A) (A) (A) (A) (A) (A) (A)
                 (A) (A) (A) (A) (A) (A) (A) (A) (A) (A) (A) (A)
                 (A) (A) (A) (A) (A) (A) (A) (A) (A) (A) (A) (A)
                 (A) (A) (A) (A) (A) (A) (A) (A) (A) (A) (A) (A)
                 (A) (A) (A) (A) (A) (A) (A) (A) (A) (A) (A) (A)
                 (A) (A) (A) (A) (A) (A) (A) (A) (A) (A) (A) (A)
                 (A) (A) (A) (A) (A) (A) (A) (A) (A) (A) (A) (A)
                 (A) (A) (A) (A) (A) (A) (A) (A) (A) (A) (A) (A)
                 (A) (A) (A) (A) (A) (A) (A) (A) (A) (A) (A) (A)
                 (A) (A) (A) (A) (A) (A) (A) (A) (A) (A) (A) (A)
                 (A) (A) (A) (A) (A) (A) (A) (A) (A) (A) (A) (A)
                 (A) (A) (A) (A) (A) (A) (A) (A) (A) (A) (A) (A)
                 (A) (A) (A) (A) (A) (A) (A) (A) (A) (A) (A) (A)
                 (A) (A) (A) (A) (A) (A) (A) (A) (A) (A) (A) (A)
                 (A) (A) (A) (A) (A) (A) (A) (A) (A) (A) (A) (A)
                 (A) (A) (A) (A) (A) (A) (A) (A) (A) (A) (A) (A)
                 (A) (A) (A) (A) (A) (A) (A) (A) (A) (A) (A) (A)
                 (A) (A) (A) (A) (A) (A) (A) (A) (A) (A) (A) (A)
                 (A) (A) (A) (A) (A) (A) (A) (A) (A) (A) (A) (A)
                 (A) (A) (A) (A) (A) (A) (A) (A) (A) (A) (A) (A)
                 (A) (A) (A) (A) (A) (A) (A) (A) (A) (A) (A) (A)
                 (A) (A) (A) (A) (A) (A) (A) (A) (A) (A) (A) (A)
                 (A) (A) (A) (A) (A) (A) (A) (A) (A) (A) (A) (A)
                 (A) (A) (A) (A) (A) (A) (A) (A) (A) (A) (A) (A)
                 (A) (A) (A) (A) (A) (A) (A) (A) (A) (A) (A) (A)
                 (A) (A) (A) (A) (A) (A) (A) (A) (A) (A) (A) (A)
                 (A)
 The electronic state is 1-A.
 Alpha  occ. eigenvalues --  -19.23133 -19.22831 -19.19855 -19.19710 -19.18669
 Alpha  occ. eigenvalues --  -19.17199 -19.16735 -19.14684 -19.14669 -19.14434
 Alpha  occ. eigenvalues --  -19.13614 -10.35087 -10.33503 -10.31718 -10.29453
 Alpha  occ. eigenvalues --  -10.27753 -10.26975 -10.26770 -10.26038 -10.24795
 Alpha  occ. eigenvalues --  -10.24420 -10.23970 -10.22799 -10.22322 -10.22316
 Alpha  occ. eigenvalues --  -10.22160 -10.21929 -10.21174 -10.20918 -10.20565
 Alpha  occ. eigenvalues --  -10.20161 -10.20046 -10.20046 -10.17955  -1.14012
 Alpha  occ. eigenvalues --   -1.12375  -1.10254  -1.07709  -1.06547  -1.05513
 Alpha  occ. eigenvalues --   -1.04180  -1.02918  -1.02874  -1.01405  -1.00760
 Alpha  occ. eigenvalues --   -0.88362  -0.86556  -0.84583  -0.81249  -0.79338
 Alpha  occ. eigenvalues --   -0.77435  -0.76103  -0.75800  -0.74835  -0.71771
 Alpha  occ. eigenvalues --   -0.70310  -0.70049  -0.66864  -0.65527  -0.64728
 Alpha  occ. eigenvalues --   -0.63951  -0.63166  -0.61591  -0.59398  -0.58690
 Alpha  occ. eigenvalues --   -0.57268  -0.55816  -0.55179  -0.54158  -0.53046
 Alpha  occ. eigenvalues --   -0.52146  -0.51814  -0.51533  -0.50767  -0.49881
 Alpha  occ. eigenvalues --   -0.48807  -0.48576  -0.48517  -0.48272  -0.47846
 Alpha  occ. eigenvalues --   -0.47003  -0.46628  -0.46509  -0.45647  -0.45016
 Alpha  occ. eigenvalues --   -0.44687  -0.44268  -0.43964  -0.43755  -0.43342
 Alpha  occ. eigenvalues --   -0.43036  -0.42210  -0.41983  -0.41202  -0.40850
 Alpha  occ. eigenvalues --   -0.40111  -0.39927  -0.39773  -0.39181  -0.38815
 Alpha  occ. eigenvalues --   -0.38620  -0.38435  -0.38000  -0.37505  -0.37216
 Alpha  occ. eigenvalues --   -0.35975  -0.35783  -0.35308  -0.34975  -0.34898
 Alpha  occ. eigenvalues --   -0.34806  -0.34194  -0.33776  -0.32696  -0.31632
 Alpha  occ. eigenvalues --   -0.30519  -0.29132  -0.28342  -0.27857  -0.27612
 Alpha  occ. eigenvalues --   -0.26957  -0.26845  -0.25487  -0.23819  -0.22180
 Alpha virt. eigenvalues --   -0.04656  -0.04385  -0.03494  -0.03114   0.03024
 Alpha virt. eigenvalues --    0.04180   0.05025   0.05784   0.06669   0.07466
 Alpha virt. eigenvalues --    0.07806   0.09384   0.09600   0.09917   0.10161
 Alpha virt. eigenvalues --    0.11538   0.11651   0.11847   0.12502   0.13288
 Alpha virt. eigenvalues --    0.13659   0.14124   0.14608   0.14960   0.15390
 Alpha virt. eigenvalues --    0.15664   0.16040   0.16360   0.16807   0.17083
 Alpha virt. eigenvalues --    0.17184   0.17471   0.17512   0.18101   0.18550
 Alpha virt. eigenvalues --    0.19369   0.19684   0.20051   0.20687   0.21198
 Alpha virt. eigenvalues --    0.21837   0.22217   0.23171   0.23510   0.24028
 Alpha virt. eigenvalues --    0.25262   0.25558   0.25953   0.26450   0.27765
 Alpha virt. eigenvalues --    0.27847   0.28868   0.29767   0.30093   0.31447
 Alpha virt. eigenvalues --    0.32003   0.32580   0.33435   0.36911   0.37663
 Alpha virt. eigenvalues --    0.39098   0.40109   0.40321   0.40676   0.41682
 Alpha virt. eigenvalues --    0.42609   0.45193   0.46689   0.47473   0.49401
 Alpha virt. eigenvalues --    0.49609   0.50041   0.50569   0.51337   0.51667
 Alpha virt. eigenvalues --    0.51951   0.52578   0.52848   0.53265   0.53815
 Alpha virt. eigenvalues --    0.54278   0.55284   0.55798   0.56405   0.57129
 Alpha virt. eigenvalues --    0.57269   0.57715   0.58129   0.58395   0.58691
 Alpha virt. eigenvalues --    0.59302   0.59632   0.59888   0.60508   0.61331
 Alpha virt. eigenvalues --    0.61841   0.62381   0.62783   0.63877   0.64435
 Alpha virt. eigenvalues --    0.64985   0.65111   0.65413   0.66068   0.66693
 Alpha virt. eigenvalues --    0.67037   0.68109   0.68712   0.69131   0.70069
 Alpha virt. eigenvalues --    0.70314   0.71460   0.71888   0.72314   0.73007
 Alpha virt. eigenvalues --    0.73456   0.74037   0.74683   0.74938   0.75087
 Alpha virt. eigenvalues --    0.75418   0.76247   0.76861   0.78071   0.78461
 Alpha virt. eigenvalues --    0.79391   0.80042   0.80795   0.81705   0.82014
 Alpha virt. eigenvalues --    0.82668   0.83013   0.83654   0.84089   0.84908
 Alpha virt. eigenvalues --    0.85380   0.85787   0.86346   0.86656   0.87353
 Alpha virt. eigenvalues --    0.87527   0.87919   0.88347   0.88623   0.89871
 Alpha virt. eigenvalues --    0.90121   0.90674   0.90973   0.91329   0.92276
 Alpha virt. eigenvalues --    0.92493   0.93165   0.93716   0.94229   0.94699
 Alpha virt. eigenvalues --    0.95016   0.95883   0.96411   0.96997   0.97097
 Alpha virt. eigenvalues --    0.97722   0.98156   0.98994   1.00102   1.00464
 Alpha virt. eigenvalues --    1.00992   1.01576   1.02249   1.03090   1.03192
 Alpha virt. eigenvalues --    1.03836   1.05090   1.05577   1.05843   1.06823
 Alpha virt. eigenvalues --    1.07763   1.08430   1.09783   1.10483   1.10637
 Alpha virt. eigenvalues --    1.11192   1.11751   1.12268   1.14435   1.15512
 Alpha virt. eigenvalues --    1.15964   1.17319   1.18976   1.19909   1.20627
 Alpha virt. eigenvalues --    1.20936   1.21489   1.23030   1.23219   1.24056
 Alpha virt. eigenvalues --    1.24326   1.25552   1.26205   1.26718   1.28337
 Alpha virt. eigenvalues --    1.30435   1.31509   1.32012   1.32757   1.33537
 Alpha virt. eigenvalues --    1.34688   1.34835   1.35398   1.36554   1.37301
 Alpha virt. eigenvalues --    1.37809   1.38066   1.39195   1.39397   1.40073
 Alpha virt. eigenvalues --    1.41804   1.42272   1.42294   1.43274   1.44030
 Alpha virt. eigenvalues --    1.44682   1.45646   1.48535   1.48946   1.49725
 Alpha virt. eigenvalues --    1.51224   1.51289   1.54602   1.55539   1.58028
 Alpha virt. eigenvalues --    1.59545   1.60841   1.61912   1.62701   1.64593
 Alpha virt. eigenvalues --    1.65538   1.65966   1.67202   1.67988   1.68236
 Alpha virt. eigenvalues --    1.69464   1.70342   1.70836   1.71106   1.71278
 Alpha virt. eigenvalues --    1.71962   1.72389   1.72654   1.73477   1.73730
 Alpha virt. eigenvalues --    1.74604   1.75266   1.75462   1.76545   1.76737
 Alpha virt. eigenvalues --    1.77760   1.78622   1.79434   1.79692   1.80437
 Alpha virt. eigenvalues --    1.81153   1.81608   1.82391   1.83025   1.83218
 Alpha virt. eigenvalues --    1.83607   1.84141   1.84826   1.85159   1.85837
 Alpha virt. eigenvalues --    1.86994   1.87481   1.87636   1.88088   1.88722
 Alpha virt. eigenvalues --    1.89344   1.89777   1.90190   1.91394   1.92260
 Alpha virt. eigenvalues --    1.92954   1.93059   1.93898   1.94292   1.95251
 Alpha virt. eigenvalues --    1.95826   1.96625   1.97994   1.98432   1.99507
 Alpha virt. eigenvalues --    2.00678   2.00803   2.01452   2.02208   2.03341
 Alpha virt. eigenvalues --    2.03815   2.04619   2.04689   2.05938   2.05982
 Alpha virt. eigenvalues --    2.07778   2.08979   2.09108   2.10808   2.10828
 Alpha virt. eigenvalues --    2.12696   2.13661   2.13725   2.14827   2.15605
 Alpha virt. eigenvalues --    2.18659   2.19487   2.21061   2.21705   2.23727
 Alpha virt. eigenvalues --    2.23965   2.24736   2.25969   2.26714   2.26949
 Alpha virt. eigenvalues --    2.28001   2.28461   2.29646   2.29831   2.30613
 Alpha virt. eigenvalues --    2.31339   2.33011   2.33414   2.33723   2.34341
 Alpha virt. eigenvalues --    2.34892   2.35591   2.35771   2.36929   2.37670
 Alpha virt. eigenvalues --    2.38932   2.39791   2.40810   2.42175   2.42762
 Alpha virt. eigenvalues --    2.42990   2.43416   2.45260   2.46574   2.47376
 Alpha virt. eigenvalues --    2.47889   2.49259   2.49837   2.52446   2.52626
 Alpha virt. eigenvalues --    2.53651   2.54468   2.55758   2.56705   2.57966
 Alpha virt. eigenvalues --    2.59066   2.59326   2.60940   2.63254   2.65014
 Alpha virt. eigenvalues --    2.65465   2.65871   2.66924   2.68802   2.69529
 Alpha virt. eigenvalues --    2.70639   2.70991   2.71078   2.72582   2.73837
 Alpha virt. eigenvalues --    2.76466   2.76492   2.77727   2.80733   2.81415
 Alpha virt. eigenvalues --    2.83871   2.84300   2.85028   2.87728   2.90395
 Alpha virt. eigenvalues --    2.90865   2.92862   2.93844   2.95186   2.96381
 Alpha virt. eigenvalues --    2.98584   3.00231   3.01808   3.03038   3.05740
 Alpha virt. eigenvalues --    3.07014   3.09981   3.11336   3.13208   3.16535
 Alpha virt. eigenvalues --    3.22020   3.22571   3.40820   3.49262   3.76456
 Alpha virt. eigenvalues --    3.88119   3.94815   3.95338   3.96728   3.99320
 Alpha virt. eigenvalues --    4.05666   4.07764   4.08909   4.14731   4.17365
 Alpha virt. eigenvalues --    4.17881   4.18961   4.22344   4.23305   4.24706
 Alpha virt. eigenvalues --    4.26665   4.29882   4.34236   4.35570   4.39046
 Alpha virt. eigenvalues --    4.40104   4.43757   4.44986   4.48202   4.52286
 Alpha virt. eigenvalues --    4.54142   4.57549   4.59697   4.63405   4.72495
 Alpha virt. eigenvalues --    4.73578   4.78797   4.87280
          Condensed to atoms (all electrons):
 Mulliken atomic charges:
              1
     1  C    0.087584
     2  C    0.334001
     3  C   -0.310119
     4  C    0.122857
     5  C   -0.062341
     6  C    0.231265
     7  C    0.066762
     8  C    0.282895
     9  O   -0.513656
    10  C    0.637307
    11  C   -0.358772
    12  C    0.230567
    13  C   -0.308531
    14  C   -0.340176
    15  C   -0.509824
    16  O   -0.665467
    17  O   -0.643939
    18  O   -0.533104
    19  O   -0.539857
    20  C    0.091562
    21  C    0.100535
    22  C    0.102560
    23  C   -0.137534
    24  C    0.051166
    25  C   -0.350157
    26  O   -0.687230
    27  O   -0.638382
    28  C    0.601662
    29  O   -0.459243
    30  O   -0.489220
    31  C   -0.225628
    32  C    0.599002
    33  O   -0.579372
    34  O   -0.468893
    35  H    0.120548
    36  H    0.187307
    37  H    0.165157
    38  H    0.165768
    39  H    0.172437
    40  H    0.188652
    41  H    0.175385
    42  H    0.173102
    43  H    0.171416
    44  H    0.168295
    45  H    0.449681
    46  H    0.415914
    47  H    0.142704
    48  H    0.143070
    49  H    0.144564
    50  H    0.181187
    51  H    0.168004
    52  H    0.177467
    53  H    0.425919
    54  H    0.404522
    55  H    0.173632
    56  H    0.170270
    57  H    0.172051
    58  H    0.424667
 Sum of Mulliken atomic charges =   0.00000
 Mulliken charges with hydrogens summed into heavy atoms:
              1
     1  C    0.087584
     2  C    0.334001
     3  C   -0.189572
     4  C    0.122857
     5  C   -0.062341
     6  C    0.231265
     7  C    0.066762
     8  C    0.282895
     9  O   -0.513656
    10  C    0.637307
    11  C   -0.006308
    12  C    0.230567
    13  C    0.029674
    14  C    0.023862
    15  C    0.002990
    16  O   -0.215786
    17  O   -0.228025
    18  O   -0.533104
    19  O   -0.539857
    20  C    0.234266
    21  C    0.243605
    22  C    0.247124
    23  C    0.043653
    24  C    0.051166
    25  C   -0.004686
    26  O   -0.261312
    27  O   -0.233860
    28  C    0.601662
    29  O   -0.459243
    30  O   -0.489220
    31  C    0.290325
    32  C    0.599002
    33  O   -0.154705
    34  O   -0.468893
 Sum of Mulliken charges with hydrogens summed into heavy atoms =   0.00000
 Electronic spatial extent (au):  <R**2>=          15041.3538
 Charge=              0.0000 electrons
 Dipole moment (field-independent basis, Debye):
    X=              2.4111    Y=             -4.4679    Z=              2.9525  Tot=              5.8730
 Quadrupole moment (field-independent basis, Debye-Ang):
   XX=           -203.8544   YY=           -202.6008   ZZ=           -196.1101
   XY=            -21.0662   XZ=             -5.5832   YZ=              0.1161
 Traceless Quadrupole moment (field-independent basis, Debye-Ang):
   XX=             -2.9993   YY=             -1.7457   ZZ=              4.7450
   XY=            -21.0662   XZ=             -5.5832   YZ=              0.1161
 Octapole moment (field-independent basis, Debye-Ang**2):
  XXX=            133.4642  YYY=           -136.0211  ZZZ=             32.6563  XYY=            -10.0917
  XXY=            -34.0267  XXZ=             44.5887  XZZ=             25.0216  YZZ=             27.8083
  YYZ=            -11.3720  XYZ=             32.3994
 Hexadecapole moment (field-independent basis, Debye-Ang**3):
 XXXX=         -10929.2203 YYYY=          -6245.7255 ZZZZ=          -2128.6720 XXXY=           -387.7499
 XXXZ=            123.1585 YYYX=           -378.6027 YYYZ=             14.6232 ZZZX=           -107.4167
 ZZZY=             -2.2231 XXYY=          -2746.4924 XXZZ=          -2257.7390 YYZZ=          -1384.4223
 XXYZ=            -71.7292 YYXZ=             69.9943 ZZXY=            -54.2248
 N-N= 3.846416554403D+03 E-N=-1.170567593688D+04  KE= 1.702858995784D+03
 Calling FoFJK, ICntrl=      2127 FMM=T ISym2X=0 I1Cent= 0 IOpClX= 0 NMat=1 NMatS=1 NMatT=0.
 ***** Axes restored to original set *****
 -------------------------------------------------------------------
 Center     Atomic                   Forces (Hartrees/Bohr)
 Number     Number              X              Y              Z
 -------------------------------------------------------------------
      1        6           0.007206212   -0.003524338    0.001825028
      2        6          -0.006406744    0.009214979    0.000287840
      3        6          -0.007940633   -0.000074315   -0.001833084
      4        6           0.000806704    0.019821298    0.008159472
      5        6          -0.021257209   -0.010480677   -0.013611176
      6        6           0.009483442   -0.022735495   -0.005345194
      7        6           0.010614322   -0.011497052    0.005771836
      8        6          -0.001220436   -0.007096315   -0.005490148
      9        8          -0.009913295    0.009066493   -0.000172687
     10        6           0.032768735    0.009317082    0.019084050
     11        6           0.000934914    0.000450196   -0.002773246
     12        6           0.004477285   -0.001506911   -0.006064307
     13        6          -0.004693101   -0.003422598   -0.003290668
     14        6           0.000854645   -0.011070589   -0.000707770
     15        6           0.000155582   -0.002855351    0.007048609
     16        8           0.004781861    0.020545106    0.010577269
     17        8           0.003431144   -0.006243340   -0.001141791
     18        8          -0.022863613   -0.000051076   -0.010657154
     19        8           0.002755768    0.012341547   -0.009271800
     20        6          -0.005632287   -0.015614544    0.008816815
     21        6           0.000653398    0.017898979   -0.010463035
     22        6          -0.013320786   -0.002380744   -0.002116853
     23        6           0.003649758   -0.004838897   -0.003137022
     24        6          -0.005043241    0.008447498    0.009861725
     25        6           0.004484043    0.002195702   -0.006854425
     26        8           0.003930513   -0.002580325    0.002003863
     27        8          -0.007141362   -0.000762006    0.001892703
     28        6          -0.005222146    0.007316503    0.005541956
     29        8           0.002831490   -0.001969886    0.008179096
     30        8           0.002127484   -0.004800470   -0.013915091
     31        6           0.008480360   -0.007544151   -0.002194205
     32        6           0.009461285    0.015502276    0.009345338
     33        8          -0.002774411    0.001822075   -0.004016721
     34        8          -0.003477152   -0.015018953   -0.003428953
     35        1          -0.001028250    0.000677521    0.000189634
     36        1          -0.004841600    0.003872987    0.004327306
     37        1           0.001840965   -0.000225968   -0.000974133
     38        1           0.001903366    0.001191105    0.003937975
     39        1           0.002087675    0.001161762    0.002312896
     40        1          -0.000051698   -0.000988091   -0.000971087
     41        1           0.000210473   -0.002168694   -0.000150481
     42        1          -0.000357452   -0.000149642   -0.005338572
     43        1           0.003175271   -0.002386781    0.000236570
     44        1          -0.000674006    0.003640721   -0.003170247
     45        1          -0.006262963    0.005865397    0.000044570
     46        1          -0.001696034   -0.002209073   -0.000806362
     47        1          -0.000391473    0.000361985    0.000824192
     48        1           0.008484963   -0.007802844    0.004542792
     49        1           0.004673023    0.005996273   -0.006261236
     50        1           0.000213434   -0.001145553   -0.002160143
     51        1           0.001116584   -0.004058827   -0.000854366
     52        1          -0.000746912    0.002255422   -0.002447627
     53        1          -0.000589360    0.000550050    0.008297861
     54        1           0.002730235   -0.001745913    0.002524432
     55        1          -0.004266983    0.003396129   -0.002009411
     56        1          -0.001973643   -0.001442789    0.003034505
     57        1           0.001193864    0.002609545    0.002644283
     58        1          -0.001732009   -0.005126420    0.000316378
 -------------------------------------------------------------------
 Cartesian Forces:  Max     0.032768735 RMS     0.007301533

 GradGradGradGradGradGradGradGradGradGradGradGradGradGradGradGradGradGrad
 Berny optimization.
 Internal  Forces:  Max     0.028658254 RMS     0.004508120
 Search for a local minimum.
 Step number   1 out of a maximum of  340
 All quantities printed in internal units (Hartrees-Bohrs-Radians)
 Mixed Optimization -- RFO/linear search
 Second derivative matrix not updated -- first step.
 ITU=  0
     Eigenvalues ---    0.00243   0.00500   0.00511   0.00541   0.00566
     Eigenvalues ---    0.00707   0.00711   0.00888   0.01153   0.01163
     Eigenvalues ---    0.01181   0.01181   0.01221   0.01275   0.01304
     Eigenvalues ---    0.01313   0.01357   0.01358   0.01364   0.01422
     Eigenvalues ---    0.01530   0.01643   0.01711   0.01736   0.01797
     Eigenvalues ---    0.01907   0.02010   0.02027   0.02043   0.02074
     Eigenvalues ---    0.02112   0.02127   0.02129   0.02260   0.02323
     Eigenvalues ---    0.02796   0.03058   0.03425   0.03595   0.04022
     Eigenvalues ---    0.04341   0.04747   0.04856   0.04942   0.05001
     Eigenvalues ---    0.05184   0.05434   0.05746   0.05766   0.05846
     Eigenvalues ---    0.06267   0.06639   0.07155   0.07182   0.07247
     Eigenvalues ---    0.07728   0.08079   0.08093   0.08152   0.08154
     Eigenvalues ---    0.09519   0.09572   0.09679   0.09897   0.10043
     Eigenvalues ---    0.10114   0.10502   0.11856   0.12044   0.14228
     Eigenvalues ---    0.14729   0.16000   0.16000   0.16000   0.16000
     Eigenvalues ---    0.16000   0.16000   0.16000   0.16000   0.16000
     Eigenvalues ---    0.16000   0.16000   0.16000   0.16624   0.16725
     Eigenvalues ---    0.17089   0.18798   0.19360   0.19802   0.22971
     Eigenvalues ---    0.23522   0.24321   0.24932   0.24954   0.24983
     Eigenvalues ---    0.24986   0.24988   0.24993   0.24998   0.24998
     Eigenvalues ---    0.24998   0.24999   0.25000   0.25000   0.25000
     Eigenvalues ---    0.25000   0.25000   0.26857   0.27492   0.27653
     Eigenvalues ---    0.27691   0.27964   0.28560   0.28565   0.30444
     Eigenvalues ---    0.31309   0.31449   0.31943   0.32380   0.32671
     Eigenvalues ---    0.33367   0.33822   0.33858   0.33902   0.33945
     Eigenvalues ---    0.33955   0.33987   0.33993   0.34061   0.34073
     Eigenvalues ---    0.34231   0.34275   0.34303   0.34309   0.34309
     Eigenvalues ---    0.34363   0.34404   0.34427   0.34568   0.34924
     Eigenvalues ---    0.35354   0.38458   0.39484   0.39775   0.39775
     Eigenvalues ---    0.40824   0.41189   0.41679   0.43283   0.44433
     Eigenvalues ---    0.45150   0.45421   0.46003   0.49804   0.50300
     Eigenvalues ---    0.50662   0.50938   0.51268   0.51537   0.52143
     Eigenvalues ---    0.52618   0.53228   0.53542   0.53764   0.54541
     Eigenvalues ---    0.91673   0.95064   0.95278
 RFO step:  Lambda=-2.60503296D-02 EMin= 2.42909765D-03
 Linear search not attempted -- first point.
 Iteration  1 RMS(Cart)=  0.06289021 RMS(Int)=  0.00153042
 Iteration  2 RMS(Cart)=  0.00332012 RMS(Int)=  0.00039022
 Iteration  3 RMS(Cart)=  0.00000575 RMS(Int)=  0.00039020
 Iteration  4 RMS(Cart)=  0.00000001 RMS(Int)=  0.00039020
 Variable       Old X    -DE/DX   Delta X   Delta X   Delta X     New X
                                 (Linear)    (Quad)   (Total)
    R1        2.63871   0.00547   0.00000   0.01039   0.01070   2.64941
    R2        2.64865  -0.00071   0.00000  -0.00147  -0.00155   2.64710
    R3        2.84248   0.00245   0.00000   0.00709   0.00709   2.84957
    R4        2.64103   0.00482   0.00000   0.00910   0.00948   2.65051
    R5        2.58345  -0.00456   0.00000  -0.00842  -0.00842   2.57503
    R6        2.65355  -0.00558   0.00000  -0.01178  -0.01170   2.64185
    R7        2.05103   0.00090   0.00000   0.00236   0.00236   2.05339
    R8        2.65029   0.00848   0.00000   0.02022   0.01957   2.66987
    R9        2.78532  -0.00983   0.00000  -0.02480  -0.02474   2.76058
   R10        2.66474   0.00467   0.00000   0.01230   0.01086   2.67560
   R11        2.79684  -0.00997   0.00000  -0.02462  -0.02584   2.77100
   R12        2.59774  -0.02866   0.00000  -0.05398  -0.05423   2.54351
   R13        2.53838   0.00381   0.00000   0.00694   0.00734   2.54572
   R14        2.86242  -0.00130   0.00000  -0.00330  -0.00330   2.85911
   R15        2.65953  -0.02075   0.00000  -0.04581  -0.04547   2.61406
   R16        2.84328  -0.00640   0.00000  -0.01713  -0.01711   2.82616
   R17        2.57047  -0.00204   0.00000  -0.00453  -0.00456   2.56591
   R18        2.32074  -0.00156   0.00000  -0.00184  -0.00173   2.31901
   R19        2.93095  -0.00488   0.00000  -0.01888  -0.01887   2.91209
   R20        2.07631  -0.00169   0.00000  -0.00465  -0.00465   2.07166
   R21        2.06721  -0.00026   0.00000  -0.00072  -0.00072   2.06650
   R22        2.90893   0.00037   0.00000   0.00099   0.00095   2.90988
   R23        2.72261  -0.00767   0.00000  -0.01823  -0.01823   2.70437
   R24        2.90931  -0.00275   0.00000  -0.00881  -0.00881   2.90050
   R25        2.89318   0.00342   0.00000   0.00949   0.00951   2.90269
   R26        2.07570  -0.00141   0.00000  -0.00387  -0.00387   2.07184
   R27        2.07406  -0.00203   0.00000  -0.00556  -0.00556   2.06850
   R28        2.07352   0.00017   0.00000   0.00046   0.00046   2.07398
   R29        2.07207   0.00046   0.00000   0.00126   0.00126   2.07333
   R30        2.06942  -0.00112   0.00000  -0.00303  -0.00303   2.06639
   R31        2.06811   0.00151   0.00000   0.00410   0.00410   2.07221
   R32        2.06868  -0.00111   0.00000  -0.00301  -0.00301   2.06567
   R33        1.85812   0.00477   0.00000   0.00793   0.00893   1.86705
   R34        1.83441  -0.00153   0.00000  -0.00273  -0.00273   1.83168
   R35        3.23064   0.00345   0.00000   0.02807   0.02918   3.25982
   R36        2.71860   0.00511   0.00000   0.01205   0.01205   2.73066
   R37        2.90652  -0.00264   0.00000  -0.00663  -0.00668   2.89984
   R38        2.90883   0.00042   0.00000   0.00086   0.00090   2.90973
   R39        2.07342   0.00026   0.00000   0.00072   0.00072   2.07414
   R40        2.90941  -0.00802   0.00000  -0.02552  -0.02553   2.88388
   R41        2.71860  -0.00569   0.00000  -0.01342  -0.01342   2.70518
   R42        2.07422   0.00075   0.00000   0.00205   0.00205   2.07627
   R43        2.82344   0.00244   0.00000   0.00677   0.00675   2.83019
   R44        2.69333   0.00657   0.00000   0.01484   0.01484   2.70817
   R45        2.07228   0.00488   0.00000   0.01331   0.01331   2.08559
   R46        2.54261  -0.00495   0.00000  -0.00886  -0.00885   2.53377
   R47        2.05799  -0.00188   0.00000  -0.00502  -0.00502   2.05297
   R48        2.83867   0.00718   0.00000   0.01993   0.01996   2.85864
   R49        2.81712   0.00420   0.00000   0.01167   0.01167   2.82879
   R50        2.06615   0.00061   0.00000   0.00164   0.00164   2.06779
   R51        2.07496  -0.00050   0.00000  -0.00138  -0.00138   2.07357
   R52        1.85307  -0.00821   0.00000  -0.01525  -0.01525   1.83782
   R53        1.84463  -0.00390   0.00000  -0.00712  -0.00712   1.83751
   R54        2.56451  -0.00253   0.00000  -0.00451  -0.00451   2.56000
   R55        2.30683  -0.01229   0.00000  -0.01259  -0.01259   2.29425
   R56        2.69969   0.00476   0.00000   0.01087   0.01087   2.71056
   R57        2.06654  -0.00124   0.00000  -0.00334  -0.00334   2.06320
   R58        2.06822  -0.00078   0.00000  -0.00211  -0.00211   2.06612
   R59        2.06811  -0.00081   0.00000  -0.00220  -0.00220   2.06592
   R60        2.55542   0.00321   0.00000   0.00561   0.00561   2.56103
   R61        2.30591  -0.01389   0.00000  -0.01419  -0.01419   2.29173
   R62        1.85630  -0.00482   0.00000  -0.00900  -0.00900   1.84730
    A1        2.05878  -0.00384   0.00000  -0.01270  -0.01315   2.04563
    A2        2.11472   0.00322   0.00000   0.01129   0.01148   2.12620
    A3        2.10826   0.00066   0.00000   0.00201   0.00220   2.11046
    A4        2.11935   0.00429   0.00000   0.01515   0.01518   2.13453
    A5        2.07291  -0.00972   0.00000  -0.03503  -0.03504   2.03787
    A6        2.09092   0.00544   0.00000   0.01988   0.01986   2.11078
    A7        2.10781  -0.00328   0.00000  -0.01219  -0.01239   2.09541
    A8        2.06951   0.00246   0.00000   0.01049   0.01059   2.08009
    A9        2.10586   0.00082   0.00000   0.00167   0.00177   2.10763
   A10        2.06387   0.00359   0.00000   0.01345   0.01300   2.07688
   A11        2.13380   0.00463   0.00000   0.01128   0.01216   2.14597
   A12        2.08547  -0.00822   0.00000  -0.02471  -0.02515   2.06032
   A13        2.10293  -0.00350   0.00000  -0.01411  -0.01326   2.08967
   A14        2.09026   0.00196   0.00000   0.00768   0.00856   2.09882
   A15        2.08991   0.00153   0.00000   0.00642   0.00468   2.09459
   A16        2.11227   0.00279   0.00000   0.01112   0.01124   2.12351
   A17        2.03723   0.00324   0.00000   0.00679   0.00857   2.04580
   A18        2.13368  -0.00603   0.00000  -0.01790  -0.01980   2.11387
   A19        2.05803   0.00360   0.00000   0.01449   0.01439   2.07242
   A20        2.11369  -0.00089   0.00000  -0.00570  -0.00565   2.10804
   A21        2.11068  -0.00269   0.00000  -0.00828  -0.00831   2.10236
   A22        2.14707   0.00153   0.00000   0.00214   0.00231   2.14938
   A23        2.16186   0.00783   0.00000   0.03277   0.03266   2.19451
   A24        1.97407  -0.00936   0.00000  -0.03487  -0.03492   1.93914
   A25        2.13186   0.00002   0.00000  -0.00286  -0.00328   2.12858
   A26        2.04964   0.00114   0.00000   0.00423   0.00408   2.05372
   A27        2.10292   0.02470   0.00000   0.09218   0.09097   2.19389
   A28        2.13053  -0.02584   0.00000  -0.09644  -0.09507   2.03546
   A29        1.98241  -0.00238   0.00000  -0.01289  -0.01287   1.96954
   A30        1.87451   0.00598   0.00000   0.04671   0.04665   1.92117
   A31        1.93141  -0.00087   0.00000  -0.00611  -0.00607   1.92533
   A32        1.92277  -0.00466   0.00000  -0.03321  -0.03304   1.88973
   A33        1.89412   0.00304   0.00000   0.01583   0.01587   1.90999
   A34        1.85445  -0.00115   0.00000  -0.01089  -0.01095   1.84351
   A35        1.88130   0.00368   0.00000   0.02109   0.02100   1.90231
   A36        1.98415   0.00134   0.00000   0.00271   0.00286   1.98702
   A37        1.91497  -0.00367   0.00000  -0.01169  -0.01182   1.90315
   A38        1.85069  -0.00410   0.00000  -0.02239  -0.02236   1.82833
   A39        1.87874   0.00156   0.00000   0.00913   0.00920   1.88795
   A40        1.94875   0.00140   0.00000   0.00234   0.00233   1.95107
   A41        1.94186   0.00080   0.00000   0.00161   0.00164   1.94350
   A42        1.92139  -0.00357   0.00000  -0.02673  -0.02679   1.89460
   A43        1.93461  -0.00089   0.00000  -0.01232  -0.01229   1.92231
   A44        1.91423   0.00252   0.00000   0.01557   0.01554   1.92977
   A45        1.89003   0.00021   0.00000   0.01249   0.01242   1.90244
   A46        1.85967   0.00104   0.00000   0.01061   0.01019   1.86986
   A47        1.98502  -0.00683   0.00000  -0.02914  -0.02908   1.95595
   A48        1.88982   0.00145   0.00000   0.00792   0.00801   1.89784
   A49        1.91400   0.00148   0.00000  -0.00243  -0.00232   1.91168
   A50        1.90958   0.00308   0.00000   0.01733   0.01735   1.92693
   A51        1.89844   0.00283   0.00000   0.01417   0.01396   1.91240
   A52        1.86312  -0.00176   0.00000  -0.00665  -0.00680   1.85632
   A53        1.93988  -0.00150   0.00000  -0.00647  -0.00643   1.93346
   A54        1.91829   0.00463   0.00000   0.02007   0.02014   1.93843
   A55        1.95096  -0.00328   0.00000  -0.01439  -0.01434   1.93663
   A56        1.90348  -0.00333   0.00000  -0.02405  -0.02400   1.87948
   A57        1.85290   0.00490   0.00000   0.03540   0.03543   1.88833
   A58        1.89648  -0.00154   0.00000  -0.01112  -0.01104   1.88544
   A59        1.90881  -0.01938   0.00000  -0.10002  -0.10094   1.80786
   A60        1.92058  -0.00440   0.00000  -0.02364  -0.02364   1.89695
   A61        2.05908   0.00943   0.00000   0.03417   0.03417   2.09324
   A62        1.87526   0.00076   0.00000   0.00572   0.00565   1.88091
   A63        1.90420  -0.00034   0.00000   0.00429   0.00414   1.90835
   A64        1.92871  -0.00012   0.00000  -0.00665  -0.00665   1.92206
   A65        1.91499   0.00219   0.00000   0.01455   0.01442   1.92941
   A66        1.89864  -0.00180   0.00000  -0.01029  -0.01025   1.88839
   A67        1.94086  -0.00062   0.00000  -0.00701  -0.00691   1.93396
   A68        1.93649   0.00425   0.00000   0.01766   0.01790   1.95439
   A69        1.92456   0.00666   0.00000   0.04274   0.04291   1.96747
   A70        1.92979  -0.00445   0.00000  -0.02815  -0.02914   1.90065
   A71        1.89085  -0.01024   0.00000  -0.05243  -0.05257   1.83828
   A72        1.93385  -0.00181   0.00000  -0.03775  -0.03756   1.89630
   A73        1.84588   0.00556   0.00000   0.05958   0.05883   1.90471
   A74        1.98179  -0.00262   0.00000  -0.01232  -0.01261   1.96917
   A75        1.90406   0.00438   0.00000   0.02246   0.02259   1.92664
   A76        1.92518  -0.00435   0.00000  -0.03935  -0.03960   1.88559
   A77        1.88676  -0.00140   0.00000  -0.00136  -0.00124   1.88552
   A78        1.90031   0.00234   0.00000   0.00367   0.00290   1.90322
   A79        1.86155   0.00200   0.00000   0.03050   0.03076   1.89231
   A80        2.14812   0.00216   0.00000   0.01083   0.01081   2.15892
   A81        2.02946   0.00024   0.00000   0.00165   0.00166   2.03112
   A82        2.10560  -0.00239   0.00000  -0.01248  -0.01247   2.09313
   A83        2.13508   0.00137   0.00000   0.00600   0.00597   2.14105
   A84        2.06882  -0.00348   0.00000  -0.01300  -0.01307   2.05576
   A85        2.07885   0.00214   0.00000   0.00753   0.00747   2.08631
   A86        1.99757  -0.00554   0.00000  -0.02122  -0.02119   1.97637
   A87        1.88703   0.00415   0.00000   0.03089   0.03102   1.91805
   A88        1.91292  -0.00110   0.00000  -0.02018  -0.02011   1.89280
   A89        1.90333   0.00108   0.00000   0.00552   0.00561   1.90894
   A90        1.90423   0.00357   0.00000   0.01846   0.01809   1.92232
   A91        1.85324  -0.00194   0.00000  -0.01297  -0.01283   1.84041
   A92        1.84931   0.00253   0.00000   0.01360   0.01360   1.86291
[...]
     50          1           0        3.686047    3.770276    0.099340
     51          1           0        0.521811    1.020966    0.080438
     52          1           0        1.263863    0.924691   -1.495906
     53          1           0        4.477914   -1.508948   -0.296989
     54          1           0        6.190110    1.315234   -0.260668
     55          1           0       -2.002916    3.893486   -1.161822
     56          1           0       -1.139221    4.968787   -0.010819
     57          1           0       -0.735270    5.026367   -1.742017
     58          1           0        4.253018   -3.415841    1.539049
 ---------------------------------------------------------------------
 Rotational constants (GHZ):      0.1554948      0.0897147      0.0705206

 **********************************************************************

            Population analysis using the SCF density.

 **********************************************************************

 Orbital symmetries:
       Occupied  (A) (A) (A) (A) (A) (A) (A) (A) (A) (A) (A) (A)
                 (A) (A) (A) (A) (A) (A) (A) (A) (A) (A) (A) (A)
                 (A) (A) (A) (A) (A) (A) (A) (A) (A) (A) (A) (A)
                 (A) (A) (A) (A) (A) (A) (A) (A) (A) (A) (A) (A)
                 (A) (A) (A) (A) (A) (A) (A) (A) (A) (A) (A) (A)
                 (A) (A) (A) (A) (A) (A) (A) (A) (A) (A) (A) (A)
                 (A) (A) (A) (A) (A) (A) (A) (A) (A) (A) (A) (A)
                 (A) (A) (A) (A) (A) (A) (A) (A) (A) (A) (A) (A)
                 (A) (A) (A) (A) (A) (A) (A) (A) (A) (A) (A) (A)
                 (A) (A) (A) (A) (A) (A) (A) (A) (A) (A) (A) (A)
                 (A) (A) (A) (A) (A)
       Virtual   (A) (A) (A) (A) (A) (A) (A) (A) (A) (A) (A) (A)
                 (A) (A) (A) (A) (A) (A) (A) (A) (A) (A) (A) (A)
                 (A) (A) (A) (A) (A) (A) (A) (A) (A) (A) (A) (A)
                 (A) (A) (A) (A) (A) (A) (A) (A) (A) (A) (A) (A)
                 (A) (A) (A) (A) (A) (A) (A) (A) (A) (A) (A) (A)
                 (A) (A) (A) (A) (A) (A) (A) (A) (A) (A) (A) (A)
                 (A) (A) (A) (A) (A) (A) (A) (A) (A) (A) (A) (A)
                 (A) (A) (A) (A) (A) (A) (A) (A) (A) (A) (A) (A)
                 (A) (A) (A) (A) (A) (A) (A) (A) (A) (A) (A) (A)
                 (A) (A) (A) (A) (A) (A) (A) (A) (A) (A) (A) (A)
                 (A) (A) (A) (A) (A) (A) (A) (A) (A) (A) (A) (A)
                 (A) (A) (A) (A) (A) (A) (A) (A) (A) (A) (A) (A)
                 (A) (A) (A) (A) (A) (A) (A) (A) (A) (A) (A) (A)
                 (A) (A) (A) (A) (A) (A) (A) (A) (A) (A) (A) (A)
                 (A) (A) (A) (A) (A) (A) (A) (A) (A) (A) (A) (A)
                 (A) (A) (A) (A) (A) (A) (A) (A) (A) (A) (A) (A)
                 (A) (A) (A) (A) (A) (A) (A) (A) (A) (A) (A) (A)
                 (A) (A) (A) (A) (A) (A) (A) (A) (A) (A) (A) (A)
                 (A) (A) (A) (A) (A) (A) (A) (A) (A) (A) (A) (A)
                 (A) (A) (A) (A) (A) (A) (A) (A) (A) (A) (A) (A)
                 (A) (A) (A) (A) (A) (A) (A) (A) (A) (A) (A) (A)
                 (A) (A) (A) (A) (A) (A) (A) (A) (A) (A) (A) (A)
                 (A) (A) (A) (A) (A) (A) (A) (A) (A) (A) (A) (A)
                 (A) (A) (A) (A) (A) (A) (A) (A) (A) (A) (A) (A)
                 (A) (A) (A) (A) (A) (A) (A) (A) (A) (A) (A) (A)
                 (A) (A) (A) (A) (A) (A) (A) (A) (A) (A) (A) (A)
                 (A) (A) (A) (A) (A) (A) (A) (A) (A) (A) (A) (A)
                 (A) (A) (A) (A) (A) (A) (A) (A) (A) (A) (A) (A)
                 (A) (A) (A) (A) (A) (A) (A) (A) (A) (A) (A) (A)
                 (A) (A) (A) (A) (A) (A) (A) (A) (A) (A) (A) (A)
                 (A) (A) (A) (A) (A) (A) (A) (A) (A) (A) (A) (A)
                 (A) (A) (A) (A) (A) (A) (A) (A) (A) (A) (A) (A)
                 (A) (A) (A) (A) (A) (A) (A) (A) (A) (A) (A) (A)
                 (A) (A) (A) (A) (A) (A) (A) (A) (A) (A) (A) (A)
                 (A) (A) (A) (A) (A) (A) (A) (A) (A) (A) (A) (A)
                 (A) (A) (A) (A) (A) (A) (A) (A) (A) (A) (A) (A)
                 (A)
 The electronic state is 1-A.
 Alpha  occ. eigenvalues --  -19.22846 -19.22280 -19.19963 -19.19530 -19.18231
 Alpha  occ. eigenvalues --  -19.17233 -19.17183 -19.15728 -19.14772 -19.14432
 Alpha  occ. eigenvalues --  -19.13369 -10.34747 -10.32974 -10.31582 -10.28751
 Alpha  occ. eigenvalues --  -10.27394 -10.27118 -10.26928 -10.25909 -10.24923
 Alpha  occ. eigenvalues --  -10.24493 -10.24100 -10.22900 -10.21740 -10.21672
 Alpha  occ. eigenvalues --  -10.21622 -10.21474 -10.21390 -10.20928 -10.20647
 Alpha  occ. eigenvalues --  -10.20382 -10.20080 -10.19980 -10.17945  -1.13693
 Alpha  occ. eigenvalues --   -1.12684  -1.10220  -1.08117  -1.06613  -1.06440
 Alpha  occ. eigenvalues --   -1.04675  -1.03749  -1.03029  -1.01535  -1.01225
 Alpha  occ. eigenvalues --   -0.88153  -0.86367  -0.84659  -0.81069  -0.79192
 Alpha  occ. eigenvalues --   -0.77330  -0.76348  -0.75918  -0.74797  -0.72057
 Alpha  occ. eigenvalues --   -0.70238  -0.69779  -0.66977  -0.65858  -0.64766
 Alpha  occ. eigenvalues --   -0.63964  -0.63016  -0.61678  -0.59302  -0.58610
 Alpha  occ. eigenvalues --   -0.57289  -0.55932  -0.55120  -0.54467  -0.52924
 Alpha  occ. eigenvalues --   -0.52295  -0.51952  -0.51636  -0.51016  -0.49767
 Alpha  occ. eigenvalues --   -0.48772  -0.48388  -0.48324  -0.48289  -0.47950
 Alpha  occ. eigenvalues --   -0.47028  -0.46762  -0.46298  -0.45376  -0.44774
 Alpha  occ. eigenvalues --   -0.44539  -0.44242  -0.43927  -0.43691  -0.43252
 Alpha  occ. eigenvalues --   -0.42932  -0.42176  -0.41922  -0.41302  -0.40734
 Alpha  occ. eigenvalues --   -0.40251  -0.40017  -0.39463  -0.39334  -0.38850
 Alpha  occ. eigenvalues --   -0.38736  -0.38648  -0.38062  -0.37675  -0.37351
 Alpha  occ. eigenvalues --   -0.36011  -0.35968  -0.35596  -0.35247  -0.35004
 Alpha  occ. eigenvalues --   -0.34885  -0.34148  -0.33893  -0.32899  -0.31698
 Alpha  occ. eigenvalues --   -0.30384  -0.29091  -0.28566  -0.28214  -0.27972
 Alpha  occ. eigenvalues --   -0.26975  -0.26514  -0.25718  -0.23826  -0.21843
 Alpha virt. eigenvalues --   -0.04883  -0.04397  -0.03147  -0.02827   0.03450
 Alpha virt. eigenvalues --    0.04307   0.05076   0.06065   0.06889   0.07432
 Alpha virt. eigenvalues --    0.07958   0.09584   0.09834   0.10530   0.11112
 Alpha virt. eigenvalues --    0.11810   0.12159   0.12412   0.12701   0.13133
 Alpha virt. eigenvalues --    0.13300   0.14608   0.14863   0.15316   0.15915
 Alpha virt. eigenvalues --    0.16047   0.16369   0.16562   0.16920   0.17119
 Alpha virt. eigenvalues --    0.17302   0.17688   0.17870   0.18108   0.18620
 Alpha virt. eigenvalues --    0.19300   0.19799   0.20572   0.20652   0.21561
 Alpha virt. eigenvalues --    0.21793   0.22239   0.23252   0.23670   0.24120
 Alpha virt. eigenvalues --    0.25273   0.25573   0.26148   0.27104   0.27950
 Alpha virt. eigenvalues --    0.28448   0.29395   0.30312   0.30581   0.31749
 Alpha virt. eigenvalues --    0.32507   0.32714   0.33271   0.37155   0.37393
 Alpha virt. eigenvalues --    0.39497   0.40058   0.40316   0.40910   0.41871
 Alpha virt. eigenvalues --    0.43298   0.45572   0.46928   0.47968   0.49286
 Alpha virt. eigenvalues --    0.50091   0.50483   0.50999   0.51394   0.51680
 Alpha virt. eigenvalues --    0.52124   0.52439   0.52619   0.53155   0.53274
 Alpha virt. eigenvalues --    0.54449   0.55385   0.55717   0.56186   0.56450
 Alpha virt. eigenvalues --    0.56884   0.57074   0.57902   0.58529   0.58795
 Alpha virt. eigenvalues --    0.59479   0.59647   0.60358   0.60826   0.61212
 Alpha virt. eigenvalues --    0.62152   0.62274   0.63102   0.63777   0.63887
 Alpha virt. eigenvalues --    0.64701   0.65288   0.65628   0.65858   0.66689
 Alpha virt. eigenvalues --    0.66868   0.67570   0.68566   0.69089   0.69393
 Alpha virt. eigenvalues --    0.69789   0.71048   0.71741   0.72567   0.72594
 Alpha virt. eigenvalues --    0.73432   0.73690   0.74548   0.75115   0.75382
 Alpha virt. eigenvalues --    0.75911   0.76275   0.76642   0.78328   0.78955
 Alpha virt. eigenvalues --    0.79475   0.80023   0.81050   0.81436   0.81913
 Alpha virt. eigenvalues --    0.82539   0.82997   0.84101   0.84365   0.84813
 Alpha virt. eigenvalues --    0.84849   0.85725   0.86030   0.86539   0.87356
 Alpha virt. eigenvalues --    0.87405   0.87822   0.87940   0.88518   0.89937
 Alpha virt. eigenvalues --    0.90616   0.91342   0.91541   0.91744   0.92290
 Alpha virt. eigenvalues --    0.92490   0.93191   0.93785   0.94042   0.94966
 Alpha virt. eigenvalues --    0.95677   0.96368   0.96498   0.96893   0.97509
 Alpha virt. eigenvalues --    0.97786   0.98737   0.98932   0.99389   0.99628
 Alpha virt. eigenvalues --    1.01105   1.01804   1.02386   1.02487   1.03178
 Alpha virt. eigenvalues --    1.03352   1.04238   1.04656   1.05051   1.06060
 Alpha virt. eigenvalues --    1.06584   1.08345   1.09918   1.10514   1.11320
 Alpha virt. eigenvalues --    1.11638   1.13078   1.13552   1.14695   1.15776
 Alpha virt. eigenvalues --    1.16605   1.16886   1.18206   1.19716   1.20604
 Alpha virt. eigenvalues --    1.20944   1.22103   1.23544   1.23838   1.24612
 Alpha virt. eigenvalues --    1.25567   1.26469   1.27063   1.27690   1.28174
 Alpha virt. eigenvalues --    1.29473   1.30746   1.32071   1.32944   1.34080
 Alpha virt. eigenvalues --    1.34337   1.35120   1.36312   1.36760   1.37495
 Alpha virt. eigenvalues --    1.37794   1.38156   1.39238   1.39826   1.41243
 Alpha virt. eigenvalues --    1.41548   1.42672   1.42897   1.44640   1.45043
 Alpha virt. eigenvalues --    1.45247   1.46483   1.49014   1.49376   1.49603
 Alpha virt. eigenvalues --    1.51463   1.52609   1.55400   1.55615   1.58319
 Alpha virt. eigenvalues --    1.60595   1.61085   1.61772   1.63448   1.63931
 Alpha virt. eigenvalues --    1.65067   1.66325   1.67234   1.67924   1.68854
 Alpha virt. eigenvalues --    1.69798   1.70052   1.70089   1.71124   1.71203
 Alpha virt. eigenvalues --    1.71770   1.71926   1.72940   1.73560   1.73928
 Alpha virt. eigenvalues --    1.74006   1.75080   1.75564   1.76337   1.76437
 Alpha virt. eigenvalues --    1.77653   1.78869   1.79361   1.79598   1.80439
 Alpha virt. eigenvalues --    1.80947   1.82353   1.82433   1.83005   1.83357
 Alpha virt. eigenvalues --    1.83859   1.84110   1.84789   1.85107   1.85718
 Alpha virt. eigenvalues --    1.86465   1.87261   1.87685   1.88820   1.89286
 Alpha virt. eigenvalues --    1.89742   1.90686   1.91280   1.91573   1.92239
 Alpha virt. eigenvalues --    1.93844   1.93982   1.94551   1.95310   1.95614
 Alpha virt. eigenvalues --    1.96187   1.97723   1.98227   1.98359   1.99727
 Alpha virt. eigenvalues --    2.00834   2.01233   2.01762   2.02566   2.03803
 Alpha virt. eigenvalues --    2.04418   2.04892   2.05677   2.06441   2.06753
 Alpha virt. eigenvalues --    2.07640   2.08886   2.09338   2.10404   2.11105
 Alpha virt. eigenvalues --    2.11838   2.14230   2.14685   2.15933   2.16728
 Alpha virt. eigenvalues --    2.18704   2.20094   2.20718   2.21471   2.22348
 Alpha virt. eigenvalues --    2.23576   2.24879   2.26387   2.26557   2.27230
 Alpha virt. eigenvalues --    2.28260   2.28613   2.29222   2.29965   2.30449
 Alpha virt. eigenvalues --    2.32067   2.33015   2.33663   2.33913   2.34469
 Alpha virt. eigenvalues --    2.35272   2.35956   2.36750   2.37796   2.38660
 Alpha virt. eigenvalues --    2.40068   2.40827   2.41223   2.42588   2.42866
 Alpha virt. eigenvalues --    2.44340   2.44676   2.46529   2.47438   2.47754
 Alpha virt. eigenvalues --    2.48175   2.49164   2.50235   2.52882   2.53688
 Alpha virt. eigenvalues --    2.54655   2.55090   2.56168   2.56940   2.57843
 Alpha virt. eigenvalues --    2.58505   2.59317   2.61298   2.63177   2.64818
 Alpha virt. eigenvalues --    2.66132   2.68161   2.68809   2.69277   2.69545
 Alpha virt. eigenvalues --    2.70335   2.70826   2.71756   2.73331   2.74933
 Alpha virt. eigenvalues --    2.76538   2.77323   2.79061   2.80661   2.82087
 Alpha virt. eigenvalues --    2.83645   2.85817   2.86259   2.87179   2.90294
 Alpha virt. eigenvalues --    2.90942   2.92970   2.94382   2.95888   2.96899
 Alpha virt. eigenvalues --    2.98652   2.99948   3.03186   3.04628   3.06803
 Alpha virt. eigenvalues --    3.07410   3.09762   3.12572   3.15548   3.16861
 Alpha virt. eigenvalues --    3.22598   3.23077   3.43653   3.50043   3.78903
 Alpha virt. eigenvalues --    3.90898   3.92970   3.94932   3.96593   3.99793
 Alpha virt. eigenvalues --    4.04973   4.06601   4.08774   4.14386   4.15820
 Alpha virt. eigenvalues --    4.18236   4.19223   4.21957   4.23114   4.24482
 Alpha virt. eigenvalues --    4.25857   4.30707   4.33760   4.35170   4.38434
 Alpha virt. eigenvalues --    4.40950   4.44010   4.47620   4.50995   4.52429
 Alpha virt. eigenvalues --    4.55569   4.57743   4.60180   4.65453   4.71133
 Alpha virt. eigenvalues --    4.75227   4.79667   4.87503
          Condensed to atoms (all electrons):
 Mulliken atomic charges:
              1
     1  C    0.096832
     2  C    0.322811
     3  C   -0.309681
     4  C    0.137936
     5  C   -0.062444
     6  C    0.238250
     7  C    0.057237
     8  C    0.288156
     9  O   -0.498962
    10  C    0.598139
    11  C   -0.361853
    12  C    0.224608
    13  C   -0.303318
    14  C   -0.341383
    15  C   -0.517827
    16  O   -0.655511
    17  O   -0.633249
    18  O   -0.534773
    19  O   -0.541734
    20  C    0.099971
    21  C    0.105206
    22  C    0.107025
    23  C   -0.148535
    24  C    0.054334
    25  C   -0.350843
    26  O   -0.676481
    27  O   -0.637136
    28  C    0.595934
    29  O   -0.466090
    30  O   -0.489559
    31  C   -0.219224
    32  C    0.601829
    33  O   -0.583046
    34  O   -0.461099
    35  H    0.125520
    36  H    0.179830
    37  H    0.165465
    38  H    0.157491
    39  H    0.173303
    40  H    0.189541
    41  H    0.175530
    42  H    0.184479
    43  H    0.166683
    44  H    0.164297
    45  H    0.448186
    46  H    0.415222
    47  H    0.145041
    48  H    0.136956
    49  H    0.140285
    50  H    0.184269
    51  H    0.171663
    52  H    0.175490
    53  H    0.420116
    54  H    0.407368
    55  H    0.170358
    56  H    0.171479
    57  H    0.173314
    58  H    0.422593
 Sum of Mulliken atomic charges =   0.00000
 Mulliken charges with hydrogens summed into heavy atoms:
              1
     1  C    0.096832
     2  C    0.322811
     3  C   -0.184161
     4  C    0.137936
     5  C   -0.062444
     6  C    0.238250
     7  C    0.057237
     8  C    0.288156
     9  O   -0.498962
    10  C    0.598139
    11  C   -0.016558
    12  C    0.224608
    13  C    0.027475
    14  C    0.023688
    15  C   -0.002368
    16  O   -0.207325
    17  O   -0.218027
    18  O   -0.534773
    19  O   -0.541734
    20  C    0.245012
    21  C    0.242163
    22  C    0.247309
    23  C    0.035734
    24  C    0.054334
    25  C   -0.003690
    26  O   -0.256365
    27  O   -0.229768
    28  C    0.595934
    29  O   -0.466090
    30  O   -0.489559
    31  C    0.295926
    32  C    0.601829
    33  O   -0.160452
    34  O   -0.461099
 Sum of Mulliken charges with hydrogens summed into heavy atoms =   0.00000
 Electronic spatial extent (au):  <R**2>=          15711.1870
 Charge=              0.0000 electrons
 Dipole moment (field-independent basis, Debye):
    X=              1.9517    Y=             -4.1001    Z=              2.9763  Tot=              5.4294
 Quadrupole moment (field-independent basis, Debye-Ang):
   XX=           -211.2039   YY=           -196.6075   ZZ=           -195.9879
   XY=            -24.9083   XZ=             -7.2373   YZ=             -0.7718
 Traceless Quadrupole moment (field-independent basis, Debye-Ang):
   XX=             -9.9375   YY=              4.6589   ZZ=              5.2786
   XY=            -24.9083   XZ=             -7.2373   YZ=             -0.7718
 Octapole moment (field-independent basis, Debye-Ang**2):
  XXX=            130.7673  YYY=           -121.6252  ZZZ=             32.9483  XYY=            -25.6513
  XXY=            -63.2910  XXZ=             53.3992  XZZ=             30.5709  YZZ=             27.8409
  YYZ=             -7.3737  XYZ=             23.4368
 Hexadecapole moment (field-independent basis, Debye-Ang**3):
 XXXX=         -11853.4189 YYYY=          -6185.9602 ZZZZ=          -2174.4470 XXXY=           -490.5857
 XXXZ=             95.7816 YYYX=           -533.2020 YYYZ=            -48.3867 ZZZX=           -128.6406
 ZZZY=             -1.5154 XXYY=          -2952.7263 XXZZ=          -2415.7168 YYZZ=          -1360.2464
 XXYZ=            -80.0958 YYXZ=             95.3301 ZZXY=            -62.8284
 N-N= 3.808542602351D+03 E-N=-1.163014107818D+04  KE= 1.703110191589D+03
 1\1\GINC-B0803\FOpt\RB3LYP\6-31G(d)\C23H24O11\CAOFEI\02-Feb-2021\0\\# 
 opt b3lyp/6-31g(d) geom=connectivity\\Title Card Required\\0,1\C,4.331
 8108876,-1.1593008496,-1.3159800565\C,3.9134212034,0.0886956496,-0.829
 318059\C,2.6130230019,0.5788843768,-1.0044602119\C,1.6692294014,-0.185
 9409444,-1.6921367118\C,2.0582786725,-1.4510759934,-2.2066987141\C,3.3
 884353463,-1.9276362421,-2.0115134623\C,0.2972364225,0.2473004344,-1.9
 120761591\C,-0.5313096298,-0.5492283043,-2.6223957677\O,-0.1468364098,
 -1.7646056275,-3.1232417755\C,1.1188939823,-2.2677609096,-2.9373105777
 \C,-0.192091318,1.5694607738,-1.362703697\C,-1.7248405451,1.6982128591
 ,-1.3492989267\C,-2.2988104338,1.2287701751,-2.6979816338\C,-1.9628495
 661,-0.2468830665,-2.9437601469\C,5.743392224,-1.637096337,-1.09660345
 72\O,3.7708650491,-3.1233754009,-2.4877010417\O,4.8557084329,0.8136948
 455,-0.164478269\O,1.3468335388,-3.3757291209,-3.4194170529\O,-2.36602
 24501,0.8677480399,-0.3713150887\C,-1.9877879787,0.9756901885,1.016528
 7664\C,-3.2846799231,1.0476065447,1.8250773599\C,-2.9778337914,1.22064
 46755,3.3117402693\C,-1.9633733107,0.2187875997,3.7773282446\C,-1.1269
 019709,-0.422594357,2.9471035005\C,-1.1519395121,-0.2400693516,1.44143
 83062\O,-4.0965370388,2.1502909185,1.4494988976\O,-4.1533690092,1.0836
 220393,4.0986469887\C,-0.1537739755,-1.380392389,3.5535173509\O,0.5883
 425726,-1.9980524664,2.6038318171\O,-0.0262367208,-1.5983779515,4.7418
 663144\C,1.5484431956,-2.947367828,3.0943900025\C,-2.1118262127,3.1668
 353356,-1.081913605\O,-3.4558660297,3.351566186,-1.1391177183\O,-1.344
 361739,4.0673600434,-0.8310110805\H,2.3581484471,1.5591262168,-0.61247
 30824\H,0.2165815787,2.4042239183,-1.9454577738\H,0.1877521524,1.72101
 88533,-0.3475564114\H,-1.8688404513,1.8514028706,-3.4922614189\H,-3.38
 11324044,1.3778981839,-2.7090169928\H,-2.6089926515,-0.8896324894,-2.3
 330892175\H,-2.1576477495,-0.5120681776,-3.989613775\H,5.8894003905,-2
 .619899008,-1.5461497477\H,6.4672175007,-0.9394542774,-1.5341628158\H,
 5.9758999495,-1.7014581552,-0.0269611968\H,2.9857208528,-3.5206506378,
 -2.9482827723\H,4.4667714778,1.6539132922,0.1254423363\H,-1.4306173299
 ,1.9082163044,1.1803629838\H,-3.832207933,0.1003213555,1.6959985607\H,
 -2.5598388444,2.2363122541,3.4440813623\H,-1.9090720004,0.0287058082,4
 .8457018236\H,-0.1314150366,-0.162835869,1.0543041193\H,-1.5788022984,
 -1.1334550746,0.966340148\H,-4.2231880436,2.101858772,0.4866593798\H,-
 4.799668245,1.6991623951,3.7138011586\H,2.0564331848,-3.3324797723,2.2
 099462805\H,2.2591294678,-2.460221444,3.7672284306\H,1.0465149101,-3.7
 546079791,3.6343203625\H,-3.6148132896,4.2849190842,-0.8996963163\\Ver
 sion=EM64L-G09RevB.01\State=1-A\HF=-1718.3744777\RMSD=3.327e-09\RMSF=5
 .131e-06\Dipole=-0.4575004,1.9125216,-0.8341929\Quadrupole=9.1998587,4
 .7113101,-13.9111688,-1.8063514,14.081918,-7.8408138\PG=C01 [X(C23H24O
 11)]\\@


 JUST WHEN YOU THINK YOU'VE GOT THE WORLD ON A STRING,
 YOU FIND OUT IT'S YOUR LEASH.
 Job cpu time:  0 days 11 hours 14 minutes 56.0 seconds.
 File lengths (MBytes):  RWF=    201 Int=      0 D2E=      0 Chk=     21 Scr=      1
 Normal termination of Gaussian 09 at Tue Feb  2 12:49:59 2021.
