 Entering Gaussian System, Link 0=g09
 Initial command:
 /public/software/g09/g09/l1.exe /tmp/Gau-25156.inp -scrdir=/tmp/
 Entering Link 1 = /public/software/g09/g09/l1.exe PID=     25157.
  
 Copyright (c) 1988,1990,1992,1993,1995,1998,2003,2009,2010,
            Gaussian, Inc.  All Rights Reserved.
  
 This is part of the Gaussian(R) 09 program.  It is based on
 the Gaussian(R) 03 system (copyright 2003, Gaussian, Inc.),
 the Gaussian(R) 98 system (copyright 1998, Gaussian, Inc.),
 the Gaussian(R) 94 system (copyright 1995, Gaussian, Inc.),
 the Gaussian 92(TM) system (copyright 1992, Gaussian, Inc.),
 the Gaussian 90(TM) system (copyright 1990, Gaussian, Inc.),
 the Gaussian 88(TM) system (copyright 1988, Gaussian, Inc.),
 the Gaussian 86(TM) system (copyright 1986, Carnegie Mellon
 University), and the Gaussian 82(TM) system (copyright 1983,
 Carnegie Mellon University). Gaussian is a federally registered
 trademark of Gaussian, Inc.
  
 This software contains proprietary and confidential information,
 including trade secrets, belonging to Gaussian, Inc.
  
 This software is provided under written license and may be
 used, copied, transmitted, or stored only in accord with that
 written license.
  
 The following legend is applicable only to US Government
 contracts under FAR:
  
                    RESTRICTED RIGHTS LEGEND
  
 Use, reproduction and disclosure by the US Government is
 subject to restrictions as set forth in subparagraphs (a)
 and (c) of the Commercial Computer Software - Restricted
 Rights clause in FAR 52.227-19.
  
 Gaussian, Inc.
 340 Quinnipiac St., Bldg. 40, Wallingford CT 06492
  
  
 ---------------------------------------------------------------
 Warning -- This program may not be used in any manner that
 competes with the business of Gaussian, Inc. or will provide
 assistance to any competitor of Gaussian, Inc.  The licensee
 of this program is prohibited from giving any competitor of
 Gaussian, Inc. access to this program.  By using this program,
 the user acknowledges that Gaussian, Inc. is engaged in the
 business of creating and licensing software in the field of
 computational chemistry and represents and warrants to the
 licensee that it is not a competitor of Gaussian, Inc. and that
 it will not use this program in any manner prohibited above.
 ---------------------------------------------------------------
  

 Cite this work as:
 Gaussian 09, Revision B.01,
 M. J. Frisch, G. W. Trucks, H. B. Schlegel, G. E. Scuseria, 
 M. A. Robb, J. R. Cheeseman, G. Scalmani, V. Barone, B. Mennucci, 
 G. A. Petersson, H. Nakatsuji, M. Caricato, X. Li, H. P. Hratchian, 
 A. F. Izmaylov, J. Bloino, G. Zheng, J. L. Sonnenberg, M. Hada, 
 M. Ehara, K. Toyota, R. Fukuda, J. Hasegawa, M. Ishida, T. Nakajima, 
 Y. Honda, O. Kitao, H. Nakai, T. Vreven, J. A. Montgomery, Jr., 
 J. E. Peralta, F. Ogliaro, M. Bearpark, J. J. Heyd, E. Brothers, 
 K. N. Kudin, V. N. Staroverov, T. Keith, R. Kobayashi, J. Normand, 
 K. Raghavachari, A. Rendell, J. C. Burant, S. S. Iyengar, J. Tomasi, 
 M. Cossi, N. Rega, J. M. Millam, M. Klene, J. E. Knox, J. B. Cross, 
 V. Bakken, C. Adamo, J. Jaramillo, R. Gomperts, R. E. Stratmann, 
 O. Yazyev, A. J. Austin, R. Cammi, C. Pomelli, J. W. Ochterski, 
 R. L. Martin, K. Morokuma, V. G. Zakrzewski, G. A. Voth, 
 P. Salvador, J. J. Dannenberg, S. Dapprich, A. D. Daniels, 
 O. Farkas, J. B. Foresman, J. V. Ortiz, J. Cioslowski, 
 and D. J. Fox, Gaussian, Inc., Wallingford CT, 2010.
 
 ******************************************
 Gaussian 09:  EM64L-G09RevB.01 12-Aug-2010
                24-Mar-2021 
 ******************************************
 %mem=600MW
 %nprocshared=10
 Will use up to   10 processors via shared memory.
 ---------------------------------------
 # opt rb3lyp/6-31g(d) geom=connectivity
 ---------------------------------------
 1/14=-1,18=20,19=15,26=3,38=1,57=2/1,3;
 2/9=110,12=2,17=6,18=5,40=1/2;
 3/5=1,6=6,7=1,11=2,16=1,25=1,30=1,71=1,74=-5,116=1/1,2,3;
 4//1;
 5/5=2,38=5/2;
 6/7=2,8=2,9=2,10=2,28=1/1;
 7//1,2,3,16;
 1/14=-1,18=20,19=15/3(2);
 2/9=110/2;
 99//99;
 2/9=110/2;
 3/5=1,6=6,7=1,11=2,16=1,25=1,30=1,71=1,74=-5,116=1/1,2,3;
 4/5=5,16=3/1;
 5/5=2,38=5/2;
 7//1,2,3,16;
 1/14=-1,18=20,19=15/3(-5);
 2/9=110/2;
 6/7=2,8=2,9=2,10=2,19=2,28=1/1;
 99/9=1/99;
 -------------------
 Title Card Required
 -------------------
 Symbolic Z-matrix:
 Charge =  0 Multiplicity = 1
 C                     0.        0.        0. 
 C                     1.3416    0.        0. 
 C                     2.1348    1.286     0. 
 C                     1.3353    2.58     -0.327 
 C                    -0.1578    2.4516   -0.6659 
 C                    -0.8296    1.2428    0.0167 
 C                     2.1395    3.2713   -1.4433 
 C                     1.7846    2.8614   -2.8309 
 C                     0.5698    2.4259   -3.1843 
 C                    -0.5035    2.4158   -2.1638 
 C                     0.3302    1.9643   -4.5756 
 O                     0.937     0.9839   -5.0098 
 C                    -0.6869    2.7303   -5.4163 
 C                    -0.0263    3.3272   -6.6684 
 C                    -1.8108    1.774    -5.8173 
 O                    -1.6803    2.3829   -2.5307 
 C                     3.5533    2.7362   -1.3799 
 C                     4.0584    2.9502   -2.8225 
 O                     2.892     2.8083   -3.6719 
 C                     3.32      1.2688   -0.9831 
 O                     2.0794    4.6848   -1.3492 
 C                    -0.7204    3.7563   -0.0951 
 C                     0.1178    3.9754    1.1572 
 O                     1.4209    3.4498    0.8446 
 C                     0.2788    5.3857    1.6775 
 C                     1.2095    5.5296    2.8552 
 C                    -0.3599    6.4643    1.1922 
 C                     4.6404    4.3552   -3.0456 
 C                     5.1058    1.9227   -3.2651 
 H                     4.1788    3.2473   -0.6392 
 H                     2.5596    1.3873    1.0098 
 C                     2.1115   -1.2908    0.0951 
 H                    -0.5439   -0.9418    0.0499 
 H                    -1.0731    1.4536    1.065 
 H                    -1.7899    1.0153   -0.4628 
 H                    -1.1187    3.5437   -4.8217 
 H                     0.5146    2.5526   -7.2256 
 H                    -0.8037    3.7165   -7.3373 
 H                    -2.5997    2.3072   -6.3581 
 H                    -2.263     1.3034   -4.9383 
 H                    -1.4404    0.9705   -6.4639 
 H                     4.2185    0.8408   -0.5245 
 H                     3.0758    0.6474   -1.8532 
 H                     2.1582    4.8932   -0.3962 
 H                    -1.7921    3.7114    0.1293 
 H                    -0.5779    4.5661   -0.8215 
 H                    -0.2817    3.3623    1.9746 
 H                     0.8957    4.8688    3.67 
 H                     2.2344    5.2711    2.5704 
 H                     1.2246    6.5519    3.2482 
 H                    -1.0569    6.4117    0.363 
 H                    -0.2065    7.4507    1.6214 
 H                     3.9003    5.1449   -2.8916 
 H                     4.9775    4.4719   -4.0825 
 H                     5.4926    4.5419   -2.3842 
 H                     5.9706    1.92     -2.5939 
 H                     5.4585    2.1419   -4.2799 
 H                     4.6936    0.9102   -3.3162 
 H                     1.4525   -2.1526    0.2461 
 H                     2.6837   -1.4717   -0.8198 
 H                     2.8052   -1.2565    0.9415 
 C                     0.933     4.4651   -6.3475 
 H                     1.7982    4.1114   -5.7814 
 H                     0.4354    5.2489   -5.7679 
 H                     1.3053    4.9141   -7.274 
 

 GradGradGradGradGradGradGradGradGradGradGradGradGradGradGradGradGradGrad
 Berny optimization.
 Initialization pass.
                           ----------------------------
                           !    Initial Parameters    !
                           ! (Angstroms and Degrees)  !
 --------------------------                            --------------------------
 ! Name  Definition              Value          Derivative Info.                !
 --------------------------------------------------------------------------------
 ! R1    R(1,2)                  1.3416         estimate D2E/DX2                !
 ! R2    R(1,6)                  1.4943         estimate D2E/DX2                !
 ! R3    R(1,33)                 1.0887         estimate D2E/DX2                !
 ! R4    R(2,3)                  1.5109         estimate D2E/DX2                !
 ! R5    R(2,32)                 1.506          estimate D2E/DX2                !
 ! R6    R(3,4)                  1.5558         estimate D2E/DX2                !
 ! R7    R(3,20)                 1.54           estimate D2E/DX2                !
 ! R8    R(3,31)                 1.1002         estimate D2E/DX2                !
 ! R9    R(4,5)                  1.5365         estimate D2E/DX2                !
 ! R10   R(4,7)                  1.5397         estimate D2E/DX2                !
 ! R11   R(4,24)                 1.4617         estimate D2E/DX2                !
 ! R12   R(5,6)                  1.5422         estimate D2E/DX2                !
 ! R13   R(5,10)                 1.5377         estimate D2E/DX2                !
 ! R14   R(5,22)                 1.5312         estimate D2E/DX2                !
 ! R15   R(6,34)                 1.0967         estimate D2E/DX2                !
 ! R16   R(6,35)                 1.0972         estimate D2E/DX2                !
 ! R17   R(7,8)                  1.4898         estimate D2E/DX2                !
 ! R18   R(7,17)                 1.513          estimate D2E/DX2                !
 ! R19   R(7,21)                 1.4179         estimate D2E/DX2                !
 ! R20   R(8,9)                  1.338          estimate D2E/DX2                !
 ! R21   R(8,19)                 1.3916         estimate D2E/DX2                !
 ! R22   R(9,10)                 1.481          estimate D2E/DX2                !
 ! R23   R(9,11)                 1.4853         estimate D2E/DX2                !
 ! R24   R(10,16)                1.2331         estimate D2E/DX2                !
 ! R25   R(11,12)                1.232          estimate D2E/DX2                !
 ! R26   R(11,13)                1.5258         estimate D2E/DX2                !
 ! R27   R(13,14)                1.5364         estimate D2E/DX2                !
 ! R28   R(13,15)                1.5292         estimate D2E/DX2                !
 ! R29   R(13,36)                1.0962         estimate D2E/DX2                !
 ! R30   R(14,37)                1.0968         estimate D2E/DX2                !
 ! R31   R(14,38)                1.097          estimate D2E/DX2                !
 ! R32   R(14,62)                1.5225         estimate D2E/DX2                !
 ! R33   R(15,39)                1.095          estimate D2E/DX2                !
 ! R34   R(15,40)                1.0948         estimate D2E/DX2                !
 ! R35   R(15,41)                1.0959         estimate D2E/DX2                !
 ! R36   R(17,18)                1.5434         estimate D2E/DX2                !
 ! R37   R(17,20)                1.5379         estimate D2E/DX2                !
 ! R38   R(17,30)                1.096          estimate D2E/DX2                !
 ! R39   R(18,19)                1.4499         estimate D2E/DX2                !
 ! R40   R(18,28)                1.537          estimate D2E/DX2                !
 ! R41   R(18,29)                1.5325         estimate D2E/DX2                !
 ! R42   R(20,42)                1.0958         estimate D2E/DX2                !
 ! R43   R(20,43)                1.0967         estimate D2E/DX2                !
 ! R44   R(21,44)                0.9787         estimate D2E/DX2                !
 ! R45   R(22,23)                1.5228         estimate D2E/DX2                !
 ! R46   R(22,45)                1.0959         estimate D2E/DX2                !
 ! R47   R(22,46)                1.0972         estimate D2E/DX2                !
 ! R48   R(23,24)                1.4395         estimate D2E/DX2                !
 ! R49   R(23,25)                1.5118         estimate D2E/DX2                !
 ! R50   R(23,47)                1.0971         estimate D2E/DX2                !
 ! R51   R(25,26)                1.5079         estimate D2E/DX2                !
 ! R52   R(25,27)                1.3442         estimate D2E/DX2                !
 ! R53   R(26,48)                1.095          estimate D2E/DX2                !
 ! R54   R(26,49)                1.0947         estimate D2E/DX2                !
 ! R55   R(26,50)                1.0953         estimate D2E/DX2                !
 ! R56   R(27,51)                1.0845         estimate D2E/DX2                !
 ! R57   R(27,52)                1.0866         estimate D2E/DX2                !
 ! R58   R(28,53)                1.0932         estimate D2E/DX2                !
 ! R59   R(28,54)                1.0965         estimate D2E/DX2                !
 ! R60   R(28,55)                1.0948         estimate D2E/DX2                !
 ! R61   R(29,56)                1.0947         estimate D2E/DX2                !
 ! R62   R(29,57)                1.0965         estimate D2E/DX2                !
 ! R63   R(29,58)                1.0944         estimate D2E/DX2                !
 ! R64   R(32,59)                1.0953         estimate D2E/DX2                !
 ! R65   R(32,60)                1.0942         estimate D2E/DX2                !
 ! R66   R(32,61)                1.0949         estimate D2E/DX2                !
 ! R67   R(62,63)                1.0928         estimate D2E/DX2                !
 ! R68   R(62,64)                1.0945         estimate D2E/DX2                !
 ! R69   R(62,65)                1.0948         estimate D2E/DX2                !
 ! A1    A(2,1,6)              123.7217         estimate D2E/DX2                !
 ! A2    A(2,1,33)             119.9721         estimate D2E/DX2                !
 ! A3    A(6,1,33)             116.2048         estimate D2E/DX2                !
 ! A4    A(1,2,3)              121.6661         estimate D2E/DX2                !
 ! A5    A(1,2,32)             120.7459         estimate D2E/DX2                !
 ! A6    A(3,2,32)             117.4603         estimate D2E/DX2                !
 ! A7    A(2,3,4)              115.9842         estimate D2E/DX2                !
 ! A8    A(2,3,20)             113.2364         estimate D2E/DX2                !
 ! A9    A(2,3,31)             106.3238         estimate D2E/DX2                !
 ! A10   A(4,3,20)             105.7005         estimate D2E/DX2                !
 ! A11   A(4,3,31)             108.3456         estimate D2E/DX2                !
 ! A12   A(20,3,31)            106.8464         estimate D2E/DX2                !
 ! A13   A(3,4,5)              118.4396         estimate D2E/DX2                !
 ! A14   A(3,4,7)              104.9159         estimate D2E/DX2                !
 ! A15   A(3,4,24)             107.2395         estimate D2E/DX2                !
 ! A16   A(5,4,7)              112.6542         estimate D2E/DX2                !
 ! A17   A(5,4,24)             106.4655         estimate D2E/DX2                !
 ! A18   A(7,4,24)             106.4607         estimate D2E/DX2                !
 ! A19   A(4,5,6)              113.0284         estimate D2E/DX2                !
 ! A20   A(4,5,10)             115.8034         estimate D2E/DX2                !
 ! A21   A(4,5,22)             101.749          estimate D2E/DX2                !
 ! A22   A(6,5,10)             108.3593         estimate D2E/DX2                !
 ! A23   A(6,5,22)             110.0484         estimate D2E/DX2                !
 ! A24   A(10,5,22)            107.4797         estimate D2E/DX2                !
 ! A25   A(1,6,5)              113.8966         estimate D2E/DX2                !
 ! A26   A(1,6,34)             107.0864         estimate D2E/DX2                !
 ! A27   A(1,6,35)             107.9727         estimate D2E/DX2                !
 ! A28   A(5,6,34)             111.6631         estimate D2E/DX2                !
 ! A29   A(5,6,35)             110.5082         estimate D2E/DX2                !
 ! A30   A(34,6,35)            105.2643         estimate D2E/DX2                !
 ! A31   A(4,7,8)              115.2977         estimate D2E/DX2                !
 ! A32   A(4,7,17)             107.3907         estimate D2E/DX2                !
 ! A33   A(4,7,21)             112.1683         estimate D2E/DX2                !
 ! A34   A(8,7,17)              99.4581         estimate D2E/DX2                !
 ! A35   A(8,7,21)             109.0265         estimate D2E/DX2                !
 ! A36   A(17,7,21)            112.9169         estimate D2E/DX2                !
 ! A37   A(7,8,9)              123.494          estimate D2E/DX2                !
 ! A38   A(7,8,19)             112.5712         estimate D2E/DX2                !
 ! A39   A(9,8,19)             123.3992         estimate D2E/DX2                !
 ! A40   A(8,9,10)             118.5668         estimate D2E/DX2                !
 ! A41   A(8,9,11)             119.6703         estimate D2E/DX2                !
 ! A42   A(10,9,11)            121.7626         estimate D2E/DX2                !
 ! A43   A(5,10,9)             120.5392         estimate D2E/DX2                !
 ! A44   A(5,10,16)            120.3323         estimate D2E/DX2                !
 ! A45   A(9,10,16)            119.1281         estimate D2E/DX2                !
 ! A46   A(9,11,12)            119.8654         estimate D2E/DX2                !
 ! A47   A(9,11,13)            117.8803         estimate D2E/DX2                !
 ! A48   A(12,11,13)           122.251          estimate D2E/DX2                !
 ! A49   A(11,13,14)           110.9448         estimate D2E/DX2                !
 ! A50   A(11,13,15)           108.6909         estimate D2E/DX2                !
 ! A51   A(11,13,36)           109.6477         estimate D2E/DX2                !
 ! A52   A(14,13,15)           110.1979         estimate D2E/DX2                !
 ! A53   A(14,13,36)           108.8534         estimate D2E/DX2                !
 ! A54   A(15,13,36)           108.4674         estimate D2E/DX2                !
 ! A55   A(13,14,37)           110.59           estimate D2E/DX2                !
 ! A56   A(13,14,38)           109.2756         estimate D2E/DX2                !
 ! A57   A(13,14,62)           112.9242         estimate D2E/DX2                !
 ! A58   A(37,14,38)           106.8784         estimate D2E/DX2                !
 ! A59   A(37,14,62)           108.9149         estimate D2E/DX2                !
 ! A60   A(38,14,62)           108.0477         estimate D2E/DX2                !
 ! A61   A(13,15,39)           110.762          estimate D2E/DX2                !
 ! A62   A(13,15,40)           111.2133         estimate D2E/DX2                !
 ! A63   A(13,15,41)           111.3973         estimate D2E/DX2                !
 ! A64   A(39,15,40)           107.9537         estimate D2E/DX2                !
 ! A65   A(39,15,41)           108.0065         estimate D2E/DX2                !
 ! A66   A(40,15,41)           107.3478         estimate D2E/DX2                !
 ! A67   A(7,17,18)            102.5684         estimate D2E/DX2                !
 ! A68   A(7,17,20)            101.918          estimate D2E/DX2                !
 ! A69   A(7,17,30)            113.3721         estimate D2E/DX2                !
 ! A70   A(18,17,20)           115.0313         estimate D2E/DX2                !
 ! A71   A(18,17,30)           112.3505         estimate D2E/DX2                !
 ! A72   A(20,17,30)           110.9268         estimate D2E/DX2                !
 ! A73   A(17,18,19)           105.7082         estimate D2E/DX2                !
 ! A74   A(17,18,28)           112.7266         estimate D2E/DX2                !
 ! A75   A(17,18,29)           113.6187         estimate D2E/DX2                !
 ! A76   A(19,18,28)           108.0018         estimate D2E/DX2                !
 ! A77   A(19,18,29)           108.3612         estimate D2E/DX2                !
 ! A78   A(28,18,29)           108.189          estimate D2E/DX2                !
 ! A79   A(8,19,18)            106.4044         estimate D2E/DX2                !
 ! A80   A(3,20,17)            105.7125         estimate D2E/DX2                !
 ! A81   A(3,20,42)            111.6074         estimate D2E/DX2                !
 ! A82   A(3,20,43)            109.9641         estimate D2E/DX2                !
 ! A83   A(17,20,42)           110.8712         estimate D2E/DX2                !
 ! A84   A(17,20,43)           111.6968         estimate D2E/DX2                !
 ! A85   A(42,20,43)           107.055          estimate D2E/DX2                !
 ! A86   A(7,21,44)            105.8718         estimate D2E/DX2                !
 ! A87   A(5,22,23)            103.1158         estimate D2E/DX2                !
 ! A88   A(5,22,45)            113.6248         estimate D2E/DX2                !
 ! A89   A(5,22,46)            109.5349         estimate D2E/DX2                !
 ! A90   A(23,22,45)           112.0739         estimate D2E/DX2                !
 ! A91   A(23,22,46)           111.5178         estimate D2E/DX2                !
 ! A92   A(45,22,46)           107.0277         estimate D2E/DX2                !
 ! A93   A(22,23,24)           105.496          estimate D2E/DX2                !
 ! A94   A(22,23,25)           118.4159         estimate D2E/DX2                !
 ! A95   A(22,23,47)           109.3825         estimate D2E/DX2                !
 ! A96   A(24,23,25)           108.5995         estimate D2E/DX2                !
 ! A97   A(24,23,47)           106.702          estimate D2E/DX2                !
 ! A98   A(25,23,47)           107.6785         estimate D2E/DX2                !
 ! A99   A(4,24,23)            109.7753         estimate D2E/DX2                !
 ! A100  A(23,25,26)           115.0579         estimate D2E/DX2                !
 ! A101  A(23,25,27)           125.0076         estimate D2E/DX2                !
 ! A102  A(26,25,27)           119.9116         estimate D2E/DX2                !
 ! A103  A(25,26,48)           110.2848         estimate D2E/DX2                !
 ! A104  A(25,26,49)           110.6175         estimate D2E/DX2                !
 ! A105  A(25,26,50)           112.1968         estimate D2E/DX2                !
 ! A106  A(48,26,49)           108.6262         estimate D2E/DX2                !
 ! A107  A(48,26,50)           107.4695         estimate D2E/DX2                !
 ! A108  A(49,26,50)           107.5075         estimate D2E/DX2                !
 ! A109  A(25,27,51)           122.8544         estimate D2E/DX2                !
 ! A110  A(25,27,52)           121.2472         estimate D2E/DX2                !
 ! A111  A(51,27,52)           115.8975         estimate D2E/DX2                !
 ! A112  A(18,28,53)           112.552          estimate D2E/DX2                !
 ! A113  A(18,28,54)           110.5447         estimate D2E/DX2                !
 ! A114  A(18,28,55)           111.281          estimate D2E/DX2                !
 ! A115  A(53,28,54)           105.3344         estimate D2E/DX2                !
 ! A116  A(53,28,55)           108.584          estimate D2E/DX2                !
 ! A117  A(54,28,55)           108.2899         estimate D2E/DX2                !
 ! A118  A(18,29,56)           111.3758         estimate D2E/DX2                !
 ! A119  A(18,29,57)           110.6767         estimate D2E/DX2                !
 ! A120  A(18,29,58)           112.1082         estimate D2E/DX2                !
 ! A121  A(56,29,57)           108.2908         estimate D2E/DX2                !
 ! A122  A(56,29,58)           108.8985         estimate D2E/DX2                !
 ! A123  A(57,29,58)           105.242          estimate D2E/DX2                !
 ! A124  A(2,32,59)            112.0551         estimate D2E/DX2                !
 ! A125  A(2,32,60)            110.8707         estimate D2E/DX2                !
 ! A126  A(2,32,61)            110.2349         estimate D2E/DX2                !
 ! A127  A(59,32,60)           107.4469         estimate D2E/DX2                !
 ! A128  A(59,32,61)           107.4133         estimate D2E/DX2                !
 ! A129  A(60,32,61)           108.6774         estimate D2E/DX2                !
 ! A130  A(14,62,63)           111.4779         estimate D2E/DX2                !
 ! A131  A(14,62,64)           111.1239         estimate D2E/DX2                !
 ! A132  A(14,62,65)           110.0238         estimate D2E/DX2                !
 ! A133  A(63,62,64)           108.5072         estimate D2E/DX2                !
 ! A134  A(63,62,65)           107.5719         estimate D2E/DX2                !
 ! A135  A(64,62,65)           108.0026         estimate D2E/DX2                !
 ! D1    D(6,1,2,3)             -0.7699         estimate D2E/DX2                !
 ! D2    D(6,1,2,32)           175.0165         estimate D2E/DX2                !
 ! D3    D(33,1,2,3)          -176.9671         estimate D2E/DX2                !
 ! D4    D(33,1,2,32)           -1.1808         estimate D2E/DX2                !
 ! D5    D(2,1,6,5)             29.7081         estimate D2E/DX2                !
 ! D6    D(2,1,6,34)           -94.2505         estimate D2E/DX2                !
 ! D7    D(2,1,6,35)           152.8405         estimate D2E/DX2                !
 ! D8    D(33,1,6,5)          -153.9633         estimate D2E/DX2                !
 ! D9    D(33,1,6,34)           82.0782         estimate D2E/DX2                !
 ! D10   D(33,1,6,35)          -30.8309         estimate D2E/DX2                !
 ! D11   D(1,2,3,4)            -13.5217         estimate D2E/DX2                !
 ! D12   D(1,2,3,20)          -135.9929         estimate D2E/DX2                !
 ! D13   D(1,2,3,31)           106.9819         estimate D2E/DX2                !
 ! D14   D(32,2,3,4)           170.5593         estimate D2E/DX2                !
 ! D15   D(32,2,3,20)           48.0881         estimate D2E/DX2                !
 ! D16   D(32,2,3,31)          -68.9371         estimate D2E/DX2                !
 ! D17   D(1,2,32,59)           -4.9315         estimate D2E/DX2                !
 ! D18   D(1,2,32,60)          115.1137         estimate D2E/DX2                !
 ! D19   D(1,2,32,61)         -124.5007         estimate D2E/DX2                !
 ! D20   D(3,2,32,59)          171.0271         estimate D2E/DX2                !
 ! D21   D(3,2,32,60)          -68.9277         estimate D2E/DX2                !
 ! D22   D(3,2,32,61)           51.4578         estimate D2E/DX2                !
 ! D23   D(2,3,4,5)             -2.0417         estimate D2E/DX2                !
 ! D24   D(2,3,4,7)           -128.7379         estimate D2E/DX2                !
 ! D25   D(2,3,4,24)           118.3268         estimate D2E/DX2                !
 ! D26   D(20,3,4,5)           124.3217         estimate D2E/DX2                !
 ! D27   D(20,3,4,7)            -2.3746         estimate D2E/DX2                !
 ! D28   D(20,3,4,24)         -115.3099         estimate D2E/DX2                !
 ! D29   D(31,3,4,5)          -121.4503         estimate D2E/DX2                !
 ! D30   D(31,3,4,7)           111.8535         estimate D2E/DX2                !
 ! D31   D(31,3,4,24)           -1.0818         estimate D2E/DX2                !
 ! D32   D(2,3,20,17)          152.5415         estimate D2E/DX2                !
 ! D33   D(2,3,20,42)          -86.8283         estimate D2E/DX2                !
 ! D34   D(2,3,20,43)           31.8248         estimate D2E/DX2                !
 ! D35   D(4,3,20,17)           24.5193         estimate D2E/DX2                !
 ! D36   D(4,3,20,42)          145.1495         estimate D2E/DX2                !
 ! D37   D(4,3,20,43)          -96.1974         estimate D2E/DX2                !
 ! D38   D(31,3,20,17)         -90.7404         estimate D2E/DX2                !
 ! D39   D(31,3,20,42)          29.8898         estimate D2E/DX2                !
 ! D40   D(31,3,20,43)         148.5429         estimate D2E/DX2                !
 ! D41   D(3,4,5,6)             29.0591         estimate D2E/DX2                !
 ! D42   D(3,4,5,10)           -96.7909         estimate D2E/DX2                !
 ! D43   D(3,4,5,22)           147.0204         estimate D2E/DX2                !
 ! D44   D(7,4,5,6)            151.964          estimate D2E/DX2                !
 ! D45   D(7,4,5,10)            26.114          estimate D2E/DX2                !
 ! D46   D(7,4,5,22)           -90.0748         estimate D2E/DX2                !
 ! D47   D(24,4,5,6)           -91.7063         estimate D2E/DX2                !
 ! D48   D(24,4,5,10)          142.4437         estimate D2E/DX2                !
 ! D49   D(24,4,5,22)           26.2549         estimate D2E/DX2                !
 ! D50   D(3,4,7,8)             88.6455         estimate D2E/DX2                !
 ! D51   D(3,4,7,17)           -21.1398         estimate D2E/DX2                !
 ! D52   D(3,4,7,21)          -145.7669         estimate D2E/DX2                !
 ! D53   D(5,4,7,8)            -41.5367         estimate D2E/DX2                !
 ! D54   D(5,4,7,17)          -151.322          estimate D2E/DX2                !
 ! D55   D(5,4,7,21)            84.0509         estimate D2E/DX2                !
 ! D56   D(24,4,7,8)          -157.8692         estimate D2E/DX2                !
 ! D57   D(24,4,7,17)           92.3455         estimate D2E/DX2                !
 ! D58   D(24,4,7,21)          -32.2815         estimate D2E/DX2                !
 ! D59   D(3,4,24,23)         -133.8806         estimate D2E/DX2                !
 ! D60   D(5,4,24,23)           -6.1702         estimate D2E/DX2                !
 ! D61   D(7,4,24,23)          114.2364         estimate D2E/DX2                !
 ! D62   D(4,5,6,1)            -41.929          estimate D2E/DX2                !
 ! D63   D(4,5,6,34)            79.5221         estimate D2E/DX2                !
 ! D64   D(4,5,6,35)          -163.6687         estimate D2E/DX2                !
 ! D65   D(10,5,6,1)            87.8184         estimate D2E/DX2                !
 ! D66   D(10,5,6,34)         -150.7305         estimate D2E/DX2                !
 ! D67   D(10,5,6,35)          -33.9212         estimate D2E/DX2                !
 ! D68   D(22,5,6,1)          -154.9236         estimate D2E/DX2                !
 ! D69   D(22,5,6,34)          -33.4725         estimate D2E/DX2                !
 ! D70   D(22,5,6,35)           83.3367         estimate D2E/DX2                !
 ! D71   D(4,5,10,9)             3.4389         estimate D2E/DX2                !
 ! D72   D(4,5,10,16)         -176.311          estimate D2E/DX2                !
 ! D73   D(6,5,10,9)          -124.751          estimate D2E/DX2                !
 ! D74   D(6,5,10,16)           55.4991         estimate D2E/DX2                !
 ! D75   D(22,5,10,9)          116.3549         estimate D2E/DX2                !
 ! D76   D(22,5,10,16)         -63.395          estimate D2E/DX2                !
 ! D77   D(4,5,22,23)          -35.6786         estimate D2E/DX2                !
 ! D78   D(4,5,22,45)         -157.2177         estimate D2E/DX2                !
 ! D79   D(4,5,22,46)           83.1562         estimate D2E/DX2                !
 ! D80   D(6,5,22,23)           84.4029         estimate D2E/DX2                !
 ! D81   D(6,5,22,45)          -37.1363         estimate D2E/DX2                !
 ! D82   D(6,5,22,46)         -156.7623         estimate D2E/DX2                !
 ! D83   D(10,5,22,23)        -157.7935         estimate D2E/DX2                !
 ! D84   D(10,5,22,45)          80.6674         estimate D2E/DX2                !
 ! D85   D(10,5,22,46)         -38.9587         estimate D2E/DX2                !
 ! D86   D(4,7,8,9)             28.1695         estimate D2E/DX2                !
 ! D87   D(4,7,8,19)          -143.6797         estimate D2E/DX2                !
 ! D88   D(17,7,8,9)           142.6186         estimate D2E/DX2                !
 ! D89   D(17,7,8,19)          -29.2306         estimate D2E/DX2                !
 ! D90   D(21,7,8,9)           -99.0206         estimate D2E/DX2                !
 ! D91   D(21,7,8,19)           89.1302         estimate D2E/DX2                !
 ! D92   D(4,7,17,18)          155.2414         estimate D2E/DX2                !
 ! D93   D(4,7,17,20)           35.8938         estimate D2E/DX2                !
 ! D94   D(4,7,17,30)          -83.3737         estimate D2E/DX2                !
 ! D95   D(8,7,17,18)           34.8345         estimate D2E/DX2                !
 ! D96   D(8,7,17,20)          -84.5131         estimate D2E/DX2                !
 ! D97   D(8,7,17,30)          156.2194         estimate D2E/DX2                !
 ! D98   D(21,7,17,18)         -80.5853         estimate D2E/DX2                !
 ! D99   D(21,7,17,20)         160.067          estimate D2E/DX2                !
 ! D100  D(21,7,17,30)          40.7995         estimate D2E/DX2                !
 ! D101  D(4,7,21,44)           41.076          estimate D2E/DX2                !
 ! D102  D(8,7,21,44)          170.0231         estimate D2E/DX2                !
 ! D103  D(17,7,21,44)         -80.4345         estimate D2E/DX2                !
 ! D104  D(7,8,9,10)             3.3654         estimate D2E/DX2                !
 ! D105  D(7,8,9,11)          -176.4627         estimate D2E/DX2                !
 ! D106  D(19,8,9,10)          174.3433         estimate D2E/DX2                !
 ! D107  D(19,8,9,11)           -5.4848         estimate D2E/DX2                !
 ! D108  D(7,8,19,18)            9.8903         estimate D2E/DX2                !
 ! D109  D(9,8,19,18)         -161.9679         estimate D2E/DX2                !
 ! D110  D(8,9,10,5)           -19.7445         estimate D2E/DX2                !
 ! D111  D(8,9,10,16)          160.0083         estimate D2E/DX2                !
 ! D112  D(11,9,10,5)          160.0798         estimate D2E/DX2                !
 ! D113  D(11,9,10,16)         -20.1674         estimate D2E/DX2                !
 ! D114  D(8,9,11,12)           63.0434         estimate D2E/DX2                !
 ! D115  D(8,9,11,13)         -117.6034         estimate D2E/DX2                !
 ! D116  D(10,9,11,12)        -116.779          estimate D2E/DX2                !
 ! D117  D(10,9,11,13)          62.5742         estimate D2E/DX2                !
 ! D118  D(9,11,13,14)         119.4692         estimate D2E/DX2                !
 ! D119  D(9,11,13,15)        -119.2144         estimate D2E/DX2                !
 ! D120  D(9,11,13,36)          -0.7994         estimate D2E/DX2                !
 ! D121  D(12,11,13,14)        -61.194          estimate D2E/DX2                !
 ! D122  D(12,11,13,15)         60.1224         estimate D2E/DX2                !
 ! D123  D(12,11,13,36)        178.5374         estimate D2E/DX2                !
 ! D124  D(11,13,14,37)         52.7586         estimate D2E/DX2                !
 ! D125  D(11,13,14,38)        170.1427         estimate D2E/DX2                !
 ! D126  D(11,13,14,62)        -69.5757         estimate D2E/DX2                !
 ! D127  D(15,13,14,37)        -67.6678         estimate D2E/DX2                !
 ! D128  D(15,13,14,38)         49.7163         estimate D2E/DX2                !
 ! D129  D(15,13,14,62)        169.998          estimate D2E/DX2                !
 ! D130  D(36,13,14,37)        173.498          estimate D2E/DX2                !
 ! D131  D(36,13,14,38)        -69.1179         estimate D2E/DX2                !
 ! D132  D(36,13,14,62)         51.1638         estimate D2E/DX2                !
 ! D133  D(11,13,15,39)        175.6587         estimate D2E/DX2                !
 ! D134  D(11,13,15,40)         55.6082         estimate D2E/DX2                !
 ! D135  D(11,13,15,41)        -64.1018         estimate D2E/DX2                !
 ! D136  D(14,13,15,39)        -62.5683         estimate D2E/DX2                !
 ! D137  D(14,13,15,40)        177.3812         estimate D2E/DX2                !
 ! D138  D(14,13,15,41)         57.6712         estimate D2E/DX2                !
 ! D139  D(36,13,15,39)         56.5015         estimate D2E/DX2                !
 ! D140  D(36,13,15,40)        -63.549          estimate D2E/DX2                !
 ! D141  D(36,13,15,41)        176.741          estimate D2E/DX2                !
 ! D142  D(13,14,62,63)         65.8882         estimate D2E/DX2                !
 ! D143  D(13,14,62,64)        -55.2897         estimate D2E/DX2                !
 ! D144  D(13,14,62,65)       -174.8566         estimate D2E/DX2                !
 ! D145  D(37,14,62,63)        -57.3794         estimate D2E/DX2                !
 ! D146  D(37,14,62,64)       -178.5573         estimate D2E/DX2                !
 ! D147  D(37,14,62,65)         61.8758         estimate D2E/DX2                !
 ! D148  D(38,14,62,63)       -173.1298         estimate D2E/DX2                !
 ! D149  D(38,14,62,64)         65.6923         estimate D2E/DX2                !
 ! D150  D(38,14,62,65)        -53.8746         estimate D2E/DX2                !
 ! D151  D(7,17,18,19)         -31.5627         estimate D2E/DX2                !
 ! D152  D(7,17,18,28)          86.2032         estimate D2E/DX2                !
 ! D153  D(7,17,18,29)        -150.2563         estimate D2E/DX2                !
 ! D154  D(20,17,18,19)         78.1696         estimate D2E/DX2                !
 ! D155  D(20,17,18,28)       -164.0645         estimate D2E/DX2                !
 ! D156  D(20,17,18,29)        -40.5241         estimate D2E/DX2                !
 ! D157  D(30,17,18,19)       -153.644          estimate D2E/DX2                !
 ! D158  D(30,17,18,28)        -35.8782         estimate D2E/DX2                !
 ! D159  D(30,17,18,29)         87.6623         estimate D2E/DX2                !
 ! D160  D(7,17,20,3)          -36.9928         estimate D2E/DX2                !
 ! D161  D(7,17,20,42)        -158.1017         estimate D2E/DX2                !
 ! D162  D(7,17,20,43)          82.5888         estimate D2E/DX2                !
 ! D163  D(18,17,20,3)        -147.1144         estimate D2E/DX2                !
 ! D164  D(18,17,20,42)         91.7767         estimate D2E/DX2                !
 ! D165  D(18,17,20,43)        -27.5328         estimate D2E/DX2                !
 ! D166  D(30,17,20,3)          83.9902         estimate D2E/DX2                !
 ! D167  D(30,17,20,42)        -37.1187         estimate D2E/DX2                !
 ! D168  D(30,17,20,43)       -156.4282         estimate D2E/DX2                !
 ! D169  D(17,18,19,8)          13.8788         estimate D2E/DX2                !
 ! D170  D(28,18,19,8)        -107.0098         estimate D2E/DX2                !
 ! D171  D(29,18,19,8)         136.0102         estimate D2E/DX2                !
 ! D172  D(17,18,28,53)        -61.8986         estimate D2E/DX2                !
 ! D173  D(17,18,28,54)       -179.3782         estimate D2E/DX2                !
 ! D174  D(17,18,28,55)         60.2479         estimate D2E/DX2                !
 ! D175  D(19,18,28,53)         54.5085         estimate D2E/DX2                !
 ! D176  D(19,18,28,54)        -62.9712         estimate D2E/DX2                !
 ! D177  D(19,18,28,55)        176.655          estimate D2E/DX2                !
 ! D178  D(29,18,28,53)        171.6            estimate D2E/DX2                !
 ! D179  D(29,18,28,54)         54.1203         estimate D2E/DX2                !
 ! D180  D(29,18,28,55)        -66.2535         estimate D2E/DX2                !
 ! D181  D(17,18,29,56)        -57.3005         estimate D2E/DX2                !
 ! D182  D(17,18,29,57)       -177.8276         estimate D2E/DX2                !
 ! D183  D(17,18,29,58)         65.0042         estimate D2E/DX2                !
 ! D184  D(19,18,29,56)       -174.4605         estimate D2E/DX2                !
 ! D185  D(19,18,29,57)         65.0124         estimate D2E/DX2                !
 ! D186  D(19,18,29,58)        -52.1558         estimate D2E/DX2                !
 ! D187  D(28,18,29,56)         68.68           estimate D2E/DX2                !
 ! D188  D(28,18,29,57)        -51.8471         estimate D2E/DX2                !
 ! D189  D(28,18,29,58)       -169.0153         estimate D2E/DX2                !
 ! D190  D(5,22,23,24)          33.1987         estimate D2E/DX2                !
 ! D191  D(5,22,23,25)         154.9566         estimate D2E/DX2                !
 ! D192  D(5,22,23,47)         -81.2383         estimate D2E/DX2                !
 ! D193  D(45,22,23,24)        155.7813         estimate D2E/DX2                !
 ! D194  D(45,22,23,25)        -82.4608         estimate D2E/DX2                !
 ! D195  D(45,22,23,47)         41.3443         estimate D2E/DX2                !
 ! D196  D(46,22,23,24)        -84.248          estimate D2E/DX2                !
 ! D197  D(46,22,23,25)         37.5099         estimate D2E/DX2                !
 ! D198  D(46,22,23,47)        161.315          estimate D2E/DX2                !
 ! D199  D(22,23,24,4)         -16.9518         estimate D2E/DX2                !
 ! D200  D(25,23,24,4)        -144.8553         estimate D2E/DX2                !
 ! D201  D(47,23,24,4)          99.3276         estimate D2E/DX2                !
 ! D202  D(22,23,25,26)       -175.4224         estimate D2E/DX2                !
 ! D203  D(22,23,25,27)          6.3283         estimate D2E/DX2                !
 ! D204  D(24,23,25,26)        -55.2509         estimate D2E/DX2                !
 ! D205  D(24,23,25,27)        126.4999         estimate D2E/DX2                !
 ! D206  D(47,23,25,26)         59.9328         estimate D2E/DX2                !
 ! D207  D(47,23,25,27)       -118.3164         estimate D2E/DX2                !
 ! D208  D(23,25,26,48)        -55.2593         estimate D2E/DX2                !
 ! D209  D(23,25,26,49)         64.9305         estimate D2E/DX2                !
 ! D210  D(23,25,26,50)       -175.0264         estimate D2E/DX2                !
 ! D211  D(27,25,26,48)        123.0863         estimate D2E/DX2                !
 ! D212  D(27,25,26,49)       -116.7239         estimate D2E/DX2                !
 ! D213  D(27,25,26,50)          3.3193         estimate D2E/DX2                !
 ! D214  D(23,25,27,51)         -0.3529         estimate D2E/DX2                !
 ! D215  D(23,25,27,52)        179.2835         estimate D2E/DX2                !
 ! D216  D(26,25,27,51)       -178.5232         estimate D2E/DX2                !
 ! D217  D(26,25,27,52)          1.1133         estimate D2E/DX2                !
 --------------------------------------------------------------------------------
 Trust Radius=3.00D-01 FncErr=1.00D-07 GrdErr=1.00D-06
 Number of steps in this run=    390 maximum allowed number of steps=    390.
 GradGradGradGradGradGradGradGradGradGradGradGradGradGradGradGradGradGrad

 Stoichiometry    C26H34O5
 Framework group  C1[X(C26H34O5)]
 Deg. of freedom   189
 Full point group                 C1      NOp   1
 Largest Abelian subgroup         C1      NOp   1
 Largest concise Abelian subgroup C1      NOp   1
                         Standard orientation:                         
 ---------------------------------------------------------------------
 Center     Atomic      Atomic             Coordinates (Angstroms)
 Number     Number       Type             X           Y           Z
 ---------------------------------------------------------------------
      1          6           0       -1.330858   -0.369325    3.221782
      2          6           0       -1.377738    0.921713    2.859961
      3          6           0       -1.610935    1.335528    1.425618
      4          6           0       -1.467160    0.211246    0.359839
      5          6           0       -1.060134   -1.194053    0.829043
      6          6           0       -1.516922   -1.505244    2.268821
      7          6           0       -0.504451    0.786180   -0.695340
      8          6           0        0.942359    0.542272   -0.437163
      9          6           0        1.403034   -0.511901    0.246058
     10          6           0        0.435395   -1.531870    0.711708
     11          6           0        2.857726   -0.630840    0.521598
     12          8           0        3.421526    0.215218    1.217468
     13          6           0        3.600252   -1.826130   -0.068285
     14          6           0        4.717034   -1.365079   -1.017320
     15          6           0        4.187924   -2.651765    1.076892
     16          8           0        0.843732   -2.659022    1.000407
     17          6           0       -0.530900    2.292748   -0.558468
     18          6           0        0.840430    2.706327   -1.133292
     19          8           0        1.741823    1.614015   -0.822728
     20          6           0       -0.679740    2.470971    0.961803
     21          8           0       -0.821036    0.345138   -2.005189
     22          6           0       -1.812057   -2.084354   -0.164209
     23          6           0       -3.111790   -1.324851   -0.393747
     24          8           0       -2.764952    0.068873   -0.297421
     25          6           0       -3.856050   -1.548024   -1.690608
     26          6           0       -5.073405   -0.679811   -1.885906
     27          6           0       -3.527309   -2.460599   -2.621182
     28          6           0        0.815695    2.882346   -2.660030
     29          6           0        1.404647    3.989097   -0.512923
     30          1           0       -1.365147    2.763131   -1.091274
     31          1           0       -2.638166    1.726817    1.379775
     32          6           0       -1.292213    2.014338    3.892827
     33          1           0       -1.210598   -0.636281    4.270388
     34          1           0       -2.576279   -1.786444    2.305583
     35          1           0       -0.973973   -2.372287    2.665425
     36          1           0        2.898781   -2.456806   -0.626681
     37          1           0        5.371597   -0.639588   -0.519064
     38          1           0        5.341887   -2.225622   -1.286311
     39          1           0        4.663812   -3.561209    0.695353
     40          1           0        3.411756   -2.950300    1.788952
     41          1           0        4.941259   -2.083382    1.633962
     42          1           0       -1.095173    3.456479    1.200528
     43          1           0        0.286465    2.396209    1.475325
     44          1           0       -1.797255    0.373796   -2.068630
     45          1           0       -1.988812   -3.101233    0.204067
     46          1           0       -1.229810   -2.174515   -1.089735
     47          1           0       -3.806260   -1.534557    0.429278
     48          1           0       -5.760684   -0.794110   -1.041152
     49          1           0       -4.786950    0.373886   -1.963492
     50          1           0       -5.624986   -0.939204   -2.795988
     51          1           0       -2.676515   -3.125271   -2.518660
     52          1           0       -4.113699   -2.576788   -3.528582
     53          1           0        0.563450    1.957054   -3.184719
     54          1           0        1.808206    3.164728   -3.030974
     55          1           0        0.103592    3.658258   -2.959064
     56          1           0        0.712699    4.828704   -0.634013
     57          1           0        2.358433    4.258855   -0.981739
     58          1           0        1.631242    3.867088    0.550771
     59          1           0       -1.280452    1.615882    4.913060
     60          1           0       -0.380723    2.605049    3.760820
     61          1           0       -2.156935    2.680978    3.811370
     62          6           0        4.185118   -0.747989   -2.303522
     63          1           0        3.652924    0.186349   -2.108778
     64          1           0        3.505473   -1.434089   -2.818530
     65          1           0        5.014390   -0.520944   -2.981290
 ---------------------------------------------------------------------
 Rotational constants (GHZ):      0.1953701      0.1293316      0.1230085
 Standard basis: 6-31G(d) (6D, 7F)
 There are   533 symmetry adapted basis functions of A   symmetry.
 Integral buffers will be    131072 words long.
 Raffenetti 2 integral format.
 Two-electron integral symmetry is turned on.
   533 basis functions,  1004 primitive gaussians,   533 cartesian basis functions
   115 alpha electrons      115 beta electrons
       nuclear repulsion energy      3533.3989539761 Hartrees.
 NAtoms=   65 NActive=   65 NUniq=   65 SFac= 1.00D+00 NAtFMM=   50 NAOKFM=T Big=T
 One-electron integrals computed using PRISM.
 NBasis=   533 RedAO= T  NBF=   533
 NBsUse=   533 1.00D-06 NBFU=   533
 Harris functional with IExCor=  402 diagonalized for initial guess.
 ExpMin= 1.61D-01 ExpMax= 5.48D+03 ExpMxC= 8.25D+02 IAcc=1 IRadAn=         1 AccDes= 0.00D+00
 HarFok:  IExCor=  402 AccDes= 0.00D+00 IRadAn=         1 IDoV= 1
 ScaDFX=  1.000000  1.000000  1.000000  1.000000
 FoFCou: FMM=F IPFlag=           0 FMFlag=      100000 FMFlg1=        2001
         NFxFlg=           0 DoJE=T BraDBF=F KetDBF=T FulRan=T
         Omega=  0.000000  0.000000  1.000000  0.000000  0.000000 ICntrl=     500 IOpCl=  0
         NMat0=    1 NMatS0=    1 NMatT0=    0 NMatD0=    1 NMtDS0=    0 NMtDT0=    0
         I1Cent=           4 NGrid=           0.
 Petite list used in FoFCou.
 Initial guess orbital symmetries:
       Occupied  (A) (A) (A) (A) (A) (A) (A) (A) (A) (A) (A) (A)
                 (A) (A) (A) (A) (A) (A) (A) (A) (A) (A) (A) (A)
                 (A) (A) (A) (A) (A) (A) (A) (A) (A) (A) (A) (A)
                 (A) (A) (A) (A) (A) (A) (A) (A) (A) (A) (A) (A)
                 (A) (A) (A) (A) (A) (A) (A) (A) (A) (A) (A) (A)
                 (A) (A) (A) (A) (A) (A) (A) (A) (A) (A) (A) (A)
                 (A) (A) (A) (A) (A) (A) (A) (A) (A) (A) (A) (A)
                 (A) (A) (A) (A) (A) (A) (A) (A) (A) (A) (A) (A)
                 (A) (A) (A) (A) (A) (A) (A) (A) (A) (A) (A) (A)
                 (A) (A) (A) (A) (A) (A) (A)
       Virtual   (A) (A) (A) (A) (A) (A) (A) (A) (A) (A) (A) (A)
                 (A) (A) (A) (A) (A) (A) (A) (A) (A) (A) (A) (A)
                 (A) (A) (A) (A) (A) (A) (A) (A) (A) (A) (A) (A)
                 (A) (A) (A) (A) (A) (A) (A) (A) (A) (A) (A) (A)
                 (A) (A) (A) (A) (A) (A) (A) (A) (A) (A) (A) (A)
                 (A) (A) (A) (A) (A) (A) (A) (A) (A) (A) (A) (A)
                 (A) (A) (A) (A) (A) (A) (A) (A) (A) (A) (A) (A)
                 (A) (A) (A) (A) (A) (A) (A) (A) (A) (A) (A) (A)
                 (A) (A) (A) (A) (A) (A) (A) (A) (A) (A) (A) (A)
                 (A) (A) (A) (A) (A) (A) (A) (A) (A) (A) (A) (A)
                 (A) (A) (A) (A) (A) (A) (A) (A) (A) (A) (A) (A)
                 (A) (A) (A) (A) (A) (A) (A) (A) (A) (A) (A) (A)
                 (A) (A) (A) (A) (A) (A) (A) (A) (A) (A) (A) (A)
                 (A) (A) (A) (A) (A) (A) (A) (A) (A) (A) (A) (A)
                 (A) (A) (A) (A) (A) (A) (A) (A) (A) (A) (A) (A)
                 (A) (A) (A) (A) (A) (A) (A) (A) (A) (A) (A) (A)
                 (A) (A) (A) (A) (A) (A) (A) (A) (A) (A) (A) (A)
                 (A) (A) (A) (A) (A) (A) (A) (A) (A) (A) (A) (A)
                 (A) (A) (A) (A) (A) (A) (A) (A) (A) (A) (A) (A)
                 (A) (A) (A) (A) (A) (A) (A) (A) (A) (A) (A) (A)
                 (A) (A) (A) (A) (A) (A) (A) (A) (A) (A) (A) (A)
                 (A) (A) (A) (A) (A) (A) (A) (A) (A) (A) (A) (A)
                 (A) (A) (A) (A) (A) (A) (A) (A) (A) (A) (A) (A)
                 (A) (A) (A) (A) (A) (A) (A) (A) (A) (A) (A) (A)
                 (A) (A) (A) (A) (A) (A) (A) (A) (A) (A) (A) (A)
                 (A) (A) (A) (A) (A) (A) (A) (A) (A) (A) (A) (A)
                 (A) (A) (A) (A) (A) (A) (A) (A) (A) (A) (A) (A)
                 (A) (A) (A) (A) (A) (A) (A) (A) (A) (A) (A) (A)
                 (A) (A) (A) (A) (A) (A) (A) (A) (A) (A) (A) (A)
                 (A) (A) (A) (A) (A) (A) (A) (A) (A) (A) (A) (A)
                 (A) (A) (A) (A) (A) (A) (A) (A) (A) (A) (A) (A)
                 (A) (A) (A) (A) (A) (A) (A) (A) (A) (A) (A) (A)
                 (A) (A) (A) (A) (A) (A) (A) (A) (A) (A) (A) (A)
                 (A) (A) (A) (A) (A) (A) (A) (A) (A) (A) (A) (A)
                 (A) (A) (A) (A) (A) (A) (A) (A) (A) (A)
 The electronic state of the initial guess is 1-A.
 Requested convergence on RMS density matrix=1.00D-08 within 128 cycles.
 Requested convergence on MAX density matrix=1.00D-06.
 Requested convergence on             energy=1.00D-06.
 No special actions if energy rises.
 Integral accuracy reduced to 1.0D-05 until final iterations.
 Initial convergence to 1.0D-05 achieved.  Increase integral accuracy.
 SCF Done:  E(RB3LYP) =  -1387.30518947     A.U. after   16 cycles
             Convg  =    0.4680D-08             -V/T =  2.0091

 **********************************************************************

            Population analysis using the SCF density.

 **********************************************************************

 Orbital symmetries:
       Occupied  (A) (A) (A) (A) (A) (A) (A) (A) (A) (A) (A) (A)
                 (A) (A) (A) (A) (A) (A) (A) (A) (A) (A) (A) (A)
                 (A) (A) (A) (A) (A) (A) (A) (A) (A) (A) (A) (A)
                 (A) (A) (A) (A) (A) (A) (A) (A) (A) (A) (A) (A)
                 (A) (A) (A) (A) (A) (A) (A) (A) (A) (A) (A) (A)
                 (A) (A) (A) (A) (A) (A) (A) (A) (A) (A) (A) (A)
                 (A) (A) (A) (A) (A) (A) (A) (A) (A) (A) (A) (A)
                 (A) (A) (A) (A) (A) (A) (A) (A) (A) (A) (A) (A)
                 (A) (A) (A) (A) (A) (A) (A) (A) (A) (A) (A) (A)
                 (A) (A) (A) (A) (A) (A) (A)
       Virtual   (A) (A) (A) (A) (A) (A) (A) (A) (A) (A) (A) (A)
                 (A) (A) (A) (A) (A) (A) (A) (A) (A) (A) (A) (A)
                 (A) (A) (A) (A) (A) (A) (A) (A) (A) (A) (A) (A)
                 (A) (A) (A) (A) (A) (A) (A) (A) (A) (A) (A) (A)
                 (A) (A) (A) (A) (A) (A) (A) (A) (A) (A) (A) (A)
                 (A) (A) (A) (A) (A) (A) (A) (A) (A) (A) (A) (A)
                 (A) (A) (A) (A) (A) (A) (A) (A) (A) (A) (A) (A)
                 (A) (A) (A) (A) (A) (A) (A) (A) (A) (A) (A) (A)
                 (A) (A) (A) (A) (A) (A) (A) (A) (A) (A) (A) (A)
                 (A) (A) (A) (A) (A) (A) (A) (A) (A) (A) (A) (A)
                 (A) (A) (A) (A) (A) (A) (A) (A) (A) (A) (A) (A)
                 (A) (A) (A) (A) (A) (A) (A) (A) (A) (A) (A) (A)
                 (A) (A) (A) (A) (A) (A) (A) (A) (A) (A) (A) (A)
                 (A) (A) (A) (A) (A) (A) (A) (A) (A) (A) (A) (A)
                 (A) (A) (A) (A) (A) (A) (A) (A) (A) (A) (A) (A)
                 (A) (A) (A) (A) (A) (A) (A) (A) (A) (A) (A) (A)
                 (A) (A) (A) (A) (A) (A) (A) (A) (A) (A) (A) (A)
                 (A) (A) (A) (A) (A) (A) (A) (A) (A) (A) (A) (A)
                 (A) (A) (A) (A) (A) (A) (A) (A) (A) (A) (A) (A)
                 (A) (A) (A) (A) (A) (A) (A) (A) (A) (A) (A) (A)
                 (A) (A) (A) (A) (A) (A) (A) (A) (A) (A) (A) (A)
                 (A) (A) (A) (A) (A) (A) (A) (A) (A) (A) (A) (A)
                 (A) (A) (A) (A) (A) (A) (A) (A) (A) (A) (A) (A)
                 (A) (A) (A) (A) (A) (A) (A) (A) (A) (A) (A) (A)
                 (A) (A) (A) (A) (A) (A) (A) (A) (A) (A) (A) (A)
                 (A) (A) (A) (A) (A) (A) (A) (A) (A) (A) (A) (A)
                 (A) (A) (A) (A) (A) (A) (A) (A) (A) (A) (A) (A)
                 (A) (A) (A) (A) (A) (A) (A) (A) (A) (A) (A) (A)
                 (A) (A) (A) (A) (A) (A) (A) (A) (A) (A) (A) (A)
                 (A) (A) (A) (A) (A) (A) (A) (A) (A) (A) (A) (A)
                 (A) (A) (A) (A) (A) (A) (A) (A) (A) (A) (A) (A)
                 (A) (A) (A) (A) (A) (A) (A) (A) (A) (A) (A) (A)
                 (A) (A) (A) (A) (A) (A) (A) (A) (A) (A) (A) (A)
                 (A) (A) (A) (A) (A) (A) (A) (A) (A) (A) (A) (A)
                 (A) (A) (A) (A) (A) (A) (A) (A) (A) (A)
 The electronic state is 1-A.
 Alpha  occ. eigenvalues --  -19.19389 -19.16769 -19.15361 -19.13618 -19.13058
 Alpha  occ. eigenvalues --  -10.28115 -10.27018 -10.26764 -10.25900 -10.25892
 Alpha  occ. eigenvalues --  -10.25471 -10.25057 -10.21686 -10.20674 -10.20231
 Alpha  occ. eigenvalues --  -10.20050 -10.19613 -10.19526 -10.19363 -10.19317
 Alpha  occ. eigenvalues --  -10.19197 -10.18786 -10.18708 -10.18353 -10.18315
 Alpha  occ. eigenvalues --  -10.18060 -10.17903 -10.17517 -10.17077 -10.16012
 Alpha  occ. eigenvalues --  -10.15988  -1.08331  -1.05998  -1.03441  -1.02320
 Alpha  occ. eigenvalues --   -1.02116  -0.87409  -0.83909  -0.82570  -0.81701
 Alpha  occ. eigenvalues --   -0.80387  -0.79628  -0.76871  -0.74435  -0.73645
 Alpha  occ. eigenvalues --   -0.72166  -0.71612  -0.69376  -0.69188  -0.67890
 Alpha  occ. eigenvalues --   -0.65191  -0.64203  -0.63280  -0.61669  -0.60831
 Alpha  occ. eigenvalues --   -0.59469  -0.59056  -0.57344  -0.54812  -0.53606
 Alpha  occ. eigenvalues --   -0.53068  -0.52125  -0.50991  -0.50470  -0.49186
 Alpha  occ. eigenvalues --   -0.48692  -0.47983  -0.46627  -0.45942  -0.45829
 Alpha  occ. eigenvalues --   -0.45028  -0.44598  -0.44061  -0.43473  -0.43077
 Alpha  occ. eigenvalues --   -0.42597  -0.42190  -0.42036  -0.41685  -0.41522
 Alpha  occ. eigenvalues --   -0.41032  -0.40615  -0.40273  -0.40127  -0.39668
 Alpha  occ. eigenvalues --   -0.39067  -0.38839  -0.38451  -0.38303  -0.38100
 Alpha  occ. eigenvalues --   -0.37543  -0.37252  -0.37015  -0.36709  -0.36559
 Alpha  occ. eigenvalues --   -0.36305  -0.35129  -0.34691  -0.34544  -0.34018
 Alpha  occ. eigenvalues --   -0.33611  -0.33255  -0.32897  -0.32448  -0.31984
 Alpha  occ. eigenvalues --   -0.31909  -0.31350  -0.30658  -0.27904  -0.26558
 Alpha  occ. eigenvalues --   -0.26093  -0.25355  -0.24425  -0.23382  -0.23333
 Alpha virt. eigenvalues --   -0.05368  -0.01816   0.00360   0.02181   0.04216
 Alpha virt. eigenvalues --    0.06991   0.08625   0.08971   0.09275   0.10506
 Alpha virt. eigenvalues --    0.10672   0.11018   0.11503   0.12067   0.12606
 Alpha virt. eigenvalues --    0.13021   0.13235   0.13521   0.13911   0.14082
 Alpha virt. eigenvalues --    0.14327   0.14614   0.14872   0.15196   0.15937
 Alpha virt. eigenvalues --    0.16193   0.16542   0.16958   0.17561   0.17644
 Alpha virt. eigenvalues --    0.18139   0.18321   0.18643   0.18869   0.19449
 Alpha virt. eigenvalues --    0.19661   0.19779   0.19865   0.20093   0.20360
 Alpha virt. eigenvalues --    0.20852   0.20892   0.21582   0.21707   0.22077
 Alpha virt. eigenvalues --    0.23040   0.23576   0.23950   0.24309   0.24821
 Alpha virt. eigenvalues --    0.25420   0.25737   0.26383   0.26567   0.26741
 Alpha virt. eigenvalues --    0.27277   0.27810   0.28228   0.28605   0.29312
 Alpha virt. eigenvalues --    0.30749   0.32246   0.32343   0.33550   0.34486
 Alpha virt. eigenvalues --    0.34735   0.36524   0.37428   0.38382   0.39767
 Alpha virt. eigenvalues --    0.42078   0.45303   0.46199   0.48067   0.48385
 Alpha virt. eigenvalues --    0.50166   0.50365   0.50876   0.51247   0.51969
 Alpha virt. eigenvalues --    0.52170   0.52307   0.52790   0.53668   0.54342
 Alpha virt. eigenvalues --    0.54376   0.54665   0.55293   0.55639   0.57015
 Alpha virt. eigenvalues --    0.57356   0.57676   0.57730   0.58909   0.59046
 Alpha virt. eigenvalues --    0.59610   0.60232   0.60794   0.61108   0.62496
 Alpha virt. eigenvalues --    0.62664   0.62987   0.63777   0.64220   0.64808
 Alpha virt. eigenvalues --    0.65075   0.65732   0.66387   0.66801   0.67306
 Alpha virt. eigenvalues --    0.67778   0.68120   0.68450   0.69215   0.69466
 Alpha virt. eigenvalues --    0.70360   0.70764   0.71762   0.72889   0.73666
 Alpha virt. eigenvalues --    0.74286   0.75115   0.75557   0.75841   0.76595
 Alpha virt. eigenvalues --    0.77687   0.77980   0.78632   0.79392   0.79691
 Alpha virt. eigenvalues --    0.80399   0.80828   0.81306   0.82097   0.82594
 Alpha virt. eigenvalues --    0.82755   0.83392   0.83762   0.84162   0.84784
 Alpha virt. eigenvalues --    0.85468   0.86180   0.86458   0.86948   0.87108
 Alpha virt. eigenvalues --    0.87739   0.88303   0.88583   0.88877   0.89283
 Alpha virt. eigenvalues --    0.89660   0.90153   0.90488   0.90706   0.91068
 Alpha virt. eigenvalues --    0.91294   0.91573   0.91929   0.92092   0.92367
 Alpha virt. eigenvalues --    0.92742   0.93409   0.93973   0.94106   0.94982
 Alpha virt. eigenvalues --    0.95215   0.96138   0.96225   0.96430   0.96709
 Alpha virt. eigenvalues --    0.97180   0.97340   0.98249   0.98867   0.99226
 Alpha virt. eigenvalues --    1.00506   1.01153   1.01412   1.02381   1.03735
 Alpha virt. eigenvalues --    1.04551   1.05370   1.06059   1.07230   1.08122
 Alpha virt. eigenvalues --    1.08240   1.09227   1.10010   1.11495   1.12173
 Alpha virt. eigenvalues --    1.12567   1.13351   1.14138   1.16326   1.16882
 Alpha virt. eigenvalues --    1.17668   1.18112   1.18468   1.19093   1.21396
 Alpha virt. eigenvalues --    1.21916   1.23976   1.24565   1.25452   1.26216
 Alpha virt. eigenvalues --    1.27496   1.29321   1.30875   1.31562   1.32802
 Alpha virt. eigenvalues --    1.36167   1.36376   1.36578   1.38206   1.40248
 Alpha virt. eigenvalues --    1.40699   1.41946   1.43552   1.44447   1.47326
 Alpha virt. eigenvalues --    1.48301   1.48996   1.50084   1.52165   1.53380
 Alpha virt. eigenvalues --    1.53947   1.54992   1.56587   1.57693   1.58997
 Alpha virt. eigenvalues --    1.59754   1.60225   1.62508   1.62632   1.63273
 Alpha virt. eigenvalues --    1.64847   1.65983   1.66581   1.67895   1.68633
 Alpha virt. eigenvalues --    1.70039   1.71974   1.72892   1.73702   1.74591
 Alpha virt. eigenvalues --    1.75433   1.76213   1.77436   1.77690   1.79082
 Alpha virt. eigenvalues --    1.79763   1.79900   1.80998   1.81973   1.82048
 Alpha virt. eigenvalues --    1.82673   1.83123   1.83897   1.84699   1.85581
 Alpha virt. eigenvalues --    1.86026   1.86930   1.87608   1.87904   1.88599
 Alpha virt. eigenvalues --    1.89561   1.90366   1.90523   1.91354   1.91587
 Alpha virt. eigenvalues --    1.92070   1.92423   1.93262   1.94059   1.95476
 Alpha virt. eigenvalues --    1.95704   1.95869   1.96549   1.97085   1.97917
 Alpha virt. eigenvalues --    1.99465   2.00443   2.00776   2.01202   2.02299
 Alpha virt. eigenvalues --    2.03305   2.04162   2.04841   2.05815   2.06244
 Alpha virt. eigenvalues --    2.07031   2.08238   2.08459   2.09077   2.09581
 Alpha virt. eigenvalues --    2.10896   2.12116   2.12701   2.13594   2.14260
 Alpha virt. eigenvalues --    2.15105   2.15418   2.16674   2.17247   2.18864
 Alpha virt. eigenvalues --    2.19142   2.20831   2.21269   2.22632   2.23415
 Alpha virt. eigenvalues --    2.23802   2.24453   2.25207   2.25959   2.26931
 Alpha virt. eigenvalues --    2.28806   2.28991   2.29686   2.30960   2.31347
 Alpha virt. eigenvalues --    2.32487   2.33533   2.33753   2.34139   2.35043
 Alpha virt. eigenvalues --    2.35734   2.37462   2.38436   2.39015   2.39729
 Alpha virt. eigenvalues --    2.40058   2.40632   2.42327   2.42903   2.43527
 Alpha virt. eigenvalues --    2.44151   2.45492   2.45840   2.47829   2.49043
 Alpha virt. eigenvalues --    2.49917   2.50253   2.51286   2.53344   2.54289
 Alpha virt. eigenvalues --    2.56307   2.57738   2.57834   2.59141   2.60746
 Alpha virt. eigenvalues --    2.61502   2.62328   2.63502   2.65260   2.66634
 Alpha virt. eigenvalues --    2.67051   2.68644   2.69735   2.71269   2.71942
 Alpha virt. eigenvalues --    2.72761   2.73602   2.75081   2.77867   2.78955
 Alpha virt. eigenvalues --    2.80050   2.80881   2.82001   2.82964   2.85668
 Alpha virt. eigenvalues --    2.87203   2.89515   2.92386   2.94879   2.95548
 Alpha virt. eigenvalues --    2.97033   3.00772   3.01409   3.01808   3.02998
 Alpha virt. eigenvalues --    3.06040   3.07634   3.12900   3.18154   3.20940
 Alpha virt. eigenvalues --    3.23460   3.29881   4.00374   4.07582   4.09310
 Alpha virt. eigenvalues --    4.12872   4.15028   4.17009   4.17988   4.19914
 Alpha virt. eigenvalues --    4.22601   4.24334   4.27439   4.30123   4.30775
 Alpha virt. eigenvalues --    4.32709   4.35900   4.37910   4.40984   4.44261
 Alpha virt. eigenvalues --    4.46747   4.48287   4.53711   4.55943   4.61778
 Alpha virt. eigenvalues --    4.63900   4.66550   4.71182   4.73194   4.82287
 Alpha virt. eigenvalues --    4.91548   5.02050   5.19312
          Condensed to atoms (all electrons):
 Mulliken atomic charges:
              1
     1  C   -0.194274
     2  C    0.191125
     3  C   -0.186271
     4  C    0.322176
     5  C   -0.043258
     6  C   -0.331424
     7  C    0.213682
     8  C    0.399365
     9  C   -0.086179
    10  C    0.419206
    11  C    0.418129
    12  O   -0.464382
    13  C   -0.129337
    14  C   -0.251980
    15  C   -0.455921
    16  O   -0.503263
    17  C   -0.164623
    18  C    0.312648
    19  O   -0.528613
    20  C   -0.322153
    21  O   -0.659811
    22  C   -0.324958
    23  C    0.105437
    24  O   -0.584774
    25  C    0.178386
    26  C   -0.504793
    27  C   -0.391960
    28  C   -0.463306
    29  C   -0.462111
    30  H    0.143077
    31  H    0.163601
    32  C   -0.517850
    33  H    0.123497
    34  H    0.152477
    35  H    0.177554
    36  H    0.141041
    37  H    0.152514
    38  H    0.130715
    39  H    0.138564
    40  H    0.165244
    41  H    0.156210
    42  H    0.147474
    43  H    0.175305
    44  H    0.410604
    45  H    0.167637
    46  H    0.171706
    47  H    0.136212
    48  H    0.154577
    49  H    0.165883
    50  H    0.153724
    51  H    0.149194
    52  H    0.142807
    53  H    0.184373
    54  H    0.150430
    55  H    0.138210
    56  H    0.147348
    57  H    0.159160
    58  H    0.164947
    59  H    0.158027
    60  H    0.162841
    61  H    0.148807
    62  C   -0.464361
    63  H    0.163820
    64  H    0.139510
    65  H    0.138356
 Sum of Mulliken atomic charges =   0.00000
 Mulliken charges with hydrogens summed into heavy atoms:
              1
     1  C   -0.070777
     2  C    0.191125
     3  C   -0.022670
     4  C    0.322176
     5  C   -0.043258
     6  C   -0.001393
     7  C    0.213682
     8  C    0.399365
     9  C   -0.086179
    10  C    0.419206
    11  C    0.418129
    12  O   -0.464382
    13  C    0.011704
    14  C    0.031249
    15  C    0.004098
    16  O   -0.503263
    17  C   -0.021546
    18  C    0.312648
    19  O   -0.528613
    20  C    0.000626
    21  O   -0.249208
    22  C    0.014386
    23  C    0.241649
    24  O   -0.584774
    25  C    0.178386
    26  C   -0.030609
    27  C   -0.099959
    28  C    0.009707
    29  C    0.009344
    32  C   -0.048174
    62  C   -0.022674
 Sum of Mulliken charges with hydrogens summed into heavy atoms =   0.00000
 Electronic spatial extent (au):  <R**2>=          11195.6146
 Charge=              0.0000 electrons
 Dipole moment (field-independent basis, Debye):
    X=             -4.6599    Y=              2.0274    Z=             -0.9472  Tot=              5.1694
 Quadrupole moment (field-independent basis, Debye-Ang):
   XX=           -185.6382   YY=           -178.3582   ZZ=           -182.7239
   XY=             -0.1217   XZ=             -4.6972   YZ=              1.2532
 Traceless Quadrupole moment (field-independent basis, Debye-Ang):
   XX=             -3.3981   YY=              3.8819   ZZ=             -0.4838
   XY=             -0.1217   XZ=             -4.6972   YZ=              1.2532
 Octapole moment (field-independent basis, Debye-Ang**2):
  XXX=            -36.5083  YYY=             51.4949  ZZZ=              9.0391  XYY=             -6.6294
  XXY=            -22.5075  XXZ=            -38.2384  XZZ=            -22.0159  YZZ=             -0.4847
  YYZ=            -16.8112  XYZ=             -2.1178
 Hexadecapole moment (field-independent basis, Debye-Ang**3):
 XXXX=          -7484.6557 YYYY=          -4006.3693 ZZZZ=          -3423.7562 XXXY=            -35.8604
 XXXZ=              8.4018 YYYX=             16.0711 YYYZ=             -1.5281 ZZZX=             50.3432
 ZZZY=             -9.1177 XXYY=          -1898.6122 XXZZ=          -1807.6867 YYZZ=          -1222.4171
 XXYZ=             -3.4917 YYXZ=            -13.4598 ZZXY=             24.4969
 N-N= 3.533398953976D+03 E-N=-1.029325615015D+04  KE= 1.374777707997D+03
 Calling FoFJK, ICntrl=      2127 FMM=T ISym2X=0 I1Cent= 0 IOpClX= 0 NMat=1 NMatS=1 NMatT=0.
 ***** Axes restored to original set *****
 -------------------------------------------------------------------
 Center     Atomic                   Forces (Hartrees/Bohr)
 Number     Number              X              Y              Z
 -------------------------------------------------------------------
      1        6           0.009640650   -0.000494702    0.000403945
      2        6          -0.012382840   -0.005073817    0.001916224
      3        6          -0.000977457   -0.007957224   -0.000403800
      4        6           0.003079537   -0.004683909    0.010905482
      5        6          -0.010793057   -0.002334103    0.000964735
      6        6          -0.004597099   -0.010904748   -0.000898347
      7        6           0.010407814    0.021147931    0.009204199
      8        6           0.015085370   -0.014425976   -0.016863338
      9        6          -0.000924836    0.003206964    0.009673361
     10        6          -0.006828971    0.001944226   -0.021376317
     11        6           0.000669683   -0.018300034   -0.014047231
     12        8          -0.009581578    0.017870134    0.004972169
     13        6          -0.002822673   -0.003621060   -0.006734588
     14        6           0.003838668    0.004298359   -0.001703616
     15        6          -0.007187112   -0.008029196    0.000522768
     16        8           0.007026132   -0.003878817    0.010746220
     17        6           0.007743645   -0.011234363   -0.005909007
     18        6           0.032132999    0.008364315    0.000073121
     19        8          -0.029337189    0.002036330    0.026864956
     20        6           0.011150698   -0.004800119    0.000054356
     21        8          -0.005476263    0.006971048   -0.002409603
     22        6          -0.007189385    0.013765316    0.001412975
     23        6          -0.005084913    0.007991891    0.000604094
     24        8           0.001815028   -0.006065150   -0.009574880
     25        6          -0.003043800    0.014832370    0.001188328
     26        6           0.001290847    0.001705858    0.000257104
     27        6           0.001048030   -0.010002340   -0.001412922
     28        6          -0.002920617    0.007900537   -0.004743699
     29        6          -0.003631487   -0.006680183   -0.009041531
     30        1          -0.001775626    0.001161060   -0.001601603
     31        1          -0.003395165    0.005978040   -0.000108404
     32        6          -0.001168308    0.000819238   -0.001178858
     33        1           0.001459453   -0.000892782   -0.000093086
     34        1          -0.000586317    0.005667789    0.001768598
     35        1           0.000429825    0.007320481   -0.001455402
     36        1           0.001686531   -0.001098238    0.001106326
     37        1          -0.002439140   -0.002760199    0.001640598
     38        1          -0.002885597   -0.002289489    0.000543651
     39        1           0.000019521    0.001171226   -0.000196843
     40        1          -0.000669761    0.001481451    0.000249656
     41        1           0.001917786    0.001174135    0.000046683
     42        1          -0.001213137   -0.001916720   -0.001383912
     43        1           0.000108347    0.002886842   -0.000449722
     44        1          -0.001918595   -0.003683289   -0.002529760
     45        1           0.001404163   -0.002977569   -0.001289017
     46        1           0.001865276    0.000399770    0.003512997
     47        1          -0.001872656   -0.001206964    0.003039343
     48        1           0.002580210   -0.002641355    0.001698702
     49        1           0.001001558   -0.003320099    0.002308012
     50        1          -0.001360727   -0.000161769   -0.001650516
     51        1          -0.000214590   -0.000426893   -0.001389804
     52        1          -0.000034919   -0.000614760    0.001041745
     53        1          -0.001288188   -0.002795437    0.005447846
     54        1           0.002079243   -0.003862322    0.000428120
     55        1           0.000602950   -0.000866264    0.000158714
     56        1          -0.000732189    0.001349967    0.000731420
     57        1           0.000426317    0.002788690    0.001505625
     58        1          -0.000370056    0.000218709    0.003563148
     59        1          -0.001138756    0.001753460   -0.000614457
     60        1           0.004205352   -0.001629621    0.000350976
     61        1           0.004105929   -0.001153436    0.000172557
     62        6           0.003773966    0.002472301   -0.002767271
     63        1           0.001661028    0.000609133    0.001865575
     64        1           0.000256744    0.001673279    0.000909813
     65        1           0.001329702    0.001822097   -0.000026606
 -------------------------------------------------------------------
 Cartesian Forces:  Max     0.032132999 RMS     0.006704813

 GradGradGradGradGradGradGradGradGradGradGradGradGradGradGradGradGradGrad
 Berny optimization.
 Internal  Forces:  Max     0.021723098 RMS     0.003454882
 Search for a local minimum.
 Step number   1 out of a maximum of  390
 All quantities printed in internal units (Hartrees-Bohrs-Radians)
 Mixed Optimization -- RFO/linear search
 Second derivative matrix not updated -- first step.
 ITU=  0
     Eigenvalues ---    0.00276   0.00285   0.00335   0.00380   0.00425
     Eigenvalues ---    0.00426   0.00468   0.00543   0.00610   0.00611
     Eigenvalues ---    0.00633   0.00661   0.00686   0.00687   0.00732
     Eigenvalues ---    0.00960   0.01081   0.01245   0.01245   0.01404
     Eigenvalues ---    0.01455   0.01604   0.01706   0.01796   0.01920
     Eigenvalues ---    0.02507   0.02827   0.02827   0.03031   0.03116
     Eigenvalues ---    0.03522   0.03597   0.03745   0.04032   0.04112
     Eigenvalues ---    0.04195   0.04319   0.04404   0.04585   0.04645
     Eigenvalues ---    0.04733   0.04840   0.04925   0.05094   0.05247
     Eigenvalues ---    0.05306   0.05382   0.05420   0.05492   0.05493
     Eigenvalues ---    0.05502   0.05522   0.05528   0.05550   0.05594
     Eigenvalues ---    0.05625   0.05704   0.05929   0.06273   0.06636
     Eigenvalues ---    0.06694   0.06862   0.07089   0.07111   0.07165
     Eigenvalues ---    0.07248   0.07248   0.07366   0.07649   0.08382
     Eigenvalues ---    0.08386   0.08819   0.09012   0.09172   0.09797
     Eigenvalues ---    0.10094   0.10642   0.10888   0.11635   0.12233
     Eigenvalues ---    0.13175   0.14698   0.15185   0.15969   0.16000
     Eigenvalues ---    0.16000   0.16000   0.16000   0.16000   0.16000
     Eigenvalues ---    0.16000   0.16000   0.16000   0.16000   0.16000
     Eigenvalues ---    0.16000   0.16000   0.16000   0.16000   0.16000
     Eigenvalues ---    0.16000   0.16000   0.16000   0.16000   0.16000
     Eigenvalues ---    0.16316   0.16442   0.17261   0.17651   0.18335
     Eigenvalues ---    0.19710   0.21559   0.21926   0.22719   0.23564
     Eigenvalues ---    0.24518   0.24927   0.24987   0.24993   0.24999
     Eigenvalues ---    0.25000   0.25000   0.25000   0.25917   0.27247
     Eigenvalues ---    0.27416   0.27703   0.27787   0.28112   0.28263
     Eigenvalues ---    0.28663   0.28782   0.28843   0.29190   0.29497
     Eigenvalues ---    0.29816   0.30126   0.30399   0.30536   0.31169
     Eigenvalues ---    0.31558   0.31759   0.31789   0.33114   0.33661
     Eigenvalues ---    0.33967   0.33993   0.33999   0.34005   0.34020
     Eigenvalues ---    0.34034   0.34045   0.34054   0.34067   0.34075
     Eigenvalues ---    0.34108   0.34134   0.34144   0.34145   0.34150
     Eigenvalues ---    0.34202   0.34203   0.34236   0.34241   0.34253
     Eigenvalues ---    0.34263   0.34264   0.34266   0.34274   0.34276
     Eigenvalues ---    0.34300   0.34311   0.34337   0.34445   0.34495
     Eigenvalues ---    0.34961   0.35207   0.35318   0.35456   0.36480
     Eigenvalues ---    0.37332   0.42778   0.43655   0.51639   0.53260
     Eigenvalues ---    0.54268   0.56277   0.89803   0.90242
 RFO step:  Lambda=-2.17381556D-02 EMin= 2.75847364D-03
 Linear search not attempted -- first point.
 Iteration  1 RMS(Cart)=  0.04310975 RMS(Int)=  0.00069289
 Iteration  2 RMS(Cart)=  0.00104474 RMS(Int)=  0.00026389
 Iteration  3 RMS(Cart)=  0.00000066 RMS(Int)=  0.00026389
 Variable       Old X    -DE/DX   Delta X   Delta X   Delta X     New X
                                 (Linear)    (Quad)   (Total)
    R1        2.53526  -0.00269   0.00000  -0.00567  -0.00570   2.52956
    R2        2.82390   0.00857   0.00000   0.02512   0.02505   2.84895
    R3        2.05738   0.00004   0.00000   0.00010   0.00010   2.05748
    R4        2.85528   0.00362   0.00000   0.00790   0.00794   2.86322
    R5        2.84588   0.00317   0.00000   0.00936   0.00936   2.85523
    R6        2.94007   0.00503   0.00000   0.01240   0.01230   2.95237
    R7        2.91010   0.01113   0.00000   0.03791   0.03785   2.94796
    R8        2.07905  -0.00086   0.00000  -0.00240  -0.00240   2.07665
    R9        2.90348   0.00887   0.00000   0.02850   0.02832   2.93180
   R10        2.90966   0.00733   0.00000   0.02470   0.02487   2.93453
   R11        2.76219  -0.00441   0.00000  -0.01032  -0.01034   2.75185
   R12        2.91438   0.00008   0.00000   0.00313   0.00306   2.91744
   R13        2.90582   0.00594   0.00000   0.01289   0.01284   2.91865
   R14        2.89355   0.01256   0.00000   0.04060   0.04061   2.93416
   R15        2.07239   0.00291   0.00000   0.00803   0.00803   2.08042
   R16        2.07341  -0.00126   0.00000  -0.00348  -0.00348   2.06993
   R17        2.81525   0.00936   0.00000   0.02071   0.02035   2.83561
   R18        2.85916   0.01508   0.00000   0.05447   0.05400   2.91317
   R19        2.67945   0.00326   0.00000   0.00726   0.00726   2.68671
   R20        2.52849   0.01350   0.00000   0.02367   0.02368   2.55217
   R21        2.62966  -0.02172   0.00000  -0.05093  -0.05071   2.57895
   R22        2.79877  -0.00192   0.00000  -0.00913  -0.00896   2.78981
   R23        2.80686   0.01553   0.00000   0.04297   0.04297   2.84983
   R24        2.33024  -0.00980   0.00000  -0.01065  -0.01065   2.31958
   R25        2.32822  -0.02069   0.00000  -0.02239  -0.02239   2.30583
   R26        2.88332   0.00198   0.00000   0.00618   0.00618   2.88949
   R27        2.90332   0.00426   0.00000   0.01373   0.01373   2.91705
   R28        2.88977   0.00682   0.00000   0.02153   0.02153   2.91131
   R29        2.07149  -0.00088   0.00000  -0.00242  -0.00242   2.06907
   R30        2.07272  -0.00009   0.00000  -0.00025  -0.00025   2.07247
   R31        2.07296   0.00090   0.00000   0.00249   0.00249   2.07546
   R32        2.87714   0.00933   0.00000   0.02889   0.02889   2.90603
   R33        2.06934   0.00065   0.00000   0.00180   0.00180   2.07114
   R34        2.06887  -0.00016   0.00000  -0.00043  -0.00043   2.06844
   R35        2.07087  -0.00024   0.00000  -0.00066  -0.00066   2.07020
   R36        2.91656  -0.00099   0.00000   0.00914   0.00936   2.92593
   R37        2.90621   0.00408   0.00000   0.01388   0.01393   2.92014
   R38        2.07105  -0.00155   0.00000  -0.00428  -0.00428   2.06677
[...]
     54          1           0        1.652259    2.873670   -3.320394
     55          1           0        0.011204    3.547601   -3.323782
     56          1           0        0.543991    4.891293   -1.158507
     57          1           0        2.189891    4.251945   -1.333966
     58          1           0        1.329311    4.052071    0.198137
     59          1           0       -1.564086    2.104158    4.693105
     60          1           0       -0.813238    3.091284    3.429600
     61          1           0       -2.567710    2.953026    3.501982
     62          6           0        4.113317   -1.208249   -2.228201
     63          1           0        3.608787   -0.235666   -2.192328
     64          1           0        3.380121   -1.953908   -2.560372
     65          1           0        4.893882   -1.145417   -2.995204
 ---------------------------------------------------------------------
 Rotational constants (GHZ):      0.1883217      0.1299299      0.1221305

 **********************************************************************

            Population analysis using the SCF density.

 **********************************************************************

 Orbital symmetries:
       Occupied  (A) (A) (A) (A) (A) (A) (A) (A) (A) (A) (A) (A)
                 (A) (A) (A) (A) (A) (A) (A) (A) (A) (A) (A) (A)
                 (A) (A) (A) (A) (A) (A) (A) (A) (A) (A) (A) (A)
                 (A) (A) (A) (A) (A) (A) (A) (A) (A) (A) (A) (A)
                 (A) (A) (A) (A) (A) (A) (A) (A) (A) (A) (A) (A)
                 (A) (A) (A) (A) (A) (A) (A) (A) (A) (A) (A) (A)
                 (A) (A) (A) (A) (A) (A) (A) (A) (A) (A) (A) (A)
                 (A) (A) (A) (A) (A) (A) (A) (A) (A) (A) (A) (A)
                 (A) (A) (A) (A) (A) (A) (A) (A) (A) (A) (A) (A)
                 (A) (A) (A) (A) (A) (A) (A)
       Virtual   (A) (A) (A) (A) (A) (A) (A) (A) (A) (A) (A) (A)
                 (A) (A) (A) (A) (A) (A) (A) (A) (A) (A) (A) (A)
                 (A) (A) (A) (A) (A) (A) (A) (A) (A) (A) (A) (A)
                 (A) (A) (A) (A) (A) (A) (A) (A) (A) (A) (A) (A)
                 (A) (A) (A) (A) (A) (A) (A) (A) (A) (A) (A) (A)
                 (A) (A) (A) (A) (A) (A) (A) (A) (A) (A) (A) (A)
                 (A) (A) (A) (A) (A) (A) (A) (A) (A) (A) (A) (A)
                 (A) (A) (A) (A) (A) (A) (A) (A) (A) (A) (A) (A)
                 (A) (A) (A) (A) (A) (A) (A) (A) (A) (A) (A) (A)
                 (A) (A) (A) (A) (A) (A) (A) (A) (A) (A) (A) (A)
                 (A) (A) (A) (A) (A) (A) (A) (A) (A) (A) (A) (A)
                 (A) (A) (A) (A) (A) (A) (A) (A) (A) (A) (A) (A)
                 (A) (A) (A) (A) (A) (A) (A) (A) (A) (A) (A) (A)
                 (A) (A) (A) (A) (A) (A) (A) (A) (A) (A) (A) (A)
                 (A) (A) (A) (A) (A) (A) (A) (A) (A) (A) (A) (A)
                 (A) (A) (A) (A) (A) (A) (A) (A) (A) (A) (A) (A)
                 (A) (A) (A) (A) (A) (A) (A) (A) (A) (A) (A) (A)
                 (A) (A) (A) (A) (A) (A) (A) (A) (A) (A) (A) (A)
                 (A) (A) (A) (A) (A) (A) (A) (A) (A) (A) (A) (A)
                 (A) (A) (A) (A) (A) (A) (A) (A) (A) (A) (A) (A)
                 (A) (A) (A) (A) (A) (A) (A) (A) (A) (A) (A) (A)
                 (A) (A) (A) (A) (A) (A) (A) (A) (A) (A) (A) (A)
                 (A) (A) (A) (A) (A) (A) (A) (A) (A) (A) (A) (A)
                 (A) (A) (A) (A) (A) (A) (A) (A) (A) (A) (A) (A)
                 (A) (A) (A) (A) (A) (A) (A) (A) (A) (A) (A) (A)
                 (A) (A) (A) (A) (A) (A) (A) (A) (A) (A) (A) (A)
                 (A) (A) (A) (A) (A) (A) (A) (A) (A) (A) (A) (A)
                 (A) (A) (A) (A) (A) (A) (A) (A) (A) (A) (A) (A)
                 (A) (A) (A) (A) (A) (A) (A) (A) (A) (A) (A) (A)
                 (A) (A) (A) (A) (A) (A) (A) (A) (A) (A) (A) (A)
                 (A) (A) (A) (A) (A) (A) (A) (A) (A) (A) (A) (A)
                 (A) (A) (A) (A) (A) (A) (A) (A) (A) (A) (A) (A)
                 (A) (A) (A) (A) (A) (A) (A) (A) (A) (A) (A) (A)
                 (A) (A) (A) (A) (A) (A) (A) (A) (A) (A) (A) (A)
                 (A) (A) (A) (A) (A) (A) (A) (A) (A) (A)
 The electronic state is 1-A.
 Alpha  occ. eigenvalues --  -19.19647 -19.16707 -19.15854 -19.12677 -19.12245
 Alpha  occ. eigenvalues --  -10.27395 -10.27168 -10.26649 -10.26101 -10.25785
 Alpha  occ. eigenvalues --  -10.25766 -10.25243 -10.21352 -10.20879 -10.20604
 Alpha  occ. eigenvalues --  -10.20380 -10.19873 -10.19639 -10.19390 -10.19143
 Alpha  occ. eigenvalues --  -10.18979 -10.18963 -10.18812 -10.18748 -10.18500
 Alpha  occ. eigenvalues --  -10.18147 -10.18134 -10.17462 -10.16876 -10.16160
 Alpha  occ. eigenvalues --  -10.15668  -1.09299  -1.05917  -1.02925  -1.02477
 Alpha  occ. eigenvalues --   -1.02071  -0.86707  -0.83594  -0.82412  -0.81367
 Alpha  occ. eigenvalues --   -0.80252  -0.78900  -0.76652  -0.74313  -0.73145
 Alpha  occ. eigenvalues --   -0.71696  -0.71205  -0.69913  -0.69556  -0.67851
 Alpha  occ. eigenvalues --   -0.65156  -0.63635  -0.63224  -0.61473  -0.60595
 Alpha  occ. eigenvalues --   -0.59455  -0.58744  -0.56950  -0.54606  -0.53500
 Alpha  occ. eigenvalues --   -0.52626  -0.52055  -0.50663  -0.50316  -0.49252
 Alpha  occ. eigenvalues --   -0.48273  -0.47791  -0.46667  -0.46084  -0.45784
 Alpha  occ. eigenvalues --   -0.45231  -0.44470  -0.43644  -0.43304  -0.43268
 Alpha  occ. eigenvalues --   -0.42253  -0.42049  -0.41773  -0.41406  -0.41321
 Alpha  occ. eigenvalues --   -0.40904  -0.40508  -0.40238  -0.40091  -0.39651
 Alpha  occ. eigenvalues --   -0.39126  -0.39022  -0.38391  -0.38078  -0.37832
 Alpha  occ. eigenvalues --   -0.37539  -0.37504  -0.37323  -0.36878  -0.36476
 Alpha  occ. eigenvalues --   -0.36381  -0.35062  -0.34861  -0.34509  -0.34141
 Alpha  occ. eigenvalues --   -0.33618  -0.33487  -0.32884  -0.32604  -0.31986
 Alpha  occ. eigenvalues --   -0.31380  -0.31124  -0.30394  -0.28144  -0.26731
 Alpha  occ. eigenvalues --   -0.26336  -0.24657  -0.24042  -0.23423  -0.22516
 Alpha virt. eigenvalues --   -0.04817  -0.01082   0.00245   0.02189   0.05910
 Alpha virt. eigenvalues --    0.07118   0.08784   0.08856   0.09436   0.10560
 Alpha virt. eigenvalues --    0.10789   0.11172   0.11278   0.12050   0.12529
 Alpha virt. eigenvalues --    0.12969   0.13203   0.13432   0.14039   0.14230
 Alpha virt. eigenvalues --    0.14382   0.14756   0.15047   0.15177   0.16043
 Alpha virt. eigenvalues --    0.16309   0.16799   0.16946   0.17192   0.17300
 Alpha virt. eigenvalues --    0.17831   0.18131   0.18471   0.18513   0.19001
 Alpha virt. eigenvalues --    0.19327   0.19764   0.19839   0.20106   0.20354
 Alpha virt. eigenvalues --    0.20770   0.21174   0.21356   0.21893   0.22030
 Alpha virt. eigenvalues --    0.22744   0.23153   0.23688   0.23753   0.24808
 Alpha virt. eigenvalues --    0.25102   0.25533   0.26165   0.26736   0.26969
 Alpha virt. eigenvalues --    0.27430   0.27652   0.28316   0.28616   0.29234
 Alpha virt. eigenvalues --    0.30149   0.31721   0.32392   0.32972   0.33798
 Alpha virt. eigenvalues --    0.34278   0.36237   0.37546   0.38276   0.39676
 Alpha virt. eigenvalues --    0.41675   0.45506   0.46360   0.48346   0.48873
 Alpha virt. eigenvalues --    0.49302   0.50247   0.50533   0.51038   0.51483
 Alpha virt. eigenvalues --    0.51852   0.52069   0.52850   0.53445   0.53717
 Alpha virt. eigenvalues --    0.53891   0.54525   0.55028   0.55704   0.56600
 Alpha virt. eigenvalues --    0.57133   0.57567   0.57858   0.58581   0.58736
 Alpha virt. eigenvalues --    0.59343   0.59810   0.60699   0.61240   0.62037
 Alpha virt. eigenvalues --    0.62565   0.62992   0.63595   0.64008   0.65004
 Alpha virt. eigenvalues --    0.65501   0.65888   0.66406   0.66817   0.67098
 Alpha virt. eigenvalues --    0.67638   0.68155   0.68931   0.69283   0.69452
 Alpha virt. eigenvalues --    0.69837   0.70524   0.71544   0.72294   0.73367
 Alpha virt. eigenvalues --    0.74013   0.75037   0.75349   0.75866   0.76525
 Alpha virt. eigenvalues --    0.77393   0.77757   0.78311   0.79454   0.79635
 Alpha virt. eigenvalues --    0.80193   0.81042   0.81263   0.82103   0.82639
 Alpha virt. eigenvalues --    0.82826   0.83842   0.83885   0.84691   0.84976
 Alpha virt. eigenvalues --    0.85862   0.86366   0.86521   0.86760   0.87223
 Alpha virt. eigenvalues --    0.87678   0.88224   0.88404   0.88997   0.89030
 Alpha virt. eigenvalues --    0.89298   0.90252   0.90499   0.90711   0.90977
 Alpha virt. eigenvalues --    0.91205   0.91525   0.91970   0.92092   0.92639
 Alpha virt. eigenvalues --    0.93155   0.93295   0.94101   0.94301   0.94791
 Alpha virt. eigenvalues --    0.95558   0.95660   0.95980   0.96335   0.97077
 Alpha virt. eigenvalues --    0.97526   0.98199   0.98710   0.99112   0.99361
 Alpha virt. eigenvalues --    0.99857   1.01259   1.01729   1.02071   1.03360
 Alpha virt. eigenvalues --    1.04374   1.05741   1.05957   1.07474   1.08094
 Alpha virt. eigenvalues --    1.08248   1.10383   1.11603   1.11978   1.12527
 Alpha virt. eigenvalues --    1.12961   1.14383   1.14924   1.15802   1.16328
 Alpha virt. eigenvalues --    1.17745   1.18615   1.18868   1.20023   1.20291
 Alpha virt. eigenvalues --    1.22477   1.23996   1.24767   1.25205   1.27142
 Alpha virt. eigenvalues --    1.27571   1.28441   1.29936   1.31785   1.32491
 Alpha virt. eigenvalues --    1.34841   1.36401   1.37675   1.38009   1.40409
 Alpha virt. eigenvalues --    1.41265   1.41845   1.43624   1.45368   1.46259
 Alpha virt. eigenvalues --    1.48128   1.48483   1.49937   1.52311   1.52462
 Alpha virt. eigenvalues --    1.53277   1.54612   1.55793   1.56741   1.58604
 Alpha virt. eigenvalues --    1.59561   1.60530   1.61300   1.62491   1.63288
 Alpha virt. eigenvalues --    1.64272   1.65052   1.66145   1.67784   1.68369
 Alpha virt. eigenvalues --    1.68771   1.71375   1.72409   1.72887   1.74237
 Alpha virt. eigenvalues --    1.74940   1.75704   1.76603   1.77477   1.78664
 Alpha virt. eigenvalues --    1.78815   1.79518   1.79891   1.80896   1.81151
 Alpha virt. eigenvalues --    1.82091   1.82761   1.83868   1.85081   1.85937
 Alpha virt. eigenvalues --    1.86065   1.86595   1.86712   1.87507   1.88077
 Alpha virt. eigenvalues --    1.89139   1.89572   1.89888   1.90562   1.91412
 Alpha virt. eigenvalues --    1.91867   1.92068   1.92885   1.94072   1.94861
 Alpha virt. eigenvalues --    1.95291   1.96608   1.96836   1.97385   1.98288
 Alpha virt. eigenvalues --    1.99147   1.99350   1.99601   2.00351   2.00729
 Alpha virt. eigenvalues --    2.02146   2.03702   2.04568   2.04948   2.04990
 Alpha virt. eigenvalues --    2.05996   2.06981   2.08591   2.09012   2.09606
 Alpha virt. eigenvalues --    2.09856   2.11065   2.11544   2.13008   2.13924
 Alpha virt. eigenvalues --    2.14811   2.15604   2.16568   2.16915   2.17718
 Alpha virt. eigenvalues --    2.18365   2.19563   2.19877   2.21470   2.22442
 Alpha virt. eigenvalues --    2.23776   2.24303   2.25560   2.26230   2.26424
 Alpha virt. eigenvalues --    2.28245   2.28698   2.29725   2.29935   2.30883
 Alpha virt. eigenvalues --    2.32810   2.33586   2.33894   2.34123   2.34752
 Alpha virt. eigenvalues --    2.35342   2.37082   2.38211   2.38799   2.39767
 Alpha virt. eigenvalues --    2.40411   2.40597   2.40734   2.41928   2.42972
 Alpha virt. eigenvalues --    2.43405   2.45545   2.46423   2.47138   2.48672
 Alpha virt. eigenvalues --    2.49096   2.49644   2.51066   2.52076   2.53581
 Alpha virt. eigenvalues --    2.55587   2.56767   2.56861   2.58969   2.59962
 Alpha virt. eigenvalues --    2.60814   2.62740   2.63128   2.64544   2.66117
 Alpha virt. eigenvalues --    2.66518   2.67686   2.69178   2.70572   2.71406
 Alpha virt. eigenvalues --    2.71774   2.72621   2.74073   2.76203   2.77439
 Alpha virt. eigenvalues --    2.79046   2.79763   2.80723   2.82509   2.84197
 Alpha virt. eigenvalues --    2.86701   2.88903   2.90537   2.93996   2.96102
 Alpha virt. eigenvalues --    2.98071   3.00709   3.00923   3.01544   3.02391
 Alpha virt. eigenvalues --    3.05394   3.07350   3.11956   3.18115   3.21521
 Alpha virt. eigenvalues --    3.25959   3.29000   4.03569   4.06733   4.08143
 Alpha virt. eigenvalues --    4.12661   4.13884   4.15908   4.16597   4.19395
 Alpha virt. eigenvalues --    4.21735   4.24432   4.27178   4.28800   4.30337
 Alpha virt. eigenvalues --    4.32357   4.34687   4.37235   4.39098   4.43098
 Alpha virt. eigenvalues --    4.45714   4.48754   4.53474   4.56190   4.60634
 Alpha virt. eigenvalues --    4.65329   4.67081   4.69680   4.74224   4.81996
 Alpha virt. eigenvalues --    4.90012   5.01827   5.17181
          Condensed to atoms (all electrons):
 Mulliken atomic charges:
              1
     1  C   -0.187943
     2  C    0.193128
     3  C   -0.188181
     4  C    0.325563
     5  C   -0.054050
     6  C   -0.333691
     7  C    0.199277
     8  C    0.407561
     9  C   -0.093829
    10  C    0.422138
    11  C    0.420470
    12  O   -0.464228
    13  C   -0.128250
    14  C   -0.250367
    15  C   -0.459132
    16  O   -0.513485
    17  C   -0.164539
    18  C    0.301329
    19  O   -0.513945
    20  C   -0.324781
    21  O   -0.656649
    22  C   -0.325548
    23  C    0.096463
    24  O   -0.591815
    25  C    0.181193
    26  C   -0.507956
    27  C   -0.392817
    28  C   -0.469297
    29  C   -0.456838
    30  H    0.143405
    31  H    0.164093
    32  C   -0.519823
    33  H    0.122745
    34  H    0.145579
    35  H    0.184844
    36  H    0.134850
    37  H    0.151946
    38  H    0.127558
    39  H    0.135563
    40  H    0.169455
    41  H    0.155535
    42  H    0.151395
    43  H    0.172005
    44  H    0.414036
    45  H    0.167726
    46  H    0.169767
    47  H    0.138870
    48  H    0.156739
    49  H    0.171015
    50  H    0.154624
    51  H    0.152811
    52  H    0.142691
    53  H    0.192194
    54  H    0.159368
    55  H    0.143201
    56  H    0.148150
    57  H    0.167434
    58  H    0.167224
    59  H    0.158205
    60  H    0.159234
    61  H    0.150031
    62  C   -0.460181
    63  H    0.158845
    64  H    0.139082
    65  H    0.140006
 Sum of Mulliken atomic charges =   0.00000
 Mulliken charges with hydrogens summed into heavy atoms:
              1
     1  C   -0.065198
     2  C    0.193128
     3  C   -0.024089
     4  C    0.325563
     5  C   -0.054050
     6  C   -0.003268
     7  C    0.199277
     8  C    0.407561
     9  C   -0.093829
    10  C    0.422138
    11  C    0.420470
    12  O   -0.464228
    13  C    0.006600
    14  C    0.029137
    15  C    0.001420
    16  O   -0.513485
    17  C   -0.021134
    18  C    0.301329
    19  O   -0.513945
    20  C   -0.001382
    21  O   -0.242613
    22  C    0.011946
    23  C    0.235332
    24  O   -0.591815
    25  C    0.181193
    26  C   -0.025578
    27  C   -0.097315
    28  C    0.025466
    29  C    0.025970
    32  C   -0.052353
    62  C   -0.022248
 Sum of Mulliken charges with hydrogens summed into heavy atoms =   0.00000
 Electronic spatial extent (au):  <R**2>=          11298.1897
 Charge=              0.0000 electrons
 Dipole moment (field-independent basis, Debye):
    X=             -5.2229    Y=              1.9468    Z=             -1.6150  Tot=              5.8031
 Quadrupole moment (field-independent basis, Debye-Ang):
   XX=           -188.5442   YY=           -174.5355   ZZ=           -182.8845
   XY=             -0.4106   XZ=             -3.8167   YZ=              1.5358
 Traceless Quadrupole moment (field-independent basis, Debye-Ang):
   XX=             -6.5562   YY=              7.4526   ZZ=             -0.8964
   XY=             -0.4106   XZ=             -3.8167   YZ=              1.5358
 Octapole moment (field-independent basis, Debye-Ang**2):
  XXX=            -47.8835  YYY=             48.3992  ZZZ=              1.2911  XYY=            -11.5945
  XXY=            -28.3245  XXZ=            -31.7888  XZZ=            -17.2510  YZZ=             10.8152
  YYZ=            -26.3691  XYZ=             -5.2921
 Hexadecapole moment (field-independent basis, Debye-Ang**3):
 XXXX=          -7423.6003 YYYY=          -4153.0164 ZZZZ=          -3482.9778 XXXY=            -27.0791
 XXXZ=             23.6687 YYYX=             21.0822 YYYZ=            -16.6639 ZZZX=             36.8363
 ZZZY=             -0.4201 XXYY=          -1916.7620 XXZZ=          -1791.2506 YYZZ=          -1262.7036
 XXYZ=              0.5210 YYXZ=            -15.1572 ZZXY=             46.0145
 N-N= 3.517837067120D+03 E-N=-1.026207050211D+04  KE= 1.374459315361D+03
 1\1\GINC-B0603\FOpt\RB3LYP\6-31G(d)\C26H34O5\CAOFEI\24-Mar-2021\0\\# o
 pt rb3lyp/6-31g(d) geom=connectivity\\Title Card Required\\0,1\C,0.015
 2143179,-0.0060330016,0.064935316\C,1.3527710764,-0.0287538754,0.09096
 64258\C,2.1627609674,1.2502628804,0.0503975857\C,1.3745545916,2.545072
 0085,-0.3232105481\C,-0.1186496037,2.4208452563,-0.7273752891\C,-0.812
 0515641,1.2480913511,0.006539153\C,2.2418405751,3.2223724173,-1.416225
 7239\C,1.8991250024,2.7653105461,-2.8192466426\C,0.6503792623,2.434609
 2142,-3.2413269496\C,-0.4170011566,2.2904796279,-2.2474830063\C,0.3844
 908403,2.0934662825,-4.6872815665\O,1.140641991,1.3521200622,-5.292538
 3065\C,-0.8071059912,2.7431321386,-5.4002575941\C,-0.2864013563,3.5706
 302299,-6.5968844233\C,-1.7889679252,1.6518753387,-5.8615119582\O,-1.5
 708190456,2.0290196584,-2.5810793943\C,3.6719884126,2.6513932969,-1.31
 92838348\C,4.2232923315,2.8684792724,-2.7497789042\O,2.9932572804,2.74
 72935988,-3.5826394531\C,3.3910620273,1.192457779,-0.9056360574\O,2.13
 67803749,4.6337308607,-1.3850776179\C,-0.692194273,3.7770787673,-0.235
 6567059\C,0.0774658067,4.0195571806,1.0596686944\O,1.3919033855,3.4368
 546417,0.8210261438\C,0.2663909179,5.4409410098,1.5495451941\C,1.11005
 04229,5.5727980344,2.7949168219\C,-0.2996945679,6.4957008671,0.9548842
 822\C,4.7965549646,4.2708563879,-2.9629434949\C,5.1847890275,1.8024564
 386,-3.26760133\H,4.270495436,3.1787520808,-0.5700120089\H,2.543765212
 3,1.4423073492,1.0638070492\C,2.1243966624,-1.3176015946,0.2334864443\
 H,-0.5296157036,-0.9468772117,0.1316416546\H,-1.0696870685,1.554081028
 4,1.0316852414\H,-1.7626836745,1.0635428824,-0.5020232968\H,-1.3226182
 649,3.4075071263,-4.6992233553\H,0.2462444565,2.8940629886,-7.27603431
 48\H,-1.1568805539,3.9536610724,-7.1461756218\H,-2.6175731903,2.098850
 3246,-6.4230495093\H,-2.204227123,1.1196377467,-5.0013056957\H,-1.2788
 442129,0.9317050092,-6.5100890558\H,4.2551950314,0.7131819418,-0.43697
 42775\H,3.1326305904,0.5973698283,-1.788312661\H,2.0608468698,4.847990
 5842,-0.4340119469\H,-1.7745936689,3.7291511752,-0.0899519985\H,-0.470
 9061806,4.5609585382,-0.9652693125\H,-0.3811175887,3.4442809793,1.8793
 058242\H,0.6597093289,5.0212268512,3.6317003096\H,2.1073250101,5.14539
 15139,2.6404833453\H,1.2194482867,6.6188239389,3.0957951001\H,-0.92164
 94766,6.4090447433,0.069787024\H,-0.1656564277,7.499607311,1.349870351
 9\H,4.103103402,5.0347255181,-2.6069379076\H,4.9944339717,4.4328592949
 ,-4.027485981\H,5.7436076813,4.3729227639,-2.4205005499\H,6.1023596321
 ,1.8063053371,-2.6686135614\H,5.4535635649,2.0150696142,-4.3069124573\
 H,4.7463125119,0.8029220362,-3.2306303571\H,1.4484479661,-2.1733670036
 ,0.3241739975\H,2.7844672597,-1.5017065446,-0.6237497615\H,2.766604603
 7,-1.2978068617,1.1257164627\C,0.6281843432,4.7380584822,-6.2079614082
 \H,1.5479379825,4.3854065768,-5.7268726091\H,0.1280633149,5.4237243944
 ,-5.5125026367\H,0.9206819229,5.3165319141,-7.0918933364\\Version=EM64
 L-G09RevB.01\State=1-A\HF=-1387.3213766\RMSD=3.800e-09\RMSF=4.309e-06\
 Dipole=1.1097896,0.530784,1.9233643\Quadrupole=3.6174703,0.3797252,-3.
 9971955,-3.3768658,-1.0739246,-3.1209696\PG=C01 [X(C26H34O5)]\\@


 SCIENCE AND PEACE WILL TRIUMPH OVER IGNORANCE AND WAR

                          -- PASTEUR
 Job cpu time:  0 days  4 hours 36 minutes 12.7 seconds.
 File lengths (MBytes):  RWF=    186 Int=      0 D2E=      0 Chk=     20 Scr=      1
 Normal termination of Gaussian 09 at Wed Mar 24 14:49:21 2021.
