 Entering Gaussian System, Link 0=g09
 Initial command:
 /public/software/g09/g09/l1.exe /tmp/Gau-16089.inp -scrdir=/tmp/
 Entering Link 1 = /public/software/g09/g09/l1.exe PID=     16090.
  
 Copyright (c) 1988,1990,1992,1993,1995,1998,2003,2009,2010,
            Gaussian, Inc.  All Rights Reserved.
  
 This is part of the Gaussian(R) 09 program.  It is based on
 the Gaussian(R) 03 system (copyright 2003, Gaussian, Inc.),
 the Gaussian(R) 98 system (copyright 1998, Gaussian, Inc.),
 the Gaussian(R) 94 system (copyright 1995, Gaussian, Inc.),
 the Gaussian 92(TM) system (copyright 1992, Gaussian, Inc.),
 the Gaussian 90(TM) system (copyright 1990, Gaussian, Inc.),
 the Gaussian 88(TM) system (copyright 1988, Gaussian, Inc.),
 the Gaussian 86(TM) system (copyright 1986, Carnegie Mellon
 University), and the Gaussian 82(TM) system (copyright 1983,
 Carnegie Mellon University). Gaussian is a federally registered
 trademark of Gaussian, Inc.
  
 This software contains proprietary and confidential information,
 including trade secrets, belonging to Gaussian, Inc.
  
 This software is provided under written license and may be
 used, copied, transmitted, or stored only in accord with that
 written license.
  
 The following legend is applicable only to US Government
 contracts under FAR:
  
                    RESTRICTED RIGHTS LEGEND
  
 Use, reproduction and disclosure by the US Government is
 subject to restrictions as set forth in subparagraphs (a)
 and (c) of the Commercial Computer Software - Restricted
 Rights clause in FAR 52.227-19.
  
 Gaussian, Inc.
 340 Quinnipiac St., Bldg. 40, Wallingford CT 06492
  
  
 ---------------------------------------------------------------
 Warning -- This program may not be used in any manner that
 competes with the business of Gaussian, Inc. or will provide
 assistance to any competitor of Gaussian, Inc.  The licensee
 of this program is prohibited from giving any competitor of
 Gaussian, Inc. access to this program.  By using this program,
 the user acknowledges that Gaussian, Inc. is engaged in the
 business of creating and licensing software in the field of
 computational chemistry and represents and warrants to the
 licensee that it is not a competitor of Gaussian, Inc. and that
 it will not use this program in any manner prohibited above.
 ---------------------------------------------------------------
  

 Cite this work as:
 Gaussian 09, Revision B.01,
 M. J. Frisch, G. W. Trucks, H. B. Schlegel, G. E. Scuseria, 
 M. A. Robb, J. R. Cheeseman, G. Scalmani, V. Barone, B. Mennucci, 
 G. A. Petersson, H. Nakatsuji, M. Caricato, X. Li, H. P. Hratchian, 
 A. F. Izmaylov, J. Bloino, G. Zheng, J. L. Sonnenberg, M. Hada, 
 M. Ehara, K. Toyota, R. Fukuda, J. Hasegawa, M. Ishida, T. Nakajima, 
 Y. Honda, O. Kitao, H. Nakai, T. Vreven, J. A. Montgomery, Jr., 
 J. E. Peralta, F. Ogliaro, M. Bearpark, J. J. Heyd, E. Brothers, 
 K. N. Kudin, V. N. Staroverov, T. Keith, R. Kobayashi, J. Normand, 
 K. Raghavachari, A. Rendell, J. C. Burant, S. S. Iyengar, J. Tomasi, 
 M. Cossi, N. Rega, J. M. Millam, M. Klene, J. E. Knox, J. B. Cross, 
 V. Bakken, C. Adamo, J. Jaramillo, R. Gomperts, R. E. Stratmann, 
 O. Yazyev, A. J. Austin, R. Cammi, C. Pomelli, J. W. Ochterski, 
 R. L. Martin, K. Morokuma, V. G. Zakrzewski, G. A. Voth, 
 P. Salvador, J. J. Dannenberg, S. Dapprich, A. D. Daniels, 
 O. Farkas, J. B. Foresman, J. V. Ortiz, J. Cioslowski, 
 and D. J. Fox, Gaussian, Inc., Wallingford CT, 2010.
 
 ******************************************
 Gaussian 09:  EM64L-G09RevB.01 12-Aug-2010
                24-Mar-2021 
 ******************************************
 %mem=600MW
 %nprocshared=10
 Will use up to   10 processors via shared memory.
 ---------------------------------------
 # opt rb3lyp/6-31g(d) geom=connectivity
 ---------------------------------------
 1/14=-1,18=20,19=15,26=3,38=1,57=2/1,3;
 2/9=110,12=2,17=6,18=5,40=1/2;
 3/5=1,6=6,7=1,11=2,16=1,25=1,30=1,71=1,74=-5,116=1/1,2,3;
 4//1;
 5/5=2,38=5/2;
 6/7=2,8=2,9=2,10=2,28=1/1;
 7//1,2,3,16;
 1/14=-1,18=20,19=15/3(2);
 2/9=110/2;
 99//99;
 2/9=110/2;
 3/5=1,6=6,7=1,11=2,16=1,25=1,30=1,71=1,74=-5,116=1/1,2,3;
 4/5=5,16=3/1;
 5/5=2,38=5/2;
 7//1,2,3,16;
 1/14=-1,18=20,19=15/3(-5);
 2/9=110/2;
 6/7=2,8=2,9=2,10=2,19=2,28=1/1;
 99/9=1/99;
 -------------------
 Title Card Required
 -------------------
 Symbolic Z-matrix:
 Charge =  0 Multiplicity = 1
 C                     0.        0.        0. 
 C                     1.3408    0.        0. 
 C                     2.1196    1.2896    0. 
 C                     1.3821    2.5389    0.5694 
 C                    -0.1539    2.4346    0.7404 
 C                    -0.8002    1.2618   -0.0269 
 C                     1.8702    3.7063   -0.3196 
 C                     0.8809    4.2055   -1.3156 
 C                    -0.4315    4.2553   -1.0677 
 C                    -0.8728    3.698     0.2327 
 C                    -1.408     4.6974   -2.0854 
 O                    -2.3112    3.9301   -2.4204 
 C                    -1.2688    6.1033   -2.6588 
 C                    -1.2095    6.0233   -4.1912 
 C                    -2.4374    6.9485   -2.1556 
 O                    -1.8358    4.197     0.811 
 C                     2.9528    3.1766   -1.24 
 C                     2.8249    4.0743   -2.4854 
 O                     1.434     4.4723   -2.5596 
 C                     2.5533    1.7056   -1.4111 
 O                     2.3292    4.8075    0.452 
 C                    -0.3495    2.2767    2.2612 
 C                     1.049     2.1189    2.8321 
 O                     1.9143    2.7776    1.9041 
 C                     1.2451    2.7092    4.2058 
 C                     1.2463    4.2088    4.3356 
 C                     1.4283    1.9248    5.2819 
 C                     3.6705    5.3525   -2.371 
 C                     3.1881    3.3646   -3.7925 
 H                     3.9545    3.2422   -0.7973 
 H                     3.0257    1.1301    0.6033 
 C                     2.1364   -1.2739   -0.0237 
 H                    -0.5522   -0.9368   -0.0337 
 H                    -1.7949    1.058     0.3915 
 H                    -0.9759    1.5134   -1.0808 
 H                    -0.34      6.5521   -2.287 
 H                    -2.1723    5.6828   -4.5921 
 H                    -0.4704    5.2694   -4.4898 
 H                    -3.3922    6.5866   -2.5529 
 H                    -2.5019    6.9101   -1.0624 
 H                    -2.3229    7.9976   -2.4442 
 H                     1.7245    1.5836   -2.1195 
 H                     3.3935    1.1048   -1.7756 
 H                     2.5382    4.4392    1.3368 
 H                    -0.8499    3.1465    2.6987 
 H                    -0.9671    1.4126    2.5333 
 H                     1.3255    1.0566    2.8355 
 H                     0.307     4.6353    3.9722 
 H                     1.3676    4.5286    5.3763 
 H                     2.0709    4.6443    3.7628 
 H                     1.5764    2.345     6.2722 
 H                     1.4357    0.842     5.2036 
 H                     3.527     5.9899   -3.2515 
 H                     4.7365    5.1183   -2.2848 
 H                     3.3793    5.9652   -1.5129 
 H                     2.497     2.5458   -4.0168 
 H                     3.1095    4.0534   -4.642 
 H                     4.2086    2.9695   -3.7632 
 H                     1.4933   -2.1602   -0.0358 
 H                     2.7716   -1.3114   -0.9143 
 H                     2.7749   -1.3383    0.8633 
 C                    -0.8357    7.3458   -4.8438 
 H                     0.1201    7.7165   -4.4603 
 H                    -0.7377    7.2156   -5.9264 
 H                    -1.5991    8.1095   -4.6693 
 

 GradGradGradGradGradGradGradGradGradGradGradGradGradGradGradGradGradGrad
 Berny optimization.
 Initialization pass.
                           ----------------------------
                           !    Initial Parameters    !
                           ! (Angstroms and Degrees)  !
 --------------------------                            --------------------------
 ! Name  Definition              Value          Derivative Info.                !
 --------------------------------------------------------------------------------
 ! R1    R(1,2)                  1.3408         estimate D2E/DX2                !
 ! R2    R(1,6)                  1.4944         estimate D2E/DX2                !
 ! R3    R(1,33)                 1.088          estimate D2E/DX2                !
 ! R4    R(2,3)                  1.5065         estimate D2E/DX2                !
 ! R5    R(2,32)                 1.5021         estimate D2E/DX2                !
 ! R6    R(3,4)                  1.5585         estimate D2E/DX2                !
 ! R7    R(3,20)                 1.5337         estimate D2E/DX2                !
 ! R8    R(3,31)                 1.1002         estimate D2E/DX2                !
 ! R9    R(4,5)                  1.549          estimate D2E/DX2                !
 ! R10   R(4,7)                  1.5464         estimate D2E/DX2                !
 ! R11   R(4,24)                 1.4566         estimate D2E/DX2                !
 ! R12   R(5,6)                  1.5433         estimate D2E/DX2                !
 ! R13   R(5,10)                 1.5397         estimate D2E/DX2                !
 ! R14   R(5,22)                 1.5414         estimate D2E/DX2                !
 ! R15   R(6,34)                 1.0982         estimate D2E/DX2                !
 ! R16   R(6,35)                 1.0977         estimate D2E/DX2                !
 ! R17   R(7,8)                  1.4899         estimate D2E/DX2                !
 ! R18   R(7,17)                 1.5165         estimate D2E/DX2                !
 ! R19   R(7,21)                 1.4208         estimate D2E/DX2                !
 ! R20   R(8,9)                  1.3365         estimate D2E/DX2                !
 ! R21   R(8,19)                 1.3873         estimate D2E/DX2                !
 ! R22   R(9,10)                 1.482          estimate D2E/DX2                !
 ! R23   R(9,11)                 1.4781         estimate D2E/DX2                !
 ! R24   R(10,16)                1.2291         estimate D2E/DX2                !
 ! R25   R(11,12)                1.2316         estimate D2E/DX2                !
 ! R26   R(11,13)                1.5247         estimate D2E/DX2                !
 ! R27   R(13,14)                1.5356         estimate D2E/DX2                !
 ! R28   R(13,15)                1.5275         estimate D2E/DX2                !
 ! R29   R(13,36)                1.0965         estimate D2E/DX2                !
 ! R30   R(14,37)                1.0971         estimate D2E/DX2                !
 ! R31   R(14,38)                1.0972         estimate D2E/DX2                !
 ! R32   R(14,62)                1.5214         estimate D2E/DX2                !
 ! R33   R(15,39)                1.0957         estimate D2E/DX2                !
 ! R34   R(15,40)                1.0958         estimate D2E/DX2                !
 ! R35   R(15,41)                1.0941         estimate D2E/DX2                !
 ! R36   R(17,18)                1.5405         estimate D2E/DX2                !
 ! R37   R(17,20)                1.5339         estimate D2E/DX2                !
 ! R38   R(17,30)                1.0971         estimate D2E/DX2                !
 ! R39   R(18,19)                1.4486         estimate D2E/DX2                !
 ! R40   R(18,28)                1.5369         estimate D2E/DX2                !
 ! R41   R(18,29)                1.531          estimate D2E/DX2                !
 ! R42   R(20,42)                1.0971         estimate D2E/DX2                !
 ! R43   R(20,43)                1.0953         estimate D2E/DX2                !
 ! R44   R(21,44)                0.9809         estimate D2E/DX2                !
 ! R45   R(22,23)                1.5188         estimate D2E/DX2                !
 ! R46   R(22,45)                1.0947         estimate D2E/DX2                !
 ! R47   R(22,46)                1.0964         estimate D2E/DX2                !
 ! R48   R(23,24)                1.4296         estimate D2E/DX2                !
 ! R49   R(23,25)                1.508          estimate D2E/DX2                !
 ! R50   R(23,47)                1.0977         estimate D2E/DX2                !
 ! R51   R(24,44)                1.8633         estimate D2E/DX2                !
 ! R52   R(25,26)                1.5052         estimate D2E/DX2                !
 ! R53   R(25,27)                1.3442         estimate D2E/DX2                !
 ! R54   R(26,48)                1.0937         estimate D2E/DX2                !
 ! R55   R(26,49)                1.0955         estimate D2E/DX2                !
 ! R56   R(26,50)                1.0944         estimate D2E/DX2                !
 ! R57   R(27,51)                1.0859         estimate D2E/DX2                !
 ! R58   R(27,52)                1.0857         estimate D2E/DX2                !
 ! R59   R(28,53)                1.0964         estimate D2E/DX2                !
 ! R60   R(28,54)                1.0948         estimate D2E/DX2                !
 ! R61   R(28,55)                1.0939         estimate D2E/DX2                !
 ! R62   R(29,56)                1.0947         estimate D2E/DX2                !
 ! R63   R(29,57)                1.0965         estimate D2E/DX2                !
 ! R64   R(29,58)                1.0947         estimate D2E/DX2                !
 ! R65   R(32,59)                1.0951         estimate D2E/DX2                !
 ! R66   R(32,60)                1.0946         estimate D2E/DX2                !
 ! R67   R(32,61)                1.0948         estimate D2E/DX2                !
 ! R68   R(62,63)                1.0946         estimate D2E/DX2                !
 ! R69   R(62,64)                1.0948         estimate D2E/DX2                !
 ! R70   R(62,65)                1.0938         estimate D2E/DX2                !
 ! A1    A(2,1,6)              122.3759         estimate D2E/DX2                !
 ! A2    A(2,1,33)             120.5012         estimate D2E/DX2                !
 ! A3    A(6,1,33)             117.0462         estimate D2E/DX2                !
 ! A4    A(1,2,3)              121.1281         estimate D2E/DX2                !
 ! A5    A(1,2,32)             121.9819         estimate D2E/DX2                !
 ! A6    A(3,2,32)             116.8819         estimate D2E/DX2                !
 ! A7    A(2,3,4)              116.2035         estimate D2E/DX2                !
 ! A8    A(2,3,20)             112.2321         estimate D2E/DX2                !
 ! A9    A(2,3,31)             107.5569         estimate D2E/DX2                !
 ! A10   A(4,3,20)             104.6273         estimate D2E/DX2                !
 ! A11   A(4,3,31)             107.7943         estimate D2E/DX2                !
 ! A12   A(20,3,31)            108.1162         estimate D2E/DX2                !
 ! A13   A(3,4,5)              117.1036         estimate D2E/DX2                !
 ! A14   A(3,4,7)              104.2259         estimate D2E/DX2                !
 ! A15   A(3,4,24)             107.0524         estimate D2E/DX2                !
 ! A16   A(5,4,7)              115.2949         estimate D2E/DX2                !
 ! A17   A(5,4,24)             105.7944         estimate D2E/DX2                !
 ! A18   A(7,4,24)             106.7226         estimate D2E/DX2                !
 ! A19   A(4,5,6)              114.3012         estimate D2E/DX2                !
 ! A20   A(4,5,10)             111.7977         estimate D2E/DX2                !
 ! A21   A(4,5,22)             103.9835         estimate D2E/DX2                !
 ! A22   A(6,5,10)             105.3121         estimate D2E/DX2                !
 ! A23   A(6,5,22)             111.0713         estimate D2E/DX2                !
 ! A24   A(10,5,22)            110.495          estimate D2E/DX2                !
 ! A25   A(1,6,5)              114.1075         estimate D2E/DX2                !
 ! A26   A(1,6,34)             108.7511         estimate D2E/DX2                !
 ! A27   A(1,6,35)             107.2495         estimate D2E/DX2                !
 ! A28   A(5,6,34)             109.324          estimate D2E/DX2                !
 ! A29   A(5,6,35)             111.7275         estimate D2E/DX2                !
 ! A30   A(34,6,35)            105.2691         estimate D2E/DX2                !
 ! A31   A(4,7,8)              115.3185         estimate D2E/DX2                !
 ! A32   A(4,7,17)             108.0925         estimate D2E/DX2                !
 ! A33   A(4,7,21)             112.0157         estimate D2E/DX2                !
 ! A34   A(8,7,17)             100.6797         estimate D2E/DX2                !
 ! A35   A(8,7,21)             108.5335         estimate D2E/DX2                !
 ! A36   A(17,7,21)            111.6972         estimate D2E/DX2                !
 ! A37   A(7,8,9)              122.7169         estimate D2E/DX2                !
 ! A38   A(7,8,19)             113.5244         estimate D2E/DX2                !
 ! A39   A(9,8,19)             123.4108         estimate D2E/DX2                !
 ! A40   A(8,9,10)             116.1761         estimate D2E/DX2                !
 ! A41   A(8,9,11)             122.1516         estimate D2E/DX2                !
 ! A42   A(10,9,11)            121.3259         estimate D2E/DX2                !
 ! A43   A(5,10,9)             117.3131         estimate D2E/DX2                !
 ! A44   A(5,10,16)            122.9415         estimate D2E/DX2                !
 ! A45   A(9,10,16)            119.5685         estimate D2E/DX2                !
 ! A46   A(9,11,12)            119.0417         estimate D2E/DX2                !
 ! A47   A(9,11,13)            118.3216         estimate D2E/DX2                !
 ! A48   A(12,11,13)           122.6253         estimate D2E/DX2                !
 ! A49   A(11,13,14)           109.3156         estimate D2E/DX2                !
 ! A50   A(11,13,15)           108.4501         estimate D2E/DX2                !
 ! A51   A(11,13,36)           109.1003         estimate D2E/DX2                !
 ! A52   A(14,13,15)           112.7746         estimate D2E/DX2                !
 ! A53   A(14,13,36)           109.0853         estimate D2E/DX2                !
 ! A54   A(15,13,36)           108.0507         estimate D2E/DX2                !
 ! A55   A(13,14,37)           110.2994         estimate D2E/DX2                !
 ! A56   A(13,14,38)           109.4747         estimate D2E/DX2                !
 ! A57   A(13,14,62)           113.0946         estimate D2E/DX2                !
 ! A58   A(37,14,38)           106.1686         estimate D2E/DX2                !
 ! A59   A(37,14,62)           109.1876         estimate D2E/DX2                !
 ! A60   A(38,14,62)           108.3638         estimate D2E/DX2                !
 ! A61   A(13,15,39)           111.3752         estimate D2E/DX2                !
 ! A62   A(13,15,40)           110.7505         estimate D2E/DX2                !
 ! A63   A(13,15,41)           111.3225         estimate D2E/DX2                !
 ! A64   A(39,15,40)           107.391          estimate D2E/DX2                !
 ! A65   A(39,15,41)           108.1963         estimate D2E/DX2                !
 ! A66   A(40,15,41)           107.6335         estimate D2E/DX2                !
 ! A67   A(7,17,18)            103.1702         estimate D2E/DX2                !
 ! A68   A(7,17,20)            102.518          estimate D2E/DX2                !
 ! A69   A(7,17,30)            112.7062         estimate D2E/DX2                !
 ! A70   A(18,17,20)           116.5538         estimate D2E/DX2                !
 ! A71   A(18,17,30)           111.5408         estimate D2E/DX2                !
 ! A72   A(20,17,30)           109.8862         estimate D2E/DX2                !
 ! A73   A(17,18,19)           106.3331         estimate D2E/DX2                !
 ! A74   A(17,18,28)           112.2587         estimate D2E/DX2                !
 ! A75   A(17,18,29)           113.601          estimate D2E/DX2                !
 ! A76   A(19,18,28)           107.6739         estimate D2E/DX2                !
 ! A77   A(19,18,29)           108.1434         estimate D2E/DX2                !
 ! A78   A(28,18,29)           108.5753         estimate D2E/DX2                !
 ! A79   A(8,19,18)            106.5009         estimate D2E/DX2                !
 ! A80   A(3,20,17)            103.3641         estimate D2E/DX2                !
 ! A81   A(3,20,42)            110.5051         estimate D2E/DX2                !
 ! A82   A(3,20,43)            111.9811         estimate D2E/DX2                !
 ! A83   A(17,20,42)           112.0511         estimate D2E/DX2                !
 ! A84   A(17,20,43)           111.3069         estimate D2E/DX2                !
 ! A85   A(42,20,43)           107.6747         estimate D2E/DX2                !
 ! A86   A(7,21,44)            105.5266         estimate D2E/DX2                !
 ! A87   A(5,22,23)            105.3469         estimate D2E/DX2                !
 ! A88   A(5,22,45)            111.7722         estimate D2E/DX2                !
 ! A89   A(5,22,46)            113.3944         estimate D2E/DX2                !
 ! A90   A(23,22,45)           110.6858         estimate D2E/DX2                !
 ! A91   A(23,22,46)           110.091          estimate D2E/DX2                !
 ! A92   A(45,22,46)           105.6364         estimate D2E/DX2                !
 ! A93   A(22,23,24)           105.3944         estimate D2E/DX2                !
 ! A94   A(22,23,25)           114.9295         estimate D2E/DX2                !
 ! A95   A(22,23,47)           109.491          estimate D2E/DX2                !
 ! A96   A(24,23,25)           109.4056         estimate D2E/DX2                !
 ! A97   A(24,23,47)           107.1841         estimate D2E/DX2                !
 ! A98   A(25,23,47)           110.0751         estimate D2E/DX2                !
 ! A99   A(4,24,23)            107.3465         estimate D2E/DX2                !
 ! A100  A(23,25,26)           117.9471         estimate D2E/DX2                !
 ! A101  A(23,25,27)           121.2363         estimate D2E/DX2                !
 ! A102  A(26,25,27)           120.8126         estimate D2E/DX2                !
 ! A103  A(25,26,48)           111.0487         estimate D2E/DX2                !
 ! A104  A(25,26,49)           111.8918         estimate D2E/DX2                !
 ! A105  A(25,26,50)           110.6046         estimate D2E/DX2                !
 ! A106  A(48,26,49)           107.2717         estimate D2E/DX2                !
 ! A107  A(48,26,50)           108.5425         estimate D2E/DX2                !
 ! A108  A(49,26,50)           107.3149         estimate D2E/DX2                !
 ! A109  A(25,27,51)           121.5238         estimate D2E/DX2                !
 ! A110  A(25,27,52)           121.6822         estimate D2E/DX2                !
 ! A111  A(51,27,52)           116.794          estimate D2E/DX2                !
 ! A112  A(18,28,53)           110.5921         estimate D2E/DX2                !
 ! A113  A(18,28,54)           111.3262         estimate D2E/DX2                !
 ! A114  A(18,28,55)           112.196          estimate D2E/DX2                !
 ! A115  A(53,28,54)           108.3621         estimate D2E/DX2                !
 ! A116  A(53,28,55)           105.6352         estimate D2E/DX2                !
 ! A117  A(54,28,55)           108.4973         estimate D2E/DX2                !
 ! A118  A(18,29,56)           111.8314         estimate D2E/DX2                !
 ! A119  A(18,29,57)           110.6851         estimate D2E/DX2                !
 ! A120  A(18,29,58)           111.4441         estimate D2E/DX2                !
 ! A121  A(56,29,57)           105.4186         estimate D2E/DX2                !
 ! A122  A(56,29,58)           108.908          estimate D2E/DX2                !
 ! A123  A(57,29,58)           108.3177         estimate D2E/DX2                !
 ! A124  A(2,32,59)            112.0554         estimate D2E/DX2                !
 ! A125  A(2,32,60)            110.4423         estimate D2E/DX2                !
 ! A126  A(2,32,61)            110.2429         estimate D2E/DX2                !
 ! A127  A(59,32,60)           107.7027         estimate D2E/DX2                !
 ! A128  A(59,32,61)           107.688          estimate D2E/DX2                !
 ! A129  A(60,32,61)           108.5876         estimate D2E/DX2                !
 ! A130  A(14,62,63)           111.018          estimate D2E/DX2                !
 ! A131  A(14,62,64)           110.0467         estimate D2E/DX2                !
 ! A132  A(14,62,65)           111.5313         estimate D2E/DX2                !
 ! A133  A(63,62,64)           107.9736         estimate D2E/DX2                !
 ! A134  A(63,62,65)           108.4868         estimate D2E/DX2                !
 ! A135  A(64,62,65)           107.6535         estimate D2E/DX2                !
 ! D1    D(6,1,2,3)              1.2213         estimate D2E/DX2                !
 ! D2    D(6,1,2,32)          -177.7129         estimate D2E/DX2                !
 ! D3    D(33,1,2,3)           177.9398         estimate D2E/DX2                !
 ! D4    D(33,1,2,32)           -0.9944         estimate D2E/DX2                !
 ! D5    D(2,1,6,5)            -34.2146         estimate D2E/DX2                !
 ! D6    D(2,1,6,34)          -156.542          estimate D2E/DX2                !
 ! D7    D(2,1,6,35)            90.091          estimate D2E/DX2                !
 ! D8    D(33,1,6,5)           148.9599         estimate D2E/DX2                !
 ! D9    D(33,1,6,34)           26.6325         estimate D2E/DX2                !
 ! D10   D(33,1,6,35)          -86.7345         estimate D2E/DX2                !
 ! D11   D(1,2,3,4)             24.0292         estimate D2E/DX2                !
 ! D12   D(1,2,3,20)           -96.3166         estimate D2E/DX2                !
 ! D13   D(1,2,3,31)           144.8899         estimate D2E/DX2                !
 ! D14   D(32,2,3,4)          -156.9843         estimate D2E/DX2                !
 ! D15   D(32,2,3,20)           82.6698         estimate D2E/DX2                !
 ! D16   D(32,2,3,31)          -36.1237         estimate D2E/DX2                !
 ! D17   D(1,2,32,59)           -0.2477         estimate D2E/DX2                !
 ! D18   D(1,2,32,60)          119.8286         estimate D2E/DX2                !
 ! D19   D(1,2,32,61)         -120.1695         estimate D2E/DX2                !
 ! D20   D(3,2,32,59)         -179.2248         estimate D2E/DX2                !
 ! D21   D(3,2,32,60)          -59.1485         estimate D2E/DX2                !
 ! D22   D(3,2,32,61)           60.8534         estimate D2E/DX2                !
 ! D23   D(2,3,4,5)            -15.0165         estimate D2E/DX2                !
 ! D24   D(2,3,4,7)           -143.6933         estimate D2E/DX2                !
 ! D25   D(2,3,4,24)           103.4609         estimate D2E/DX2                !
 ! D26   D(20,3,4,5)           109.3347         estimate D2E/DX2                !
 ! D27   D(20,3,4,7)           -19.3421         estimate D2E/DX2                !
 ! D28   D(20,3,4,24)         -132.1879         estimate D2E/DX2                !
 ! D29   D(31,3,4,5)          -135.7503         estimate D2E/DX2                !
 ! D30   D(31,3,4,7)            95.5729         estimate D2E/DX2                !
 ! D31   D(31,3,4,24)          -17.2729         estimate D2E/DX2                !
 ! D32   D(2,3,20,17)          164.5681         estimate D2E/DX2                !
 ! D33   D(2,3,20,42)           44.513          estimate D2E/DX2                !
 ! D34   D(2,3,20,43)          -75.5213         estimate D2E/DX2                !
 ! D35   D(4,3,20,17)           37.7212         estimate D2E/DX2                !
 ! D36   D(4,3,20,42)          -82.334          estimate D2E/DX2                !
 ! D37   D(4,3,20,43)          157.6318         estimate D2E/DX2                !
 ! D38   D(31,3,20,17)         -76.9681         estimate D2E/DX2                !
 ! D39   D(31,3,20,42)         162.9768         estimate D2E/DX2                !
 ! D40   D(31,3,20,43)          42.9425         estimate D2E/DX2                !
 ! D41   D(3,4,5,6)            -15.938          estimate D2E/DX2                !
 ! D42   D(3,4,5,10)          -135.4526         estimate D2E/DX2                !
 ! D43   D(3,4,5,22)           105.3255         estimate D2E/DX2                !
 ! D44   D(7,4,5,6)            107.238          estimate D2E/DX2                !
 ! D45   D(7,4,5,10)           -12.2766         estimate D2E/DX2                !
 ! D46   D(7,4,5,22)          -131.4986         estimate D2E/DX2                !
 ! D47   D(24,4,5,6)          -135.0894         estimate D2E/DX2                !
 ! D48   D(24,4,5,10)          105.396          estimate D2E/DX2                !
 ! D49   D(24,4,5,22)          -13.826          estimate D2E/DX2                !
 ! D50   D(3,4,7,8)            105.4524         estimate D2E/DX2                !
 ! D51   D(3,4,7,17)            -6.2778         estimate D2E/DX2                !
 ! D52   D(3,4,7,21)          -129.7564         estimate D2E/DX2                !
 ! D53   D(5,4,7,8)            -24.3148         estimate D2E/DX2                !
 ! D54   D(5,4,7,17)          -136.045          estimate D2E/DX2                !
 ! D55   D(5,4,7,21)           100.4764         estimate D2E/DX2                !
 ! D56   D(24,4,7,8)          -141.4654         estimate D2E/DX2                !
 ! D57   D(24,4,7,17)          106.8044         estimate D2E/DX2                !
 ! D58   D(24,4,7,21)          -16.6742         estimate D2E/DX2                !
 ! D59   D(3,4,24,23)          -94.1983         estimate D2E/DX2                !
 ! D60   D(5,4,24,23)           31.394          estimate D2E/DX2                !
 ! D61   D(7,4,24,23)          154.6676         estimate D2E/DX2                !
 ! D62   D(4,5,6,1)             39.6828         estimate D2E/DX2                !
 ! D63   D(4,5,6,34)           161.6959         estimate D2E/DX2                !
 ! D64   D(4,5,6,35)           -82.19           estimate D2E/DX2                !
 ! D65   D(10,5,6,1)           162.7797         estimate D2E/DX2                !
 ! D66   D(10,5,6,34)          -75.2071         estimate D2E/DX2                !
 ! D67   D(10,5,6,35)           40.907          estimate D2E/DX2                !
 ! D68   D(22,5,6,1)           -77.5824         estimate D2E/DX2                !
 ! D69   D(22,5,6,34)           44.4307         estimate D2E/DX2                !
 ! D70   D(22,5,6,35)          160.5448         estimate D2E/DX2                !
 ! D71   D(4,5,10,9)            44.5572         estimate D2E/DX2                !
 ! D72   D(4,5,10,16)         -140.3046         estimate D2E/DX2                !
 ! D73   D(6,5,10,9)           -80.1257         estimate D2E/DX2                !
 ! D74   D(6,5,10,16)           95.0125         estimate D2E/DX2                !
 ! D75   D(22,5,10,9)          159.855          estimate D2E/DX2                !
 ! D76   D(22,5,10,16)         -25.0068         estimate D2E/DX2                !
 ! D77   D(4,5,22,23)           -7.1197         estimate D2E/DX2                !
 ! D78   D(4,5,22,45)          113.1493         estimate D2E/DX2                !
 ! D79   D(4,5,22,46)         -127.5743         estimate D2E/DX2                !
 ! D80   D(6,5,22,23)          116.2773         estimate D2E/DX2                !
 ! D81   D(6,5,22,45)         -123.4537         estimate D2E/DX2                !
 ! D82   D(6,5,22,46)           -4.1772         estimate D2E/DX2                !
 ! D83   D(10,5,22,23)        -127.2264         estimate D2E/DX2                !
 ! D84   D(10,5,22,45)          -6.9574         estimate D2E/DX2                !
 ! D85   D(10,5,22,46)         112.3191         estimate D2E/DX2                !
 ! D86   D(4,7,8,9)             35.4466         estimate D2E/DX2                !
 ! D87   D(4,7,8,19)          -137.9884         estimate D2E/DX2                !
 ! D88   D(17,7,8,9)           151.4757         estimate D2E/DX2                !
 ! D89   D(17,7,8,19)          -21.9594         estimate D2E/DX2                !
 ! D90   D(21,7,8,9)           -91.136          estimate D2E/DX2                !
 ! D91   D(21,7,8,19)           95.429          estimate D2E/DX2                !
 ! D92   D(4,7,17,18)          150.7678         estimate D2E/DX2                !
 ! D93   D(4,7,17,20)           29.2847         estimate D2E/DX2                !
 ! D94   D(4,7,17,30)          -88.7895         estimate D2E/DX2                !
 ! D95   D(8,7,17,18)           29.4734         estimate D2E/DX2                !
 ! D96   D(8,7,17,20)          -92.0097         estimate D2E/DX2                !
 ! D97   D(8,7,17,30)          149.9161         estimate D2E/DX2                !
 ! D98   D(21,7,17,18)         -85.5611         estimate D2E/DX2                !
 ! D99   D(21,7,17,20)         152.9558         estimate D2E/DX2                !
 ! D100  D(21,7,17,30)          34.8816         estimate D2E/DX2                !
 ! D101  D(4,7,21,44)           20.7902         estimate D2E/DX2                !
 ! D102  D(8,7,21,44)          149.258          estimate D2E/DX2                !
 ! D103  D(17,7,21,44)        -100.6365         estimate D2E/DX2                !
 ! D104  D(7,8,9,10)            -3.9567         estimate D2E/DX2                !
 ! D105  D(7,8,9,11)          -177.278          estimate D2E/DX2                !
 ! D106  D(19,8,9,10)          168.829          estimate D2E/DX2                !
 ! D107  D(19,8,9,11)           -4.4923         estimate D2E/DX2                !
 ! D108  D(7,8,19,18)            3.8085         estimate D2E/DX2                !
 ! D109  D(9,8,19,18)         -169.5744         estimate D2E/DX2                !
 ! D110  D(8,9,10,5)           -37.7721         estimate D2E/DX2                !
 ! D111  D(8,9,10,16)          146.9186         estimate D2E/DX2                !
 ! D112  D(11,9,10,5)          135.6088         estimate D2E/DX2                !
 ! D113  D(11,9,10,16)         -39.7005         estimate D2E/DX2                !
 ! D114  D(8,9,11,12)          121.6255         estimate D2E/DX2                !
 ! D115  D(8,9,11,13)          -59.5673         estimate D2E/DX2                !
 ! D116  D(10,9,11,12)         -51.3562         estimate D2E/DX2                !
 ! D117  D(10,9,11,13)         127.4509         estimate D2E/DX2                !
 ! D118  D(9,11,13,14)         126.0648         estimate D2E/DX2                !
 ! D119  D(9,11,13,15)        -110.6121         estimate D2E/DX2                !
 ! D120  D(9,11,13,36)           6.8531         estimate D2E/DX2                !
 ! D121  D(12,11,13,14)        -55.1735         estimate D2E/DX2                !
 ! D122  D(12,11,13,15)         68.1496         estimate D2E/DX2                !
 ! D123  D(12,11,13,36)       -174.3852         estimate D2E/DX2                !
 ! D124  D(11,13,14,37)         67.1551         estimate D2E/DX2                !
 ! D125  D(11,13,14,38)        -49.3147         estimate D2E/DX2                !
 ! D126  D(11,13,14,62)       -170.2503         estimate D2E/DX2                !
 ! D127  D(15,13,14,37)        -53.5663         estimate D2E/DX2                !
 ! D128  D(15,13,14,38)       -170.0361         estimate D2E/DX2                !
 ! D129  D(15,13,14,62)         69.0282         estimate D2E/DX2                !
 ! D130  D(36,13,14,37)       -173.6238         estimate D2E/DX2                !
 ! D131  D(36,13,14,38)         69.9064         estimate D2E/DX2                !
 ! D132  D(36,13,14,62)        -51.0293         estimate D2E/DX2                !
 ! D133  D(11,13,15,39)        -65.7289         estimate D2E/DX2                !
 ! D134  D(11,13,15,40)         53.712          estimate D2E/DX2                !
 ! D135  D(11,13,15,41)        173.4235         estimate D2E/DX2                !
 ! D136  D(14,13,15,39)         55.4859         estimate D2E/DX2                !
 ! D137  D(14,13,15,40)        174.9268         estimate D2E/DX2                !
 ! D138  D(14,13,15,41)        -65.3617         estimate D2E/DX2                !
 ! D139  D(36,13,15,39)        176.1369         estimate D2E/DX2                !
 ! D140  D(36,13,15,40)        -64.4222         estimate D2E/DX2                !
 ! D141  D(36,13,15,41)         55.2893         estimate D2E/DX2                !
 ! D142  D(13,14,62,63)         56.4746         estimate D2E/DX2                !
 ! D143  D(13,14,62,64)        175.953          estimate D2E/DX2                !
 ! D144  D(13,14,62,65)        -64.6406         estimate D2E/DX2                !
 ! D145  D(37,14,62,63)        179.686          estimate D2E/DX2                !
 ! D146  D(37,14,62,64)        -60.8357         estimate D2E/DX2                !
 ! D147  D(37,14,62,65)         58.5707         estimate D2E/DX2                !
 ! D148  D(38,14,62,63)        -65.0884         estimate D2E/DX2                !
 ! D149  D(38,14,62,64)         54.3899         estimate D2E/DX2                !
 ! D150  D(38,14,62,65)        173.7963         estimate D2E/DX2                !
 ! D151  D(7,17,18,19)         -29.359          estimate D2E/DX2                !
 ! D152  D(7,17,18,28)          88.1431         estimate D2E/DX2                !
 ! D153  D(7,17,18,29)        -148.1847         estimate D2E/DX2                !
 ! D154  D(20,17,18,19)         82.0975         estimate D2E/DX2                !
 ! D155  D(20,17,18,28)       -160.4004         estimate D2E/DX2                !
 ! D156  D(20,17,18,29)        -36.7282         estimate D2E/DX2                !
 ! D157  D(30,17,18,19)       -150.5953         estimate D2E/DX2                !
 ! D158  D(30,17,18,28)        -33.0932         estimate D2E/DX2                !
 ! D159  D(30,17,18,29)         90.579          estimate D2E/DX2                !
 ! D160  D(7,17,20,3)          -41.1096         estimate D2E/DX2                !
 ! D161  D(7,17,20,42)          77.8823         estimate D2E/DX2                !
 ! D162  D(7,17,20,43)        -161.481          estimate D2E/DX2                !
 ! D163  D(18,17,20,3)        -152.9408         estimate D2E/DX2                !
 ! D164  D(18,17,20,42)        -33.9488         estimate D2E/DX2                !
 ! D165  D(18,17,20,43)         86.6879         estimate D2E/DX2                !
 ! D166  D(30,17,20,3)          78.9427         estimate D2E/DX2                !
 ! D167  D(30,17,20,42)       -162.0653         estimate D2E/DX2                !
 ! D168  D(30,17,20,43)        -41.4286         estimate D2E/DX2                !
 ! D169  D(17,18,19,8)          16.1633         estimate D2E/DX2                !
 ! D170  D(28,18,19,8)        -104.3441         estimate D2E/DX2                !
 ! D171  D(29,18,19,8)         138.5112         estimate D2E/DX2                !
 ! D172  D(17,18,28,53)       -177.6359         estimate D2E/DX2                !
 ! D173  D(17,18,28,54)         61.8372         estimate D2E/DX2                !
 ! D174  D(17,18,28,55)        -59.9746         estimate D2E/DX2                !
 ! D175  D(19,18,28,53)        -60.935          estimate D2E/DX2                !
 ! D176  D(19,18,28,54)        178.5381         estimate D2E/DX2                !
 ! D177  D(19,18,28,55)         56.7263         estimate D2E/DX2                !
 ! D178  D(29,18,28,53)         55.9284         estimate D2E/DX2                !
 ! D179  D(29,18,28,54)        -64.5986         estimate D2E/DX2                !
 ! D180  D(29,18,28,55)        173.5897         estimate D2E/DX2                !
 ! D181  D(17,18,29,56)         64.4643         estimate D2E/DX2                !
 ! D182  D(17,18,29,57)       -178.3161         estimate D2E/DX2                !
 ! D183  D(17,18,29,58)        -57.7034         estimate D2E/DX2                !
 ! D184  D(19,18,29,56)        -53.3183         estimate D2E/DX2                !
 ! D185  D(19,18,29,57)         63.9013         estimate D2E/DX2                !
 ! D186  D(19,18,29,58)       -175.486          estimate D2E/DX2                !
 ! D187  D(28,18,29,56)       -169.8802         estimate D2E/DX2                !
 ! D188  D(28,18,29,57)        -52.6606         estimate D2E/DX2                !
 ! D189  D(28,18,29,58)         67.9521         estimate D2E/DX2                !
 ! D190  D(5,22,23,24)          26.1335         estimate D2E/DX2                !
 ! D191  D(5,22,23,25)         146.6647         estimate D2E/DX2                !
 ! D192  D(5,22,23,47)         -88.8603         estimate D2E/DX2                !
 ! D193  D(45,22,23,24)        -94.8484         estimate D2E/DX2                !
 ! D194  D(45,22,23,25)         25.6828         estimate D2E/DX2                !
 ! D195  D(45,22,23,47)        150.1578         estimate D2E/DX2                !
 ! D196  D(46,22,23,24)        148.7359         estimate D2E/DX2                !
 ! D197  D(46,22,23,25)        -90.733          estimate D2E/DX2                !
 ! D198  D(46,22,23,47)         33.742          estimate D2E/DX2                !
 ! D199  D(22,23,24,4)         -36.1593         estimate D2E/DX2                !
 ! D200  D(25,23,24,4)        -160.2507         estimate D2E/DX2                !
 ! D201  D(47,23,24,4)          80.4174         estimate D2E/DX2                !
 ! D202  D(22,23,25,26)        -70.4621         estimate D2E/DX2                !
 ! D203  D(22,23,25,27)        110.2588         estimate D2E/DX2                !
 ! D204  D(24,23,25,26)         47.8391         estimate D2E/DX2                !
 ! D205  D(24,23,25,27)       -131.44           estimate D2E/DX2                !
 ! D206  D(47,23,25,26)        165.3707         estimate D2E/DX2                !
 ! D207  D(47,23,25,27)        -13.9084         estimate D2E/DX2                !
 ! D208  D(23,25,26,48)         58.5601         estimate D2E/DX2                !
 ! D209  D(23,25,26,49)        178.3944         estimate D2E/DX2                !
 ! D210  D(23,25,26,50)        -62.0183         estimate D2E/DX2                !
 ! D211  D(27,25,26,48)       -122.1576         estimate D2E/DX2                !
 ! D212  D(27,25,26,49)         -2.3233         estimate D2E/DX2                !
 ! D213  D(27,25,26,50)        117.264          estimate D2E/DX2                !
 ! D214  D(23,25,27,51)        179.596          estimate D2E/DX2                !
 ! D215  D(23,25,27,52)         -0.3871         estimate D2E/DX2                !
 ! D216  D(26,25,27,51)          0.3375         estimate D2E/DX2                !
 ! D217  D(26,25,27,52)       -179.6456         estimate D2E/DX2                !
 --------------------------------------------------------------------------------
 Trust Radius=3.00D-01 FncErr=1.00D-07 GrdErr=1.00D-06
 Number of steps in this run=    390 maximum allowed number of steps=    390.
 GradGradGradGradGradGradGradGradGradGradGradGradGradGradGradGradGradGrad

 Stoichiometry    C26H34O5
 Framework group  C1[X(C26H34O5)]
 Deg. of freedom   189
 Full point group                 C1      NOp   1
 Largest Abelian subgroup         C1      NOp   1
 Largest concise Abelian subgroup C1      NOp   1
                         Standard orientation:                         
 ---------------------------------------------------------------------
 Center     Atomic      Atomic             Coordinates (Angstroms)
 Number     Number       Type             X           Y           Z
 ---------------------------------------------------------------------
      1          6           0       -2.086330    0.721437    2.737161
      2          6           0       -2.392595    1.713992    1.889351
      3          6           0       -1.844271    1.736830    0.486348
      4          6           0       -1.424489    0.359913   -0.110943
      5          6           0       -1.268174   -0.820830    0.879423
      6          6           0       -1.171623   -0.398759    2.360790
      7          6           0       -0.172562    0.679954   -0.960437
      8          6           0        1.125522    0.248565   -0.369834
      9          6           0        1.256470   -0.872601    0.345825
     10          6           0        0.010699   -1.632783    0.603794
     11          6           0        2.536709   -1.258772    0.975568
     12          8           0        2.576973   -1.424631    2.195246
     13          6           0        3.751999   -1.462689    0.077678
     14          6           0        4.910389   -0.591641    0.585197
     15          6           0        4.095265   -2.950989    0.059408
     16          8           0        0.052403   -2.859096    0.676021
     17          6           0        0.012812    2.184973   -0.977551
     18          6           0        1.536611    2.349189   -1.133488
     19          8           0        2.137374    1.187055   -0.511362
     20          6           0       -0.588421    2.609324    0.368244
     21          8           0       -0.270066    0.147747   -2.274186
     22          6           0       -2.520187   -1.684634    0.629763
     23          6           0       -3.381886   -0.876976   -0.325116
     24          8           0       -2.471612   -0.039120   -1.041505
     25          6           0       -4.185212   -1.695950   -1.303845
     26          6           0       -3.444095   -2.406062   -2.404815
     27          6           0       -5.523386   -1.780284   -1.208900
     28          6           0        1.972403    2.367186   -2.607151
     29          6           0        2.092052    3.599004   -0.445340
     30          1           0       -0.530633    2.669302   -1.798393
     31          1           0       -2.620185    2.163946   -0.166307
     32          6           0       -3.272879    2.862157    2.293305
     33          1           0       -2.460976    0.732306    3.758521
     34          1           0       -1.391461   -1.264069    3.000267
     35          1           0       -0.152830   -0.091603    2.630223
     36          1           0        3.497305   -1.160171   -0.945034
     37          1           0        5.256947   -0.950772    1.562217
     38          1           0        4.554156    0.433661    0.745356
     39          1           0        4.425086   -3.296871    1.045331
     40          1           0        3.220188   -3.547827   -0.221207
     41          1           0        4.889091   -3.167344   -0.661731
     42          1           0        0.094781    2.414666    1.204286
     43          1           0       -0.829195    3.677828    0.377384
     44          1           0       -1.227889    0.002831   -2.428367
     45          1           0       -2.263522   -2.654856    0.192555
     46          1           0       -3.081812   -1.911601    1.543656
     47          1           0       -4.045961   -0.217956    0.249029
     48          1           0       -2.700762   -3.096506   -1.996169
     49          1           0       -4.118204   -2.991989   -3.039093
     50          1           0       -2.932305   -1.686271   -3.051110
     51          1           0       -6.107053   -2.363403   -1.914947
     52          1           0       -6.072654   -1.269401   -0.424078
     53          1           0        3.063389    2.442827   -2.685763
     54          1           0        1.528564    3.212270   -3.143318
     55          1           0        1.702474    1.444612   -3.129195
     56          1           0        1.966951    3.554995    0.641295
     57          1           0        3.172539    3.684582   -0.611164
     58          1           0        1.613186    4.508926   -0.820989
     59          1           0       -3.615478    2.772878    3.329600
     60          1           0       -2.731802    3.809238    2.202059
     61          1           0       -4.159420    2.903571    1.652267
     62          6           0        6.088024   -0.545109   -0.376899
     63          1           0        5.773890   -0.195125   -1.365269
     64          1           0        6.852087    0.143432   -0.001802
     65          1           0        6.553882   -1.528403   -0.489049
 ---------------------------------------------------------------------
 Rotational constants (GHZ):      0.2246655      0.1196465      0.1058626
 Standard basis: 6-31G(d) (6D, 7F)
 There are   533 symmetry adapted basis functions of A   symmetry.
 Integral buffers will be    131072 words long.
 Raffenetti 2 integral format.
 Two-electron integral symmetry is turned on.
   533 basis functions,  1004 primitive gaussians,   533 cartesian basis functions
   115 alpha electrons      115 beta electrons
       nuclear repulsion energy      3503.3256321746 Hartrees.
 NAtoms=   65 NActive=   65 NUniq=   65 SFac= 1.00D+00 NAtFMM=   50 NAOKFM=T Big=T
 One-electron integrals computed using PRISM.
 NBasis=   533 RedAO= T  NBF=   533
 NBsUse=   533 1.00D-06 NBFU=   533
 Harris functional with IExCor=  402 diagonalized for initial guess.
 ExpMin= 1.61D-01 ExpMax= 5.48D+03 ExpMxC= 8.25D+02 IAcc=1 IRadAn=         1 AccDes= 0.00D+00
 HarFok:  IExCor=  402 AccDes= 0.00D+00 IRadAn=         1 IDoV= 1
 ScaDFX=  1.000000  1.000000  1.000000  1.000000
 FoFCou: FMM=F IPFlag=           0 FMFlag=      100000 FMFlg1=        2001
         NFxFlg=           0 DoJE=T BraDBF=F KetDBF=T FulRan=T
         Omega=  0.000000  0.000000  1.000000  0.000000  0.000000 ICntrl=     500 IOpCl=  0
         NMat0=    1 NMatS0=    1 NMatT0=    0 NMatD0=    1 NMtDS0=    0 NMtDT0=    0
         I1Cent=           4 NGrid=           0.
 Petite list used in FoFCou.
 Initial guess orbital symmetries:
       Occupied  (A) (A) (A) (A) (A) (A) (A) (A) (A) (A) (A) (A)
                 (A) (A) (A) (A) (A) (A) (A) (A) (A) (A) (A) (A)
                 (A) (A) (A) (A) (A) (A) (A) (A) (A) (A) (A) (A)
                 (A) (A) (A) (A) (A) (A) (A) (A) (A) (A) (A) (A)
                 (A) (A) (A) (A) (A) (A) (A) (A) (A) (A) (A) (A)
                 (A) (A) (A) (A) (A) (A) (A) (A) (A) (A) (A) (A)
                 (A) (A) (A) (A) (A) (A) (A) (A) (A) (A) (A) (A)
                 (A) (A) (A) (A) (A) (A) (A) (A) (A) (A) (A) (A)
                 (A) (A) (A) (A) (A) (A) (A) (A) (A) (A) (A) (A)
                 (A) (A) (A) (A) (A) (A) (A)
       Virtual   (A) (A) (A) (A) (A) (A) (A) (A) (A) (A) (A) (A)
                 (A) (A) (A) (A) (A) (A) (A) (A) (A) (A) (A) (A)
                 (A) (A) (A) (A) (A) (A) (A) (A) (A) (A) (A) (A)
                 (A) (A) (A) (A) (A) (A) (A) (A) (A) (A) (A) (A)
                 (A) (A) (A) (A) (A) (A) (A) (A) (A) (A) (A) (A)
                 (A) (A) (A) (A) (A) (A) (A) (A) (A) (A) (A) (A)
                 (A) (A) (A) (A) (A) (A) (A) (A) (A) (A) (A) (A)
                 (A) (A) (A) (A) (A) (A) (A) (A) (A) (A) (A) (A)
                 (A) (A) (A) (A) (A) (A) (A) (A) (A) (A) (A) (A)
                 (A) (A) (A) (A) (A) (A) (A) (A) (A) (A) (A) (A)
                 (A) (A) (A) (A) (A) (A) (A) (A) (A) (A) (A) (A)
                 (A) (A) (A) (A) (A) (A) (A) (A) (A) (A) (A) (A)
                 (A) (A) (A) (A) (A) (A) (A) (A) (A) (A) (A) (A)
                 (A) (A) (A) (A) (A) (A) (A) (A) (A) (A) (A) (A)
                 (A) (A) (A) (A) (A) (A) (A) (A) (A) (A) (A) (A)
                 (A) (A) (A) (A) (A) (A) (A) (A) (A) (A) (A) (A)
                 (A) (A) (A) (A) (A) (A) (A) (A) (A) (A) (A) (A)
                 (A) (A) (A) (A) (A) (A) (A) (A) (A) (A) (A) (A)
                 (A) (A) (A) (A) (A) (A) (A) (A) (A) (A) (A) (A)
                 (A) (A) (A) (A) (A) (A) (A) (A) (A) (A) (A) (A)
                 (A) (A) (A) (A) (A) (A) (A) (A) (A) (A) (A) (A)
                 (A) (A) (A) (A) (A) (A) (A) (A) (A) (A) (A) (A)
                 (A) (A) (A) (A) (A) (A) (A) (A) (A) (A) (A) (A)
                 (A) (A) (A) (A) (A) (A) (A) (A) (A) (A) (A) (A)
                 (A) (A) (A) (A) (A) (A) (A) (A) (A) (A) (A) (A)
                 (A) (A) (A) (A) (A) (A) (A) (A) (A) (A) (A) (A)
                 (A) (A) (A) (A) (A) (A) (A) (A) (A) (A) (A) (A)
                 (A) (A) (A) (A) (A) (A) (A) (A) (A) (A) (A) (A)
                 (A) (A) (A) (A) (A) (A) (A) (A) (A) (A) (A) (A)
                 (A) (A) (A) (A) (A) (A) (A) (A) (A) (A) (A) (A)
                 (A) (A) (A) (A) (A) (A) (A) (A) (A) (A) (A) (A)
                 (A) (A) (A) (A) (A) (A) (A) (A) (A) (A) (A) (A)
                 (A) (A) (A) (A) (A) (A) (A) (A) (A) (A) (A) (A)
                 (A) (A) (A) (A) (A) (A) (A) (A) (A) (A) (A) (A)
                 (A) (A) (A) (A) (A) (A) (A) (A) (A) (A)
 The electronic state of the initial guess is 1-A.
 Requested convergence on RMS density matrix=1.00D-08 within 128 cycles.
 Requested convergence on MAX density matrix=1.00D-06.
 Requested convergence on             energy=1.00D-06.
 No special actions if energy rises.
 Integral accuracy reduced to 1.0D-05 until final iterations.
 Initial convergence to 1.0D-05 achieved.  Increase integral accuracy.
 SCF Done:  E(RB3LYP) =  -1387.30449688     A.U. after   16 cycles
             Convg  =    0.3985D-08             -V/T =  2.0090

 **********************************************************************

            Population analysis using the SCF density.

 **********************************************************************

 Orbital symmetries:
       Occupied  (A) (A) (A) (A) (A) (A) (A) (A) (A) (A) (A) (A)
                 (A) (A) (A) (A) (A) (A) (A) (A) (A) (A) (A) (A)
                 (A) (A) (A) (A) (A) (A) (A) (A) (A) (A) (A) (A)
                 (A) (A) (A) (A) (A) (A) (A) (A) (A) (A) (A) (A)
                 (A) (A) (A) (A) (A) (A) (A) (A) (A) (A) (A) (A)
                 (A) (A) (A) (A) (A) (A) (A) (A) (A) (A) (A) (A)
                 (A) (A) (A) (A) (A) (A) (A) (A) (A) (A) (A) (A)
                 (A) (A) (A) (A) (A) (A) (A) (A) (A) (A) (A) (A)
                 (A) (A) (A) (A) (A) (A) (A) (A) (A) (A) (A) (A)
                 (A) (A) (A) (A) (A) (A) (A)
       Virtual   (A) (A) (A) (A) (A) (A) (A) (A) (A) (A) (A) (A)
                 (A) (A) (A) (A) (A) (A) (A) (A) (A) (A) (A) (A)
                 (A) (A) (A) (A) (A) (A) (A) (A) (A) (A) (A) (A)
                 (A) (A) (A) (A) (A) (A) (A) (A) (A) (A) (A) (A)
                 (A) (A) (A) (A) (A) (A) (A) (A) (A) (A) (A) (A)
                 (A) (A) (A) (A) (A) (A) (A) (A) (A) (A) (A) (A)
                 (A) (A) (A) (A) (A) (A) (A) (A) (A) (A) (A) (A)
                 (A) (A) (A) (A) (A) (A) (A) (A) (A) (A) (A) (A)
                 (A) (A) (A) (A) (A) (A) (A) (A) (A) (A) (A) (A)
                 (A) (A) (A) (A) (A) (A) (A) (A) (A) (A) (A) (A)
                 (A) (A) (A) (A) (A) (A) (A) (A) (A) (A) (A) (A)
                 (A) (A) (A) (A) (A) (A) (A) (A) (A) (A) (A) (A)
                 (A) (A) (A) (A) (A) (A) (A) (A) (A) (A) (A) (A)
                 (A) (A) (A) (A) (A) (A) (A) (A) (A) (A) (A) (A)
                 (A) (A) (A) (A) (A) (A) (A) (A) (A) (A) (A) (A)
                 (A) (A) (A) (A) (A) (A) (A) (A) (A) (A) (A) (A)
                 (A) (A) (A) (A) (A) (A) (A) (A) (A) (A) (A) (A)
                 (A) (A) (A) (A) (A) (A) (A) (A) (A) (A) (A) (A)
                 (A) (A) (A) (A) (A) (A) (A) (A) (A) (A) (A) (A)
                 (A) (A) (A) (A) (A) (A) (A) (A) (A) (A) (A) (A)
                 (A) (A) (A) (A) (A) (A) (A) (A) (A) (A) (A) (A)
                 (A) (A) (A) (A) (A) (A) (A) (A) (A) (A) (A) (A)
                 (A) (A) (A) (A) (A) (A) (A) (A) (A) (A) (A) (A)
                 (A) (A) (A) (A) (A) (A) (A) (A) (A) (A) (A) (A)
                 (A) (A) (A) (A) (A) (A) (A) (A) (A) (A) (A) (A)
                 (A) (A) (A) (A) (A) (A) (A) (A) (A) (A) (A) (A)
                 (A) (A) (A) (A) (A) (A) (A) (A) (A) (A) (A) (A)
                 (A) (A) (A) (A) (A) (A) (A) (A) (A) (A) (A) (A)
                 (A) (A) (A) (A) (A) (A) (A) (A) (A) (A) (A) (A)
                 (A) (A) (A) (A) (A) (A) (A) (A) (A) (A) (A) (A)
                 (A) (A) (A) (A) (A) (A) (A) (A) (A) (A) (A) (A)
                 (A) (A) (A) (A) (A) (A) (A) (A) (A) (A) (A) (A)
                 (A) (A) (A) (A) (A) (A) (A) (A) (A) (A) (A) (A)
                 (A) (A) (A) (A) (A) (A) (A) (A) (A) (A) (A) (A)
                 (A) (A) (A) (A) (A) (A) (A) (A) (A) (A)
 The electronic state is 1-A.
 Alpha  occ. eigenvalues --  -19.19819 -19.16958 -19.14751 -19.13619 -19.13048
 Alpha  occ. eigenvalues --  -10.27632 -10.26742 -10.26639 -10.26322 -10.26210
 Alpha  occ. eigenvalues --  -10.25727 -10.24479 -10.21712 -10.20431 -10.20110
 Alpha  occ. eigenvalues --  -10.20068 -10.19957 -10.19682 -10.19581 -10.19147
 Alpha  occ. eigenvalues --  -10.18904 -10.18879 -10.18637 -10.18634 -10.18452
 Alpha  occ. eigenvalues --  -10.18286 -10.18209 -10.17927 -10.17210 -10.16855
 Alpha  occ. eigenvalues --  -10.16704  -1.08710  -1.06381  -1.03340  -1.02126
 Alpha  occ. eigenvalues --   -1.02023  -0.87707  -0.84101  -0.82671  -0.81573
 Alpha  occ. eigenvalues --   -0.80413  -0.79925  -0.77173  -0.74244  -0.73593
 Alpha  occ. eigenvalues --   -0.72690  -0.71889  -0.69857  -0.69146  -0.68350
 Alpha  occ. eigenvalues --   -0.65633  -0.64153  -0.63398  -0.62380  -0.61130
 Alpha  occ. eigenvalues --   -0.59187  -0.58586  -0.57146  -0.55169  -0.53802
 Alpha  occ. eigenvalues --   -0.53039  -0.51811  -0.51124  -0.50281  -0.49727
 Alpha  occ. eigenvalues --   -0.48398  -0.47685  -0.46905  -0.46357  -0.45900
 Alpha  occ. eigenvalues --   -0.45248  -0.44985  -0.44416  -0.44016  -0.43208
 Alpha  occ. eigenvalues --   -0.43020  -0.42773  -0.42497  -0.41674  -0.41300
 Alpha  occ. eigenvalues --   -0.40935  -0.40711  -0.40279  -0.40159  -0.39587
 Alpha  occ. eigenvalues --   -0.39494  -0.39079  -0.38782  -0.38571  -0.37960
 Alpha  occ. eigenvalues --   -0.37809  -0.37745  -0.37002  -0.36485  -0.36171
 Alpha  occ. eigenvalues --   -0.35766  -0.35545  -0.35268  -0.34964  -0.34301
 Alpha  occ. eigenvalues --   -0.33965  -0.33568  -0.33463  -0.32716  -0.32391
 Alpha  occ. eigenvalues --   -0.31855  -0.31802  -0.31267  -0.28132  -0.27134
 Alpha  occ. eigenvalues --   -0.25245  -0.24940  -0.24302  -0.23661  -0.23261
 Alpha virt. eigenvalues --   -0.04851  -0.02313   0.00844   0.01647   0.03924
 Alpha virt. eigenvalues --    0.06570   0.07969   0.08532   0.09288   0.10087
 Alpha virt. eigenvalues --    0.10373   0.10665   0.11238   0.11691   0.12176
 Alpha virt. eigenvalues --    0.12811   0.13247   0.13353   0.13597   0.13990
 Alpha virt. eigenvalues --    0.14221   0.14553   0.15007   0.15325   0.15735
 Alpha virt. eigenvalues --    0.15812   0.16316   0.16733   0.16991   0.17223
 Alpha virt. eigenvalues --    0.17787   0.17889   0.18078   0.18698   0.19111
 Alpha virt. eigenvalues --    0.19258   0.19462   0.20009   0.20176   0.20361
 Alpha virt. eigenvalues --    0.21183   0.21362   0.21848   0.21948   0.22488
 Alpha virt. eigenvalues --    0.23437   0.23794   0.24250   0.24527   0.24677
 Alpha virt. eigenvalues --    0.25331   0.25801   0.26033   0.26250   0.26759
 Alpha virt. eigenvalues --    0.26971   0.27872   0.28269   0.29338   0.30116
 Alpha virt. eigenvalues --    0.30877   0.31443   0.32373   0.33722   0.34483
 Alpha virt. eigenvalues --    0.35136   0.36004   0.37426   0.38240   0.40467
 Alpha virt. eigenvalues --    0.41621   0.44888   0.46483   0.47536   0.48432
 Alpha virt. eigenvalues --    0.48982   0.49892   0.50793   0.51664   0.51911
 Alpha virt. eigenvalues --    0.52164   0.52363   0.52839   0.53013   0.53353
 Alpha virt. eigenvalues --    0.53501   0.54114   0.54793   0.55786   0.56062
 Alpha virt. eigenvalues --    0.56868   0.57123   0.57593   0.58053   0.58566
 Alpha virt. eigenvalues --    0.59283   0.59928   0.60299   0.61163   0.61721
 Alpha virt. eigenvalues --    0.62088   0.62419   0.63080   0.63223   0.63789
 Alpha virt. eigenvalues --    0.64592   0.65795   0.66407   0.66949   0.67336
 Alpha virt. eigenvalues --    0.67984   0.68171   0.68671   0.69295   0.69694
 Alpha virt. eigenvalues --    0.70214   0.71103   0.71515   0.72276   0.72328
 Alpha virt. eigenvalues --    0.73808   0.73874   0.74754   0.75255   0.76384
 Alpha virt. eigenvalues --    0.77070   0.77250   0.78029   0.78950   0.79637
 Alpha virt. eigenvalues --    0.79988   0.80737   0.80801   0.81745   0.82342
 Alpha virt. eigenvalues --    0.83249   0.83383   0.83825   0.84144   0.84742
 Alpha virt. eigenvalues --    0.84895   0.85312   0.86047   0.86447   0.86788
 Alpha virt. eigenvalues --    0.87327   0.87749   0.88188   0.88495   0.89039
 Alpha virt. eigenvalues --    0.89510   0.89634   0.90128   0.90532   0.90749
 Alpha virt. eigenvalues --    0.90979   0.91197   0.91342   0.91701   0.92096
 Alpha virt. eigenvalues --    0.92549   0.93238   0.93536   0.94398   0.95116
 Alpha virt. eigenvalues --    0.95247   0.95859   0.95940   0.96693   0.96887
 Alpha virt. eigenvalues --    0.97371   0.97868   0.98306   0.98847   0.99411
 Alpha virt. eigenvalues --    1.00345   1.01351   1.02325   1.02823   1.02991
 Alpha virt. eigenvalues --    1.03725   1.04930   1.06649   1.07342   1.07678
 Alpha virt. eigenvalues --    1.08859   1.09869   1.10313   1.11613   1.12449
 Alpha virt. eigenvalues --    1.14109   1.14897   1.15528   1.16242   1.16838
 Alpha virt. eigenvalues --    1.17598   1.18635   1.19221   1.20262   1.20817
 Alpha virt. eigenvalues --    1.21444   1.23493   1.24114   1.25961   1.27400
 Alpha virt. eigenvalues --    1.28730   1.30162   1.30879   1.31722   1.33305
 Alpha virt. eigenvalues --    1.33770   1.34981   1.37857   1.38558   1.39656
 Alpha virt. eigenvalues --    1.40880   1.42020   1.44168   1.45053   1.45433
 Alpha virt. eigenvalues --    1.47339   1.49977   1.50220   1.52238   1.53155
 Alpha virt. eigenvalues --    1.53730   1.54732   1.55746   1.57457   1.58296
 Alpha virt. eigenvalues --    1.58413   1.60276   1.62112   1.63091   1.63692
 Alpha virt. eigenvalues --    1.64214   1.65169   1.67785   1.68963   1.69529
 Alpha virt. eigenvalues --    1.70970   1.71680   1.72414   1.73167   1.74364
 Alpha virt. eigenvalues --    1.75258   1.75832   1.76394   1.77265   1.78162
 Alpha virt. eigenvalues --    1.78715   1.79623   1.80152   1.80707   1.81378
 Alpha virt. eigenvalues --    1.82003   1.82672   1.83945   1.84810   1.85301
 Alpha virt. eigenvalues --    1.86373   1.87694   1.87861   1.88299   1.88463
 Alpha virt. eigenvalues --    1.89237   1.90114   1.90542   1.91470   1.92055
 Alpha virt. eigenvalues --    1.92477   1.93196   1.93844   1.94087   1.95417
 Alpha virt. eigenvalues --    1.95975   1.96731   1.96981   1.97133   1.97947
 Alpha virt. eigenvalues --    1.98426   1.99035   1.99759   2.00318   2.00789
 Alpha virt. eigenvalues --    2.01262   2.02897   2.03819   2.04406   2.05496
 Alpha virt. eigenvalues --    2.05954   2.06829   2.07790   2.08803   2.09155
 Alpha virt. eigenvalues --    2.10420   2.10732   2.12033   2.12757   2.15205
 Alpha virt. eigenvalues --    2.15574   2.16181   2.17624   2.18036   2.18317
 Alpha virt. eigenvalues --    2.19292   2.20364   2.20998   2.21308   2.22905
 Alpha virt. eigenvalues --    2.23477   2.24909   2.25188   2.25944   2.27510
 Alpha virt. eigenvalues --    2.28237   2.28666   2.30263   2.31007   2.31681
 Alpha virt. eigenvalues --    2.32083   2.32995   2.33254   2.34053   2.34607
 Alpha virt. eigenvalues --    2.35510   2.36839   2.38608   2.39384   2.39674
 Alpha virt. eigenvalues --    2.40694   2.41457   2.42157   2.44350   2.44894
 Alpha virt. eigenvalues --    2.45492   2.46630   2.46900   2.47728   2.48733
 Alpha virt. eigenvalues --    2.49333   2.50282   2.52115   2.52594   2.53592
 Alpha virt. eigenvalues --    2.55752   2.57774   2.59343   2.59863   2.60474
 Alpha virt. eigenvalues --    2.61491   2.62956   2.64181   2.66088   2.66572
 Alpha virt. eigenvalues --    2.67675   2.68480   2.69439   2.71254   2.71946
 Alpha virt. eigenvalues --    2.73564   2.74303   2.75712   2.76435   2.77411
 Alpha virt. eigenvalues --    2.78743   2.79938   2.80569   2.81898   2.87693
 Alpha virt. eigenvalues --    2.88640   2.91037   2.93188   2.93753   2.95263
 Alpha virt. eigenvalues --    2.96213   2.98580   2.99653   3.00302   3.02642
 Alpha virt. eigenvalues --    3.04337   3.07294   3.11415   3.16156   3.21467
 Alpha virt. eigenvalues --    3.24012   3.27622   3.99708   4.10757   4.12789
 Alpha virt. eigenvalues --    4.14762   4.16193   4.17312   4.19044   4.19990
 Alpha virt. eigenvalues --    4.24143   4.24427   4.25755   4.26595   4.29225
 Alpha virt. eigenvalues --    4.32152   4.33113   4.38114   4.39558   4.43610
 Alpha virt. eigenvalues --    4.47111   4.50764   4.51872   4.56508   4.61314
 Alpha virt. eigenvalues --    4.65176   4.65630   4.69453   4.71876   4.77679
 Alpha virt. eigenvalues --    4.87840   4.94453   5.25409
          Condensed to atoms (all electrons):
 Mulliken atomic charges:
              1
     1  C   -0.197157
     2  C    0.195451
     3  C   -0.195670
     4  C    0.312371
     5  C   -0.018755
     6  C   -0.330639
     7  C    0.199555
     8  C    0.406046
     9  C   -0.097456
    10  C    0.397923
    11  C    0.428293
    12  O   -0.475022
    13  C   -0.140880
    14  C   -0.251278
    15  C   -0.458671
    16  O   -0.474754
    17  C   -0.151791
    18  C    0.305395
    19  O   -0.538854
    20  C   -0.306726
    21  O   -0.676144
    22  C   -0.333098
    23  C    0.106218
    24  O   -0.589473
    25  C    0.207777
    26  C   -0.518189
    27  C   -0.399732
    28  C   -0.460190
    29  C   -0.464478
    30  H    0.146716
    31  H    0.150339
    32  C   -0.519613
    33  H    0.126568
    34  H    0.164768
    35  H    0.180467
    36  H    0.138528
    37  H    0.150387
    38  H    0.142284
    39  H    0.162676
    40  H    0.163641
    41  H    0.147798
    42  H    0.162731
    43  H    0.149687
    44  H    0.427372
    45  H    0.186014
    46  H    0.153373
    47  H    0.130479
    48  H    0.169983
    49  H    0.155117
    50  H    0.162584
    51  H    0.140945
    52  H    0.136478
    53  H    0.149326
    54  H    0.141697
    55  H    0.184577
    56  H    0.158284
    57  H    0.158069
    58  H    0.150930
    59  H    0.158237
    60  H    0.155951
    61  H    0.155054
    62  C   -0.450631
    63  H    0.140976
    64  H    0.141964
    65  H    0.146173
 Sum of Mulliken atomic charges =   0.00000
 Mulliken charges with hydrogens summed into heavy atoms:
              1
     1  C   -0.070589
     2  C    0.195451
     3  C   -0.045331
     4  C    0.312371
     5  C   -0.018755
     6  C    0.014596
     7  C    0.199555
     8  C    0.406046
     9  C   -0.097456
    10  C    0.397923
    11  C    0.428293
    12  O   -0.475022
    13  C   -0.002352
    14  C    0.041393
    15  C    0.015443
    16  O   -0.474754
    17  C   -0.005075
    18  C    0.305395
    19  O   -0.538854
    20  C    0.005692
    21  O   -0.248771
    22  C    0.006289
    23  C    0.236698
    24  O   -0.589473
    25  C    0.207777
    26  C   -0.030506
    27  C   -0.122309
    28  C    0.015411
    29  C    0.002805
    32  C   -0.050372
    62  C   -0.021519
 Sum of Mulliken charges with hydrogens summed into heavy atoms =   0.00000
 Electronic spatial extent (au):  <R**2>=          11854.4590
 Charge=              0.0000 electrons
 Dipole moment (field-independent basis, Debye):
    X=             -2.6554    Y=              4.6432    Z=             -1.3717  Tot=              5.5219
 Quadrupole moment (field-independent basis, Debye-Ang):
   XX=           -177.4682   YY=           -182.8439   ZZ=           -188.0239
   XY=              3.5022   XZ=             -7.7098   YZ=              4.8278
 Traceless Quadrupole moment (field-independent basis, Debye-Ang):
   XX=              5.3105   YY=             -0.0653   ZZ=             -5.2452
   XY=              3.5022   XZ=             -7.7098   YZ=              4.8278
 Octapole moment (field-independent basis, Debye-Ang**2):
  XXX=             -2.9642  YYY=             49.4534  ZZZ=            -10.0066  XYY=             -0.4711
  XXY=            -12.5204  XXZ=            -12.0788  XZZ=            -30.4824  YZZ=              5.8562
  YYZ=            -26.4293  XYZ=             -3.5818
 Hexadecapole moment (field-independent basis, Debye-Ang**3):
 XXXX=          -9329.2366 YYYY=          -4038.6473 ZZZZ=          -2454.9561 XXXY=             19.0972
 XXXZ=             21.4472 YYYX=             -0.8936 YYYZ=             -2.3544 ZZZX=            -29.8966
 ZZZY=              6.4267 XXYY=          -2185.9231 XXZZ=          -1994.6204 YYZZ=          -1067.0051
 XXYZ=             62.4842 YYXZ=             12.6640 ZZXY=             54.3847
 N-N= 3.503325632175D+03 E-N=-1.023289527739D+04  KE= 1.374870026864D+03
 Calling FoFJK, ICntrl=      2127 FMM=T ISym2X=0 I1Cent= 0 IOpClX= 0 NMat=1 NMatS=1 NMatT=0.
 ***** Axes restored to original set *****
 -------------------------------------------------------------------
 Center     Atomic                   Forces (Hartrees/Bohr)
 Number     Number              X              Y              Z
 -------------------------------------------------------------------
      1        6           0.009513705    0.000230286    0.001020793
      2        6          -0.009395255   -0.006228185    0.004227778
      3        6          -0.007221244   -0.009915022   -0.003493953
      4        6           0.010652619   -0.006687891    0.011346746
      5        6          -0.008132098    0.004610074    0.005528293
      6        6          -0.008046038   -0.007973759   -0.006055883
      7        6           0.021592769    0.014060949    0.009407985
      8        6          -0.005918246   -0.001337084   -0.024110124
      9        6           0.004914966   -0.003459470    0.004261680
     10        6          -0.019131558    0.017507901    0.003021072
     11        6          -0.019773802   -0.007987384   -0.003480139
     12        8           0.009485268    0.012096282    0.002378590
     13        6          -0.000311284   -0.005354765   -0.004729609
     14        6           0.001457282   -0.001247129   -0.005788925
     15        6          -0.006832417    0.003725020    0.005291696
     16        8           0.009976721   -0.011542050   -0.001730695
     17        6           0.002705485   -0.006418085   -0.011756733
     18        6           0.029985390    0.005189649   -0.014683479
     19        8          -0.009848074   -0.008239956    0.033236070
     20        6           0.009521986   -0.001512929   -0.006066121
     21        8          -0.003880278    0.004650953    0.005720505
     22        6          -0.007881128   -0.001508187    0.007643001
     23        6           0.005043649   -0.005075026    0.009787520
     24        8          -0.005148899    0.004724083   -0.013628465
     25        6           0.006612751   -0.004720829    0.015202201
     26        6           0.000270632    0.001082527    0.001073984
     27        6          -0.001480603    0.002485456   -0.009799659
     28        6          -0.002007863    0.008335151    0.001802313
     29        6          -0.008648627   -0.000508672   -0.007248364
     30        1          -0.003147755    0.002039425    0.000293532
     31        1          -0.001583332    0.005553453    0.000624894
     32        6          -0.002461455   -0.000485976    0.000139545
     33        1           0.000848272   -0.000920171   -0.000004374
     34        1           0.000735884    0.005023563   -0.000359739
     35        1          -0.001840953    0.005557731   -0.000811101
     36        1           0.000957260   -0.002125652   -0.000458211
     37        1          -0.000514837   -0.001620250    0.003280089
     38        1           0.000193929   -0.000688212    0.001626641
     39        1           0.000951404   -0.001347224   -0.000478124
     40        1          -0.000146068    0.000505154    0.000544270
     41        1           0.000685883    0.000383897   -0.000447875
     42        1           0.000237672    0.000575690    0.001105676
     43        1          -0.002136348   -0.001533167   -0.001430658
     44        1          -0.003055149    0.001115336   -0.003933155
     45        1          -0.000218863    0.001348262   -0.005510537
     46        1           0.001098222    0.000499181   -0.003031538
     47        1          -0.000336135   -0.001223620    0.003476812
     48        1          -0.000031965    0.003035391   -0.002952453
     49        1          -0.000189425   -0.002514972   -0.000264014
     50        1          -0.001301380    0.002266371   -0.002057531
     51        1          -0.001690620   -0.000079562    0.000542401
     52        1           0.001084179   -0.001466161    0.000095698
     53        1           0.000504403   -0.003268839   -0.002295005
     54        1           0.000114531   -0.000761666   -0.000351258
     55        1           0.000496730   -0.004574998    0.003418376
     56        1           0.001428880   -0.001929143    0.002609278
     57        1           0.002031732    0.001567817    0.001721136
     58        1          -0.000125506    0.000756793    0.001302460
     59        1          -0.000610547    0.000874906   -0.000320377
     60        1           0.004074051   -0.001601444   -0.000102024
     61        1           0.004244682   -0.001190931    0.000045873
     62        6          -0.000342957    0.001960571   -0.003007220
     63        1           0.001200362    0.001723224   -0.000047665
     64        1           0.000401236    0.001461867   -0.001139178
     65        1           0.000368175    0.002101446   -0.000202721
 -------------------------------------------------------------------
 Cartesian Forces:  Max     0.033236070 RMS     0.006611958

 GradGradGradGradGradGradGradGradGradGradGradGradGradGradGradGradGradGrad
 Berny optimization.
 Internal  Forces:  Max     0.017437752 RMS     0.003341262
 Search for a local minimum.
 Step number   1 out of a maximum of  390
 All quantities printed in internal units (Hartrees-Bohrs-Radians)
 Mixed Optimization -- RFO/linear search
 Second derivative matrix not updated -- first step.
 ITU=  0
     Eigenvalues ---    0.00278   0.00295   0.00355   0.00402   0.00439
     Eigenvalues ---    0.00482   0.00483   0.00540   0.00591   0.00661
     Eigenvalues ---    0.00676   0.00697   0.00719   0.00738   0.00877
     Eigenvalues ---    0.01056   0.01163   0.01241   0.01291   0.01460
     Eigenvalues ---    0.01549   0.01720   0.01729   0.01818   0.02085
     Eigenvalues ---    0.02619   0.02827   0.02827   0.03122   0.03230
     Eigenvalues ---    0.03492   0.03707   0.03882   0.04041   0.04085
     Eigenvalues ---    0.04280   0.04354   0.04474   0.04553   0.04639
     Eigenvalues ---    0.04827   0.04839   0.05021   0.05131   0.05285
     Eigenvalues ---    0.05293   0.05324   0.05337   0.05442   0.05468
     Eigenvalues ---    0.05503   0.05536   0.05571   0.05572   0.05659
     Eigenvalues ---    0.05713   0.05863   0.05887   0.05918   0.06145
     Eigenvalues ---    0.06592   0.06827   0.07122   0.07147   0.07155
     Eigenvalues ---    0.07199   0.07268   0.07318   0.07464   0.07953
     Eigenvalues ---    0.08358   0.08441   0.08619   0.09280   0.09457
     Eigenvalues ---    0.09798   0.10257   0.11454   0.11845   0.12276
     Eigenvalues ---    0.12590   0.13294   0.14521   0.15358   0.15976
     Eigenvalues ---    0.16000   0.16000   0.16000   0.16000   0.16000
     Eigenvalues ---    0.16000   0.16000   0.16000   0.16000   0.16000
     Eigenvalues ---    0.16000   0.16000   0.16000   0.16000   0.16000
     Eigenvalues ---    0.16000   0.16000   0.16000   0.16000   0.16000
     Eigenvalues ---    0.16016   0.16523   0.16791   0.17447   0.18076
     Eigenvalues ---    0.19668   0.20865   0.21902   0.22254   0.22477
     Eigenvalues ---    0.23248   0.24777   0.24908   0.24995   0.24995
     Eigenvalues ---    0.24998   0.24999   0.25000   0.26091   0.26631
     Eigenvalues ---    0.26994   0.27259   0.27352   0.27780   0.28303
     Eigenvalues ---    0.28799   0.28909   0.28934   0.29327   0.29657
     Eigenvalues ---    0.29918   0.30192   0.30233   0.30607   0.31556
     Eigenvalues ---    0.31739   0.31837   0.32156   0.33000   0.33661
     Eigenvalues ---    0.33883   0.33938   0.33941   0.33996   0.34002
     Eigenvalues ---    0.34004   0.34005   0.34071   0.34074   0.34080
     Eigenvalues ---    0.34081   0.34154   0.34167   0.34189   0.34203
     Eigenvalues ---    0.34229   0.34261   0.34263   0.34264   0.34274
     Eigenvalues ---    0.34275   0.34276   0.34291   0.34292   0.34308
     Eigenvalues ---    0.34345   0.34370   0.34374   0.34385   0.34790
     Eigenvalues ---    0.35050   0.35290   0.35320   0.35527   0.36554
     Eigenvalues ---    0.37955   0.41031   0.44419   0.50198   0.53345
     Eigenvalues ---    0.54227   0.56277   0.90439   0.91443
 RFO step:  Lambda=-2.10351619D-02 EMin= 2.78432170D-03
 Linear search not attempted -- first point.
 Iteration  1 RMS(Cart)=  0.06728876 RMS(Int)=  0.00115049
 Iteration  2 RMS(Cart)=  0.00192366 RMS(Int)=  0.00023871
 Iteration  3 RMS(Cart)=  0.00000166 RMS(Int)=  0.00023871
 Iteration  4 RMS(Cart)=  0.00000000 RMS(Int)=  0.00023871
 Variable       Old X    -DE/DX   Delta X   Delta X   Delta X     New X
                                 (Linear)    (Quad)   (Total)
    R1        2.53374  -0.00213   0.00000  -0.00425  -0.00434   2.52941
    R2        2.82398   0.00864   0.00000   0.02534   0.02521   2.84919
    R3        2.05594   0.00036   0.00000   0.00098   0.00098   2.05692
    R4        2.84691   0.00478   0.00000   0.01217   0.01222   2.85913
    R5        2.83859   0.00482   0.00000   0.01406   0.01406   2.85265
    R6        2.94511   0.00664   0.00000   0.01673   0.01670   2.96181
    R7        2.89835   0.01032   0.00000   0.03507   0.03502   2.93337
    R8        2.07907  -0.00177   0.00000  -0.00494  -0.00494   2.07412
    R9        2.92719   0.01149   0.00000   0.03432   0.03425   2.96144
   R10        2.92229   0.00851   0.00000   0.03266   0.03297   2.95526
   R11        2.75255  -0.00557   0.00000  -0.01539  -0.01540   2.73715
   R12        2.91650   0.00490   0.00000   0.01797   0.01793   2.93442
   R13        2.90966   0.00533   0.00000   0.01045   0.01010   2.91976
   R14        2.91289   0.00463   0.00000   0.01515   0.01505   2.92794
   R15        2.07528  -0.00173   0.00000  -0.00482  -0.00482   2.07046
   R16        2.07429   0.00235   0.00000   0.00651   0.00651   2.08081
   R17        2.81558   0.01099   0.00000   0.02491   0.02464   2.84022
   R18        2.86575   0.01515   0.00000   0.05292   0.05241   2.91816
   R19        2.68493   0.00242   0.00000   0.00642   0.00647   2.69141
   R20        2.52569   0.01267   0.00000   0.02268   0.02279   2.54848
   R21        2.62164  -0.01744   0.00000  -0.04069  -0.04041   2.58123
   R22        2.80060   0.00385   0.00000   0.00730   0.00743   2.80803
   R23        2.79316   0.01372   0.00000   0.03718   0.03718   2.83034
   R24        2.32275  -0.01332   0.00000  -0.01423  -0.01423   2.30852
   R25        2.32731  -0.01514   0.00000  -0.01636  -0.01636   2.31095
   R26        2.88127   0.00145   0.00000   0.00454   0.00454   2.88581
   R27        2.90192   0.00518   0.00000   0.01671   0.01671   2.91863
   R28        2.88652   0.00751   0.00000   0.02365   0.02365   2.91017
   R29        2.07210  -0.00021   0.00000  -0.00059  -0.00059   2.07151
   R30        2.07323  -0.00025   0.00000  -0.00068  -0.00068   2.07255
   R31        2.07336   0.00016   0.00000   0.00044   0.00044   2.07381
   R32        2.87501   0.00859   0.00000   0.02657   0.02657   2.90157
   R33        2.07049  -0.00021   0.00000  -0.00059  -0.00059   2.06990
   R34        2.07071   0.00053   0.00000   0.00147   0.00147   2.07219
   R35        2.06751   0.00056   0.00000   0.00154   0.00154   2.06905
   R36        2.91119   0.00016   0.00000   0.01227   0.01245   2.92364
[...]
     54          1           0        1.262716    3.227690   -3.416913
     55          1           0        1.297111    1.459475   -3.247650
     56          1           0        1.488094    3.908175    0.313702
     57          1           0        2.805156    3.915896   -0.871706
     58          1           0        1.261933    4.696910   -1.261927
     59          1           0       -4.177976    2.818125    2.979967
     60          1           0       -3.490835    3.844994    1.708700
     61          1           0       -4.703888    2.638979    1.293079
     62          6           0        6.357993   -0.732041    0.341012
     63          1           0        6.340416    0.241867   -0.165045
     64          1           0        7.219700   -0.736498    1.018263
     65          1           0        6.539195   -1.498001   -0.421454
 ---------------------------------------------------------------------
 Rotational constants (GHZ):      0.2059193      0.1273412      0.1087915

 **********************************************************************

            Population analysis using the SCF density.

 **********************************************************************

 Orbital symmetries:
       Occupied  (A) (A) (A) (A) (A) (A) (A) (A) (A) (A) (A) (A)
                 (A) (A) (A) (A) (A) (A) (A) (A) (A) (A) (A) (A)
                 (A) (A) (A) (A) (A) (A) (A) (A) (A) (A) (A) (A)
                 (A) (A) (A) (A) (A) (A) (A) (A) (A) (A) (A) (A)
                 (A) (A) (A) (A) (A) (A) (A) (A) (A) (A) (A) (A)
                 (A) (A) (A) (A) (A) (A) (A) (A) (A) (A) (A) (A)
                 (A) (A) (A) (A) (A) (A) (A) (A) (A) (A) (A) (A)
                 (A) (A) (A) (A) (A) (A) (A) (A) (A) (A) (A) (A)
                 (A) (A) (A) (A) (A) (A) (A) (A) (A) (A) (A) (A)
                 (A) (A) (A) (A) (A) (A) (A)
       Virtual   (A) (A) (A) (A) (A) (A) (A) (A) (A) (A) (A) (A)
                 (A) (A) (A) (A) (A) (A) (A) (A) (A) (A) (A) (A)
                 (A) (A) (A) (A) (A) (A) (A) (A) (A) (A) (A) (A)
                 (A) (A) (A) (A) (A) (A) (A) (A) (A) (A) (A) (A)
                 (A) (A) (A) (A) (A) (A) (A) (A) (A) (A) (A) (A)
                 (A) (A) (A) (A) (A) (A) (A) (A) (A) (A) (A) (A)
                 (A) (A) (A) (A) (A) (A) (A) (A) (A) (A) (A) (A)
                 (A) (A) (A) (A) (A) (A) (A) (A) (A) (A) (A) (A)
                 (A) (A) (A) (A) (A) (A) (A) (A) (A) (A) (A) (A)
                 (A) (A) (A) (A) (A) (A) (A) (A) (A) (A) (A) (A)
                 (A) (A) (A) (A) (A) (A) (A) (A) (A) (A) (A) (A)
                 (A) (A) (A) (A) (A) (A) (A) (A) (A) (A) (A) (A)
                 (A) (A) (A) (A) (A) (A) (A) (A) (A) (A) (A) (A)
                 (A) (A) (A) (A) (A) (A) (A) (A) (A) (A) (A) (A)
                 (A) (A) (A) (A) (A) (A) (A) (A) (A) (A) (A) (A)
                 (A) (A) (A) (A) (A) (A) (A) (A) (A) (A) (A) (A)
                 (A) (A) (A) (A) (A) (A) (A) (A) (A) (A) (A) (A)
                 (A) (A) (A) (A) (A) (A) (A) (A) (A) (A) (A) (A)
                 (A) (A) (A) (A) (A) (A) (A) (A) (A) (A) (A) (A)
                 (A) (A) (A) (A) (A) (A) (A) (A) (A) (A) (A) (A)
                 (A) (A) (A) (A) (A) (A) (A) (A) (A) (A) (A) (A)
                 (A) (A) (A) (A) (A) (A) (A) (A) (A) (A) (A) (A)
                 (A) (A) (A) (A) (A) (A) (A) (A) (A) (A) (A) (A)
                 (A) (A) (A) (A) (A) (A) (A) (A) (A) (A) (A) (A)
                 (A) (A) (A) (A) (A) (A) (A) (A) (A) (A) (A) (A)
                 (A) (A) (A) (A) (A) (A) (A) (A) (A) (A) (A) (A)
                 (A) (A) (A) (A) (A) (A) (A) (A) (A) (A) (A) (A)
                 (A) (A) (A) (A) (A) (A) (A) (A) (A) (A) (A) (A)
                 (A) (A) (A) (A) (A) (A) (A) (A) (A) (A) (A) (A)
                 (A) (A) (A) (A) (A) (A) (A) (A) (A) (A) (A) (A)
                 (A) (A) (A) (A) (A) (A) (A) (A) (A) (A) (A) (A)
                 (A) (A) (A) (A) (A) (A) (A) (A) (A) (A) (A) (A)
                 (A) (A) (A) (A) (A) (A) (A) (A) (A) (A) (A) (A)
                 (A) (A) (A) (A) (A) (A) (A) (A) (A) (A) (A) (A)
                 (A) (A) (A) (A) (A) (A) (A) (A) (A) (A)
 The electronic state is 1-A.
 Alpha  occ. eigenvalues --  -19.19967 -19.16787 -19.15397 -19.13208 -19.12544
 Alpha  occ. eigenvalues --  -10.27133 -10.27066 -10.27010 -10.26391 -10.26191
 Alpha  occ. eigenvalues --  -10.26034 -10.24577 -10.21341 -10.20692 -10.20471
 Alpha  occ. eigenvalues --  -10.20383 -10.19874 -10.19628 -10.19616 -10.19456
 Alpha  occ. eigenvalues --  -10.19081 -10.19017 -10.18733 -10.18581 -10.18478
 Alpha  occ. eigenvalues --  -10.18258 -10.17915 -10.17386 -10.17041 -10.16812
 Alpha  occ. eigenvalues --  -10.16641  -1.09278  -1.06078  -1.03482  -1.02242
 Alpha  occ. eigenvalues --   -1.02174  -0.87031  -0.83962  -0.82072  -0.81212
 Alpha  occ. eigenvalues --   -0.79941  -0.79498  -0.76900  -0.73835  -0.73142
 Alpha  occ. eigenvalues --   -0.72378  -0.71472  -0.70378  -0.68724  -0.68139
 Alpha  occ. eigenvalues --   -0.64990  -0.64343  -0.63354  -0.62226  -0.60741
 Alpha  occ. eigenvalues --   -0.59043  -0.58396  -0.56679  -0.54737  -0.53458
 Alpha  occ. eigenvalues --   -0.53087  -0.51780  -0.51025  -0.50008  -0.49021
 Alpha  occ. eigenvalues --   -0.47944  -0.47395  -0.46931  -0.46568  -0.46051
 Alpha  occ. eigenvalues --   -0.45106  -0.44657  -0.44448  -0.44145  -0.43014
 Alpha  occ. eigenvalues --   -0.42905  -0.42500  -0.42292  -0.41231  -0.41018
 Alpha  occ. eigenvalues --   -0.40794  -0.40563  -0.40274  -0.40030  -0.39464
 Alpha  occ. eigenvalues --   -0.39231  -0.38980  -0.38732  -0.38500  -0.37876
 Alpha  occ. eigenvalues --   -0.37850  -0.37529  -0.37414  -0.36444  -0.36183
 Alpha  occ. eigenvalues --   -0.35880  -0.35608  -0.35353  -0.34619  -0.34453
 Alpha  occ. eigenvalues --   -0.33821  -0.33470  -0.33282  -0.32947  -0.32177
 Alpha  occ. eigenvalues --   -0.31739  -0.31390  -0.31088  -0.27643  -0.27607
 Alpha  occ. eigenvalues --   -0.25179  -0.24692  -0.24410  -0.23544  -0.22721
 Alpha virt. eigenvalues --   -0.04507  -0.01727   0.00960   0.01503   0.05212
 Alpha virt. eigenvalues --    0.07022   0.08147   0.08579   0.09645   0.10103
 Alpha virt. eigenvalues --    0.10315   0.10702   0.11129   0.12117   0.12901
 Alpha virt. eigenvalues --    0.13054   0.13206   0.13778   0.14122   0.14185
 Alpha virt. eigenvalues --    0.14517   0.14786   0.15183   0.15238   0.15630
 Alpha virt. eigenvalues --    0.15777   0.16212   0.16727   0.16814   0.17291
 Alpha virt. eigenvalues --    0.17581   0.17726   0.18310   0.18603   0.18799
 Alpha virt. eigenvalues --    0.19151   0.19450   0.19573   0.19795   0.20373
 Alpha virt. eigenvalues --    0.20780   0.21331   0.21617   0.22514   0.22575
 Alpha virt. eigenvalues --    0.23454   0.23554   0.23961   0.24341   0.24438
 Alpha virt. eigenvalues --    0.24999   0.25091   0.25595   0.25790   0.26187
 Alpha virt. eigenvalues --    0.26945   0.27328   0.27644   0.28745   0.29780
 Alpha virt. eigenvalues --    0.31043   0.31801   0.32882   0.33337   0.34304
 Alpha virt. eigenvalues --    0.35658   0.36067   0.37612   0.38368   0.39519
 Alpha virt. eigenvalues --    0.41341   0.43772   0.45453   0.47003   0.47887
 Alpha virt. eigenvalues --    0.48599   0.49781   0.50266   0.50951   0.51359
 Alpha virt. eigenvalues --    0.51553   0.52271   0.52467   0.52654   0.53421
 Alpha virt. eigenvalues --    0.53610   0.54106   0.54315   0.55094   0.56657
 Alpha virt. eigenvalues --    0.56737   0.56933   0.57490   0.57594   0.58202
 Alpha virt. eigenvalues --    0.59181   0.59772   0.60005   0.60720   0.61339
 Alpha virt. eigenvalues --    0.61502   0.61953   0.63654   0.64135   0.65096
 Alpha virt. eigenvalues --    0.65587   0.65934   0.66694   0.67332   0.67614
 Alpha virt. eigenvalues --    0.67955   0.68319   0.68699   0.69365   0.69831
 Alpha virt. eigenvalues --    0.70712   0.71168   0.72099   0.72343   0.72814
 Alpha virt. eigenvalues --    0.73728   0.74051   0.75061   0.75834   0.76022
 Alpha virt. eigenvalues --    0.76513   0.76627   0.77386   0.78120   0.78577
 Alpha virt. eigenvalues --    0.79232   0.80484   0.80768   0.81497   0.82053
 Alpha virt. eigenvalues --    0.83109   0.83551   0.83857   0.84343   0.84678
 Alpha virt. eigenvalues --    0.84971   0.85625   0.86137   0.86687   0.87627
 Alpha virt. eigenvalues --    0.87907   0.88215   0.88280   0.88418   0.88804
 Alpha virt. eigenvalues --    0.89106   0.89451   0.89824   0.90054   0.90242
 Alpha virt. eigenvalues --    0.90951   0.91251   0.91738   0.91874   0.92038
 Alpha virt. eigenvalues --    0.92107   0.92634   0.93254   0.93564   0.94225
 Alpha virt. eigenvalues --    0.94479   0.95157   0.95750   0.96497   0.96675
 Alpha virt. eigenvalues --    0.97453   0.98130   0.98802   0.99271   0.99499
 Alpha virt. eigenvalues --    1.00354   1.00956   1.01351   1.02447   1.04160
 Alpha virt. eigenvalues --    1.04335   1.04821   1.06188   1.08505   1.08879
 Alpha virt. eigenvalues --    1.09498   1.11008   1.11702   1.12911   1.13063
 Alpha virt. eigenvalues --    1.13960   1.14572   1.15471   1.15951   1.16927
 Alpha virt. eigenvalues --    1.17466   1.18331   1.20099   1.20553   1.21182
 Alpha virt. eigenvalues --    1.21959   1.22483   1.24836   1.25624   1.27161
 Alpha virt. eigenvalues --    1.28981   1.30017   1.31517   1.32138   1.33187
 Alpha virt. eigenvalues --    1.35318   1.36902   1.37275   1.38828   1.39684
 Alpha virt. eigenvalues --    1.41078   1.43147   1.44204   1.44785   1.46609
 Alpha virt. eigenvalues --    1.47645   1.49509   1.49746   1.51501   1.52661
 Alpha virt. eigenvalues --    1.53700   1.55133   1.55324   1.56454   1.57583
 Alpha virt. eigenvalues --    1.58870   1.60635   1.61699   1.63208   1.64706
 Alpha virt. eigenvalues --    1.65793   1.66773   1.67160   1.68996   1.70056
 Alpha virt. eigenvalues --    1.71156   1.71556   1.72227   1.72881   1.73113
 Alpha virt. eigenvalues --    1.74227   1.74638   1.75354   1.75824   1.77419
 Alpha virt. eigenvalues --    1.78266   1.78550   1.79641   1.80332   1.80382
 Alpha virt. eigenvalues --    1.82115   1.82390   1.83282   1.84095   1.84887
 Alpha virt. eigenvalues --    1.85151   1.86159   1.86372   1.86824   1.87649
 Alpha virt. eigenvalues --    1.88257   1.89061   1.90499   1.90835   1.91572
 Alpha virt. eigenvalues --    1.92202   1.92620   1.93030   1.93237   1.93738
 Alpha virt. eigenvalues --    1.94607   1.96626   1.97171   1.97919   1.98062
 Alpha virt. eigenvalues --    1.98121   1.98951   1.99282   2.00085   2.01361
 Alpha virt. eigenvalues --    2.01660   2.02158   2.03230   2.04218   2.04617
 Alpha virt. eigenvalues --    2.05522   2.05710   2.07383   2.08065   2.08439
 Alpha virt. eigenvalues --    2.10438   2.10684   2.11734   2.12061   2.12349
 Alpha virt. eigenvalues --    2.12759   2.14983   2.15647   2.16800   2.18233
 Alpha virt. eigenvalues --    2.18896   2.19823   2.20406   2.21265   2.22188
 Alpha virt. eigenvalues --    2.23387   2.24190   2.25630   2.26479   2.26684
 Alpha virt. eigenvalues --    2.27965   2.28541   2.29720   2.31092   2.31261
 Alpha virt. eigenvalues --    2.31370   2.32293   2.32743   2.33715   2.34306
 Alpha virt. eigenvalues --    2.35850   2.36897   2.37039   2.37564   2.38994
 Alpha virt. eigenvalues --    2.40196   2.41135   2.41340   2.42708   2.43455
 Alpha virt. eigenvalues --    2.44641   2.45538   2.46885   2.48563   2.49098
 Alpha virt. eigenvalues --    2.50334   2.50914   2.51198   2.53155   2.53841
 Alpha virt. eigenvalues --    2.55327   2.56214   2.57523   2.58729   2.60813
 Alpha virt. eigenvalues --    2.61109   2.62994   2.63804   2.64741   2.65131
 Alpha virt. eigenvalues --    2.66173   2.66758   2.67433   2.68559   2.69633
 Alpha virt. eigenvalues --    2.71791   2.74135   2.74863   2.76932   2.76985
 Alpha virt. eigenvalues --    2.78177   2.78307   2.79695   2.80510   2.84494
 Alpha virt. eigenvalues --    2.87286   2.88536   2.90673   2.94530   2.95231
 Alpha virt. eigenvalues --    2.96164   2.97901   2.99131   3.00484   3.02372
 Alpha virt. eigenvalues --    3.04611   3.06189   3.09904   3.13973   3.17648
 Alpha virt. eigenvalues --    3.24919   3.26182   3.98483   4.06576   4.09745
 Alpha virt. eigenvalues --    4.12354   4.14315   4.15885   4.16898   4.19442
 Alpha virt. eigenvalues --    4.23005   4.25562   4.27018   4.28542   4.29481
 Alpha virt. eigenvalues --    4.31646   4.34857   4.36821   4.42042   4.43421
 Alpha virt. eigenvalues --    4.45690   4.48219   4.54888   4.56216   4.59871
 Alpha virt. eigenvalues --    4.65353   4.66504   4.69230   4.72171   4.76689
 Alpha virt. eigenvalues --    4.87762   4.94005   5.21729
          Condensed to atoms (all electrons):
 Mulliken atomic charges:
              1
     1  C   -0.197327
     2  C    0.202858
     3  C   -0.202598
     4  C    0.326777
     5  C   -0.041343
     6  C   -0.325351
     7  C    0.194495
     8  C    0.398650
     9  C   -0.094733
    10  C    0.416755
    11  C    0.425061
    12  O   -0.456391
    13  C   -0.175162
    14  C   -0.240648
    15  C   -0.460432
    16  O   -0.477391
    17  C   -0.155843
    18  C    0.299576
    19  O   -0.535077
    20  C   -0.307559
    21  O   -0.666089
    22  C   -0.350332
    23  C    0.093081
    24  O   -0.589643
    25  C    0.224619
    26  C   -0.542875
    27  C   -0.403618
    28  C   -0.466380
    29  C   -0.460855
    30  H    0.147620
    31  H    0.147993
    32  C   -0.520832
    33  H    0.126197
    34  H    0.168906
    35  H    0.169918
    36  H    0.154346
    37  H    0.147550
    38  H    0.140132
    39  H    0.159742
    40  H    0.161572
    41  H    0.150742
    42  H    0.160442
    43  H    0.151611
    44  H    0.429859
    45  H    0.194929
    46  H    0.153220
    47  H    0.131044
    48  H    0.190570
    49  H    0.151429
    50  H    0.160483
    51  H    0.140058
    52  H    0.137156
    53  H    0.155892
    54  H    0.145870
    55  H    0.193872
    56  H    0.161821
    57  H    0.163006
    58  H    0.152487
    59  H    0.158156
    60  H    0.154346
    61  H    0.156644
    62  C   -0.452335
    63  H    0.136041
    64  H    0.143516
    65  H    0.143770
 Sum of Mulliken atomic charges =   0.00000
 Mulliken charges with hydrogens summed into heavy atoms:
              1
     1  C   -0.071130
     2  C    0.202858
     3  C   -0.054604
     4  C    0.326777
     5  C   -0.041343
     6  C    0.013473
     7  C    0.194495
     8  C    0.398650
     9  C   -0.094733
    10  C    0.416755
    11  C    0.425061
    12  O   -0.456391
    13  C   -0.020816
    14  C    0.047033
    15  C    0.011624
    16  O   -0.477391
    17  C   -0.008223
    18  C    0.299576
    19  O   -0.535077
    20  C    0.004494
    21  O   -0.236231
    22  C   -0.002183
    23  C    0.224125
    24  O   -0.589643
    25  C    0.224619
    26  C   -0.040393
    27  C   -0.126404
    28  C    0.029254
    29  C    0.016459
    32  C   -0.051686
    62  C   -0.029008
 Sum of Mulliken charges with hydrogens summed into heavy atoms =   0.00000
 Electronic spatial extent (au):  <R**2>=          11665.0752
 Charge=              0.0000 electrons
 Dipole moment (field-independent basis, Debye):
    X=             -2.7627    Y=              5.1715    Z=             -2.0586  Tot=              6.2141
 Quadrupole moment (field-independent basis, Debye-Ang):
   XX=           -178.6915   YY=           -179.7480   ZZ=           -189.3897
   XY=              3.4895   XZ=             -9.4715   YZ=              4.2411
 Traceless Quadrupole moment (field-independent basis, Debye-Ang):
   XX=              3.9182   YY=              2.8617   ZZ=             -6.7799
   XY=              3.4895   XZ=             -9.4715   YZ=              4.2411
 Octapole moment (field-independent basis, Debye-Ang**2):
  XXX=            -13.2648  YYY=             43.0534  ZZZ=             -8.7228  XYY=             -6.3557
  XXY=              0.9092  XXZ=             -8.9908  XZZ=            -22.5578  YZZ=             15.0170
  YYZ=            -37.4547  XYZ=             -0.3043
 Hexadecapole moment (field-independent basis, Debye-Ang**3):
 XXXX=          -8579.3742 YYYY=          -4415.4923 ZZZZ=          -2566.9400 XXXY=             -6.9584
 XXXZ=             -5.2967 YYYX=             18.4219 YYYZ=              2.4557 ZZZX=            -60.8998
 ZZZY=             -2.6443 XXYY=          -2143.0609 XXZZ=          -1893.3021 YYZZ=          -1148.8035
 XXYZ=             35.8947 YYXZ=             10.2737 ZZXY=             45.4319
 N-N= 3.508080653267D+03 E-N=-1.024232200907D+04  KE= 1.374456847935D+03
 1\1\GINC-B0801\FOpt\RB3LYP\6-31G(d)\C26H34O5\CAOFEI\24-Mar-2021\0\\# o
 pt rb3lyp/6-31g(d) geom=connectivity\\Title Card Required\\0,1\C,0.186
 7754926,-0.2301725695,-0.2407277143\C,1.5167008217,-0.2358163864,-0.08
 96051771\C,2.2719861972,1.072970379,-0.0414235789\C,1.4952375323,2.292
 6332575,0.5568219321\C,-0.0559143131,2.1530514829,0.6230912512\C,-0.61
 13210567,1.0439791075,-0.3223120034\C,2.0101591396,3.5202862088,-0.279
 944714\C,1.0036625781,4.014128607,-1.3004599488\C,-0.324859234,4.09801
 58614,-1.0547144729\C,-0.8003563394,3.4517794235,0.1963329575\C,-1.356
 0689701,4.6690250691,-1.9891233784\O,-2.4053371979,4.0709711578,-2.160
 0941013\C,-1.0692703669,6.0176141512,-2.6508877197\C,-2.0582487946,6.2
 931271908,-3.7955698953\C,-1.0895140594,7.1091045895,-1.5561102383\O,-
 1.796778127,3.8276801133,0.7904434187\C,3.1432360415,3.0301662034,-1.2
 071825865\C,3.0557872026,3.9926014912,-2.4142463973\O,1.6131330372,4.3
 546361051,-2.4476804499\C,2.7717660512,1.5533084233,-1.4308515959\O,2.
 356313225,4.6148574366,0.5470752882\C,-0.3368098306,1.795279836,2.0982
 003831\C,0.9350024583,2.1487539384,2.896458963\O,1.925996664,2.5300967
 639,1.9034738959\C,0.7925364738,3.2513868032,3.9266767982\C,0.25587578
 86,4.5886565507,3.4780235629\C,1.1281214523,3.0028610024,5.1968638379\
 C,3.8463527666,5.2826989745,-2.1841274146\C,3.3694945277,3.3855757971,
 -3.7779347399\H,4.1136098293,3.1150401836,-0.7086128577\H,3.1536567788
 ,0.9595692408,0.6033700367\C,2.3297938392,-1.5014464147,-0.0125547421\
 H,-0.3547631946,-1.1720166379,-0.3152092032\H,-1.6573382305,0.86488781
 77,-0.0503902138\H,-0.638901038,1.4152170679,-1.3562392426\H,-0.049765
 6146,5.972785025,-3.0562066542\H,-3.0670374463,6.3974831102,-3.3783705
 682\H,-2.0972597657,5.4087839062,-4.4430167193\H,-2.0894208735,7.19523
 92792,-1.1150608118\H,-0.3833960584,6.8805117583,-0.7514098745\H,-0.81
 54181996,8.0825385564,-1.9750109543\H,1.9595164558,1.4597387015,-2.161
 8226616\H,3.6081335278,0.9520853312,-1.8005934296\H,2.4762531508,4.213
 4421622,1.4337840808\H,-1.2201994261,2.3377810987,2.4416045353\H,-0.53
 99990289,0.7257828023,2.1932921173\H,1.3237290789,1.2572696867,3.40203
 86114\H,-0.7800675,4.5112516925,3.1274844424\H,0.28740557,5.3153902899
 ,4.2950179231\H,0.8300660166,4.9924870209,2.6367112478\H,1.0233589191,
 3.7557474438,5.9740442165\H,1.5134588512,2.0350641614,5.5093451801\H,3
 .6102794032,6.0118768427,-2.9660937865\H,4.9218974734,5.0753652947,-2.
 2221224569\H,3.6098714049,5.714174871,-1.2087488182\H,2.7399684223,2.5
 181849525,-3.9916868802\H,3.2083611665,4.1275516822,-4.5665350727\H,4.
 4185629388,3.0721248675,-3.8146849893\H,1.6973845922,-2.3913838829,-0.
 0915990025\H,3.0787036433,-1.5483096676,-0.8154266922\H,2.8847345304,-
 1.5593152988,0.9341345131\C,-1.7061357795,7.5245120032,-4.6375268263\H
 ,-0.6986451154,7.4415332076,-5.0652842538\H,-2.4097806601,7.6382513754
 ,-5.4700978611\H,-1.7419768217,8.4502434995,-4.052188494\\Version=EM64
 L-G09RevB.01\State=1-A\HF=-1387.3205204\RMSD=5.778e-09\RMSF=2.781e-06\
 Dipole=2.2175965,-1.0061013,-0.2169506\Quadrupole=-7.7264977,5.5980493
 ,2.1284484,-0.5474045,-5.6742284,-2.2782588\PG=C01 [X(C26H34O5)]\\@


 NEVER LOSE YOUR IGNORANCE, IT CAN'T BE REPLACED.
   -- ANDY CAPP
 Job cpu time:  0 days 14 hours 21 minutes 46.4 seconds.
 File lengths (MBytes):  RWF=    186 Int=      0 D2E=      0 Chk=     20 Scr=      1
 Normal termination of Gaussian 09 at Wed Mar 24 15:12:15 2021.
