 Entering Gaussian System, Link 0=g09
 Initial command:
 /public/software/g09/g09/l1.exe /tmp/Gau-18561.inp -scrdir=/tmp/
 Entering Link 1 = /public/software/g09/g09/l1.exe PID=     18562.
  
 Copyright (c) 1988,1990,1992,1993,1995,1998,2003,2009,2010,
            Gaussian, Inc.  All Rights Reserved.
  
 This is part of the Gaussian(R) 09 program.  It is based on
 the Gaussian(R) 03 system (copyright 2003, Gaussian, Inc.),
 the Gaussian(R) 98 system (copyright 1998, Gaussian, Inc.),
 the Gaussian(R) 94 system (copyright 1995, Gaussian, Inc.),
 the Gaussian 92(TM) system (copyright 1992, Gaussian, Inc.),
 the Gaussian 90(TM) system (copyright 1990, Gaussian, Inc.),
 the Gaussian 88(TM) system (copyright 1988, Gaussian, Inc.),
 the Gaussian 86(TM) system (copyright 1986, Carnegie Mellon
 University), and the Gaussian 82(TM) system (copyright 1983,
 Carnegie Mellon University). Gaussian is a federally registered
 trademark of Gaussian, Inc.
  
 This software contains proprietary and confidential information,
 including trade secrets, belonging to Gaussian, Inc.
  
 This software is provided under written license and may be
 used, copied, transmitted, or stored only in accord with that
 written license.
  
 The following legend is applicable only to US Government
 contracts under FAR:
  
                    RESTRICTED RIGHTS LEGEND
  
 Use, reproduction and disclosure by the US Government is
 subject to restrictions as set forth in subparagraphs (a)
 and (c) of the Commercial Computer Software - Restricted
 Rights clause in FAR 52.227-19.
  
 Gaussian, Inc.
 340 Quinnipiac St., Bldg. 40, Wallingford CT 06492
  
  
 ---------------------------------------------------------------
 Warning -- This program may not be used in any manner that
 competes with the business of Gaussian, Inc. or will provide
 assistance to any competitor of Gaussian, Inc.  The licensee
 of this program is prohibited from giving any competitor of
 Gaussian, Inc. access to this program.  By using this program,
 the user acknowledges that Gaussian, Inc. is engaged in the
 business of creating and licensing software in the field of
 computational chemistry and represents and warrants to the
 licensee that it is not a competitor of Gaussian, Inc. and that
 it will not use this program in any manner prohibited above.
 ---------------------------------------------------------------
  

 Cite this work as:
 Gaussian 09, Revision B.01,
 M. J. Frisch, G. W. Trucks, H. B. Schlegel, G. E. Scuseria, 
 M. A. Robb, J. R. Cheeseman, G. Scalmani, V. Barone, B. Mennucci, 
 G. A. Petersson, H. Nakatsuji, M. Caricato, X. Li, H. P. Hratchian, 
 A. F. Izmaylov, J. Bloino, G. Zheng, J. L. Sonnenberg, M. Hada, 
 M. Ehara, K. Toyota, R. Fukuda, J. Hasegawa, M. Ishida, T. Nakajima, 
 Y. Honda, O. Kitao, H. Nakai, T. Vreven, J. A. Montgomery, Jr., 
 J. E. Peralta, F. Ogliaro, M. Bearpark, J. J. Heyd, E. Brothers, 
 K. N. Kudin, V. N. Staroverov, T. Keith, R. Kobayashi, J. Normand, 
 K. Raghavachari, A. Rendell, J. C. Burant, S. S. Iyengar, J. Tomasi, 
 M. Cossi, N. Rega, J. M. Millam, M. Klene, J. E. Knox, J. B. Cross, 
 V. Bakken, C. Adamo, J. Jaramillo, R. Gomperts, R. E. Stratmann, 
 O. Yazyev, A. J. Austin, R. Cammi, C. Pomelli, J. W. Ochterski, 
 R. L. Martin, K. Morokuma, V. G. Zakrzewski, G. A. Voth, 
 P. Salvador, J. J. Dannenberg, S. Dapprich, A. D. Daniels, 
 O. Farkas, J. B. Foresman, J. V. Ortiz, J. Cioslowski, 
 and D. J. Fox, Gaussian, Inc., Wallingford CT, 2010.
 
 ******************************************
 Gaussian 09:  EM64L-G09RevB.01 12-Aug-2010
                24-Mar-2021 
 ******************************************
 %mem=600MW
 %nprocshared=10
 Will use up to   10 processors via shared memory.
 ---------------------------------------
 # opt rb3lyp/6-31g(d) geom=connectivity
 ---------------------------------------
 1/14=-1,18=20,19=15,26=3,38=1,57=2/1,3;
 2/9=110,12=2,17=6,18=5,40=1/2;
 3/5=1,6=6,7=1,11=2,16=1,25=1,30=1,71=1,74=-5,116=1/1,2,3;
 4//1;
 5/5=2,38=5/2;
 6/7=2,8=2,9=2,10=2,28=1/1;
 7//1,2,3,16;
 1/14=-1,18=20,19=15/3(2);
 2/9=110/2;
 99//99;
 2/9=110/2;
 3/5=1,6=6,7=1,11=2,16=1,25=1,30=1,71=1,74=-5,116=1/1,2,3;
 4/5=5,16=3/1;
 5/5=2,38=5/2;
 7//1,2,3,16;
 1/14=-1,18=20,19=15/3(-5);
 2/9=110/2;
 6/7=2,8=2,9=2,10=2,19=2,28=1/1;
 99/9=1/99;
 -------------------
 Title Card Required
 -------------------
 Symbolic Z-matrix:
 Charge =  0 Multiplicity = 1
 C                     0.        0.        0. 
 C                     1.3411    0.        0. 
 C                     2.1358    1.2839    0. 
 C                     1.339     2.5844   -0.3076 
 C                    -0.163     2.4697   -0.6194 
 C                    -0.8344    1.2384    0.0224 
 C                     2.1281    3.2746   -1.4389 
 C                     1.7419    2.8725   -2.8209 
 C                     0.5086    2.4756   -3.1478 
 C                    -0.5422    2.4983   -2.1081 
 C                     0.2259    1.9762   -4.5126 
 O                    -0.072     0.7918   -4.6677 
 C                     0.2715    2.9802   -5.6621 
 C                     0.7796    2.3315   -6.9592 
 C                    -1.1344    3.5441   -5.8631 
 O                    -1.724     2.5714   -2.4528 
 C                     3.5393    2.7295   -1.4041 
 C                     4.0149    2.9297   -2.8585 
 O                     2.8311    2.7646   -3.6809 
 C                     3.3065    1.2648   -0.9997 
 O                     2.0786    4.6873   -1.3451 
 C                    -0.7112    3.7504    0.017 
 C                     0.1557    3.9191    1.2543 
 O                     1.4581    3.4472    0.8688 
 C                     0.2139    5.3324    1.7925 
 C                    -1.1146    5.9586    2.1274 
 C                     1.3546    6.0077    2.019 
 C                     4.582     4.3354   -3.1138 
 C                     5.0604    1.9038   -3.3099 
 H                     4.1847    3.2395   -0.6798 
 H                     2.5749    1.3761    1.0045 
 C                     2.1091   -1.2924    0.0924 
 H                    -0.5427   -0.9429    0.0454 
 H                    -1.783     1.0138   -0.4816 
 H                    -1.1019    1.4253    1.0697 
 H                     0.9415    3.8073   -5.3991 
 H                     0.1768    1.451    -7.2126 
 H                     0.6676    3.041    -7.7883 
 H                    -1.4916    4.04     -4.9542 
 H                    -1.1482    4.2807   -6.6731 
 H                    -1.8502    2.7517   -6.1089 
 H                     3.0485    0.6425   -1.8653 
 H                     4.2106    0.8348   -0.5537 
 H                     2.1403    4.8922   -0.3908 
 H                    -1.7776    3.6897    0.263 
 H                    -0.588     4.604    -0.6633 
 H                    -0.1933    3.2617    2.0597 
 H                    -1.709     6.1117    1.2213 
 H                    -1.6768    5.3126    2.8098 
 H                    -1.0009    6.9326    2.6154 
 H                     2.3302    5.5725    1.8296 
 H                     1.3461    7.0159    2.4228 
 H                     4.9008    4.4376   -4.1581 
 H                     5.444     4.5387   -2.4702 
 H                     3.8391    5.1223   -2.9606 
 H                     5.3886    2.1113   -4.3354 
 H                     5.9398    1.9174   -2.6581 
 H                     4.6558    0.8874   -3.3381 
 H                     1.4492   -2.1534    0.2439 
 H                     2.6795   -1.4735   -0.8236 
 H                     2.8044   -1.2599    0.9376 
 C                     2.2447    1.9227   -6.8789 
 H                     2.407     1.1575   -6.1139 
 H                     2.5725    1.5102   -7.8384 
 H                     2.8799    2.7837   -6.6474 
 

 GradGradGradGradGradGradGradGradGradGradGradGradGradGradGradGradGradGrad
 Berny optimization.
 Initialization pass.
                           ----------------------------
                           !    Initial Parameters    !
                           ! (Angstroms and Degrees)  !
 --------------------------                            --------------------------
 ! Name  Definition              Value          Derivative Info.                !
 --------------------------------------------------------------------------------
 ! R1    R(1,2)                  1.3411         estimate D2E/DX2                !
 ! R2    R(1,6)                  1.4934         estimate D2E/DX2                !
 ! R3    R(1,33)                 1.0889         estimate D2E/DX2                !
 ! R4    R(2,3)                  1.5099         estimate D2E/DX2                !
 ! R5    R(2,32)                 1.5062         estimate D2E/DX2                !
 ! R6    R(3,4)                  1.5559         estimate D2E/DX2                !
 ! R7    R(3,20)                 1.5396         estimate D2E/DX2                !
 ! R8    R(3,31)                 1.1001         estimate D2E/DX2                !
 ! R9    R(4,5)                  1.5383         estimate D2E/DX2                !
 ! R10   R(4,7)                  1.5424         estimate D2E/DX2                !
 ! R11   R(4,24)                 1.4637         estimate D2E/DX2                !
 ! R12   R(5,6)                  1.5423         estimate D2E/DX2                !
 ! R13   R(5,10)                 1.5365         estimate D2E/DX2                !
 ! R14   R(5,22)                 1.5316         estimate D2E/DX2                !
 ! R15   R(6,34)                 1.0974         estimate D2E/DX2                !
 ! R16   R(6,35)                 1.097          estimate D2E/DX2                !
 ! R17   R(7,8)                  1.4902         estimate D2E/DX2                !
 ! R18   R(7,17)                 1.5132         estimate D2E/DX2                !
 ! R19   R(7,21)                 1.4167         estimate D2E/DX2                !
 ! R20   R(8,9)                  1.3362         estimate D2E/DX2                !
 ! R21   R(8,19)                 1.392          estimate D2E/DX2                !
 ! R22   R(9,10)                 1.4784         estimate D2E/DX2                !
 ! R23   R(9,11)                 1.4805         estimate D2E/DX2                !
 ! R24   R(10,16)                1.2332         estimate D2E/DX2                !
 ! R25   R(11,12)                1.2311         estimate D2E/DX2                !
 ! R26   R(11,13)                1.5269         estimate D2E/DX2                !
 ! R27   R(13,14)                1.5367         estimate D2E/DX2                !
 ! R28   R(13,15)                1.5281         estimate D2E/DX2                !
 ! R29   R(13,36)                1.0964         estimate D2E/DX2                !
 ! R30   R(14,37)                1.0967         estimate D2E/DX2                !
 ! R31   R(14,38)                1.097          estimate D2E/DX2                !
 ! R32   R(14,62)                1.5232         estimate D2E/DX2                !
 ! R33   R(15,39)                1.0953         estimate D2E/DX2                !
 ! R34   R(15,40)                1.0949         estimate D2E/DX2                !
 ! R35   R(15,41)                1.0958         estimate D2E/DX2                !
 ! R36   R(17,18)                1.5432         estimate D2E/DX2                !
 ! R37   R(17,20)                1.5372         estimate D2E/DX2                !
 ! R38   R(17,30)                1.096          estimate D2E/DX2                !
 ! R39   R(18,19)                1.4509         estimate D2E/DX2                !
 ! R40   R(18,28)                1.5371         estimate D2E/DX2                !
 ! R41   R(18,29)                1.5327         estimate D2E/DX2                !
 ! R42   R(20,42)                1.0969         estimate D2E/DX2                !
 ! R43   R(20,43)                1.096          estimate D2E/DX2                !
 ! R44   R(21,44)                0.978          estimate D2E/DX2                !
 ! R45   R(22,23)                1.5202         estimate D2E/DX2                !
 ! R46   R(22,45)                1.0961         estimate D2E/DX2                !
 ! R47   R(22,46)                1.0985         estimate D2E/DX2                !
 ! R48   R(23,24)                1.4379         estimate D2E/DX2                !
 ! R49   R(23,25)                1.5134         estimate D2E/DX2                !
 ! R50   R(23,47)                1.0967         estimate D2E/DX2                !
 ! R51   R(25,26)                1.5064         estimate D2E/DX2                !
 ! R52   R(25,27)                1.3448         estimate D2E/DX2                !
 ! R53   R(26,48)                1.0944         estimate D2E/DX2                !
 ! R54   R(26,49)                1.095          estimate D2E/DX2                !
 ! R55   R(26,50)                1.0953         estimate D2E/DX2                !
 ! R56   R(27,51)                1.0849         estimate D2E/DX2                !
 ! R57   R(27,52)                1.0861         estimate D2E/DX2                !
 ! R58   R(28,53)                1.0966         estimate D2E/DX2                !
 ! R59   R(28,54)                1.0948         estimate D2E/DX2                !
 ! R60   R(28,55)                1.093          estimate D2E/DX2                !
 ! R61   R(29,56)                1.0965         estimate D2E/DX2                !
 ! R62   R(29,57)                1.0947         estimate D2E/DX2                !
 ! R63   R(29,58)                1.0943         estimate D2E/DX2                !
 ! R64   R(32,59)                1.0953         estimate D2E/DX2                !
 ! R65   R(32,60)                1.0942         estimate D2E/DX2                !
 ! R66   R(32,61)                1.0949         estimate D2E/DX2                !
 ! R67   R(62,63)                1.0941         estimate D2E/DX2                !
 ! R68   R(62,64)                1.0946         estimate D2E/DX2                !
 ! R69   R(62,65)                1.0947         estimate D2E/DX2                !
 ! A1    A(2,1,6)              123.9667         estimate D2E/DX2                !
 ! A2    A(2,1,33)             119.8945         estimate D2E/DX2                !
 ! A3    A(6,1,33)             116.0383         estimate D2E/DX2                !
 ! A4    A(1,2,3)              121.7564         estimate D2E/DX2                !
 ! A5    A(1,2,32)             120.6565         estimate D2E/DX2                !
 ! A6    A(3,2,32)             117.4668         estimate D2E/DX2                !
 ! A7    A(2,3,4)              116.1798         estimate D2E/DX2                !
 ! A8    A(2,3,20)             112.9332         estimate D2E/DX2                !
 ! A9    A(2,3,31)             106.3393         estimate D2E/DX2                !
 ! A10   A(4,3,20)             105.7483         estimate D2E/DX2                !
 ! A11   A(4,3,31)             108.3524         estimate D2E/DX2                !
 ! A12   A(20,3,31)            106.8831         estimate D2E/DX2                !
 ! A13   A(3,4,5)              118.5405         estimate D2E/DX2                !
 ! A14   A(3,4,7)              104.8946         estimate D2E/DX2                !
 ! A15   A(3,4,24)             106.9858         estimate D2E/DX2                !
 ! A16   A(5,4,7)              112.5965         estimate D2E/DX2                !
 ! A17   A(5,4,24)             106.6365         estimate D2E/DX2                !
 ! A18   A(7,4,24)             106.5047         estimate D2E/DX2                !
 ! A19   A(4,5,6)              113.5921         estimate D2E/DX2                !
 ! A20   A(4,5,10)             115.8468         estimate D2E/DX2                !
 ! A21   A(4,5,22)             101.7074         estimate D2E/DX2                !
 ! A22   A(6,5,10)             108.0956         estimate D2E/DX2                !
 ! A23   A(6,5,22)             109.8066         estimate D2E/DX2                !
 ! A24   A(10,5,22)            107.3791         estimate D2E/DX2                !
 ! A25   A(1,6,5)              114.3649         estimate D2E/DX2                !
 ! A26   A(1,6,34)             107.8393         estimate D2E/DX2                !
 ! A27   A(1,6,35)             106.9686         estimate D2E/DX2                !
 ! A28   A(5,6,34)             110.3997         estimate D2E/DX2                !
 ! A29   A(5,6,35)             111.5565         estimate D2E/DX2                !
 ! A30   A(34,6,35)            105.2217         estimate D2E/DX2                !
 ! A31   A(4,7,8)              115.2699         estimate D2E/DX2                !
 ! A32   A(4,7,17)             107.401          estimate D2E/DX2                !
 ! A33   A(4,7,21)             112.3211         estimate D2E/DX2                !
 ! A34   A(8,7,17)              99.5445         estimate D2E/DX2                !
 ! A35   A(8,7,21)             108.7486         estimate D2E/DX2                !
 ! A36   A(17,7,21)            112.9718         estimate D2E/DX2                !
 ! A37   A(7,8,9)              123.1088         estimate D2E/DX2                !
 ! A38   A(7,8,19)             113.0223         estimate D2E/DX2                !
 ! A39   A(9,8,19)             123.2334         estimate D2E/DX2                !
 ! A40   A(8,9,10)             118.6475         estimate D2E/DX2                !
 ! A41   A(8,9,11)             120.1296         estimate D2E/DX2                !
 ! A42   A(10,9,11)            121.1811         estimate D2E/DX2                !
 ! A43   A(5,10,9)             120.3766         estimate D2E/DX2                !
 ! A44   A(5,10,16)            120.5591         estimate D2E/DX2                !
 ! A45   A(9,10,16)            119.0436         estimate D2E/DX2                !
 ! A46   A(9,11,12)            119.1341         estimate D2E/DX2                !
 ! A47   A(9,11,13)            117.8061         estimate D2E/DX2                !
 ! A48   A(12,11,13)           123.0231         estimate D2E/DX2                !
 ! A49   A(11,13,14)           111.577          estimate D2E/DX2                !
 ! A50   A(11,13,15)           108.3127         estimate D2E/DX2                !
 ! A51   A(11,13,36)           109.4927         estimate D2E/DX2                !
 ! A52   A(14,13,15)           110.424          estimate D2E/DX2                !
 ! A53   A(14,13,36)           108.5942         estimate D2E/DX2                !
 ! A54   A(15,13,36)           108.3847         estimate D2E/DX2                !
 ! A55   A(13,14,37)           110.6217         estimate D2E/DX2                !
 ! A56   A(13,14,38)           109.3401         estimate D2E/DX2                !
 ! A57   A(13,14,62)           112.7576         estimate D2E/DX2                !
 ! A58   A(37,14,38)           106.7688         estimate D2E/DX2                !
 ! A59   A(37,14,62)           108.9885         estimate D2E/DX2                !
 ! A60   A(38,14,62)           108.158          estimate D2E/DX2                !
 ! A61   A(13,15,39)           110.9767         estimate D2E/DX2                !
 ! A62   A(13,15,40)           110.9264         estimate D2E/DX2                !
 ! A63   A(13,15,41)           111.3256         estimate D2E/DX2                !
 ! A64   A(39,15,40)           107.7698         estimate D2E/DX2                !
 ! A65   A(39,15,41)           107.4892         estimate D2E/DX2                !
 ! A66   A(40,15,41)           108.1987         estimate D2E/DX2                !
 ! A67   A(7,17,18)            102.6505         estimate D2E/DX2                !
 ! A68   A(7,17,20)            102.008          estimate D2E/DX2                !
 ! A69   A(7,17,30)            113.3743         estimate D2E/DX2                !
 ! A70   A(18,17,20)           114.7214         estimate D2E/DX2                !
 ! A71   A(18,17,30)           112.3935         estimate D2E/DX2                !
 ! A72   A(20,17,30)           111.02           estimate D2E/DX2                !
 ! A73   A(17,18,19)           105.5447         estimate D2E/DX2                !
 ! A74   A(17,18,28)           112.8838         estimate D2E/DX2                !
 ! A75   A(17,18,29)           113.6369         estimate D2E/DX2                !
 ! A76   A(19,18,28)           108.1162         estimate D2E/DX2                !
 ! A77   A(19,18,29)           108.2675         estimate D2E/DX2                !
 ! A78   A(28,18,29)           108.1512         estimate D2E/DX2                !
 ! A79   A(8,19,18)            106.2259         estimate D2E/DX2                !
 ! A80   A(3,20,17)            105.9117         estimate D2E/DX2                !
 ! A81   A(3,20,42)            109.9141         estimate D2E/DX2                !
 ! A82   A(3,20,43)            111.5858         estimate D2E/DX2                !
 ! A83   A(17,20,42)           111.6291         estimate D2E/DX2                !
 ! A84   A(17,20,43)           110.8518         estimate D2E/DX2                !
 ! A85   A(42,20,43)           107.0126         estimate D2E/DX2                !
 ! A86   A(7,21,44)            105.7431         estimate D2E/DX2                !
 ! A87   A(5,22,23)            103.1136         estimate D2E/DX2                !
 ! A88   A(5,22,45)            113.2776         estimate D2E/DX2                !
 ! A89   A(5,22,46)            110.6289         estimate D2E/DX2                !
 ! A90   A(23,22,45)           112.2281         estimate D2E/DX2                !
 ! A91   A(23,22,46)           110.7251         estimate D2E/DX2                !
 ! A92   A(45,22,46)           106.9268         estimate D2E/DX2                !
 ! A93   A(22,23,24)           105.1826         estimate D2E/DX2                !
 ! A94   A(22,23,25)           114.5199         estimate D2E/DX2                !
 ! A95   A(22,23,47)           110.4723         estimate D2E/DX2                !
 ! A96   A(24,23,25)           111.5297         estimate D2E/DX2                !
 ! A97   A(24,23,47)           106.763          estimate D2E/DX2                !
 ! A98   A(25,23,47)           108.1116         estimate D2E/DX2                !
 ! A99   A(4,24,23)            109.586          estimate D2E/DX2                !
 ! A100  A(23,25,26)           115.6798         estimate D2E/DX2                !
 ! A101  A(23,25,27)           124.1556         estimate D2E/DX2                !
 ! A102  A(26,25,27)           120.1238         estimate D2E/DX2                !
 ! A103  A(25,26,48)           110.6751         estimate D2E/DX2                !
 ! A104  A(25,26,49)           110.2488         estimate D2E/DX2                !
 ! A105  A(25,26,50)           112.1575         estimate D2E/DX2                !
 ! A106  A(48,26,49)           108.6408         estimate D2E/DX2                !
 ! A107  A(48,26,50)           107.5084         estimate D2E/DX2                !
 ! A108  A(49,26,50)           107.4724         estimate D2E/DX2                !
 ! A109  A(25,27,51)           122.1349         estimate D2E/DX2                !
 ! A110  A(25,27,52)           121.4745         estimate D2E/DX2                !
 ! A111  A(51,27,52)           116.3791         estimate D2E/DX2                !
 ! A112  A(18,28,53)           110.5262         estimate D2E/DX2                !
 ! A113  A(18,28,54)           111.2637         estimate D2E/DX2                !
 ! A114  A(18,28,55)           112.6038         estimate D2E/DX2                !
 ! A115  A(53,28,54)           108.2771         estimate D2E/DX2                !
 ! A116  A(53,28,55)           105.3061         estimate D2E/DX2                !
 ! A117  A(54,28,55)           108.6071         estimate D2E/DX2                !
 ! A118  A(18,29,56)           110.6663         estimate D2E/DX2                !
 ! A119  A(18,29,57)           111.3638         estimate D2E/DX2                !
 ! A120  A(18,29,58)           112.1513         estimate D2E/DX2                !
 ! A121  A(56,29,57)           108.3033         estimate D2E/DX2                !
 ! A122  A(56,29,58)           105.2074         estimate D2E/DX2                !
 ! A123  A(57,29,58)           108.8983         estimate D2E/DX2                !
 ! A124  A(2,32,59)            112.0723         estimate D2E/DX2                !
 ! A125  A(2,32,60)            110.8837         estimate D2E/DX2                !
 ! A126  A(2,32,61)            110.2231         estimate D2E/DX2                !
 ! A127  A(59,32,60)           107.4431         estimate D2E/DX2                !
 ! A128  A(59,32,61)           107.4062         estimate D2E/DX2                !
 ! A129  A(60,32,61)           108.6689         estimate D2E/DX2                !
 ! A130  A(14,62,63)           111.5458         estimate D2E/DX2                !
 ! A131  A(14,62,64)           110.0577         estimate D2E/DX2                !
 ! A132  A(14,62,65)           110.9884         estimate D2E/DX2                !
 ! A133  A(63,62,64)           107.7521         estimate D2E/DX2                !
 ! A134  A(63,62,65)           108.4292         estimate D2E/DX2                !
 ! A135  A(64,62,65)           107.938          estimate D2E/DX2                !
 ! D1    D(6,1,2,3)             -1.0362         estimate D2E/DX2                !
 ! D2    D(6,1,2,32)           174.8744         estimate D2E/DX2                !
 ! D3    D(33,1,2,3)          -177.2434         estimate D2E/DX2                !
 ! D4    D(33,1,2,32)           -1.3328         estimate D2E/DX2                !
 ! D5    D(2,1,6,5)             28.2021         estimate D2E/DX2                !
 ! D6    D(2,1,6,34)           151.4129         estimate D2E/DX2                !
 ! D7    D(2,1,6,35)           -95.846          estimate D2E/DX2                !
 ! D8    D(33,1,6,5)          -155.4574         estimate D2E/DX2                !
 ! D9    D(33,1,6,34)          -32.2466         estimate D2E/DX2                !
 ! D10   D(33,1,6,35)           80.4945         estimate D2E/DX2                !
 ! D11   D(1,2,3,4)            -12.7266         estimate D2E/DX2                !
 ! D12   D(1,2,3,20)          -135.1655         estimate D2E/DX2                !
 ! D13   D(1,2,3,31)           107.9203         estimate D2E/DX2                !
 ! D14   D(32,2,3,4)           171.238          estimate D2E/DX2                !
 ! D15   D(32,2,3,20)           48.7991         estimate D2E/DX2                !
 ! D16   D(32,2,3,31)          -68.1151         estimate D2E/DX2                !
 ! D17   D(1,2,32,59)           -5.0706         estimate D2E/DX2                !
 ! D18   D(1,2,32,60)          114.9903         estimate D2E/DX2                !
 ! D19   D(1,2,32,61)         -124.6341         estimate D2E/DX2                !
 ! D20   D(3,2,32,59)          171.0107         estimate D2E/DX2                !
 ! D21   D(3,2,32,60)          -68.9283         estimate D2E/DX2                !
 ! D22   D(3,2,32,61)           51.4473         estimate D2E/DX2                !
 ! D23   D(2,3,4,5)             -1.5301         estimate D2E/DX2                !
 ! D24   D(2,3,4,7)           -128.2037         estimate D2E/DX2                !
 ! D25   D(2,3,4,24)           118.9273         estimate D2E/DX2                !
 ! D26   D(20,3,4,5)           124.6106         estimate D2E/DX2                !
 ! D27   D(20,3,4,7)            -2.0629         estimate D2E/DX2                !
 ! D28   D(20,3,4,24)         -114.9319         estimate D2E/DX2                !
 ! D29   D(31,3,4,5)          -121.0925         estimate D2E/DX2                !
 ! D30   D(31,3,4,7)           112.234          estimate D2E/DX2                !
 ! D31   D(31,3,4,24)           -0.635          estimate D2E/DX2                !
 ! D32   D(2,3,20,17)          152.1448         estimate D2E/DX2                !
 ! D33   D(2,3,20,42)           31.4187         estimate D2E/DX2                !
 ! D34   D(2,3,20,43)          -87.1355         estimate D2E/DX2                !
 ! D35   D(4,3,20,17)           24.0438         estimate D2E/DX2                !
 ! D36   D(4,3,20,42)          -96.6823         estimate D2E/DX2                !
 ! D37   D(4,3,20,43)          144.7635         estimate D2E/DX2                !
 ! D38   D(31,3,20,17)         -91.2628         estimate D2E/DX2                !
 ! D39   D(31,3,20,42)         148.0111         estimate D2E/DX2                !
 ! D40   D(31,3,20,43)          29.4569         estimate D2E/DX2                !
 ! D41   D(3,4,5,6)             26.9156         estimate D2E/DX2                !
 ! D42   D(3,4,5,10)           -99.1117         estimate D2E/DX2                !
 ! D43   D(3,4,5,22)           144.8271         estimate D2E/DX2                !
 ! D44   D(7,4,5,6)            149.8227         estimate D2E/DX2                !
 ! D45   D(7,4,5,10)            23.7955         estimate D2E/DX2                !
 ! D46   D(7,4,5,22)           -92.2657         estimate D2E/DX2                !
 ! D47   D(24,4,5,6)           -93.7207         estimate D2E/DX2                !
 ! D48   D(24,4,5,10)          140.252          estimate D2E/DX2                !
 ! D49   D(24,4,5,22)           24.1908         estimate D2E/DX2                !
 ! D50   D(3,4,7,8)             88.7411         estimate D2E/DX2                !
 ! D51   D(3,4,7,17)           -21.1416         estimate D2E/DX2                !
 ! D52   D(3,4,7,21)          -145.9472         estimate D2E/DX2                !
 ! D53   D(5,4,7,8)            -41.5143         estimate D2E/DX2                !
 ! D54   D(5,4,7,17)          -151.397          estimate D2E/DX2                !
 ! D55   D(5,4,7,21)            83.7975         estimate D2E/DX2                !
 ! D56   D(24,4,7,8)          -158.0496         estimate D2E/DX2                !
 ! D57   D(24,4,7,17)           92.0677         estimate D2E/DX2                !
 ! D58   D(24,4,7,21)          -32.7378         estimate D2E/DX2                !
 ! D59   D(3,4,24,23)         -130.6728         estimate D2E/DX2                !
 ! D60   D(5,4,24,23)           -2.8899         estimate D2E/DX2                !
 ! D61   D(7,4,24,23)          117.5607         estimate D2E/DX2                !
 ! D62   D(4,5,6,1)            -39.3254         estimate D2E/DX2                !
 ! D63   D(4,5,6,34)          -161.1436         estimate D2E/DX2                !
 ! D64   D(4,5,6,35)            82.2343         estimate D2E/DX2                !
 ! D65   D(10,5,6,1)            90.7048         estimate D2E/DX2                !
 ! D66   D(10,5,6,34)          -31.1134         estimate D2E/DX2                !
 ! D67   D(10,5,6,35)         -147.7355         estimate D2E/DX2                !
 ! D68   D(22,5,6,1)          -152.4437         estimate D2E/DX2                !
 ! D69   D(22,5,6,34)           85.7381         estimate D2E/DX2                !
 ! D70   D(22,5,6,35)          -30.884          estimate D2E/DX2                !
 ! D71   D(4,5,10,9)             6.9173         estimate D2E/DX2                !
 ! D72   D(4,5,10,16)         -171.4112         estimate D2E/DX2                !
 ! D73   D(6,5,10,9)          -121.849          estimate D2E/DX2                !
 ! D74   D(6,5,10,16)           59.8225         estimate D2E/DX2                !
 ! D75   D(22,5,10,9)          119.7394         estimate D2E/DX2                !
 ! D76   D(22,5,10,16)         -58.5891         estimate D2E/DX2                !
 ! D77   D(4,5,22,23)          -35.5302         estimate D2E/DX2                !
 ! D78   D(4,5,22,45)         -157.0682         estimate D2E/DX2                !
 ! D79   D(4,5,22,46)           82.8912         estimate D2E/DX2                !
 ! D80   D(6,5,22,23)           85.071          estimate D2E/DX2                !
 ! D81   D(6,5,22,45)          -36.467          estimate D2E/DX2                !
 ! D82   D(6,5,22,46)         -156.5077         estimate D2E/DX2                !
 ! D83   D(10,5,22,23)        -157.6292         estimate D2E/DX2                !
 ! D84   D(10,5,22,45)          80.8329         estimate D2E/DX2                !
 ! D85   D(10,5,22,46)         -39.2078         estimate D2E/DX2                !
 ! D86   D(4,7,8,9)             29.5622         estimate D2E/DX2                !
 ! D87   D(4,7,8,19)          -141.5564         estimate D2E/DX2                !
 ! D88   D(17,7,8,9)           144.0637         estimate D2E/DX2                !
 ! D89   D(17,7,8,19)          -27.0549         estimate D2E/DX2                !
 ! D90   D(21,7,8,9)           -97.5767         estimate D2E/DX2                !
 ! D91   D(21,7,8,19)           91.3047         estimate D2E/DX2                !
 ! D92   D(4,7,17,18)          154.6611         estimate D2E/DX2                !
 ! D93   D(4,7,17,20)           35.587          estimate D2E/DX2                !
 ! D94   D(4,7,17,30)          -83.8481         estimate D2E/DX2                !
 ! D95   D(8,7,17,18)           34.2414         estimate D2E/DX2                !
 ! D96   D(8,7,17,20)          -84.8328         estimate D2E/DX2                !
 ! D97   D(8,7,17,30)          155.7322         estimate D2E/DX2                !
 ! D98   D(21,7,17,18)         -80.9267         estimate D2E/DX2                !
 ! D99   D(21,7,17,20)         159.9991         estimate D2E/DX2                !
 ! D100  D(21,7,17,30)          40.5641         estimate D2E/DX2                !
 ! D101  D(4,7,21,44)           38.9201         estimate D2E/DX2                !
 ! D102  D(8,7,21,44)          167.7252         estimate D2E/DX2                !
 ! D103  D(17,7,21,44)         -82.7589         estimate D2E/DX2                !
 ! D104  D(7,8,9,10)             3.1219         estimate D2E/DX2                !
 ! D105  D(7,8,9,11)          -174.5563         estimate D2E/DX2                !
 ! D106  D(19,8,9,10)          173.3412         estimate D2E/DX2                !
 ! D107  D(19,8,9,11)           -4.337          estimate D2E/DX2                !
 ! D108  D(7,8,19,18)            6.9961         estimate D2E/DX2                !
 ! D109  D(9,8,19,18)         -164.1098         estimate D2E/DX2                !
 ! D110  D(8,9,10,5)           -22.0501         estimate D2E/DX2                !
 ! D111  D(8,9,10,16)          156.3035         estimate D2E/DX2                !
 ! D112  D(11,9,10,5)          155.6027         estimate D2E/DX2                !
 ! D113  D(11,9,10,16)         -26.0437         estimate D2E/DX2                !
 ! D114  D(8,9,11,12)          113.0306         estimate D2E/DX2                !
 ! D115  D(8,9,11,13)          -69.1049         estimate D2E/DX2                !
 ! D116  D(10,9,11,12)         -64.5877         estimate D2E/DX2                !
 ! D117  D(10,9,11,13)         113.2768         estimate D2E/DX2                !
 ! D118  D(9,11,13,14)         146.4866         estimate D2E/DX2                !
 ! D119  D(9,11,13,15)         -91.7667         estimate D2E/DX2                !
 ! D120  D(9,11,13,36)          26.2398         estimate D2E/DX2                !
 ! D121  D(12,11,13,14)        -35.7381         estimate D2E/DX2                !
 ! D122  D(12,11,13,15)         86.0085         estimate D2E/DX2                !
 ! D123  D(12,11,13,36)       -155.9849         estimate D2E/DX2                !
 ! D124  D(11,13,14,37)         54.9454         estimate D2E/DX2                !
 ! D125  D(11,13,14,38)        172.2535         estimate D2E/DX2                !
 ! D126  D(11,13,14,62)        -67.3891         estimate D2E/DX2                !
 ! D127  D(15,13,14,37)        -65.5724         estimate D2E/DX2                !
 ! D128  D(15,13,14,38)         51.7357         estimate D2E/DX2                !
 ! D129  D(15,13,14,62)        172.0931         estimate D2E/DX2                !
 ! D130  D(36,13,14,37)        175.7185         estimate D2E/DX2                !
 ! D131  D(36,13,14,38)        -66.9735         estimate D2E/DX2                !
 ! D132  D(36,13,14,62)         53.3839         estimate D2E/DX2                !
 ! D133  D(11,13,15,39)         59.5496         estimate D2E/DX2                !
 ! D134  D(11,13,15,40)        179.3213         estimate D2E/DX2                !
 ! D135  D(11,13,15,41)        -60.1328         estimate D2E/DX2                !
 ! D136  D(14,13,15,39)       -177.9981         estimate D2E/DX2                !
 ! D137  D(14,13,15,40)        -58.2265         estimate D2E/DX2                !
 ! D138  D(14,13,15,41)         62.3195         estimate D2E/DX2                !
 ! D139  D(36,13,15,39)        -59.1613         estimate D2E/DX2                !
 ! D140  D(36,13,15,40)         60.6103         estimate D2E/DX2                !
 ! D141  D(36,13,15,41)       -178.8437         estimate D2E/DX2                !
 ! D142  D(13,14,62,63)         63.1077         estimate D2E/DX2                !
 ! D143  D(13,14,62,64)       -177.3459         estimate D2E/DX2                !
 ! D144  D(13,14,62,65)        -57.9236         estimate D2E/DX2                !
 ! D145  D(37,14,62,63)        -60.1399         estimate D2E/DX2                !
 ! D146  D(37,14,62,64)         59.4066         estimate D2E/DX2                !
 ! D147  D(37,14,62,65)        178.8288         estimate D2E/DX2                !
 ! D148  D(38,14,62,63)       -175.859          estimate D2E/DX2                !
 ! D149  D(38,14,62,64)        -56.3126         estimate D2E/DX2                !
 ! D150  D(38,14,62,65)         63.1097         estimate D2E/DX2                !
 ! D151  D(7,17,18,19)         -32.6312         estimate D2E/DX2                !
 ! D152  D(7,17,18,28)          85.256          estimate D2E/DX2                !
 ! D153  D(7,17,18,29)        -151.1137         estimate D2E/DX2                !
 ! D154  D(20,17,18,19)         77.1284         estimate D2E/DX2                !
 ! D155  D(20,17,18,28)       -164.9844         estimate D2E/DX2                !
 ! D156  D(20,17,18,29)        -41.3541         estimate D2E/DX2                !
 ! D157  D(30,17,18,19)       -154.7891         estimate D2E/DX2                !
 ! D158  D(30,17,18,28)        -36.9019         estimate D2E/DX2                !
 ! D159  D(30,17,18,29)         86.7284         estimate D2E/DX2                !
 ! D160  D(7,17,20,3)          -36.5441         estimate D2E/DX2                !
 ! D161  D(7,17,20,42)          83.0628         estimate D2E/DX2                !
 ! D162  D(7,17,20,43)        -157.7389         estimate D2E/DX2                !
 ! D163  D(18,17,20,3)        -146.6905         estimate D2E/DX2                !
 ! D164  D(18,17,20,42)        -27.0837         estimate D2E/DX2                !
 ! D165  D(18,17,20,43)         92.1146         estimate D2E/DX2                !
 ! D166  D(30,17,20,3)          84.5378         estimate D2E/DX2                !
 ! D167  D(30,17,20,42)       -155.8554         estimate D2E/DX2                !
 ! D168  D(30,17,20,43)        -36.6571         estimate D2E/DX2                !
 ! D169  D(17,18,19,8)          16.2165         estimate D2E/DX2                !
 ! D170  D(28,18,19,8)        -104.8268         estimate D2E/DX2                !
 ! D171  D(29,18,19,8)         138.2264         estimate D2E/DX2                !
 ! D172  D(17,18,28,53)       -179.5912         estimate D2E/DX2                !
 ! D173  D(17,18,28,54)         60.0749         estimate D2E/DX2                !
 ! D174  D(17,18,28,55)        -62.1264         estimate D2E/DX2                !
 ! D175  D(19,18,28,53)        -63.2225         estimate D2E/DX2                !
 ! D176  D(19,18,28,54)        176.4436         estimate D2E/DX2                !
 ! D177  D(19,18,28,55)         54.2423         estimate D2E/DX2                !
 ! D178  D(29,18,28,53)         53.7994         estimate D2E/DX2                !
 ! D179  D(29,18,28,54)        -66.5345         estimate D2E/DX2                !
 ! D180  D(29,18,28,55)        171.2642         estimate D2E/DX2                !
 ! D181  D(17,18,29,56)       -178.0585         estimate D2E/DX2                !
 ! D182  D(17,18,29,57)        -57.5307         estimate D2E/DX2                !
 ! D183  D(17,18,29,58)         64.796          estimate D2E/DX2                !
 ! D184  D(19,18,29,56)         65.0359         estimate D2E/DX2                !
 ! D185  D(19,18,29,57)       -174.4364         estimate D2E/DX2                !
 ! D186  D(19,18,29,58)        -52.1097         estimate D2E/DX2                !
 ! D187  D(28,18,29,56)        -51.8883         estimate D2E/DX2                !
 ! D188  D(28,18,29,57)         68.6394         estimate D2E/DX2                !
 ! D189  D(28,18,29,58)       -169.0338         estimate D2E/DX2                !
 ! D190  D(5,22,23,24)          35.052          estimate D2E/DX2                !
 ! D191  D(5,22,23,25)         157.8536         estimate D2E/DX2                !
 ! D192  D(5,22,23,47)         -79.8017         estimate D2E/DX2                !
 ! D193  D(45,22,23,24)        157.2974         estimate D2E/DX2                !
 ! D194  D(45,22,23,25)        -79.901          estimate D2E/DX2                !
 ! D195  D(45,22,23,47)         42.4436         estimate D2E/DX2                !
 ! D196  D(46,22,23,24)        -83.3021         estimate D2E/DX2                !
 ! D197  D(46,22,23,25)         39.4995         estimate D2E/DX2                !
 ! D198  D(46,22,23,47)        161.8442         estimate D2E/DX2                !
 ! D199  D(22,23,24,4)         -20.1214         estimate D2E/DX2                !
 ! D200  D(25,23,24,4)        -144.8249         estimate D2E/DX2                !
 ! D201  D(47,23,24,4)          97.2804         estimate D2E/DX2                !
 ! D202  D(22,23,25,26)         56.2382         estimate D2E/DX2                !
 ! D203  D(22,23,25,27)       -126.0927         estimate D2E/DX2                !
 ! D204  D(24,23,25,26)        175.5394         estimate D2E/DX2                !
 ! D205  D(24,23,25,27)         -6.7915         estimate D2E/DX2                !
 ! D206  D(47,23,25,26)        -67.38           estimate D2E/DX2                !
 ! D207  D(47,23,25,27)        110.2891         estimate D2E/DX2                !
 ! D208  D(23,25,26,48)        -66.3924         estimate D2E/DX2                !
 ! D209  D(23,25,26,49)         53.8297         estimate D2E/DX2                !
 ! D210  D(23,25,26,50)        173.55           estimate D2E/DX2                !
 ! D211  D(27,25,26,48)        115.8376         estimate D2E/DX2                !
 ! D212  D(27,25,26,49)       -123.9403         estimate D2E/DX2                !
 ! D213  D(27,25,26,50)         -4.22           estimate D2E/DX2                !
 ! D214  D(23,25,27,51)         -0.2156         estimate D2E/DX2                !
 ! D215  D(23,25,27,52)       -178.932          estimate D2E/DX2                !
 ! D216  D(26,25,27,51)        177.3557         estimate D2E/DX2                !
 ! D217  D(26,25,27,52)         -1.3607         estimate D2E/DX2                !
 --------------------------------------------------------------------------------
 Trust Radius=3.00D-01 FncErr=1.00D-07 GrdErr=1.00D-06
 Number of steps in this run=    390 maximum allowed number of steps=    390.
 GradGradGradGradGradGradGradGradGradGradGradGradGradGradGradGradGradGrad

 Stoichiometry    C26H34O5
 Framework group  C1[X(C26H34O5)]
 Deg. of freedom   189
 Full point group                 C1      NOp   1
 Largest Abelian subgroup         C1      NOp   1
 Largest concise Abelian subgroup C1      NOp   1
                         Standard orientation:                         
 ---------------------------------------------------------------------
 Center     Atomic      Atomic             Coordinates (Angstroms)
 Number     Number       Type             X           Y           Z
 ---------------------------------------------------------------------
      1          6           0       -1.369145    0.027020    3.207578
      2          6           0       -1.143725    1.277199    2.777709
      3          6           0       -1.303523    1.659223    1.325652
      4          6           0       -1.439657    0.482259    0.317172
      5          6           0       -1.366920   -0.957570    0.853810
      6          6           0       -1.813853   -1.091742    2.323856
      7          6           0       -0.379903    0.764785   -0.767262
      8          6           0        0.972295    0.199286   -0.497950
      9          6           0        1.169160   -0.914670    0.213225
     10          6           0       -0.009644   -1.661448    0.701504
     11          6           0        2.544495   -1.352539    0.542957
     12          8           0        2.913790   -1.334923    1.717229
     13          6           0        3.425024   -1.854987   -0.598821
     14          6           0        4.902478   -1.498375   -0.372095
     15          6           0        3.252603   -3.369389   -0.707432
     16          8           0        0.105550   -2.862834    0.954908
     17          6           0       -0.051515    2.240649   -0.705478
     18          6           0        1.377338    2.293553   -1.286111
     19          8           0        2.004703    1.047001   -0.889245
     20          6           0       -0.143745    2.525966    0.802225
     21          8           0       -0.800977    0.345422   -2.053264
     22          6           0       -2.361967   -1.680139   -0.059149
     23          6           0       -3.441277   -0.634584   -0.288906
     24          8           0       -2.744867    0.622733   -0.330298
     25          6           0       -4.270531   -0.851506   -1.536202
     26          6           0       -4.958064   -2.187912   -1.638741
     27          6           0       -4.450300    0.075234   -2.493994
     28          6           0        1.396266    2.370652   -2.821191
     29          6           0        2.220351    3.451050   -0.739456
     30          1           0       -0.754117    2.866355   -1.267701
     31          1           0       -2.214022    2.273818    1.265708
     32          6           0       -0.807922    2.375557    3.752135
     33          1           0       -1.288444   -0.204943    4.268392
     34          1           0       -1.438680   -2.029182    2.753687
     35          1           0       -2.905804   -1.152464    2.409193
     36          1           0        3.096450   -1.401062   -1.541241
     37          1           0        5.245344   -1.872524    0.600178
     38          1           0        5.516572   -1.991747   -1.135516
     39          1           0        2.207683   -3.631914   -0.904487
     40          1           0        3.858696   -3.774399   -1.524432
     41          1           0        3.549057   -3.871750    0.220164
     42          1           0        0.785130    2.260282    1.321539
     43          1           0       -0.321202    3.591518    0.987488
     44          1           0       -1.752527    0.565162   -2.105674
     45          1           0       -2.763238   -2.600700    0.380121
     46          1           0       -1.883954   -1.960304   -1.007638
     47          1           0       -4.122038   -0.590968    0.569760
     48          1           0       -4.224078   -2.993198   -1.741440
     49          1           0       -5.559318   -2.374518   -0.742791
     50          1           0       -5.629470   -2.241876   -2.502484
     51          1           0       -4.005251    1.062752   -2.432300
     52          1           0       -5.069318   -0.121569   -3.364441
     53          1           0        2.427902    2.399094   -3.192080
     54          1           0        0.877538    3.265423   -3.180222
     55          1           0        0.944679    1.493446   -3.291469
     56          1           0        3.211478    3.463152   -1.208436
     57          1           0        1.740032    4.416941   -0.925793
     58          1           0        2.411636    3.351437    0.333416
     59          1           0       -0.867378    2.035854    4.791754
     60          1           0        0.207709    2.747221    3.586099
     61          1           0       -1.508961    3.209027    3.639294
     62          6           0        5.165151    0.000109   -0.447142
     63          1           0        4.633705    0.541195    0.341457
     64          1           0        6.234593    0.200283   -0.326842
     65          1           0        4.853187    0.404874   -1.415252
 ---------------------------------------------------------------------
 Rotational constants (GHZ):      0.2083047      0.1258565      0.1187531
 Standard basis: 6-31G(d) (6D, 7F)
 There are   533 symmetry adapted basis functions of A   symmetry.
 Integral buffers will be    131072 words long.
 Raffenetti 2 integral format.
 Two-electron integral symmetry is turned on.
   533 basis functions,  1004 primitive gaussians,   533 cartesian basis functions
   115 alpha electrons      115 beta electrons
       nuclear repulsion energy      3532.3780169580 Hartrees.
 NAtoms=   65 NActive=   65 NUniq=   65 SFac= 1.00D+00 NAtFMM=   50 NAOKFM=T Big=T
 One-electron integrals computed using PRISM.
 NBasis=   533 RedAO= T  NBF=   533
 NBsUse=   533 1.00D-06 NBFU=   533
 Harris functional with IExCor=  402 diagonalized for initial guess.
 ExpMin= 1.61D-01 ExpMax= 5.48D+03 ExpMxC= 8.25D+02 IAcc=1 IRadAn=         1 AccDes= 0.00D+00
 HarFok:  IExCor=  402 AccDes= 0.00D+00 IRadAn=         1 IDoV= 1
 ScaDFX=  1.000000  1.000000  1.000000  1.000000
 FoFCou: FMM=F IPFlag=           0 FMFlag=      100000 FMFlg1=        2001
         NFxFlg=           0 DoJE=T BraDBF=F KetDBF=T FulRan=T
         Omega=  0.000000  0.000000  1.000000  0.000000  0.000000 ICntrl=     500 IOpCl=  0
         NMat0=    1 NMatS0=    1 NMatT0=    0 NMatD0=    1 NMtDS0=    0 NMtDT0=    0
         I1Cent=           4 NGrid=           0.
 Petite list used in FoFCou.
 Initial guess orbital symmetries:
       Occupied  (A) (A) (A) (A) (A) (A) (A) (A) (A) (A) (A) (A)
                 (A) (A) (A) (A) (A) (A) (A) (A) (A) (A) (A) (A)
                 (A) (A) (A) (A) (A) (A) (A) (A) (A) (A) (A) (A)
                 (A) (A) (A) (A) (A) (A) (A) (A) (A) (A) (A) (A)
                 (A) (A) (A) (A) (A) (A) (A) (A) (A) (A) (A) (A)
                 (A) (A) (A) (A) (A) (A) (A) (A) (A) (A) (A) (A)
                 (A) (A) (A) (A) (A) (A) (A) (A) (A) (A) (A) (A)
                 (A) (A) (A) (A) (A) (A) (A) (A) (A) (A) (A) (A)
                 (A) (A) (A) (A) (A) (A) (A) (A) (A) (A) (A) (A)
                 (A) (A) (A) (A) (A) (A) (A)
       Virtual   (A) (A) (A) (A) (A) (A) (A) (A) (A) (A) (A) (A)
                 (A) (A) (A) (A) (A) (A) (A) (A) (A) (A) (A) (A)
                 (A) (A) (A) (A) (A) (A) (A) (A) (A) (A) (A) (A)
                 (A) (A) (A) (A) (A) (A) (A) (A) (A) (A) (A) (A)
                 (A) (A) (A) (A) (A) (A) (A) (A) (A) (A) (A) (A)
                 (A) (A) (A) (A) (A) (A) (A) (A) (A) (A) (A) (A)
                 (A) (A) (A) (A) (A) (A) (A) (A) (A) (A) (A) (A)
                 (A) (A) (A) (A) (A) (A) (A) (A) (A) (A) (A) (A)
                 (A) (A) (A) (A) (A) (A) (A) (A) (A) (A) (A) (A)
                 (A) (A) (A) (A) (A) (A) (A) (A) (A) (A) (A) (A)
                 (A) (A) (A) (A) (A) (A) (A) (A) (A) (A) (A) (A)
                 (A) (A) (A) (A) (A) (A) (A) (A) (A) (A) (A) (A)
                 (A) (A) (A) (A) (A) (A) (A) (A) (A) (A) (A) (A)
                 (A) (A) (A) (A) (A) (A) (A) (A) (A) (A) (A) (A)
                 (A) (A) (A) (A) (A) (A) (A) (A) (A) (A) (A) (A)
                 (A) (A) (A) (A) (A) (A) (A) (A) (A) (A) (A) (A)
                 (A) (A) (A) (A) (A) (A) (A) (A) (A) (A) (A) (A)
                 (A) (A) (A) (A) (A) (A) (A) (A) (A) (A) (A) (A)
                 (A) (A) (A) (A) (A) (A) (A) (A) (A) (A) (A) (A)
                 (A) (A) (A) (A) (A) (A) (A) (A) (A) (A) (A) (A)
                 (A) (A) (A) (A) (A) (A) (A) (A) (A) (A) (A) (A)
                 (A) (A) (A) (A) (A) (A) (A) (A) (A) (A) (A) (A)
                 (A) (A) (A) (A) (A) (A) (A) (A) (A) (A) (A) (A)
                 (A) (A) (A) (A) (A) (A) (A) (A) (A) (A) (A) (A)
                 (A) (A) (A) (A) (A) (A) (A) (A) (A) (A) (A) (A)
                 (A) (A) (A) (A) (A) (A) (A) (A) (A) (A) (A) (A)
                 (A) (A) (A) (A) (A) (A) (A) (A) (A) (A) (A) (A)
                 (A) (A) (A) (A) (A) (A) (A) (A) (A) (A) (A) (A)
                 (A) (A) (A) (A) (A) (A) (A) (A) (A) (A) (A) (A)
                 (A) (A) (A) (A) (A) (A) (A) (A) (A) (A) (A) (A)
                 (A) (A) (A) (A) (A) (A) (A) (A) (A) (A) (A) (A)
                 (A) (A) (A) (A) (A) (A) (A) (A) (A) (A) (A) (A)
                 (A) (A) (A) (A) (A) (A) (A) (A) (A) (A) (A) (A)
                 (A) (A) (A) (A) (A) (A) (A) (A) (A) (A) (A) (A)
                 (A) (A) (A) (A) (A) (A) (A) (A) (A) (A)
 The electronic state of the initial guess is 1-A.
 Requested convergence on RMS density matrix=1.00D-08 within 128 cycles.
 Requested convergence on MAX density matrix=1.00D-06.
 Requested convergence on             energy=1.00D-06.
 No special actions if energy rises.
 Integral accuracy reduced to 1.0D-05 until final iterations.
 Initial convergence to 1.0D-05 achieved.  Increase integral accuracy.
 SCF Done:  E(RB3LYP) =  -1387.30488226     A.U. after   16 cycles
             Convg  =    0.5102D-08             -V/T =  2.0091

 **********************************************************************

            Population analysis using the SCF density.

 **********************************************************************

 Orbital symmetries:
       Occupied  (A) (A) (A) (A) (A) (A) (A) (A) (A) (A) (A) (A)
                 (A) (A) (A) (A) (A) (A) (A) (A) (A) (A) (A) (A)
                 (A) (A) (A) (A) (A) (A) (A) (A) (A) (A) (A) (A)
                 (A) (A) (A) (A) (A) (A) (A) (A) (A) (A) (A) (A)
                 (A) (A) (A) (A) (A) (A) (A) (A) (A) (A) (A) (A)
                 (A) (A) (A) (A) (A) (A) (A) (A) (A) (A) (A) (A)
                 (A) (A) (A) (A) (A) (A) (A) (A) (A) (A) (A) (A)
                 (A) (A) (A) (A) (A) (A) (A) (A) (A) (A) (A) (A)
                 (A) (A) (A) (A) (A) (A) (A) (A) (A) (A) (A) (A)
                 (A) (A) (A) (A) (A) (A) (A)
       Virtual   (A) (A) (A) (A) (A) (A) (A) (A) (A) (A) (A) (A)
                 (A) (A) (A) (A) (A) (A) (A) (A) (A) (A) (A) (A)
                 (A) (A) (A) (A) (A) (A) (A) (A) (A) (A) (A) (A)
                 (A) (A) (A) (A) (A) (A) (A) (A) (A) (A) (A) (A)
                 (A) (A) (A) (A) (A) (A) (A) (A) (A) (A) (A) (A)
                 (A) (A) (A) (A) (A) (A) (A) (A) (A) (A) (A) (A)
                 (A) (A) (A) (A) (A) (A) (A) (A) (A) (A) (A) (A)
                 (A) (A) (A) (A) (A) (A) (A) (A) (A) (A) (A) (A)
                 (A) (A) (A) (A) (A) (A) (A) (A) (A) (A) (A) (A)
                 (A) (A) (A) (A) (A) (A) (A) (A) (A) (A) (A) (A)
                 (A) (A) (A) (A) (A) (A) (A) (A) (A) (A) (A) (A)
                 (A) (A) (A) (A) (A) (A) (A) (A) (A) (A) (A) (A)
                 (A) (A) (A) (A) (A) (A) (A) (A) (A) (A) (A) (A)
                 (A) (A) (A) (A) (A) (A) (A) (A) (A) (A) (A) (A)
                 (A) (A) (A) (A) (A) (A) (A) (A) (A) (A) (A) (A)
                 (A) (A) (A) (A) (A) (A) (A) (A) (A) (A) (A) (A)
                 (A) (A) (A) (A) (A) (A) (A) (A) (A) (A) (A) (A)
                 (A) (A) (A) (A) (A) (A) (A) (A) (A) (A) (A) (A)
                 (A) (A) (A) (A) (A) (A) (A) (A) (A) (A) (A) (A)
                 (A) (A) (A) (A) (A) (A) (A) (A) (A) (A) (A) (A)
                 (A) (A) (A) (A) (A) (A) (A) (A) (A) (A) (A) (A)
                 (A) (A) (A) (A) (A) (A) (A) (A) (A) (A) (A) (A)
                 (A) (A) (A) (A) (A) (A) (A) (A) (A) (A) (A) (A)
                 (A) (A) (A) (A) (A) (A) (A) (A) (A) (A) (A) (A)
                 (A) (A) (A) (A) (A) (A) (A) (A) (A) (A) (A) (A)
                 (A) (A) (A) (A) (A) (A) (A) (A) (A) (A) (A) (A)
                 (A) (A) (A) (A) (A) (A) (A) (A) (A) (A) (A) (A)
                 (A) (A) (A) (A) (A) (A) (A) (A) (A) (A) (A) (A)
                 (A) (A) (A) (A) (A) (A) (A) (A) (A) (A) (A) (A)
                 (A) (A) (A) (A) (A) (A) (A) (A) (A) (A) (A) (A)
                 (A) (A) (A) (A) (A) (A) (A) (A) (A) (A) (A) (A)
                 (A) (A) (A) (A) (A) (A) (A) (A) (A) (A) (A) (A)
                 (A) (A) (A) (A) (A) (A) (A) (A) (A) (A) (A) (A)
                 (A) (A) (A) (A) (A) (A) (A) (A) (A) (A) (A) (A)
                 (A) (A) (A) (A) (A) (A) (A) (A) (A) (A)
 The electronic state is 1-A.
 Alpha  occ. eigenvalues --  -19.19731 -19.16823 -19.15273 -19.13437 -19.13131
 Alpha  occ. eigenvalues --  -10.27898 -10.26870 -10.26841 -10.26153 -10.25975
 Alpha  occ. eigenvalues --  -10.25514 -10.25194 -10.21659 -10.20746 -10.20192
 Alpha  occ. eigenvalues --  -10.20098 -10.19659 -10.19465 -10.19448 -10.19242
 Alpha  occ. eigenvalues --  -10.19223 -10.19119 -10.18662 -10.18388 -10.18323
 Alpha  occ. eigenvalues --  -10.18321 -10.18004 -10.17755 -10.16827 -10.16813
 Alpha  occ. eigenvalues --  -10.15802  -1.08567  -1.05986  -1.03268  -1.02335
 Alpha  occ. eigenvalues --   -1.02116  -0.87374  -0.84070  -0.82773  -0.81789
 Alpha  occ. eigenvalues --   -0.80435  -0.79752  -0.77004  -0.74461  -0.73691
 Alpha  occ. eigenvalues --   -0.72361  -0.71648  -0.69576  -0.69273  -0.68111
 Alpha  occ. eigenvalues --   -0.64996  -0.64463  -0.63033  -0.61946  -0.60901
 Alpha  occ. eigenvalues --   -0.59456  -0.59083  -0.57369  -0.55110  -0.53687
 Alpha  occ. eigenvalues --   -0.53173  -0.52258  -0.50891  -0.50563  -0.49187
 Alpha  occ. eigenvalues --   -0.48813  -0.47929  -0.46795  -0.46306  -0.45780
 Alpha  occ. eigenvalues --   -0.44948  -0.44555  -0.43840  -0.43515  -0.43363
 Alpha  occ. eigenvalues --   -0.42966  -0.42235  -0.42104  -0.41907  -0.41540
 Alpha  occ. eigenvalues --   -0.41121  -0.40881  -0.40376  -0.40343  -0.39880
 Alpha  occ. eigenvalues --   -0.39109  -0.38808  -0.38682  -0.38389  -0.38154
 Alpha  occ. eigenvalues --   -0.37664  -0.37206  -0.36993  -0.36928  -0.36336
 Alpha  occ. eigenvalues --   -0.35933  -0.35516  -0.34949  -0.34442  -0.34361
 Alpha  occ. eigenvalues --   -0.34006  -0.33615  -0.32858  -0.32492  -0.32300
 Alpha  occ. eigenvalues --   -0.31843  -0.31340  -0.30872  -0.28106  -0.26665
 Alpha  occ. eigenvalues --   -0.25632  -0.25076  -0.24514  -0.23446  -0.23291
 Alpha virt. eigenvalues --   -0.05203  -0.02084   0.01089   0.02324   0.04276
 Alpha virt. eigenvalues --    0.06996   0.08027   0.08805   0.08959   0.10028
 Alpha virt. eigenvalues --    0.10665   0.11065   0.11302   0.11858   0.12603
 Alpha virt. eigenvalues --    0.12779   0.13146   0.13631   0.13750   0.13936
 Alpha virt. eigenvalues --    0.14054   0.14599   0.15036   0.15408   0.15633
 Alpha virt. eigenvalues --    0.16246   0.16449   0.16644   0.17177   0.17847
 Alpha virt. eigenvalues --    0.18000   0.18308   0.18445   0.18761   0.18945
 Alpha virt. eigenvalues --    0.19290   0.19598   0.19971   0.20081   0.20188
 Alpha virt. eigenvalues --    0.20454   0.20972   0.21318   0.21501   0.22132
 Alpha virt. eigenvalues --    0.22803   0.23788   0.24130   0.24457   0.24658
 Alpha virt. eigenvalues --    0.25093   0.25582   0.25673   0.26341   0.26524
 Alpha virt. eigenvalues --    0.26989   0.27589   0.27869   0.28581   0.29917
 Alpha virt. eigenvalues --    0.30834   0.31622   0.32458   0.33151   0.34598
 Alpha virt. eigenvalues --    0.35095   0.35851   0.36997   0.38849   0.40733
 Alpha virt. eigenvalues --    0.42428   0.45344   0.46497   0.48017   0.48280
 Alpha virt. eigenvalues --    0.49998   0.50112   0.50930   0.51670   0.52106
 Alpha virt. eigenvalues --    0.52334   0.52666   0.52965   0.53558   0.53803
 Alpha virt. eigenvalues --    0.54047   0.54952   0.55184   0.55353   0.56819
 Alpha virt. eigenvalues --    0.57153   0.57456   0.57750   0.58625   0.59039
 Alpha virt. eigenvalues --    0.59815   0.60524   0.61475   0.61778   0.61963
 Alpha virt. eigenvalues --    0.62169   0.62860   0.63492   0.63901   0.64281
 Alpha virt. eigenvalues --    0.65164   0.65742   0.66505   0.66567   0.67185
 Alpha virt. eigenvalues --    0.67508   0.68271   0.68631   0.69325   0.69847
 Alpha virt. eigenvalues --    0.70245   0.70462   0.71542   0.72521   0.73524
 Alpha virt. eigenvalues --    0.74511   0.75213   0.75427   0.75885   0.76853
 Alpha virt. eigenvalues --    0.77162   0.77999   0.78539   0.78862   0.79501
 Alpha virt. eigenvalues --    0.80629   0.80946   0.81358   0.81755   0.82317
 Alpha virt. eigenvalues --    0.82437   0.83089   0.83905   0.84178   0.84541
 Alpha virt. eigenvalues --    0.85392   0.85579   0.86097   0.86648   0.87068
 Alpha virt. eigenvalues --    0.87587   0.87987   0.88470   0.88860   0.88975
 Alpha virt. eigenvalues --    0.89623   0.89669   0.89954   0.90378   0.90478
 Alpha virt. eigenvalues --    0.90837   0.91431   0.91743   0.91829   0.92366
 Alpha virt. eigenvalues --    0.92644   0.93228   0.93432   0.94151   0.94898
 Alpha virt. eigenvalues --    0.95142   0.95676   0.95985   0.96628   0.96866
 Alpha virt. eigenvalues --    0.97157   0.97604   0.98045   0.98674   0.99220
 Alpha virt. eigenvalues --    1.00390   1.01339   1.01956   1.02616   1.03597
 Alpha virt. eigenvalues --    1.04681   1.05450   1.05966   1.06773   1.07412
 Alpha virt. eigenvalues --    1.07924   1.10009   1.10327   1.11765   1.12086
 Alpha virt. eigenvalues --    1.13275   1.13771   1.15184   1.16273   1.17039
 Alpha virt. eigenvalues --    1.17831   1.18692   1.19162   1.19609   1.20817
 Alpha virt. eigenvalues --    1.21861   1.22956   1.24244   1.24979   1.26758
 Alpha virt. eigenvalues --    1.27574   1.28943   1.30859   1.31471   1.32146
 Alpha virt. eigenvalues --    1.33728   1.36226   1.37336   1.39778   1.40283
 Alpha virt. eigenvalues --    1.41083   1.41679   1.42940   1.45735   1.46192
 Alpha virt. eigenvalues --    1.46821   1.47983   1.50212   1.51806   1.52184
 Alpha virt. eigenvalues --    1.54154   1.55396   1.55626   1.56464   1.58308
 Alpha virt. eigenvalues --    1.60710   1.60929   1.62526   1.63021   1.64324
 Alpha virt. eigenvalues --    1.65363   1.66708   1.67263   1.68770   1.69137
 Alpha virt. eigenvalues --    1.70198   1.71764   1.72822   1.73682   1.73731
 Alpha virt. eigenvalues --    1.74692   1.76226   1.76554   1.78204   1.78857
 Alpha virt. eigenvalues --    1.79755   1.80349   1.80774   1.82111   1.82413
 Alpha virt. eigenvalues --    1.82816   1.83214   1.83816   1.84615   1.85731
 Alpha virt. eigenvalues --    1.85987   1.87251   1.87540   1.87824   1.88130
 Alpha virt. eigenvalues --    1.89489   1.89886   1.90335   1.90814   1.91209
 Alpha virt. eigenvalues --    1.91875   1.92479   1.93096   1.93761   1.94496
 Alpha virt. eigenvalues --    1.95716   1.96088   1.97040   1.97640   1.98168
 Alpha virt. eigenvalues --    1.98375   1.99126   1.99789   2.01089   2.01859
 Alpha virt. eigenvalues --    2.02694   2.03199   2.04786   2.05798   2.06286
 Alpha virt. eigenvalues --    2.06505   2.07062   2.07972   2.09402   2.09497
 Alpha virt. eigenvalues --    2.10536   2.10978   2.11959   2.13250   2.13738
 Alpha virt. eigenvalues --    2.14678   2.15744   2.16035   2.17315   2.19717
 Alpha virt. eigenvalues --    2.20250   2.20733   2.21665   2.22717   2.23398
 Alpha virt. eigenvalues --    2.23777   2.24419   2.25814   2.25905   2.26836
 Alpha virt. eigenvalues --    2.27683   2.28696   2.29990   2.30637   2.32488
 Alpha virt. eigenvalues --    2.32640   2.33586   2.33946   2.34556   2.35053
 Alpha virt. eigenvalues --    2.35885   2.36701   2.37360   2.38674   2.39248
 Alpha virt. eigenvalues --    2.39659   2.41154   2.41373   2.42090   2.43605
 Alpha virt. eigenvalues --    2.44440   2.45508   2.45998   2.47179   2.48905
 Alpha virt. eigenvalues --    2.50278   2.51120   2.51944   2.53911   2.54900
 Alpha virt. eigenvalues --    2.56158   2.57072   2.58226   2.59624   2.60623
 Alpha virt. eigenvalues --    2.61213   2.62904   2.64441   2.64939   2.66198
 Alpha virt. eigenvalues --    2.66690   2.68517   2.69488   2.70130   2.71801
 Alpha virt. eigenvalues --    2.72804   2.73792   2.76056   2.76684   2.78783
 Alpha virt. eigenvalues --    2.80274   2.81184   2.81353   2.82935   2.84497
 Alpha virt. eigenvalues --    2.86058   2.91384   2.92775   2.93737   2.96232
 Alpha virt. eigenvalues --    2.98174   2.99345   3.00425   3.02452   3.03225
 Alpha virt. eigenvalues --    3.04869   3.07542   3.13157   3.17160   3.21138
 Alpha virt. eigenvalues --    3.22900   3.28888   4.02722   4.09593   4.12203
 Alpha virt. eigenvalues --    4.14039   4.15243   4.15856   4.18857   4.21625
 Alpha virt. eigenvalues --    4.22648   4.24051   4.24988   4.29115   4.30461
 Alpha virt. eigenvalues --    4.32443   4.35871   4.37875   4.40252   4.44200
 Alpha virt. eigenvalues --    4.46810   4.47366   4.52539   4.54842   4.59987
 Alpha virt. eigenvalues --    4.61328   4.64241   4.68642   4.72088   4.81221
 Alpha virt. eigenvalues --    4.91760   4.99115   5.18951
          Condensed to atoms (all electrons):
 Mulliken atomic charges:
              1
     1  C   -0.188904
     2  C    0.190506
     3  C   -0.187364
     4  C    0.319007
     5  C   -0.041783
     6  C   -0.333778
     7  C    0.209456
     8  C    0.395626
     9  C   -0.080857
    10  C    0.425061
    11  C    0.423433
    12  O   -0.462448
    13  C   -0.150970
    14  C   -0.247219
    15  C   -0.453997
    16  O   -0.497789
    17  C   -0.160712
    18  C    0.311706
    19  O   -0.539774
    20  C   -0.319597
    21  O   -0.664225
    22  C   -0.321867
    23  C    0.108686
    24  O   -0.589143
    25  C    0.188944
    26  C   -0.518999
    27  C   -0.404114
    28  C   -0.462612
    29  C   -0.464270
    30  H    0.143769
    31  H    0.164606
    32  C   -0.517125
    33  H    0.124735
    34  H    0.181436
    35  H    0.150606
    36  H    0.140743
    37  H    0.154013
    38  H    0.124292
    39  H    0.162386
    40  H    0.145304
    41  H    0.163209
    42  H    0.168739
    43  H    0.148062
    44  H    0.413955
    45  H    0.168211
    46  H    0.172979
    47  H    0.144559
    48  H    0.169265
    49  H    0.156516
    50  H    0.161176
    51  H    0.144523
    52  H    0.140016
    53  H    0.148627
    54  H    0.140216
    55  H    0.185184
    56  H    0.159442
    57  H    0.150177
    58  H    0.160301
    59  H    0.158816
    60  H    0.160647
    61  H    0.148522
    62  C   -0.447943
    63  H    0.156953
    64  H    0.133523
    65  H    0.137555
 Sum of Mulliken atomic charges =   0.00000
 Mulliken charges with hydrogens summed into heavy atoms:
              1
     1  C   -0.064169
     2  C    0.190506
     3  C   -0.022758
     4  C    0.319007
     5  C   -0.041783
     6  C   -0.001735
     7  C    0.209456
     8  C    0.395626
     9  C   -0.080857
    10  C    0.425061
    11  C    0.423433
    12  O   -0.462448
    13  C   -0.010227
    14  C    0.031086
    15  C    0.016902
    16  O   -0.497789
    17  C   -0.016943
    18  C    0.311706
    19  O   -0.539774
    20  C   -0.002796
    21  O   -0.250270
    22  C    0.019323
    23  C    0.253246
    24  O   -0.589143
    25  C    0.188944
    26  C   -0.032040
    27  C   -0.119575
    28  C    0.011415
    29  C    0.005650
    32  C   -0.049140
    62  C   -0.019912
 Sum of Mulliken charges with hydrogens summed into heavy atoms =   0.00000
 Electronic spatial extent (au):  <R**2>=          11291.1966
 Charge=              0.0000 electrons
 Dipole moment (field-independent basis, Debye):
    X=             -3.4284    Y=              3.5124    Z=             -1.6252  Tot=              5.1703
 Quadrupole moment (field-independent basis, Debye-Ang):
   XX=           -180.9387   YY=           -181.0876   ZZ=           -185.0120
   XY=              7.9962   XZ=             -7.0105   YZ=              4.6413
 Traceless Quadrupole moment (field-independent basis, Debye-Ang):
   XX=              1.4074   YY=              1.2585   ZZ=             -2.6659
   XY=              7.9962   XZ=             -7.0105   YZ=              4.6413
 Octapole moment (field-independent basis, Debye-Ang**2):
  XXX=            -31.0225  YYY=             46.4196  ZZZ=              3.2431  XYY=             -3.6195
  XXY=            -32.4278  XXZ=            -35.3942  XZZ=            -25.0794  YZZ=             10.3570
  YYZ=            -21.6527  XYZ=              8.0041
 Hexadecapole moment (field-independent basis, Debye-Ang**3):
 XXXX=          -8090.1394 YYYY=          -3865.0143 ZZZZ=          -3115.8259 XXXY=            107.1987
 XXXZ=             27.5297 YYYX=             -5.2009 YYYZ=             -1.2112 ZZZX=              8.5966
 ZZZY=            -24.0135 XXYY=          -1935.4907 XXZZ=          -1857.9003 YYZZ=          -1155.8448
 XXYZ=             37.7390 YYXZ=             -9.2521 ZZXY=             26.2205
 N-N= 3.532378016958D+03 E-N=-1.029105196880D+04  KE= 1.374779962748D+03
 Calling FoFJK, ICntrl=      2127 FMM=T ISym2X=0 I1Cent= 0 IOpClX= 0 NMat=1 NMatS=1 NMatT=0.
 ***** Axes restored to original set *****
 -------------------------------------------------------------------
 Center     Atomic                   Forces (Hartrees/Bohr)
 Number     Number              X              Y              Z
 -------------------------------------------------------------------
      1        6           0.009681545   -0.000673836    0.000349943
      2        6          -0.012696161   -0.005304680    0.002008082
      3        6          -0.000688174   -0.008086454   -0.000493840
      4        6           0.003653533   -0.004503291    0.010755822
      5        6          -0.011905865    0.000516600    0.000423216
      6        6          -0.004627932   -0.011146088   -0.000979445
      7        6           0.012074634    0.019295983    0.008264777
      8        6           0.009589377   -0.011832200   -0.014859157
      9        6          -0.000954793    0.004585299    0.007784822
     10        6          -0.011243751    0.001539634   -0.019689430
     11        6          -0.012708869   -0.020507917   -0.011015975
     12        8           0.003813260    0.018732086   -0.000898910
     13        6           0.002681395   -0.006618009   -0.010578577
     14        6           0.003561853   -0.001727800   -0.001319595
     15        6          -0.009694331    0.004984285    0.005508543
     16        8           0.011360942   -0.004504582    0.010661884
     17        6           0.008046965   -0.010883964   -0.005412789
     18        6           0.032500539    0.007322190   -0.000706564
     19        8          -0.026964127    0.003544502    0.026672979
     20        6           0.011470220   -0.004850532   -0.000209080
     21        8          -0.006268791    0.006413551   -0.002088862
     22        6          -0.010371505    0.010549533    0.000904982
     23        6           0.007578474    0.009233171    0.003532384
     24        8          -0.003750246   -0.003475072   -0.008865837
     25        6           0.009673509    0.011297173    0.006565817
     26        6          -0.000208884   -0.000202784   -0.000000692
     27        6          -0.003496778   -0.009247225   -0.003804351
     28        6          -0.003138133    0.007561164   -0.004994259
     29        6          -0.003653659   -0.006299410   -0.008869064
     30        1          -0.001779740    0.001061897   -0.001694142
     31        1          -0.003329080    0.006165831   -0.000163545
     32        6          -0.001041375    0.000967289   -0.001058656
     33        1           0.001396454   -0.000675255   -0.000074584
     34        1           0.000216369    0.007276501   -0.000889658
     35        1          -0.000686005    0.005517542    0.001923235
     36        1           0.000469737   -0.000700360    0.002348112
     37        1          -0.002310319    0.001472826    0.002606372
     38        1          -0.002703876    0.001866008    0.000714227
     39        1          -0.001843331   -0.000317254    0.000062056
     40        1           0.001541498    0.000030818   -0.000710369
     41        1           0.001155123   -0.000517855   -0.000085694
     42        1           0.000111132    0.002870564   -0.000130558
     43        1          -0.001282661   -0.002003887   -0.001480360
     44        1          -0.001849835   -0.002315033   -0.001420787
     45        1           0.001534031   -0.002691254   -0.001853452
     46        1           0.002138855   -0.001065975    0.002601020
     47        1          -0.003877037   -0.001215326    0.002606070
     48        1          -0.003968689   -0.001058079   -0.000035998
     49        1          -0.004155936   -0.000870527   -0.000408810
     50        1           0.001976400   -0.001298786   -0.000712319
     51        1           0.000546057   -0.000923246   -0.000139068
     52        1          -0.001148983    0.000025310   -0.000254005
     53        1           0.002161625   -0.003901103    0.000445015
     54        1           0.000408421   -0.000805795    0.000199756
     55        1          -0.001153691   -0.002506033    0.005708626
     56        1           0.000625826    0.002819829    0.001469996
     57        1          -0.000837194    0.001255549    0.000647535
     58        1          -0.000181097    0.000026473    0.003795758
     59        1          -0.001128573    0.001816207   -0.000675128
     60        1           0.004243468   -0.001702390    0.000299702
     61        1           0.004103187   -0.001125381    0.000147674
     62        6           0.003575384   -0.002874313   -0.003085484
     63        1           0.000611347    0.000556831    0.000560872
     64        1           0.001702144   -0.000751027   -0.000794172
     65        1           0.001446120   -0.000121924    0.000883944
 -------------------------------------------------------------------
 Cartesian Forces:  Max     0.032500539 RMS     0.006666818

 GradGradGradGradGradGradGradGradGradGradGradGradGradGradGradGradGradGrad
 Berny optimization.
 Internal  Forces:  Max     0.019693686 RMS     0.003516707
 Search for a local minimum.
 Step number   1 out of a maximum of  390
 All quantities printed in internal units (Hartrees-Bohrs-Radians)
 Mixed Optimization -- RFO/linear search
 Second derivative matrix not updated -- first step.
 ITU=  0
     Eigenvalues ---    0.00275   0.00280   0.00333   0.00395   0.00410
     Eigenvalues ---    0.00428   0.00459   0.00553   0.00588   0.00602
     Eigenvalues ---    0.00647   0.00681   0.00684   0.00703   0.00764
     Eigenvalues ---    0.01023   0.01086   0.01235   0.01255   0.01424
     Eigenvalues ---    0.01471   0.01632   0.01714   0.01821   0.01929
     Eigenvalues ---    0.02514   0.02819   0.02820   0.03029   0.03125
     Eigenvalues ---    0.03528   0.03597   0.03856   0.04035   0.04100
     Eigenvalues ---    0.04136   0.04318   0.04373   0.04625   0.04726
     Eigenvalues ---    0.04835   0.04843   0.04951   0.05088   0.05242
     Eigenvalues ---    0.05302   0.05385   0.05438   0.05485   0.05502
     Eigenvalues ---    0.05504   0.05523   0.05549   0.05555   0.05632
     Eigenvalues ---    0.05638   0.05696   0.05918   0.06271   0.06617
     Eigenvalues ---    0.06693   0.06879   0.07104   0.07107   0.07201
     Eigenvalues ---    0.07247   0.07259   0.07355   0.07714   0.08356
     Eigenvalues ---    0.08385   0.08462   0.09012   0.09193   0.09865
     Eigenvalues ---    0.10083   0.10650   0.10963   0.11634   0.12215
     Eigenvalues ---    0.13155   0.14648   0.15208   0.15969   0.16000
     Eigenvalues ---    0.16000   0.16000   0.16000   0.16000   0.16000
     Eigenvalues ---    0.16000   0.16000   0.16000   0.16000   0.16000
     Eigenvalues ---    0.16000   0.16000   0.16000   0.16000   0.16000
     Eigenvalues ---    0.16000   0.16000   0.16000   0.16000   0.16000
     Eigenvalues ---    0.16108   0.16367   0.17229   0.17734   0.18368
     Eigenvalues ---    0.19755   0.21548   0.21918   0.22724   0.23481
     Eigenvalues ---    0.24437   0.24932   0.24976   0.24977   0.24985
     Eigenvalues ---    0.24988   0.24990   0.25000   0.25919   0.27292
     Eigenvalues ---    0.27351   0.27760   0.27813   0.28036   0.28316
     Eigenvalues ---    0.28775   0.28776   0.28813   0.29171   0.29604
     Eigenvalues ---    0.29711   0.30062   0.30498   0.30520   0.31008
     Eigenvalues ---    0.31717   0.31735   0.31879   0.33344   0.33666
     Eigenvalues ---    0.33853   0.33970   0.34020   0.34020   0.34033
     Eigenvalues ---    0.34044   0.34055   0.34055   0.34067   0.34080
     Eigenvalues ---    0.34118   0.34127   0.34129   0.34156   0.34204
     Eigenvalues ---    0.34204   0.34211   0.34240   0.34249   0.34250
     Eigenvalues ---    0.34263   0.34274   0.34275   0.34281   0.34306
     Eigenvalues ---    0.34317   0.34335   0.34341   0.34472   0.34508
     Eigenvalues ---    0.34943   0.35097   0.35268   0.35406   0.36361
     Eigenvalues ---    0.37452   0.42965   0.43602   0.51776   0.53400
     Eigenvalues ---    0.54591   0.56139   0.89761   0.90630
 RFO step:  Lambda=-2.23591161D-02 EMin= 2.74769988D-03
 Linear search not attempted -- first point.
 Iteration  1 RMS(Cart)=  0.08224370 RMS(Int)=  0.00160353
 Iteration  2 RMS(Cart)=  0.00296836 RMS(Int)=  0.00024062
 Iteration  3 RMS(Cart)=  0.00000461 RMS(Int)=  0.00024061
 Iteration  4 RMS(Cart)=  0.00000000 RMS(Int)=  0.00024061
 Variable       Old X    -DE/DX   Delta X   Delta X   Delta X     New X
                                 (Linear)    (Quad)   (Total)
    R1        2.53431  -0.00254   0.00000  -0.00509  -0.00514   2.52918
    R2        2.82219   0.00865   0.00000   0.02577   0.02568   2.84787
    R3        2.05767  -0.00011   0.00000  -0.00031  -0.00031   2.05737
    R4        2.85339   0.00382   0.00000   0.00846   0.00849   2.86188
    R5        2.84632   0.00311   0.00000   0.00916   0.00916   2.85548
    R6        2.94021   0.00505   0.00000   0.01166   0.01162   2.95184
    R7        2.90938   0.01123   0.00000   0.03819   0.03818   2.94756
    R8        2.07898  -0.00096   0.00000  -0.00268  -0.00268   2.07630
    R9        2.90697   0.00902   0.00000   0.02940   0.02920   2.93617
   R10        2.91465   0.00661   0.00000   0.02169   0.02180   2.93645
   R11        2.76606  -0.00481   0.00000  -0.01268  -0.01268   2.75338
   R12        2.91458   0.00078   0.00000   0.00551   0.00544   2.92002
   R13        2.90357   0.00623   0.00000   0.01453   0.01445   2.91802
   R14        2.89426   0.01084   0.00000   0.03674   0.03674   2.93099
   R15        2.07380  -0.00127   0.00000  -0.00350  -0.00350   2.07030
   R16        2.07296   0.00294   0.00000   0.00812   0.00812   2.08107
   R17        2.81611   0.01019   0.00000   0.02222   0.02184   2.83795
   R18        2.85957   0.01578   0.00000   0.05559   0.05505   2.91462
   R19        2.67713   0.00414   0.00000   0.00916   0.00916   2.68628
   R20        2.52505   0.01375   0.00000   0.02378   0.02383   2.54887
   R21        2.63045  -0.01969   0.00000  -0.04634  -0.04612   2.58433
   R22        2.79377   0.00011   0.00000  -0.00315  -0.00299   2.79079
   R23        2.79782   0.01842   0.00000   0.05012   0.05012   2.84794
   R24        2.33043  -0.01413   0.00000  -0.01536  -0.01536   2.31507
   R25        2.32644  -0.01883   0.00000  -0.02028  -0.02028   2.30616
   R26        2.88544  -0.00016   0.00000  -0.00050  -0.00050   2.88494
   R27        2.90394   0.00298   0.00000   0.00958   0.00958   2.91353
   R28        2.88760   0.00905   0.00000   0.02842   0.02842   2.91602
   R29        2.07196   0.00032   0.00000   0.00089   0.00089   2.07284
   R30        2.07256  -0.00052   0.00000  -0.00142  -0.00142   2.07113
   R31        2.07297   0.00094   0.00000   0.00260   0.00260   2.07557
   R32        2.87840   0.00778   0.00000   0.02410   0.02410   2.90250
   R33        2.06975   0.00051   0.00000   0.00140   0.00140   2.07115
   R34        2.06912   0.00053   0.00000   0.00144   0.00144   2.07056
   R35        2.07068  -0.00036   0.00000  -0.00099  -0.00099   2.06969
   R36        2.91628  -0.00112   0.00000   0.00808   0.00833   2.92461
   R37        2.90495   0.00432   0.00000   0.01511   0.01517   2.92012
[...]
     54          1           0        0.819259    3.100973   -3.517462
     55          1           0        0.573590    1.342986   -3.410439
     56          1           0        3.139478    3.308820   -1.568399
     57          1           0        1.727885    4.374595   -1.444678
     58          1           0        2.272061    3.446025   -0.031452
     59          1           0       -0.872828    2.503660    4.585506
     60          1           0        0.085467    3.187821    3.264041
     61          1           0       -1.632795    3.558883    3.378933
     62          6           0        5.474927   -0.171306   -0.130609
     63          1           0        4.983494    0.350318    0.696907
     64          1           0        6.555694   -0.138016    0.048887
     65          1           0        5.271506    0.389270   -1.051626
 ---------------------------------------------------------------------
 Rotational constants (GHZ):      0.2028421      0.1246444      0.1188140

 **********************************************************************

            Population analysis using the SCF density.

 **********************************************************************

 Orbital symmetries:
       Occupied  (A) (A) (A) (A) (A) (A) (A) (A) (A) (A) (A) (A)
                 (A) (A) (A) (A) (A) (A) (A) (A) (A) (A) (A) (A)
                 (A) (A) (A) (A) (A) (A) (A) (A) (A) (A) (A) (A)
                 (A) (A) (A) (A) (A) (A) (A) (A) (A) (A) (A) (A)
                 (A) (A) (A) (A) (A) (A) (A) (A) (A) (A) (A) (A)
                 (A) (A) (A) (A) (A) (A) (A) (A) (A) (A) (A) (A)
                 (A) (A) (A) (A) (A) (A) (A) (A) (A) (A) (A) (A)
                 (A) (A) (A) (A) (A) (A) (A) (A) (A) (A) (A) (A)
                 (A) (A) (A) (A) (A) (A) (A) (A) (A) (A) (A) (A)
                 (A) (A) (A) (A) (A) (A) (A)
       Virtual   (A) (A) (A) (A) (A) (A) (A) (A) (A) (A) (A) (A)
                 (A) (A) (A) (A) (A) (A) (A) (A) (A) (A) (A) (A)
                 (A) (A) (A) (A) (A) (A) (A) (A) (A) (A) (A) (A)
                 (A) (A) (A) (A) (A) (A) (A) (A) (A) (A) (A) (A)
                 (A) (A) (A) (A) (A) (A) (A) (A) (A) (A) (A) (A)
                 (A) (A) (A) (A) (A) (A) (A) (A) (A) (A) (A) (A)
                 (A) (A) (A) (A) (A) (A) (A) (A) (A) (A) (A) (A)
                 (A) (A) (A) (A) (A) (A) (A) (A) (A) (A) (A) (A)
                 (A) (A) (A) (A) (A) (A) (A) (A) (A) (A) (A) (A)
                 (A) (A) (A) (A) (A) (A) (A) (A) (A) (A) (A) (A)
                 (A) (A) (A) (A) (A) (A) (A) (A) (A) (A) (A) (A)
                 (A) (A) (A) (A) (A) (A) (A) (A) (A) (A) (A) (A)
                 (A) (A) (A) (A) (A) (A) (A) (A) (A) (A) (A) (A)
                 (A) (A) (A) (A) (A) (A) (A) (A) (A) (A) (A) (A)
                 (A) (A) (A) (A) (A) (A) (A) (A) (A) (A) (A) (A)
                 (A) (A) (A) (A) (A) (A) (A) (A) (A) (A) (A) (A)
                 (A) (A) (A) (A) (A) (A) (A) (A) (A) (A) (A) (A)
                 (A) (A) (A) (A) (A) (A) (A) (A) (A) (A) (A) (A)
                 (A) (A) (A) (A) (A) (A) (A) (A) (A) (A) (A) (A)
                 (A) (A) (A) (A) (A) (A) (A) (A) (A) (A) (A) (A)
                 (A) (A) (A) (A) (A) (A) (A) (A) (A) (A) (A) (A)
                 (A) (A) (A) (A) (A) (A) (A) (A) (A) (A) (A) (A)
                 (A) (A) (A) (A) (A) (A) (A) (A) (A) (A) (A) (A)
                 (A) (A) (A) (A) (A) (A) (A) (A) (A) (A) (A) (A)
                 (A) (A) (A) (A) (A) (A) (A) (A) (A) (A) (A) (A)
                 (A) (A) (A) (A) (A) (A) (A) (A) (A) (A) (A) (A)
                 (A) (A) (A) (A) (A) (A) (A) (A) (A) (A) (A) (A)
                 (A) (A) (A) (A) (A) (A) (A) (A) (A) (A) (A) (A)
                 (A) (A) (A) (A) (A) (A) (A) (A) (A) (A) (A) (A)
                 (A) (A) (A) (A) (A) (A) (A) (A) (A) (A) (A) (A)
                 (A) (A) (A) (A) (A) (A) (A) (A) (A) (A) (A) (A)
                 (A) (A) (A) (A) (A) (A) (A) (A) (A) (A) (A) (A)
                 (A) (A) (A) (A) (A) (A) (A) (A) (A) (A) (A) (A)
                 (A) (A) (A) (A) (A) (A) (A) (A) (A) (A) (A) (A)
                 (A) (A) (A) (A) (A) (A) (A) (A) (A) (A)
 The electronic state is 1-A.
 Alpha  occ. eigenvalues --  -19.19676 -19.16631 -19.15793 -19.12658 -19.12433
 Alpha  occ. eigenvalues --  -10.27041 -10.26930 -10.26818 -10.26404 -10.25792
 Alpha  occ. eigenvalues --  -10.25723 -10.25236 -10.21197 -10.20885 -10.20664
 Alpha  occ. eigenvalues --  -10.20263 -10.19866 -10.19652 -10.19364 -10.19240
 Alpha  occ. eigenvalues --  -10.19161 -10.19081 -10.18746 -10.18411 -10.18374
 Alpha  occ. eigenvalues --  -10.18309 -10.18234 -10.17983 -10.17088 -10.16831
 Alpha  occ. eigenvalues --  -10.16058  -1.09058  -1.05990  -1.03124  -1.02570
 Alpha  occ. eigenvalues --   -1.02078  -0.86673  -0.83695  -0.82457  -0.81365
 Alpha  occ. eigenvalues --   -0.80188  -0.79438  -0.76700  -0.74234  -0.73150
 Alpha  occ. eigenvalues --   -0.72082  -0.71384  -0.70071  -0.69564  -0.67923
 Alpha  occ. eigenvalues --   -0.64864  -0.64113  -0.62958  -0.61828  -0.60583
 Alpha  occ. eigenvalues --   -0.59272  -0.59042  -0.56821  -0.54945  -0.53776
 Alpha  occ. eigenvalues --   -0.52719  -0.52164  -0.50508  -0.50309  -0.49187
 Alpha  occ. eigenvalues --   -0.48358  -0.47705  -0.46787  -0.46377  -0.45800
 Alpha  occ. eigenvalues --   -0.44970  -0.44408  -0.43692  -0.43319  -0.43185
 Alpha  occ. eigenvalues --   -0.42867  -0.42035  -0.41852  -0.41821  -0.41330
 Alpha  occ. eigenvalues --   -0.40988  -0.40701  -0.40508  -0.40269  -0.39991
 Alpha  occ. eigenvalues --   -0.39175  -0.38984  -0.38670  -0.38289  -0.37633
 Alpha  occ. eigenvalues --   -0.37506  -0.37409  -0.37271  -0.37021  -0.36438
 Alpha  occ. eigenvalues --   -0.36129  -0.35675  -0.35129  -0.34653  -0.34371
 Alpha  occ. eigenvalues --   -0.33955  -0.33736  -0.32832  -0.32699  -0.31858
 Alpha  occ. eigenvalues --   -0.31734  -0.31190  -0.30980  -0.28287  -0.26519
 Alpha  occ. eigenvalues --   -0.25921  -0.24585  -0.24049  -0.23269  -0.22673
 Alpha virt. eigenvalues --   -0.04489  -0.01238   0.00946   0.02346   0.05569
 Alpha virt. eigenvalues --    0.07236   0.08398   0.08579   0.09235   0.09969
 Alpha virt. eigenvalues --    0.10798   0.10908   0.11080   0.11831   0.12578
 Alpha virt. eigenvalues --    0.12834   0.13014   0.13688   0.14020   0.14106
 Alpha virt. eigenvalues --    0.14389   0.14551   0.15163   0.15805   0.15936
 Alpha virt. eigenvalues --    0.16166   0.16411   0.16737   0.17204   0.17330
 Alpha virt. eigenvalues --    0.17734   0.18008   0.18377   0.18690   0.18751
 Alpha virt. eigenvalues --    0.19083   0.19332   0.19598   0.19695   0.20070
 Alpha virt. eigenvalues --    0.20151   0.20656   0.21232   0.21414   0.22069
 Alpha virt. eigenvalues --    0.22632   0.23425   0.23749   0.24030   0.24579
 Alpha virt. eigenvalues --    0.24871   0.25388   0.25794   0.26200   0.26650
 Alpha virt. eigenvalues --    0.27095   0.27629   0.28102   0.28137   0.29723
 Alpha virt. eigenvalues --    0.30225   0.31591   0.32383   0.32726   0.33822
 Alpha virt. eigenvalues --    0.35047   0.35684   0.36850   0.38706   0.40031
 Alpha virt. eigenvalues --    0.41933   0.45417   0.46669   0.48339   0.48554
 Alpha virt. eigenvalues --    0.49227   0.49989   0.50445   0.51165   0.51659
 Alpha virt. eigenvalues --    0.52070   0.52253   0.52774   0.53244   0.53459
 Alpha virt. eigenvalues --    0.53884   0.54352   0.55060   0.55491   0.56544
 Alpha virt. eigenvalues --    0.56840   0.57179   0.57949   0.58404   0.58783
 Alpha virt. eigenvalues --    0.59728   0.60435   0.60849   0.61323   0.62350
 Alpha virt. eigenvalues --    0.62613   0.62886   0.63541   0.63948   0.64761
 Alpha virt. eigenvalues --    0.64913   0.65487   0.65743   0.66916   0.67397
 Alpha virt. eigenvalues --    0.67816   0.68177   0.68759   0.69135   0.69869
 Alpha virt. eigenvalues --    0.70228   0.71056   0.71801   0.72699   0.73567
 Alpha virt. eigenvalues --    0.74026   0.74938   0.75501   0.75939   0.76762
 Alpha virt. eigenvalues --    0.76786   0.77441   0.77848   0.78933   0.79200
 Alpha virt. eigenvalues --    0.80196   0.80681   0.81558   0.82052   0.82178
 Alpha virt. eigenvalues --    0.82714   0.83545   0.83787   0.84732   0.85018
 Alpha virt. eigenvalues --    0.85754   0.85997   0.86214   0.86640   0.86742
 Alpha virt. eigenvalues --    0.87302   0.87970   0.88121   0.88573   0.88909
 Alpha virt. eigenvalues --    0.89205   0.89353   0.89908   0.90296   0.90434
 Alpha virt. eigenvalues --    0.91177   0.91206   0.91477   0.91701   0.92179
 Alpha virt. eigenvalues --    0.92730   0.93156   0.93823   0.94180   0.94503
 Alpha virt. eigenvalues --    0.95264   0.95524   0.95957   0.96555   0.96786
 Alpha virt. eigenvalues --    0.97039   0.97784   0.97873   0.98960   0.99356
 Alpha virt. eigenvalues --    1.00028   1.00923   1.01633   1.02104   1.02423
 Alpha virt. eigenvalues --    1.04710   1.05735   1.06022   1.07166   1.08392
 Alpha virt. eigenvalues --    1.08792   1.09336   1.11124   1.11979   1.12916
 Alpha virt. eigenvalues --    1.13945   1.14112   1.14914   1.15471   1.16522
 Alpha virt. eigenvalues --    1.17327   1.17911   1.19385   1.20016   1.20462
 Alpha virt. eigenvalues --    1.21570   1.22913   1.23919   1.25639   1.27281
 Alpha virt. eigenvalues --    1.28527   1.29516   1.30847   1.31936   1.32668
 Alpha virt. eigenvalues --    1.33739   1.35973   1.37964   1.39029   1.39982
 Alpha virt. eigenvalues --    1.41609   1.41820   1.42388   1.45150   1.45951
 Alpha virt. eigenvalues --    1.47115   1.47711   1.49570   1.50362   1.51818
 Alpha virt. eigenvalues --    1.53324   1.55488   1.55850   1.57174   1.58868
 Alpha virt. eigenvalues --    1.59738   1.61654   1.62090   1.62964   1.63566
 Alpha virt. eigenvalues --    1.64071   1.65755   1.66891   1.67577   1.68712
 Alpha virt. eigenvalues --    1.70570   1.71654   1.73170   1.73523   1.73778
 Alpha virt. eigenvalues --    1.73819   1.74988   1.76067   1.77467   1.77897
 Alpha virt. eigenvalues --    1.78607   1.79375   1.80933   1.81106   1.81987
 Alpha virt. eigenvalues --    1.82528   1.83607   1.83796   1.84480   1.85439
 Alpha virt. eigenvalues --    1.85698   1.86155   1.86732   1.87400   1.87896
 Alpha virt. eigenvalues --    1.89103   1.89389   1.89893   1.90260   1.91098
 Alpha virt. eigenvalues --    1.91996   1.92210   1.92947   1.93807   1.94503
 Alpha virt. eigenvalues --    1.94969   1.96291   1.96886   1.97197   1.97734
 Alpha virt. eigenvalues --    1.98355   1.98595   1.99169   2.00200   2.01611
 Alpha virt. eigenvalues --    2.02191   2.02644   2.03736   2.05374   2.05865
 Alpha virt. eigenvalues --    2.06413   2.07193   2.07383   2.08668   2.09777
 Alpha virt. eigenvalues --    2.10030   2.11174   2.11233   2.12504   2.12580
 Alpha virt. eigenvalues --    2.14271   2.14907   2.15461   2.16915   2.18156
 Alpha virt. eigenvalues --    2.18730   2.19345   2.20940   2.21652   2.22403
 Alpha virt. eigenvalues --    2.23876   2.24108   2.25594   2.26147   2.26817
 Alpha virt. eigenvalues --    2.27269   2.28255   2.29840   2.30572   2.31883
 Alpha virt. eigenvalues --    2.32829   2.33221   2.34038   2.34647   2.35046
 Alpha virt. eigenvalues --    2.35537   2.36386   2.37025   2.38486   2.38812
 Alpha virt. eigenvalues --    2.39709   2.40416   2.41095   2.41519   2.42612
 Alpha virt. eigenvalues --    2.42785   2.44490   2.46102   2.47117   2.48427
 Alpha virt. eigenvalues --    2.49453   2.50281   2.51830   2.53375   2.54506
 Alpha virt. eigenvalues --    2.54917   2.56459   2.57399   2.58881   2.59509
 Alpha virt. eigenvalues --    2.60398   2.63272   2.63742   2.64822   2.65651
 Alpha virt. eigenvalues --    2.67123   2.67529   2.68207   2.69551   2.70496
 Alpha virt. eigenvalues --    2.72241   2.72699   2.74067   2.76163   2.77064
 Alpha virt. eigenvalues --    2.79054   2.79812   2.81185   2.82399   2.83625
 Alpha virt. eigenvalues --    2.85192   2.90940   2.92059   2.94093   2.97921
 Alpha virt. eigenvalues --    2.98032   2.99897   3.01037   3.02049   3.02678
 Alpha virt. eigenvalues --    3.04593   3.06732   3.12278   3.18311   3.21568
 Alpha virt. eigenvalues --    3.24457   3.28077   4.04623   4.08369   4.12153
 Alpha virt. eigenvalues --    4.12623   4.13455   4.14028   4.19134   4.19840
 Alpha virt. eigenvalues --    4.22872   4.23596   4.26101   4.29560   4.30741
 Alpha virt. eigenvalues --    4.31603   4.34826   4.37956   4.38677   4.45080
 Alpha virt. eigenvalues --    4.46568   4.48118   4.52651   4.55077   4.58273
 Alpha virt. eigenvalues --    4.62689   4.65193   4.66908   4.73158   4.81487
 Alpha virt. eigenvalues --    4.89228   5.02080   5.16839
          Condensed to atoms (all electrons):
 Mulliken atomic charges:
              1
     1  C   -0.184651
     2  C    0.193579
     3  C   -0.189813
     4  C    0.321323
     5  C   -0.053411
     6  C   -0.334187
     7  C    0.201771
     8  C    0.395638
     9  C   -0.096686
    10  C    0.434576
    11  C    0.425327
    12  O   -0.447191
    13  C   -0.160926
    14  C   -0.243931
    15  C   -0.454358
    16  O   -0.498237
    17  C   -0.164596
    18  C    0.305424
    19  O   -0.538362
    20  C   -0.322849
    21  O   -0.662840
    22  C   -0.323926
    23  C    0.106120
    24  O   -0.590426
    25  C    0.187543
    26  C   -0.519554
    27  C   -0.408322
    28  C   -0.468546
    29  C   -0.459766
    30  H    0.143519
    31  H    0.165985
    32  C   -0.519429
    33  H    0.124490
    34  H    0.185794
    35  H    0.144793
    36  H    0.144041
    37  H    0.154301
    38  H    0.122824
    39  H    0.156444
    40  H    0.146690
    41  H    0.164353
    42  H    0.168291
    43  H    0.151044
    44  H    0.416401
    45  H    0.166788
    46  H    0.170090
    47  H    0.145126
    48  H    0.170058
    49  H    0.159124
    50  H    0.161556
    51  H    0.152432
    52  H    0.139217
    53  H    0.155317
    54  H    0.143559
    55  H    0.193360
    56  H    0.163768
    57  H    0.151077
    58  H    0.163562
    59  H    0.159037
    60  H    0.157642
    61  H    0.149510
    62  C   -0.451467
    63  H    0.159784
    64  H    0.138016
    65  H    0.134179
 Sum of Mulliken atomic charges =   0.00000
 Mulliken charges with hydrogens summed into heavy atoms:
              1
     1  C   -0.060162
     2  C    0.193579
     3  C   -0.023829
     4  C    0.321323
     5  C   -0.053411
     6  C   -0.003600
     7  C    0.201771
     8  C    0.395638
     9  C   -0.096686
    10  C    0.434576
    11  C    0.425327
    12  O   -0.447191
    13  C   -0.016885
    14  C    0.033195
    15  C    0.013130
    16  O   -0.498237
    17  C   -0.021077
    18  C    0.305424
    19  O   -0.538362
    20  C   -0.003514
    21  O   -0.246439
    22  C    0.012952
    23  C    0.251246
    24  O   -0.590426
    25  C    0.187543
    26  C   -0.028816
    27  C   -0.116673
    28  C    0.023690
    29  C    0.018642
    32  C   -0.053241
    62  C   -0.019488
 Sum of Mulliken charges with hydrogens summed into heavy atoms =   0.00000
 Electronic spatial extent (au):  <R**2>=          11387.2872
 Charge=              0.0000 electrons
 Dipole moment (field-independent basis, Debye):
    X=             -3.4704    Y=              3.7152    Z=             -2.8748  Tot=              5.8404
 Quadrupole moment (field-independent basis, Debye-Ang):
   XX=           -181.9981   YY=           -177.6038   ZZ=           -186.7019
   XY=              9.6904   XZ=             -7.8402   YZ=              5.3194
 Traceless Quadrupole moment (field-independent basis, Debye-Ang):
   XX=              0.1031   YY=              4.4975   ZZ=             -4.6006
   XY=              9.6904   XZ=             -7.8402   YZ=              5.3194
 Octapole moment (field-independent basis, Debye-Ang**2):
  XXX=            -27.0770  YYY=             37.3528  ZZZ=             -5.5836  XYY=             -7.8530
  XXY=            -31.5928  XXZ=            -35.9956  XZZ=            -25.3846  YZZ=             21.1553
  YYZ=            -28.2664  XYZ=              6.2304
 Hexadecapole moment (field-independent basis, Debye-Ang**3):
 XXXX=          -8095.5015 YYYY=          -3865.2843 ZZZZ=          -3239.7876 XXXY=            115.9326
 XXXZ=             12.1957 YYYX=             15.6502 YYYZ=             -2.6261 ZZZX=              3.5370
 ZZZY=            -14.6964 XXYY=          -1922.7546 XXZZ=          -1880.0995 YYZZ=          -1194.2626
 XXYZ=             31.4351 YYXZ=            -10.9999 ZZXY=             40.1293
 N-N= 3.516974813927D+03 E-N=-1.026017656101D+04  KE= 1.374459983240D+03
 1\1\GINC-B0600\FOpt\RB3LYP\6-31G(d)\C26H34O5\CAOFEI\24-Mar-2021\0\\# o
 pt rb3lyp/6-31g(d) geom=connectivity\\Title Card Required\\0,1\C,0.065
 1868802,-0.0736243132,0.0863876706\C,1.4027904311,-0.0543316471,0.0700
 941539\C,2.1717120247,1.2507194938,0.0534261006\C,1.3336144682,2.53009
 46659,-0.2566028086\C,-0.1673345108,2.3739478391,-0.6160343073\C,-0.80
 13189391,1.1548547107,0.0991148676\C,2.1433884498,3.2672743214,-1.3585
 255359\C,1.7719090686,2.8247819382,-2.7570858042\C,0.5424889697,2.4175
 174412,-3.1437487245\C,-0.5123931056,2.2759279227,-2.1272878554\C,0.24
 08395296,1.9737174645,-4.5580100047\O,-0.160195427,0.844922049,-4.7704
 019934\C,0.3923763281,3.0139585012,-5.6681813588\C,0.6163739141,2.3683
 254237,-7.0435921844\C,-0.8791096564,3.8935835365,-5.6490989247\O,-1.6
 804980597,2.0899402865,-2.4416536112\C,3.5955368057,2.7426466669,-1.31
 6820012\C,4.0976806033,3.0002995464,-2.7583034808\O,2.8523070298,2.829
 9988902,-3.5583651699\C,3.3787423631,1.2651518004,-0.929736597\O,1.987
 9884117,4.6727663613,-1.2984706163\C,-0.7654288987,3.6899279992,-0.055
 8940634\C,0.0613668914,3.9213325834,1.2171077723\O,1.3611132614,3.3785
 836869,0.9196714766\C,0.154114121,5.358870546,1.6828011674\C,-1.170606
 2034,6.05040528,1.8922394358\C,1.3244222899,5.9532513636,1.9377114381\
 C,4.599099562,4.4308382606,-2.9692639781\C,5.0980950028,1.9887422513,-
 3.3108649371\H,4.1999778802,3.2744475908,-0.5753785904\H,2.5696217907,
 1.4219685201,1.0638778267\C,2.2169723618,-1.3226705289,0.1418035168\H,
 -0.4482795496,-1.0329227045,0.1331297549\H,-1.7638245957,0.9582935248,
 -0.382546116\H,-1.0318880776,1.4186177042,1.1427045415\H,1.2497145562,
 3.6523121625,-5.4174480066\H,-0.2006235583,1.6631281068,-7.2353914066\
 H,0.5446901,3.1545989756,-7.8072676722\H,-1.0482601761,4.3417512022,-4
 .6644017298\H,-0.7870441605,4.7031737866,-6.3816161997\H,-1.7625606818
 ,3.2971717597,-5.9017290266\H,3.1242257426,0.6801944491,-1.8201199283\
 H,4.2713860369,0.8098128688,-0.4914993847\H,1.9439722499,4.8861871258,
 -0.3458019161\H,-1.8370341958,3.5944341089,0.1367046594\H,-0.611242684
 ,4.5137411622,-0.7598645181\H,-0.3677531722,3.3316749486,2.0440537648\
 H,-1.7299504789,6.1472558325,0.9530832596\H,-1.8090594564,5.4811516021
 ,2.5817660301\H,-1.031716715,7.051517513,2.3098361381\H,2.2678423796,5
 .4268662356,1.8354504848\H,1.3681324668,6.9823178396,2.284181862\H,4.7
 640952804,4.6133414548,-4.0362414775\H,5.5525148722,4.5734075769,-2.44
 74695615\H,3.8787597694,5.1572291053,-2.5889661033\H,5.327534805,2.221
 0333291,-4.3556574607\H,6.031153249,2.0375982127,-2.7385455671\H,4.716
 3385003,0.9662803424,-3.2668604131\H,1.5699547551,-2.2016164379,0.2201
 689004\H,2.8552160151,-1.4555026769,-0.7411267024\H,2.8856667764,-1.31
 58951819,1.0146901986\C,1.9609763469,1.6454185043,-7.1783844422\H,2.03
 42772317,0.815438209,-6.468356493\H,2.084766117,1.233823361,-8.1866744
 654\H,2.8003866132,2.3263955453,-6.9898158717\\Version=EM64L-G09RevB.0
 1\State=1-A\HF=-1387.3204465\RMSD=5.322e-09\RMSF=6.452e-06\Dipole=1.56
 27264,0.8047008,1.4799466\Quadrupole=2.0855838,-1.0217596,-1.0638242,-
 6.5272178,-7.3558726,-3.6042129\PG=C01 [X(C26H34O5)]\\@


 Any fool can criticize, condemn, and complain -- and most do.
 -- Dale Carnegie
 Job cpu time:  0 days  4 hours 40 minutes 14.2 seconds.
 File lengths (MBytes):  RWF=    186 Int=      0 D2E=      0 Chk=     20 Scr=      1
 Normal termination of Gaussian 09 at Wed Mar 24 17:34:47 2021.
