 Entering Gaussian System, Link 0=g09
 Initial command:
 /public/software/g09/g09/l1.exe /tmp/Gau-6708.inp -scrdir=/tmp/
 Entering Link 1 = /public/software/g09/g09/l1.exe PID=      6709.
  
 Copyright (c) 1988,1990,1992,1993,1995,1998,2003,2009,2010,
            Gaussian, Inc.  All Rights Reserved.
  
 This is part of the Gaussian(R) 09 program.  It is based on
 the Gaussian(R) 03 system (copyright 2003, Gaussian, Inc.),
 the Gaussian(R) 98 system (copyright 1998, Gaussian, Inc.),
 the Gaussian(R) 94 system (copyright 1995, Gaussian, Inc.),
 the Gaussian 92(TM) system (copyright 1992, Gaussian, Inc.),
 the Gaussian 90(TM) system (copyright 1990, Gaussian, Inc.),
 the Gaussian 88(TM) system (copyright 1988, Gaussian, Inc.),
 the Gaussian 86(TM) system (copyright 1986, Carnegie Mellon
 University), and the Gaussian 82(TM) system (copyright 1983,
 Carnegie Mellon University). Gaussian is a federally registered
 trademark of Gaussian, Inc.
  
 This software contains proprietary and confidential information,
 including trade secrets, belonging to Gaussian, Inc.
  
 This software is provided under written license and may be
 used, copied, transmitted, or stored only in accord with that
 written license.
  
 The following legend is applicable only to US Government
 contracts under FAR:
  
                    RESTRICTED RIGHTS LEGEND
  
 Use, reproduction and disclosure by the US Government is
 subject to restrictions as set forth in subparagraphs (a)
 and (c) of the Commercial Computer Software - Restricted
 Rights clause in FAR 52.227-19.
  
 Gaussian, Inc.
 340 Quinnipiac St., Bldg. 40, Wallingford CT 06492
  
  
 ---------------------------------------------------------------
 Warning -- This program may not be used in any manner that
 competes with the business of Gaussian, Inc. or will provide
 assistance to any competitor of Gaussian, Inc.  The licensee
 of this program is prohibited from giving any competitor of
 Gaussian, Inc. access to this program.  By using this program,
 the user acknowledges that Gaussian, Inc. is engaged in the
 business of creating and licensing software in the field of
 computational chemistry and represents and warrants to the
 licensee that it is not a competitor of Gaussian, Inc. and that
 it will not use this program in any manner prohibited above.
 ---------------------------------------------------------------
  

 Cite this work as:
 Gaussian 09, Revision B.01,
 M. J. Frisch, G. W. Trucks, H. B. Schlegel, G. E. Scuseria, 
 M. A. Robb, J. R. Cheeseman, G. Scalmani, V. Barone, B. Mennucci, 
 G. A. Petersson, H. Nakatsuji, M. Caricato, X. Li, H. P. Hratchian, 
 A. F. Izmaylov, J. Bloino, G. Zheng, J. L. Sonnenberg, M. Hada, 
 M. Ehara, K. Toyota, R. Fukuda, J. Hasegawa, M. Ishida, T. Nakajima, 
 Y. Honda, O. Kitao, H. Nakai, T. Vreven, J. A. Montgomery, Jr., 
 J. E. Peralta, F. Ogliaro, M. Bearpark, J. J. Heyd, E. Brothers, 
 K. N. Kudin, V. N. Staroverov, T. Keith, R. Kobayashi, J. Normand, 
 K. Raghavachari, A. Rendell, J. C. Burant, S. S. Iyengar, J. Tomasi, 
 M. Cossi, N. Rega, J. M. Millam, M. Klene, J. E. Knox, J. B. Cross, 
 V. Bakken, C. Adamo, J. Jaramillo, R. Gomperts, R. E. Stratmann, 
 O. Yazyev, A. J. Austin, R. Cammi, C. Pomelli, J. W. Ochterski, 
 R. L. Martin, K. Morokuma, V. G. Zakrzewski, G. A. Voth, 
 P. Salvador, J. J. Dannenberg, S. Dapprich, A. D. Daniels, 
 O. Farkas, J. B. Foresman, J. V. Ortiz, J. Cioslowski, 
 and D. J. Fox, Gaussian, Inc., Wallingford CT, 2010.
 
 ******************************************
 Gaussian 09:  EM64L-G09RevB.01 12-Aug-2010
                24-Mar-2021 
 ******************************************
 %mem=600MW
 %nprocshared=10
 Will use up to   10 processors via shared memory.
 ---------------------------------------
 # opt rb3lyp/6-31g(d) geom=connectivity
 ---------------------------------------
 1/14=-1,18=20,19=15,26=3,38=1,57=2/1,3;
 2/9=110,12=2,17=6,18=5,40=1/2;
 3/5=1,6=6,7=1,11=2,16=1,25=1,30=1,71=1,74=-5,116=1/1,2,3;
 4//1;
 5/5=2,38=5/2;
 6/7=2,8=2,9=2,10=2,28=1/1;
 7//1,2,3,16;
 1/14=-1,18=20,19=15/3(2);
 2/9=110/2;
 99//99;
 2/9=110/2;
 3/5=1,6=6,7=1,11=2,16=1,25=1,30=1,71=1,74=-5,116=1/1,2,3;
 4/5=5,16=3/1;
 5/5=2,38=5/2;
 7//1,2,3,16;
 1/14=-1,18=20,19=15/3(-5);
 2/9=110/2;
 6/7=2,8=2,9=2,10=2,19=2,28=1/1;
 99/9=1/99;
 -------------------
 Title Card Required
 -------------------
 Symbolic Z-matrix:
 Charge =  0 Multiplicity = 1
 C                     0.        0.        0. 
 C                     1.3416    0.        0. 
 C                     2.1357    1.2853    0. 
 C                     1.3359    2.5811   -0.3195 
 C                    -0.1582    2.4535   -0.6599 
 C                    -0.831     1.2418    0.0161 
 C                     2.1442    3.2807   -1.4298 
 C                     1.7883    2.8854   -2.821 
 C                     0.5752    2.4473   -3.171 
 C                    -0.5009    2.4243   -2.1579 
 C                     0.3343    1.9936   -4.5591 
 O                     0.7908    0.9151   -4.9388 
 C                    -0.4769    2.9129   -5.4639 
 C                     0.467     3.5409   -6.4995 
 C                    -1.6144    2.117    -6.0999 
 O                    -1.6742    2.3947   -2.5361 
 C                     3.5555    2.7385   -1.3743 
 C                     4.0598    2.9632   -2.8164 
 O                     2.8915    2.8392   -3.6676 
 C                     3.3161    1.2692   -0.9889 
 O                     2.0907    4.6933   -1.3228 
 C                    -0.7205    3.7559   -0.0841 
 C                     0.1157    3.9679    1.1709 
 O                     1.4193    3.4435    0.8579 
 C                     0.2763    5.3754    1.699 
 C                     1.2045    5.5125    2.8795 
 C                    -0.3609    6.4568    1.218 
 C                     4.6523    4.3661   -3.0249 
 C                     5.0989    1.9324   -3.2707 
 H                     4.1847    3.2404   -0.6303 
 H                     2.5653    1.3835    1.008 
 C                     2.1112   -1.2911    0.0932 
 H                    -0.5435   -0.9421    0.0487 
 H                    -1.08      1.4492    1.0637 
 H                    -1.7887    1.0145   -0.4689 
 H                    -0.9161    3.7105   -4.852 
 H                     1.3187    4.0008   -5.9824 
 H                     0.8878    2.764    -7.1499 
 H                    -2.3036    2.773    -6.6401 
 H                    -2.1927    1.5855   -5.3361 
 H                    -1.2339    1.3683   -6.8035 
 H                     3.0644    0.6561   -1.8628 
 H                     4.2145    0.8326   -0.5379 
 H                     2.1631    4.8923   -0.3673 
 H                    -0.5755    4.5691   -0.8062 
 H                    -1.7927    3.7111    0.138 
 H                    -0.2855    3.3506    1.9843 
 H                     2.2299    5.255     2.5956 
 H                     1.2193    6.5327    3.2778 
 H                     0.8885    4.8476    3.6901 
 H                    -0.208     7.4408    1.6529 
 H                    -1.0562    6.4089    0.3872 
 H                     4.9878    4.4922   -4.0612 
 H                     5.5076    4.5386   -2.3636 
 H                     3.9186    5.1595   -2.8596 
 H                     4.6787    0.9237   -3.3316 
 H                     5.4522    2.1593   -4.2837 
 H                     5.9644    1.9162   -2.6006 
 H                     1.4521   -2.1532    0.2424 
 H                     2.6837   -1.4704   -0.8217 
 H                     2.8046   -1.2583    0.94 
 C                    -0.2029    4.6036   -7.3576 
 H                     0.5345    5.074    -8.016 
 H                    -0.985     4.174    -7.9903 
 H                    -0.6495    5.3863   -6.7363 
 

 GradGradGradGradGradGradGradGradGradGradGradGradGradGradGradGradGradGrad
 Berny optimization.
 Initialization pass.
                           ----------------------------
                           !    Initial Parameters    !
                           ! (Angstroms and Degrees)  !
 --------------------------                            --------------------------
 ! Name  Definition              Value          Derivative Info.                !
 --------------------------------------------------------------------------------
 ! R1    R(1,2)                  1.3416         estimate D2E/DX2                !
 ! R2    R(1,6)                  1.4943         estimate D2E/DX2                !
 ! R3    R(1,33)                 1.0887         estimate D2E/DX2                !
 ! R4    R(2,3)                  1.5108         estimate D2E/DX2                !
 ! R5    R(2,32)                 1.506          estimate D2E/DX2                !
 ! R6    R(3,4)                  1.5559         estimate D2E/DX2                !
 ! R7    R(3,20)                 1.54           estimate D2E/DX2                !
 ! R8    R(3,31)                 1.1001         estimate D2E/DX2                !
 ! R9    R(4,5)                  1.5377         estimate D2E/DX2                !
 ! R10   R(4,7)                  1.5413         estimate D2E/DX2                !
 ! R11   R(4,24)                 1.4618         estimate D2E/DX2                !
 ! R12   R(5,6)                  1.542          estimate D2E/DX2                !
 ! R13   R(5,10)                 1.537          estimate D2E/DX2                !
 ! R14   R(5,22)                 1.531          estimate D2E/DX2                !
 ! R15   R(6,34)                 1.0966         estimate D2E/DX2                !
 ! R16   R(6,35)                 1.0973         estimate D2E/DX2                !
 ! R17   R(7,8)                  1.4894         estimate D2E/DX2                !
 ! R18   R(7,17)                 1.5129         estimate D2E/DX2                !
 ! R19   R(7,21)                 1.4177         estimate D2E/DX2                !
 ! R20   R(8,9)                  1.3364         estimate D2E/DX2                !
 ! R21   R(8,19)                 1.3914         estimate D2E/DX2                !
 ! R22   R(9,10)                 1.4781         estimate D2E/DX2                !
 ! R23   R(9,11)                 1.4801         estimate D2E/DX2                !
 ! R24   R(10,16)                1.2331         estimate D2E/DX2                !
 ! R25   R(11,12)                1.2311         estimate D2E/DX2                !
 ! R26   R(11,13)                1.5238         estimate D2E/DX2                !
 ! R27   R(13,14)                1.5355         estimate D2E/DX2                !
 ! R28   R(13,15)                1.527          estimate D2E/DX2                !
 ! R29   R(13,36)                1.097          estimate D2E/DX2                !
 ! R30   R(14,37)                1.0974         estimate D2E/DX2                !
 ! R31   R(14,38)                1.0971         estimate D2E/DX2                !
 ! R32   R(14,62)                1.5213         estimate D2E/DX2                !
 ! R33   R(15,39)                1.0941         estimate D2E/DX2                !
 ! R34   R(15,40)                1.0956         estimate D2E/DX2                !
 ! R35   R(15,41)                1.0956         estimate D2E/DX2                !
 ! R36   R(17,18)                1.5442         estimate D2E/DX2                !
 ! R37   R(17,20)                1.5378         estimate D2E/DX2                !
 ! R38   R(17,30)                1.0961         estimate D2E/DX2                !
 ! R39   R(18,19)                1.4508         estimate D2E/DX2                !
 ! R40   R(18,28)                1.5371         estimate D2E/DX2                !
 ! R41   R(18,29)                1.5325         estimate D2E/DX2                !
 ! R42   R(20,42)                1.0968         estimate D2E/DX2                !
 ! R43   R(20,43)                1.096          estimate D2E/DX2                !
 ! R44   R(21,44)                0.9787         estimate D2E/DX2                !
 ! R45   R(22,23)                1.5229         estimate D2E/DX2                !
 ! R46   R(22,45)                1.0972         estimate D2E/DX2                !
 ! R47   R(22,46)                1.0959         estimate D2E/DX2                !
 ! R48   R(23,24)                1.4396         estimate D2E/DX2                !
 ! R49   R(23,25)                1.5119         estimate D2E/DX2                !
 ! R50   R(23,47)                1.0971         estimate D2E/DX2                !
 ! R51   R(25,26)                1.508          estimate D2E/DX2                !
 ! R52   R(25,27)                1.3442         estimate D2E/DX2                !
 ! R53   R(26,48)                1.0947         estimate D2E/DX2                !
 ! R54   R(26,49)                1.0953         estimate D2E/DX2                !
 ! R55   R(26,50)                1.095          estimate D2E/DX2                !
 ! R56   R(27,51)                1.0866         estimate D2E/DX2                !
 ! R57   R(27,52)                1.0844         estimate D2E/DX2                !
 ! R58   R(28,53)                1.0965         estimate D2E/DX2                !
 ! R59   R(28,54)                1.0948         estimate D2E/DX2                !
 ! R60   R(28,55)                1.0932         estimate D2E/DX2                !
 ! R61   R(29,56)                1.0944         estimate D2E/DX2                !
 ! R62   R(29,57)                1.0966         estimate D2E/DX2                !
 ! R63   R(29,58)                1.0947         estimate D2E/DX2                !
 ! R64   R(32,59)                1.0954         estimate D2E/DX2                !
 ! R65   R(32,60)                1.0941         estimate D2E/DX2                !
 ! R66   R(32,61)                1.095          estimate D2E/DX2                !
 ! R67   R(62,63)                1.0948         estimate D2E/DX2                !
 ! R68   R(62,64)                1.0939         estimate D2E/DX2                !
 ! R69   R(62,65)                1.0946         estimate D2E/DX2                !
 ! A1    A(2,1,6)              123.7878         estimate D2E/DX2                !
 ! A2    A(2,1,33)             119.9477         estimate D2E/DX2                !
 ! A3    A(6,1,33)             116.1685         estimate D2E/DX2                !
 ! A4    A(1,2,3)              121.7091         estimate D2E/DX2                !
 ! A5    A(1,2,32)             120.7329         estimate D2E/DX2                !
 ! A6    A(3,2,32)             117.4354         estimate D2E/DX2                !
 ! A7    A(2,3,4)              115.997          estimate D2E/DX2                !
 ! A8    A(2,3,20)             113.2028         estimate D2E/DX2                !
 ! A9    A(2,3,31)             106.3312         estimate D2E/DX2                !
 ! A10   A(4,3,20)             105.7153         estimate D2E/DX2                !
 ! A11   A(4,3,31)             108.3333         estimate D2E/DX2                !
 ! A12   A(20,3,31)            106.8575         estimate D2E/DX2                !
 ! A13   A(3,4,5)              118.4125         estimate D2E/DX2                !
 ! A14   A(3,4,7)              104.8549         estimate D2E/DX2                !
 ! A15   A(3,4,24)             107.2536         estimate D2E/DX2                !
 ! A16   A(5,4,7)              112.8154         estimate D2E/DX2                !
 ! A17   A(5,4,24)             106.4206         estimate D2E/DX2                !
 ! A18   A(7,4,24)             106.41           estimate D2E/DX2                !
 ! A19   A(4,5,6)              113.0852         estimate D2E/DX2                !
 ! A20   A(4,5,10)             115.7206         estimate D2E/DX2                !
 ! A21   A(4,5,22)             101.7134         estimate D2E/DX2                !
 ! A22   A(6,5,10)             108.3641         estimate D2E/DX2                !
 ! A23   A(6,5,22)             110.0802         estimate D2E/DX2                !
 ! A24   A(10,5,22)            107.5072         estimate D2E/DX2                !
 ! A25   A(1,6,5)              113.9318         estimate D2E/DX2                !
 ! A26   A(1,6,34)             107.0825         estimate D2E/DX2                !
 ! A27   A(1,6,35)             107.9665         estimate D2E/DX2                !
 ! A28   A(5,6,34)             111.6699         estimate D2E/DX2                !
 ! A29   A(5,6,35)             110.4755         estimate D2E/DX2                !
 ! A30   A(34,6,35)            105.2629         estimate D2E/DX2                !
 ! A31   A(4,7,8)              115.2827         estimate D2E/DX2                !
 ! A32   A(4,7,17)             107.4646         estimate D2E/DX2                !
 ! A33   A(4,7,21)             112.2176         estimate D2E/DX2                !
 ! A34   A(8,7,17)              99.3262         estimate D2E/DX2                !
 ! A35   A(8,7,21)             109.0226         estimate D2E/DX2                !
 ! A36   A(17,7,21)            112.9262         estimate D2E/DX2                !
 ! A37   A(7,8,9)              123.266          estimate D2E/DX2                !
 ! A38   A(7,8,19)             112.8109         estimate D2E/DX2                !
 ! A39   A(9,8,19)             123.3313         estimate D2E/DX2                !
 ! A40   A(8,9,10)             119.1062         estimate D2E/DX2                !
 ! A41   A(8,9,11)             119.5932         estimate D2E/DX2                !
 ! A42   A(10,9,11)            121.3005         estimate D2E/DX2                !
 ! A43   A(5,10,9)             120.3571         estimate D2E/DX2                !
 ! A44   A(5,10,16)            120.7665         estimate D2E/DX2                !
 ! A45   A(9,10,16)            118.8726         estimate D2E/DX2                !
 ! A46   A(9,11,12)            119.8293         estimate D2E/DX2                !
 ! A47   A(9,11,13)            117.2968         estimate D2E/DX2                !
 ! A48   A(12,11,13)           122.8727         estimate D2E/DX2                !
 ! A49   A(11,13,14)           108.6609         estimate D2E/DX2                !
 ! A50   A(11,13,15)           109.234          estimate D2E/DX2                !
 ! A51   A(11,13,36)           108.6973         estimate D2E/DX2                !
 ! A52   A(14,13,15)           112.9651         estimate D2E/DX2                !
 ! A53   A(14,13,36)           108.9615         estimate D2E/DX2                !
 ! A54   A(15,13,36)           108.2417         estimate D2E/DX2                !
 ! A55   A(13,14,37)           109.3103         estimate D2E/DX2                !
 ! A56   A(13,14,38)           110.2418         estimate D2E/DX2                !
 ! A57   A(13,14,62)           113.2921         estimate D2E/DX2                !
 ! A58   A(37,14,38)           106.1665         estimate D2E/DX2                !
 ! A59   A(37,14,62)           108.348          estimate D2E/DX2                !
 ! A60   A(38,14,62)           109.218          estimate D2E/DX2                !
 ! A61   A(13,15,39)           111.2448         estimate D2E/DX2                !
 ! A62   A(13,15,40)           110.8353         estimate D2E/DX2                !
 ! A63   A(13,15,41)           111.4037         estimate D2E/DX2                !
 ! A64   A(39,15,40)           107.6123         estimate D2E/DX2                !
 ! A65   A(39,15,41)           108.144          estimate D2E/DX2                !
 ! A66   A(40,15,41)           107.4283         estimate D2E/DX2                !
 ! A67   A(7,17,18)            102.6059         estimate D2E/DX2                !
 ! A68   A(7,17,20)            101.9115         estimate D2E/DX2                !
 ! A69   A(7,17,30)            113.3473         estimate D2E/DX2                !
 ! A70   A(18,17,20)           115.0835         estimate D2E/DX2                !
 ! A71   A(18,17,30)           112.3224         estimate D2E/DX2                !
 ! A72   A(20,17,30)           110.9024         estimate D2E/DX2                !
 ! A73   A(17,18,19)           105.8131         estimate D2E/DX2                !
 ! A74   A(17,18,28)           112.6672         estimate D2E/DX2                !
 ! A75   A(17,18,29)           113.6031         estimate D2E/DX2                !
 ! A76   A(19,18,28)           107.9888         estimate D2E/DX2                !
 ! A77   A(19,18,29)           108.336          estimate D2E/DX2                !
 ! A78   A(28,18,29)           108.1992         estimate D2E/DX2                !
 ! A79   A(8,19,18)            106.1805         estimate D2E/DX2                !
 ! A80   A(3,20,17)            105.681          estimate D2E/DX2                !
 ! A81   A(3,20,42)            109.9741         estimate D2E/DX2                !
 ! A82   A(3,20,43)            111.6073         estimate D2E/DX2                !
 ! A83   A(17,20,42)           111.7246         estimate D2E/DX2                !
 ! A84   A(17,20,43)           110.8641         estimate D2E/DX2                !
 ! A85   A(42,20,43)           107.0565         estimate D2E/DX2                !
 ! A86   A(7,21,44)            105.873          estimate D2E/DX2                !
 ! A87   A(5,22,23)            103.1023         estimate D2E/DX2                !
 ! A88   A(5,22,45)            109.5391         estimate D2E/DX2                !
 ! A89   A(5,22,46)            113.6273         estimate D2E/DX2                !
 ! A90   A(23,22,45)           111.5081         estimate D2E/DX2                !
 ! A91   A(23,22,46)           112.0798         estimate D2E/DX2                !
 ! A92   A(45,22,46)           107.0372         estimate D2E/DX2                !
 ! A93   A(22,23,24)           105.5059         estimate D2E/DX2                !
 ! A94   A(22,23,25)           118.4104         estimate D2E/DX2                !
 ! A95   A(22,23,47)           109.3818         estimate D2E/DX2                !
 ! A96   A(24,23,25)           108.5955         estimate D2E/DX2                !
 ! A97   A(24,23,47)           106.7016         estimate D2E/DX2                !
 ! A98   A(25,23,47)           107.6795         estimate D2E/DX2                !
 ! A99   A(4,24,23)            109.7771         estimate D2E/DX2                !
 ! A100  A(23,25,26)           115.0544         estimate D2E/DX2                !
 ! A101  A(23,25,27)           125.0031         estimate D2E/DX2                !
 ! A102  A(26,25,27)           119.9194         estimate D2E/DX2                !
 ! A103  A(25,26,48)           110.6196         estimate D2E/DX2                !
 ! A104  A(25,26,49)           112.1901         estimate D2E/DX2                !
 ! A105  A(25,26,50)           110.2845         estimate D2E/DX2                !
 ! A106  A(48,26,49)           107.5027         estimate D2E/DX2                !
 ! A107  A(48,26,50)           108.6309         estimate D2E/DX2                !
 ! A108  A(49,26,50)           107.4747         estimate D2E/DX2                !
 ! A109  A(25,27,51)           121.2385         estimate D2E/DX2                !
 ! A110  A(25,27,52)           122.858          estimate D2E/DX2                !
 ! A111  A(51,27,52)           115.9026         estimate D2E/DX2                !
 ! A112  A(18,28,53)           110.5542         estimate D2E/DX2                !
 ! A113  A(18,28,54)           111.2852         estimate D2E/DX2                !
 ! A114  A(18,28,55)           112.5305         estimate D2E/DX2                !
 ! A115  A(53,28,54)           108.2826         estimate D2E/DX2                !
 ! A116  A(53,28,55)           105.3541         estimate D2E/DX2                !
 ! A117  A(54,28,55)           108.5802         estimate D2E/DX2                !
 ! A118  A(18,29,56)           112.0922         estimate D2E/DX2                !
 ! A119  A(18,29,57)           110.6783         estimate D2E/DX2                !
 ! A120  A(18,29,58)           111.3805         estimate D2E/DX2                !
 ! A121  A(56,29,57)           105.2486         estimate D2E/DX2                !
 ! A122  A(56,29,58)           108.9038         estimate D2E/DX2                !
 ! A123  A(57,29,58)           108.289          estimate D2E/DX2                !
 ! A124  A(2,32,59)            112.066          estimate D2E/DX2                !
 ! A125  A(2,32,60)            110.8651         estimate D2E/DX2                !
 ! A126  A(2,32,61)            110.2306         estimate D2E/DX2                !
 ! A127  A(59,32,60)           107.4445         estimate D2E/DX2                !
 ! A128  A(59,32,61)           107.414          estimate D2E/DX2                !
 ! A129  A(60,32,61)           108.6783         estimate D2E/DX2                !
 ! A130  A(14,62,63)           110.0456         estimate D2E/DX2                !
 ! A131  A(14,62,64)           111.5151         estimate D2E/DX2                !
 ! A132  A(14,62,65)           111.0391         estimate D2E/DX2                !
 ! A133  A(63,62,64)           107.6068         estimate D2E/DX2                !
 ! A134  A(63,62,65)           107.9954         estimate D2E/DX2                !
 ! A135  A(64,62,65)           108.5073         estimate D2E/DX2                !
 ! D1    D(6,1,2,3)             -0.7428         estimate D2E/DX2                !
 ! D2    D(6,1,2,32)           175.1284         estimate D2E/DX2                !
 ! D3    D(33,1,2,3)          -177.0408         estimate D2E/DX2                !
 ! D4    D(33,1,2,32)           -1.1697         estimate D2E/DX2                !
 ! D5    D(2,1,6,5)             29.388          estimate D2E/DX2                !
 ! D6    D(2,1,6,34)           -94.5999         estimate D2E/DX2                !
 ! D7    D(2,1,6,35)           152.4975         estimate D2E/DX2                !
 ! D8    D(33,1,6,5)          -154.1858         estimate D2E/DX2                !
 ! D9    D(33,1,6,34)           81.8263         estimate D2E/DX2                !
 ! D10   D(33,1,6,35)          -31.0763         estimate D2E/DX2                !
 ! D11   D(1,2,3,4)            -13.2066         estimate D2E/DX2                !
 ! D12   D(1,2,3,20)          -135.6801         estimate D2E/DX2                !
 ! D13   D(1,2,3,31)           107.2949         estimate D2E/DX2                !
 ! D14   D(32,2,3,4)           170.7919         estimate D2E/DX2                !
 ! D15   D(32,2,3,20)           48.3183         estimate D2E/DX2                !
 ! D16   D(32,2,3,31)          -68.7067         estimate D2E/DX2                !
 ! D17   D(1,2,32,59)           -4.9017         estimate D2E/DX2                !
 ! D18   D(1,2,32,60)          115.1438         estimate D2E/DX2                !
 ! D19   D(1,2,32,61)         -124.476          estimate D2E/DX2                !
 ! D20   D(3,2,32,59)          171.1409         estimate D2E/DX2                !
 ! D21   D(3,2,32,60)          -68.8135         estimate D2E/DX2                !
 ! D22   D(3,2,32,61)           51.5667         estimate D2E/DX2                !
 ! D23   D(2,3,4,5)             -2.3869         estimate D2E/DX2                !
 ! D24   D(2,3,4,7)           -129.2282         estimate D2E/DX2                !
 ! D25   D(2,3,4,24)           117.9153         estimate D2E/DX2                !
 ! D26   D(20,3,4,5)           123.9532         estimate D2E/DX2                !
 ! D27   D(20,3,4,7)            -2.888          estimate D2E/DX2                !
 ! D28   D(20,3,4,24)         -115.7445         estimate D2E/DX2                !
 ! D29   D(31,3,4,5)          -121.8043         estimate D2E/DX2                !
 ! D30   D(31,3,4,7)           111.3545         estimate D2E/DX2                !
 ! D31   D(31,3,4,24)           -1.502          estimate D2E/DX2                !
 ! D32   D(2,3,20,17)          152.9627         estimate D2E/DX2                !
 ! D33   D(2,3,20,42)           32.226          estimate D2E/DX2                !
 ! D34   D(2,3,20,43)          -86.4354         estimate D2E/DX2                !
 ! D35   D(4,3,20,17)           24.9359         estimate D2E/DX2                !
 ! D36   D(4,3,20,42)          -95.8008         estimate D2E/DX2                !
 ! D37   D(4,3,20,43)          145.5378         estimate D2E/DX2                !
 ! D38   D(31,3,20,17)         -90.3219         estimate D2E/DX2                !
 ! D39   D(31,3,20,42)         148.9414         estimate D2E/DX2                !
 ! D40   D(31,3,20,43)          30.2801         estimate D2E/DX2                !
 ! D41   D(3,4,5,6)             29.1368         estimate D2E/DX2                !
 ! D42   D(3,4,5,10)           -96.6989         estimate D2E/DX2                !
 ! D43   D(3,4,5,22)           147.1407         estimate D2E/DX2                !
 ! D44   D(7,4,5,6)            152.0796         estimate D2E/DX2                !
 ! D45   D(7,4,5,10)            26.2439         estimate D2E/DX2                !
 ! D46   D(7,4,5,22)           -89.9165         estimate D2E/DX2                !
 ! D47   D(24,4,5,6)           -91.5931         estimate D2E/DX2                !
 ! D48   D(24,4,5,10)          142.5711         estimate D2E/DX2                !
 ! D49   D(24,4,5,22)           26.4107         estimate D2E/DX2                !
 ! D50   D(3,4,7,8)             88.9581         estimate D2E/DX2                !
 ! D51   D(3,4,7,17)           -20.705          estimate D2E/DX2                !
 ! D52   D(3,4,7,21)          -145.4292         estimate D2E/DX2                !
 ! D53   D(5,4,7,8)            -41.2551         estimate D2E/DX2                !
 ! D54   D(5,4,7,17)          -150.9181         estimate D2E/DX2                !
 ! D55   D(5,4,7,21)            84.3576         estimate D2E/DX2                !
 ! D56   D(24,4,7,8)          -157.5887         estimate D2E/DX2                !
 ! D57   D(24,4,7,17)           92.7483         estimate D2E/DX2                !
 ! D58   D(24,4,7,21)          -31.976          estimate D2E/DX2                !
 ! D59   D(3,4,24,23)         -133.964          estimate D2E/DX2                !
 ! D60   D(5,4,24,23)           -6.3056         estimate D2E/DX2                !
 ! D61   D(7,4,24,23)          114.2391         estimate D2E/DX2                !
 ! D62   D(4,5,6,1)            -41.673          estimate D2E/DX2                !
 ! D63   D(4,5,6,34)            79.8041         estimate D2E/DX2                !
 ! D64   D(4,5,6,35)          -163.405          estimate D2E/DX2                !
 ! D65   D(10,5,6,1)            88.012          estimate D2E/DX2                !
 ! D66   D(10,5,6,34)         -150.5109         estimate D2E/DX2                !
 ! D67   D(10,5,6,35)          -33.72           estimate D2E/DX2                !
 ! D68   D(22,5,6,1)          -154.6762         estimate D2E/DX2                !
 ! D69   D(22,5,6,34)          -33.1992         estimate D2E/DX2                !
 ! D70   D(22,5,6,35)           83.5917         estimate D2E/DX2                !
 ! D71   D(4,5,10,9)             3.0881         estimate D2E/DX2                !
 ! D72   D(4,5,10,16)         -176.1935         estimate D2E/DX2                !
 ! D73   D(6,5,10,9)          -125.1174         estimate D2E/DX2                !
 ! D74   D(6,5,10,16)           55.6011         estimate D2E/DX2                !
 ! D75   D(22,5,10,9)          115.933          estimate D2E/DX2                !
 ! D76   D(22,5,10,16)         -63.3486         estimate D2E/DX2                !
 ! D77   D(4,5,22,23)          -35.7973         estimate D2E/DX2                !
 ! D78   D(4,5,22,45)           83.0212         estimate D2E/DX2                !
 ! D79   D(4,5,22,46)         -157.3361         estimate D2E/DX2                !
 ! D80   D(6,5,22,23)           84.345          estimate D2E/DX2                !
 ! D81   D(6,5,22,45)         -156.8366         estimate D2E/DX2                !
 ! D82   D(6,5,22,46)          -37.1938         estimate D2E/DX2                !
 ! D83   D(10,5,22,23)        -157.8122         estimate D2E/DX2                !
 ! D84   D(10,5,22,45)         -38.9938         estimate D2E/DX2                !
 ! D85   D(10,5,22,46)          80.649          estimate D2E/DX2                !
 ! D86   D(4,7,8,9)             27.5286         estimate D2E/DX2                !
 ! D87   D(4,7,8,19)          -143.9041         estimate D2E/DX2                !
 ! D88   D(17,7,8,9)           141.9803         estimate D2E/DX2                !
 ! D89   D(17,7,8,19)          -29.4525         estimate D2E/DX2                !
 ! D90   D(21,7,8,9)           -99.7134         estimate D2E/DX2                !
 ! D91   D(21,7,8,19)           88.8539         estimate D2E/DX2                !
 ! D92   D(4,7,17,18)          155.13           estimate D2E/DX2                !
 ! D93   D(4,7,17,20)           35.7142         estimate D2E/DX2                !
 ! D94   D(4,7,17,30)          -83.5082         estimate D2E/DX2                !
 ! D95   D(8,7,17,18)           34.7727         estimate D2E/DX2                !
 ! D96   D(8,7,17,20)          -84.6431         estimate D2E/DX2                !
 ! D97   D(8,7,17,30)          156.1346         estimate D2E/DX2                !
 ! D98   D(21,7,17,18)         -80.5741         estimate D2E/DX2                !
 ! D99   D(21,7,17,20)         160.0101         estimate D2E/DX2                !
 ! D100  D(21,7,17,30)          40.7877         estimate D2E/DX2                !
 ! D101  D(4,7,21,44)           40.6455         estimate D2E/DX2                !
 ! D102  D(8,7,21,44)          169.6077         estimate D2E/DX2                !
 ! D103  D(17,7,21,44)         -81.0058         estimate D2E/DX2                !
 ! D104  D(7,8,9,10)             3.8193         estimate D2E/DX2                !
 ! D105  D(7,8,9,11)          -176.0792         estimate D2E/DX2                !
 ! D106  D(19,8,9,10)          174.3595         estimate D2E/DX2                !
 ! D107  D(19,8,9,11)           -5.5389         estimate D2E/DX2                !
 ! D108  D(7,8,19,18)           10.2456         estimate D2E/DX2                !
 ! D109  D(9,8,19,18)         -161.1806         estimate D2E/DX2                !
 ! D110  D(8,9,10,5)           -19.7204         estimate D2E/DX2                !
 ! D111  D(8,9,10,16)          159.5746         estimate D2E/DX2                !
 ! D112  D(11,9,10,5)          160.1762         estimate D2E/DX2                !
 ! D113  D(11,9,10,16)         -20.5287         estimate D2E/DX2                !
 ! D114  D(8,9,11,12)           73.4974         estimate D2E/DX2                !
 ! D115  D(8,9,11,13)         -106.1167         estimate D2E/DX2                !
 ! D116  D(10,9,11,12)        -106.3988         estimate D2E/DX2                !
 ! D117  D(10,9,11,13)          73.9872         estimate D2E/DX2                !
 ! D118  D(9,11,13,14)         108.0134         estimate D2E/DX2                !
 ! D119  D(9,11,13,15)        -128.3448         estimate D2E/DX2                !
 ! D120  D(9,11,13,36)         -10.4349         estimate D2E/DX2                !
 ! D121  D(12,11,13,14)        -71.588          estimate D2E/DX2                !
 ! D122  D(12,11,13,15)         52.0538         estimate D2E/DX2                !
 ! D123  D(12,11,13,36)        169.9638         estimate D2E/DX2                !
 ! D124  D(11,13,14,37)        -52.3678         estimate D2E/DX2                !
 ! D125  D(11,13,14,38)         63.9697         estimate D2E/DX2                !
 ! D126  D(11,13,14,62)       -173.2983         estimate D2E/DX2                !
 ! D127  D(15,13,14,37)       -173.7503         estimate D2E/DX2                !
 ! D128  D(15,13,14,38)        -57.4128         estimate D2E/DX2                !
 ! D129  D(15,13,14,62)         65.3192         estimate D2E/DX2                !
 ! D130  D(36,13,14,37)         65.9136         estimate D2E/DX2                !
 ! D131  D(36,13,14,38)       -177.7489         estimate D2E/DX2                !
 ! D132  D(36,13,14,62)        -55.0168         estimate D2E/DX2                !
 ! D133  D(11,13,15,39)        171.7282         estimate D2E/DX2                !
 ! D134  D(11,13,15,40)         52.0383         estimate D2E/DX2                !
 ! D135  D(11,13,15,41)        -67.5246         estimate D2E/DX2                !
 ! D136  D(14,13,15,39)        -67.2139         estimate D2E/DX2                !
 ! D137  D(14,13,15,40)        173.0962         estimate D2E/DX2                !
 ! D138  D(14,13,15,41)         53.5332         estimate D2E/DX2                !
 ! D139  D(36,13,15,39)         53.5327         estimate D2E/DX2                !
 ! D140  D(36,13,15,40)        -66.1572         estimate D2E/DX2                !
 ! D141  D(36,13,15,41)        174.2799         estimate D2E/DX2                !
 ! D142  D(13,14,62,63)        175.2147         estimate D2E/DX2                !
 ! D143  D(13,14,62,64)        -65.4484         estimate D2E/DX2                !
 ! D144  D(13,14,62,65)         55.6965         estimate D2E/DX2                !
 ! D145  D(37,14,62,63)         53.7424         estimate D2E/DX2                !
 ! D146  D(37,14,62,64)        173.0793         estimate D2E/DX2                !
 ! D147  D(37,14,62,65)        -65.7757         estimate D2E/DX2                !
 ! D148  D(38,14,62,63)        -61.4882         estimate D2E/DX2                !
 ! D149  D(38,14,62,64)         57.8487         estimate D2E/DX2                !
 ! D150  D(38,14,62,65)        178.9936         estimate D2E/DX2                !
 ! D151  D(7,17,18,19)         -31.3867         estimate D2E/DX2                !
 ! D152  D(7,17,18,28)          86.3966         estimate D2E/DX2                !
 ! D153  D(7,17,18,29)        -150.1091         estimate D2E/DX2                !
 ! D154  D(20,17,18,19)         78.3806         estimate D2E/DX2                !
 ! D155  D(20,17,18,28)       -163.8361         estimate D2E/DX2                !
 ! D156  D(20,17,18,29)        -40.3418         estimate D2E/DX2                !
 ! D157  D(30,17,18,19)       -153.4469         estimate D2E/DX2                !
 ! D158  D(30,17,18,28)        -35.6636         estimate D2E/DX2                !
 ! D159  D(30,17,18,29)         87.8307         estimate D2E/DX2                !
 ! D160  D(7,17,20,3)          -37.1356         estimate D2E/DX2                !
 ! D161  D(7,17,20,42)          82.4539         estimate D2E/DX2                !
 ! D162  D(7,17,20,43)        -158.2211         estimate D2E/DX2                !
 ! D163  D(18,17,20,3)        -147.318          estimate D2E/DX2                !
 ! D164  D(18,17,20,42)        -27.7285         estimate D2E/DX2                !
 ! D165  D(18,17,20,43)         91.5965         estimate D2E/DX2                !
 ! D166  D(30,17,20,3)          83.803          estimate D2E/DX2                !
 ! D167  D(30,17,20,42)       -156.6075         estimate D2E/DX2                !
 ! D168  D(30,17,20,43)        -37.2826         estimate D2E/DX2                !
 ! D169  D(17,18,19,8)          13.5584         estimate D2E/DX2                !
 ! D170  D(28,18,19,8)        -107.311          estimate D2E/DX2                !
 ! D171  D(29,18,19,8)         135.7174         estimate D2E/DX2                !
 ! D172  D(17,18,28,53)       -179.3211         estimate D2E/DX2                !
 ! D173  D(17,18,28,54)         60.305          estimate D2E/DX2                !
 ! D174  D(17,18,28,55)        -61.8241         estimate D2E/DX2                !
 ! D175  D(19,18,28,53)        -62.8277         estimate D2E/DX2                !
 ! D176  D(19,18,28,54)        176.7985         estimate D2E/DX2                !
 ! D177  D(19,18,28,55)         54.6693         estimate D2E/DX2                !
 ! D178  D(29,18,28,53)         54.2325         estimate D2E/DX2                !
 ! D179  D(29,18,28,54)        -66.1413         estimate D2E/DX2                !
 ! D180  D(29,18,28,55)        171.7295         estimate D2E/DX2                !
 ! D181  D(17,18,29,56)         65.052          estimate D2E/DX2                !
 ! D182  D(17,18,29,57)       -177.7804         estimate D2E/DX2                !
 ! D183  D(17,18,29,58)        -57.2514         estimate D2E/DX2                !
 ! D184  D(19,18,29,56)        -52.2124         estimate D2E/DX2                !
 ! D185  D(19,18,29,57)         64.9552         estimate D2E/DX2                !
 ! D186  D(19,18,29,58)       -174.5159         estimate D2E/DX2                !
 ! D187  D(28,18,29,56)       -169.0485         estimate D2E/DX2                !
 ! D188  D(28,18,29,57)        -51.881          estimate D2E/DX2                !
 ! D189  D(28,18,29,58)         68.648          estimate D2E/DX2                !
 ! D190  D(5,22,23,24)          33.2523         estimate D2E/DX2                !
 ! D191  D(5,22,23,25)         155.0093         estimate D2E/DX2                !
 ! D192  D(5,22,23,47)         -81.1891         estimate D2E/DX2                !
 ! D193  D(45,22,23,24)        -84.1873         estimate D2E/DX2                !
 ! D194  D(45,22,23,25)         37.5697         estimate D2E/DX2                !
 ! D195  D(45,22,23,47)        161.3713         estimate D2E/DX2                !
 ! D196  D(46,22,23,24)        155.8325         estimate D2E/DX2                !
 ! D197  D(46,22,23,25)        -82.4105         estimate D2E/DX2                !
 ! D198  D(46,22,23,47)         41.3911         estimate D2E/DX2                !
 ! D199  D(22,23,24,4)         -16.89           estimate D2E/DX2                !
 ! D200  D(25,23,24,4)        -144.7907         estimate D2E/DX2                !
 ! D201  D(47,23,24,4)          99.3933         estimate D2E/DX2                !
 ! D202  D(22,23,25,26)       -175.4517         estimate D2E/DX2                !
 ! D203  D(22,23,25,27)          6.3057         estimate D2E/DX2                !
 ! D204  D(24,23,25,26)        -55.274          estimate D2E/DX2                !
 ! D205  D(24,23,25,27)        126.4833         estimate D2E/DX2                !
 ! D206  D(47,23,25,26)         59.9077         estimate D2E/DX2                !
 ! D207  D(47,23,25,27)       -118.3349         estimate D2E/DX2                !
 ! D208  D(23,25,26,48)         64.9343         estimate D2E/DX2                !
 ! D209  D(23,25,26,49)       -175.0317         estimate D2E/DX2                !
 ! D210  D(23,25,26,50)        -55.2626         estimate D2E/DX2                !
 ! D211  D(27,25,26,48)       -116.7265         estimate D2E/DX2                !
 ! D212  D(27,25,26,49)          3.3075         estimate D2E/DX2                !
 ! D213  D(27,25,26,50)        123.0766         estimate D2E/DX2                !
 ! D214  D(23,25,27,51)        179.2727         estimate D2E/DX2                !
 ! D215  D(23,25,27,52)         -0.3468         estimate D2E/DX2                !
 ! D216  D(26,25,27,51)          1.1095         estimate D2E/DX2                !
 ! D217  D(26,25,27,52)       -178.51           estimate D2E/DX2                !
 --------------------------------------------------------------------------------
 Trust Radius=3.00D-01 FncErr=1.00D-07 GrdErr=1.00D-06
 Number of steps in this run=    390 maximum allowed number of steps=    390.
 GradGradGradGradGradGradGradGradGradGradGradGradGradGradGradGradGradGrad

 Stoichiometry    C26H34O5
 Framework group  C1[X(C26H34O5)]
 Deg. of freedom   189
 Full point group                 C1      NOp   1
 Largest Abelian subgroup         C1      NOp   1
 Largest concise Abelian subgroup C1      NOp   1
                         Standard orientation:                         
 ---------------------------------------------------------------------
 Center     Atomic      Atomic             Coordinates (Angstroms)
 Number     Number       Type             X           Y           Z
 ---------------------------------------------------------------------
      1          6           0       -1.519484    0.331708    3.186006
      2          6           0       -1.617333    1.497272    2.528909
      3          6           0       -1.793000    1.551138    1.029298
      4          6           0       -1.536076    0.220851    0.264325
      5          6           0       -1.077357   -1.007879    1.067000
      6          6           0       -1.588629   -1.005056    2.521801
      7          6           0       -0.556460    0.597048   -0.864561
      8          6           0        0.887340    0.508720   -0.509593
      9          6           0        1.363545   -0.322054    0.422655
     10          6           0        0.438007   -1.263966    1.086789
     11          6           0        2.801230   -0.281629    0.772121
     12          8           0        3.243827    0.655566    1.436576
     13          6           0        3.674750   -1.424881    0.270368
     14          6           0        4.576850   -0.896801   -0.854419
     15          6           0        4.462252   -2.007724    1.441689
     16          8           0        0.901892   -2.261799    1.643282
     17          6           0       -0.664839    2.090469   -1.080843
     18          6           0        0.709973    2.443585   -1.688841
     19          8           0        1.651887    1.505398   -1.107940
     20          6           0       -0.895521    2.602574    0.350667
     21          8           0       -0.788234   -0.150406   -2.046654
     22          6           0       -1.727500   -2.151349    0.283571
     23          6           0       -3.054276   -1.552564   -0.164002
     24          8           0       -2.790465   -0.154830   -0.385546
     25          6           0       -3.719400   -2.119132   -1.397837
     26          6           0       -4.972037   -1.402001   -1.834365
     27          6           0       -3.294305   -3.199126   -2.075862
     28          6           0        0.745302    2.267895   -3.215452
     29          6           0        1.179795    3.864685   -1.359585
     30          1           0       -1.495591    2.375234   -1.736657
     31          1           0       -2.834394    1.857474    0.850637
     32          6           0       -1.647742    2.803104    3.278433
     33          1           0       -1.441901    0.324841    4.271939
     34          1           0       -2.629861   -1.343035    2.585727
     35          1           0       -1.016292   -1.715807    3.131181
     36          1           0        3.026023   -2.212257   -0.132963
     37          1           0        3.959056   -0.393827   -1.609165
     38          1           0        5.263258   -0.134956   -0.464417
     39          1           0        4.988905   -2.921309    1.149887
     40          1           0        3.794577   -2.260995    2.272579
     41          1           0        5.201850   -1.293880    1.820907
     42          1           0        0.046892    2.703161    0.902651
     43          1           0       -1.368945    3.590957    0.340097
     44          1           0       -1.760671   -0.203329   -2.143541
     45          1           0       -1.095442   -2.414681   -0.573697
     46          1           0       -1.865767   -3.064725    0.873127
     47          1           0       -3.776266   -1.610414    0.660027
     48          1           0       -4.741287   -0.378568   -2.146921
     49          1           0       -5.462139   -1.901225   -2.677126
     50          1           0       -5.693099   -1.362225   -1.011257
     51          1           0       -3.827511   -3.561121   -2.950747
     52          1           0       -2.414121   -3.764406   -1.790032
     53          1           0        1.738450    2.515785   -3.608626
     54          1           0        0.010367    2.913600   -3.706928
     55          1           0        0.561966    1.234848   -3.522576
     56          1           0        1.363333    3.999886   -0.289170
     57          1           0        2.139271    4.077735   -1.845886
     58          1           0        0.452664    4.612470   -1.691976
     59          1           0       -1.668865    2.654392    4.363481
     60          1           0       -0.764466    3.405821    3.047130
     61          1           0       -2.542294    3.373916    3.008432
     62          6           0        5.380549   -1.989104   -1.543894
     63          1           0        5.937543   -1.569287   -2.387717
     64          1           0        6.105295   -2.444506   -0.862793
     65          1           0        4.724391   -2.775706   -1.929638
 ---------------------------------------------------------------------
 Rotational constants (GHZ):      0.1944366      0.1247912      0.1180793
 Standard basis: 6-31G(d) (6D, 7F)
 There are   533 symmetry adapted basis functions of A   symmetry.
 Integral buffers will be    131072 words long.
 Raffenetti 2 integral format.
 Two-electron integral symmetry is turned on.
   533 basis functions,  1004 primitive gaussians,   533 cartesian basis functions
   115 alpha electrons      115 beta electrons
       nuclear repulsion energy      3512.0031287210 Hartrees.
 NAtoms=   65 NActive=   65 NUniq=   65 SFac= 1.00D+00 NAtFMM=   50 NAOKFM=T Big=T
 One-electron integrals computed using PRISM.
 NBasis=   533 RedAO= T  NBF=   533
 NBsUse=   533 1.00D-06 NBFU=   533
 Harris functional with IExCor=  402 diagonalized for initial guess.
 ExpMin= 1.61D-01 ExpMax= 5.48D+03 ExpMxC= 8.25D+02 IAcc=1 IRadAn=         1 AccDes= 0.00D+00
 HarFok:  IExCor=  402 AccDes= 0.00D+00 IRadAn=         1 IDoV= 1
 ScaDFX=  1.000000  1.000000  1.000000  1.000000
 FoFCou: FMM=F IPFlag=           0 FMFlag=      100000 FMFlg1=        2001
         NFxFlg=           0 DoJE=T BraDBF=F KetDBF=T FulRan=T
         Omega=  0.000000  0.000000  1.000000  0.000000  0.000000 ICntrl=     500 IOpCl=  0
         NMat0=    1 NMatS0=    1 NMatT0=    0 NMatD0=    1 NMtDS0=    0 NMtDT0=    0
         I1Cent=           4 NGrid=           0.
 Petite list used in FoFCou.
 Initial guess orbital symmetries:
       Occupied  (A) (A) (A) (A) (A) (A) (A) (A) (A) (A) (A) (A)
                 (A) (A) (A) (A) (A) (A) (A) (A) (A) (A) (A) (A)
                 (A) (A) (A) (A) (A) (A) (A) (A) (A) (A) (A) (A)
                 (A) (A) (A) (A) (A) (A) (A) (A) (A) (A) (A) (A)
                 (A) (A) (A) (A) (A) (A) (A) (A) (A) (A) (A) (A)
                 (A) (A) (A) (A) (A) (A) (A) (A) (A) (A) (A) (A)
                 (A) (A) (A) (A) (A) (A) (A) (A) (A) (A) (A) (A)
                 (A) (A) (A) (A) (A) (A) (A) (A) (A) (A) (A) (A)
                 (A) (A) (A) (A) (A) (A) (A) (A) (A) (A) (A) (A)
                 (A) (A) (A) (A) (A) (A) (A)
       Virtual   (A) (A) (A) (A) (A) (A) (A) (A) (A) (A) (A) (A)
                 (A) (A) (A) (A) (A) (A) (A) (A) (A) (A) (A) (A)
                 (A) (A) (A) (A) (A) (A) (A) (A) (A) (A) (A) (A)
                 (A) (A) (A) (A) (A) (A) (A) (A) (A) (A) (A) (A)
                 (A) (A) (A) (A) (A) (A) (A) (A) (A) (A) (A) (A)
                 (A) (A) (A) (A) (A) (A) (A) (A) (A) (A) (A) (A)
                 (A) (A) (A) (A) (A) (A) (A) (A) (A) (A) (A) (A)
                 (A) (A) (A) (A) (A) (A) (A) (A) (A) (A) (A) (A)
                 (A) (A) (A) (A) (A) (A) (A) (A) (A) (A) (A) (A)
                 (A) (A) (A) (A) (A) (A) (A) (A) (A) (A) (A) (A)
                 (A) (A) (A) (A) (A) (A) (A) (A) (A) (A) (A) (A)
                 (A) (A) (A) (A) (A) (A) (A) (A) (A) (A) (A) (A)
                 (A) (A) (A) (A) (A) (A) (A) (A) (A) (A) (A) (A)
                 (A) (A) (A) (A) (A) (A) (A) (A) (A) (A) (A) (A)
                 (A) (A) (A) (A) (A) (A) (A) (A) (A) (A) (A) (A)
                 (A) (A) (A) (A) (A) (A) (A) (A) (A) (A) (A) (A)
                 (A) (A) (A) (A) (A) (A) (A) (A) (A) (A) (A) (A)
                 (A) (A) (A) (A) (A) (A) (A) (A) (A) (A) (A) (A)
                 (A) (A) (A) (A) (A) (A) (A) (A) (A) (A) (A) (A)
                 (A) (A) (A) (A) (A) (A) (A) (A) (A) (A) (A) (A)
                 (A) (A) (A) (A) (A) (A) (A) (A) (A) (A) (A) (A)
                 (A) (A) (A) (A) (A) (A) (A) (A) (A) (A) (A) (A)
                 (A) (A) (A) (A) (A) (A) (A) (A) (A) (A) (A) (A)
                 (A) (A) (A) (A) (A) (A) (A) (A) (A) (A) (A) (A)
                 (A) (A) (A) (A) (A) (A) (A) (A) (A) (A) (A) (A)
                 (A) (A) (A) (A) (A) (A) (A) (A) (A) (A) (A) (A)
                 (A) (A) (A) (A) (A) (A) (A) (A) (A) (A) (A) (A)
                 (A) (A) (A) (A) (A) (A) (A) (A) (A) (A) (A) (A)
                 (A) (A) (A) (A) (A) (A) (A) (A) (A) (A) (A) (A)
                 (A) (A) (A) (A) (A) (A) (A) (A) (A) (A) (A) (A)
                 (A) (A) (A) (A) (A) (A) (A) (A) (A) (A) (A) (A)
                 (A) (A) (A) (A) (A) (A) (A) (A) (A) (A) (A) (A)
                 (A) (A) (A) (A) (A) (A) (A) (A) (A) (A) (A) (A)
                 (A) (A) (A) (A) (A) (A) (A) (A) (A) (A) (A) (A)
                 (A) (A) (A) (A) (A) (A) (A) (A) (A) (A)
 The electronic state of the initial guess is 1-A.
 Requested convergence on RMS density matrix=1.00D-08 within 128 cycles.
 Requested convergence on MAX density matrix=1.00D-06.
 Requested convergence on             energy=1.00D-06.
 No special actions if energy rises.
 Integral accuracy reduced to 1.0D-05 until final iterations.
 Initial convergence to 1.0D-05 achieved.  Increase integral accuracy.
 SCF Done:  E(RB3LYP) =  -1387.30354439     A.U. after   16 cycles
             Convg  =    0.4597D-08             -V/T =  2.0091

 **********************************************************************

            Population analysis using the SCF density.

 **********************************************************************

 Orbital symmetries:
       Occupied  (A) (A) (A) (A) (A) (A) (A) (A) (A) (A) (A) (A)
                 (A) (A) (A) (A) (A) (A) (A) (A) (A) (A) (A) (A)
                 (A) (A) (A) (A) (A) (A) (A) (A) (A) (A) (A) (A)
                 (A) (A) (A) (A) (A) (A) (A) (A) (A) (A) (A) (A)
                 (A) (A) (A) (A) (A) (A) (A) (A) (A) (A) (A) (A)
                 (A) (A) (A) (A) (A) (A) (A) (A) (A) (A) (A) (A)
                 (A) (A) (A) (A) (A) (A) (A) (A) (A) (A) (A) (A)
                 (A) (A) (A) (A) (A) (A) (A) (A) (A) (A) (A) (A)
                 (A) (A) (A) (A) (A) (A) (A) (A) (A) (A) (A) (A)
                 (A) (A) (A) (A) (A) (A) (A)
       Virtual   (A) (A) (A) (A) (A) (A) (A) (A) (A) (A) (A) (A)
                 (A) (A) (A) (A) (A) (A) (A) (A) (A) (A) (A) (A)
                 (A) (A) (A) (A) (A) (A) (A) (A) (A) (A) (A) (A)
                 (A) (A) (A) (A) (A) (A) (A) (A) (A) (A) (A) (A)
                 (A) (A) (A) (A) (A) (A) (A) (A) (A) (A) (A) (A)
                 (A) (A) (A) (A) (A) (A) (A) (A) (A) (A) (A) (A)
                 (A) (A) (A) (A) (A) (A) (A) (A) (A) (A) (A) (A)
                 (A) (A) (A) (A) (A) (A) (A) (A) (A) (A) (A) (A)
                 (A) (A) (A) (A) (A) (A) (A) (A) (A) (A) (A) (A)
                 (A) (A) (A) (A) (A) (A) (A) (A) (A) (A) (A) (A)
                 (A) (A) (A) (A) (A) (A) (A) (A) (A) (A) (A) (A)
                 (A) (A) (A) (A) (A) (A) (A) (A) (A) (A) (A) (A)
                 (A) (A) (A) (A) (A) (A) (A) (A) (A) (A) (A) (A)
                 (A) (A) (A) (A) (A) (A) (A) (A) (A) (A) (A) (A)
                 (A) (A) (A) (A) (A) (A) (A) (A) (A) (A) (A) (A)
                 (A) (A) (A) (A) (A) (A) (A) (A) (A) (A) (A) (A)
                 (A) (A) (A) (A) (A) (A) (A) (A) (A) (A) (A) (A)
                 (A) (A) (A) (A) (A) (A) (A) (A) (A) (A) (A) (A)
                 (A) (A) (A) (A) (A) (A) (A) (A) (A) (A) (A) (A)
                 (A) (A) (A) (A) (A) (A) (A) (A) (A) (A) (A) (A)
                 (A) (A) (A) (A) (A) (A) (A) (A) (A) (A) (A) (A)
                 (A) (A) (A) (A) (A) (A) (A) (A) (A) (A) (A) (A)
                 (A) (A) (A) (A) (A) (A) (A) (A) (A) (A) (A) (A)
                 (A) (A) (A) (A) (A) (A) (A) (A) (A) (A) (A) (A)
                 (A) (A) (A) (A) (A) (A) (A) (A) (A) (A) (A) (A)
                 (A) (A) (A) (A) (A) (A) (A) (A) (A) (A) (A) (A)
                 (A) (A) (A) (A) (A) (A) (A) (A) (A) (A) (A) (A)
                 (A) (A) (A) (A) (A) (A) (A) (A) (A) (A) (A) (A)
                 (A) (A) (A) (A) (A) (A) (A) (A) (A) (A) (A) (A)
                 (A) (A) (A) (A) (A) (A) (A) (A) (A) (A) (A) (A)
                 (A) (A) (A) (A) (A) (A) (A) (A) (A) (A) (A) (A)
                 (A) (A) (A) (A) (A) (A) (A) (A) (A) (A) (A) (A)
                 (A) (A) (A) (A) (A) (A) (A) (A) (A) (A) (A) (A)
                 (A) (A) (A) (A) (A) (A) (A) (A) (A) (A) (A) (A)
                 (A) (A) (A) (A) (A) (A) (A) (A) (A) (A)
 The electronic state is 1-A.
 Alpha  occ. eigenvalues --  -19.19257 -19.16718 -19.15275 -19.13543 -19.13059
 Alpha  occ. eigenvalues --  -10.28008 -10.26773 -10.26668 -10.25863 -10.25856
 Alpha  occ. eigenvalues --  -10.25373 -10.25012 -10.21624 -10.20641 -10.20165
 Alpha  occ. eigenvalues --  -10.19984 -10.19480 -10.19409 -10.19299 -10.19231
 Alpha  occ. eigenvalues --  -10.19129 -10.18755 -10.18679 -10.18312 -10.18276
 Alpha  occ. eigenvalues --  -10.18128 -10.17980 -10.17521 -10.17492 -10.16692
 Alpha  occ. eigenvalues --  -10.16112  -1.08212  -1.05925  -1.03352  -1.02246
 Alpha  occ. eigenvalues --   -1.02117  -0.87328  -0.83864  -0.82545  -0.81655
 Alpha  occ. eigenvalues --   -0.80371  -0.79902  -0.76863  -0.74381  -0.73599
 Alpha  occ. eigenvalues --   -0.72252  -0.71526  -0.69355  -0.69163  -0.67831
 Alpha  occ. eigenvalues --   -0.65556  -0.64381  -0.63446  -0.62121  -0.60764
 Alpha  occ. eigenvalues --   -0.59372  -0.58469  -0.57233  -0.54809  -0.53605
 Alpha  occ. eigenvalues --   -0.53037  -0.52054  -0.50943  -0.50439  -0.49120
 Alpha  occ. eigenvalues --   -0.48444  -0.47851  -0.46552  -0.45970  -0.45762
 Alpha  occ. eigenvalues --   -0.45047  -0.44821  -0.44418  -0.43837  -0.43323
 Alpha  occ. eigenvalues --   -0.42958  -0.42354  -0.41953  -0.41610  -0.41485
 Alpha  occ. eigenvalues --   -0.41216  -0.40817  -0.40218  -0.39711  -0.39296
 Alpha  occ. eigenvalues --   -0.39049  -0.38724  -0.38241  -0.38081  -0.37930
 Alpha  occ. eigenvalues --   -0.37420  -0.37200  -0.36982  -0.36662  -0.36629
 Alpha  occ. eigenvalues --   -0.36350  -0.35192  -0.34859  -0.34511  -0.34159
 Alpha  occ. eigenvalues --   -0.33910  -0.33533  -0.33184  -0.32432  -0.32040
 Alpha  occ. eigenvalues --   -0.31858  -0.31286  -0.31088  -0.27840  -0.26507
 Alpha  occ. eigenvalues --   -0.26056  -0.25295  -0.24309  -0.23278  -0.23215
 Alpha virt. eigenvalues --   -0.05117  -0.01517   0.00395   0.02275   0.03980
 Alpha virt. eigenvalues --    0.07135   0.08653   0.09008   0.09326   0.10223
 Alpha virt. eigenvalues --    0.10586   0.10873   0.11535   0.12060   0.12591
 Alpha virt. eigenvalues --    0.13009   0.13289   0.13581   0.13964   0.14114
 Alpha virt. eigenvalues --    0.14526   0.14604   0.14993   0.15201   0.15872
 Alpha virt. eigenvalues --    0.15942   0.16327   0.16974   0.17382   0.17610
 Alpha virt. eigenvalues --    0.17906   0.18065   0.18191   0.18550   0.18874
 Alpha virt. eigenvalues --    0.19145   0.19374   0.19884   0.20129   0.20395
 Alpha virt. eigenvalues --    0.20729   0.21084   0.21730   0.21894   0.22216
 Alpha virt. eigenvalues --    0.23029   0.23371   0.23959   0.24104   0.24784
 Alpha virt. eigenvalues --    0.25270   0.25646   0.26012   0.26578   0.26833
 Alpha virt. eigenvalues --    0.27284   0.27891   0.28291   0.29392   0.29579
 Alpha virt. eigenvalues --    0.30642   0.32276   0.32467   0.33506   0.34528
 Alpha virt. eigenvalues --    0.34800   0.36392   0.37691   0.38630   0.39944
 Alpha virt. eigenvalues --    0.42200   0.45422   0.46881   0.48031   0.48485
 Alpha virt. eigenvalues --    0.50065   0.50920   0.51404   0.51949   0.52236
 Alpha virt. eigenvalues --    0.52293   0.52531   0.53148   0.53448   0.54227
 Alpha virt. eigenvalues --    0.54445   0.54920   0.55193   0.55723   0.56734
 Alpha virt. eigenvalues --    0.57181   0.57680   0.57810   0.58660   0.59024
 Alpha virt. eigenvalues --    0.59250   0.60044   0.60631   0.61193   0.61664
 Alpha virt. eigenvalues --    0.62218   0.62581   0.62866   0.63418   0.64086
 Alpha virt. eigenvalues --    0.64844   0.65581   0.65905   0.66702   0.67137
 Alpha virt. eigenvalues --    0.67797   0.68476   0.68789   0.69126   0.69747
 Alpha virt. eigenvalues --    0.70314   0.71031   0.71879   0.72873   0.73152
 Alpha virt. eigenvalues --    0.74438   0.74479   0.75319   0.75899   0.76114
 Alpha virt. eigenvalues --    0.77933   0.78643   0.79339   0.80035   0.80436
 Alpha virt. eigenvalues --    0.80793   0.81149   0.81745   0.82193   0.82561
 Alpha virt. eigenvalues --    0.82967   0.83487   0.83761   0.84072   0.84808
 Alpha virt. eigenvalues --    0.85549   0.85835   0.86688   0.86913   0.87094
 Alpha virt. eigenvalues --    0.87639   0.87909   0.88262   0.88623   0.89166
 Alpha virt. eigenvalues --    0.89836   0.90064   0.90178   0.90458   0.90746
 Alpha virt. eigenvalues --    0.90995   0.91095   0.91535   0.91796   0.92483
 Alpha virt. eigenvalues --    0.92808   0.93420   0.93757   0.94018   0.94213
 Alpha virt. eigenvalues --    0.94687   0.95490   0.96205   0.96523   0.96654
 Alpha virt. eigenvalues --    0.96793   0.97358   0.98146   0.98722   0.99513
 Alpha virt. eigenvalues --    1.00527   1.01102   1.01552   1.02608   1.03734
 Alpha virt. eigenvalues --    1.04498   1.05389   1.06169   1.06772   1.07050
 Alpha virt. eigenvalues --    1.08280   1.08744   1.10268   1.11569   1.11880
 Alpha virt. eigenvalues --    1.12534   1.13081   1.13830   1.15395   1.17016
 Alpha virt. eigenvalues --    1.17282   1.17838   1.18015   1.19049   1.20300
 Alpha virt. eigenvalues --    1.21421   1.23973   1.24667   1.25200   1.26265
 Alpha virt. eigenvalues --    1.26716   1.29577   1.30767   1.31207   1.33972
 Alpha virt. eigenvalues --    1.35487   1.36382   1.37171   1.38218   1.38732
 Alpha virt. eigenvalues --    1.40445   1.41104   1.41997   1.43603   1.44624
 Alpha virt. eigenvalues --    1.47498   1.48871   1.50152   1.52347   1.53446
 Alpha virt. eigenvalues --    1.54846   1.56213   1.56898   1.57478   1.58865
 Alpha virt. eigenvalues --    1.59719   1.62191   1.62539   1.62589   1.63874
 Alpha virt. eigenvalues --    1.65048   1.65501   1.66429   1.67190   1.70111
 Alpha virt. eigenvalues --    1.71101   1.72472   1.72661   1.73499   1.74233
 Alpha virt. eigenvalues --    1.74904   1.75848   1.77282   1.77682   1.78424
 Alpha virt. eigenvalues --    1.79660   1.79919   1.81074   1.81402   1.82373
 Alpha virt. eigenvalues --    1.83083   1.83384   1.83967   1.84360   1.85770
 Alpha virt. eigenvalues --    1.86590   1.87150   1.87537   1.87680   1.88542
 Alpha virt. eigenvalues --    1.89372   1.90170   1.90745   1.91474   1.91606
 Alpha virt. eigenvalues --    1.92261   1.92648   1.93914   1.94263   1.95515
 Alpha virt. eigenvalues --    1.95904   1.96236   1.97347   1.98018   1.99061
 Alpha virt. eigenvalues --    1.99462   1.99650   2.00485   2.00869   2.01569
 Alpha virt. eigenvalues --    2.03303   2.03455   2.04687   2.05813   2.06166
 Alpha virt. eigenvalues --    2.07012   2.07466   2.08486   2.09401   2.09671
 Alpha virt. eigenvalues --    2.10537   2.11548   2.12133   2.13515   2.13863
 Alpha virt. eigenvalues --    2.14764   2.15634   2.16726   2.17009   2.17643
 Alpha virt. eigenvalues --    2.18839   2.20279   2.21271   2.22652   2.23502
 Alpha virt. eigenvalues --    2.23628   2.24442   2.25426   2.26134   2.27714
 Alpha virt. eigenvalues --    2.28880   2.29850   2.30295   2.31176   2.31641
 Alpha virt. eigenvalues --    2.32451   2.33207   2.33719   2.34335   2.34956
 Alpha virt. eigenvalues --    2.35268   2.36397   2.37547   2.38567   2.39607
 Alpha virt. eigenvalues --    2.40409   2.41554   2.42403   2.42957   2.43533
 Alpha virt. eigenvalues --    2.44801   2.45584   2.46255   2.48033   2.49045
 Alpha virt. eigenvalues --    2.49706   2.50412   2.51906   2.52941   2.55522
 Alpha virt. eigenvalues --    2.57118   2.57505   2.58705   2.59171   2.60638
 Alpha virt. eigenvalues --    2.61554   2.61866   2.63884   2.64817   2.66497
 Alpha virt. eigenvalues --    2.66956   2.68748   2.69362   2.70688   2.71433
 Alpha virt. eigenvalues --    2.72109   2.73797   2.76312   2.77947   2.78494
 Alpha virt. eigenvalues --    2.79829   2.80624   2.82198   2.83020   2.85782
 Alpha virt. eigenvalues --    2.87156   2.89354   2.92789   2.94953   2.95573
 Alpha virt. eigenvalues --    2.96140   3.00489   3.01057   3.01816   3.03520
 Alpha virt. eigenvalues --    3.06292   3.07235   3.12876   3.18196   3.20852
 Alpha virt. eigenvalues --    3.22573   3.29617   4.00193   4.09068   4.09727
 Alpha virt. eigenvalues --    4.12806   4.14931   4.17089   4.18388   4.19810
 Alpha virt. eigenvalues --    4.22910   4.24424   4.27400   4.30303   4.30930
 Alpha virt. eigenvalues --    4.32901   4.36181   4.38134   4.41169   4.42723
 Alpha virt. eigenvalues --    4.46265   4.48525   4.53851   4.56171   4.61091
 Alpha virt. eigenvalues --    4.63601   4.66584   4.71465   4.73533   4.82817
 Alpha virt. eigenvalues --    4.91365   5.03619   5.18914
          Condensed to atoms (all electrons):
 Mulliken atomic charges:
              1
     1  C   -0.193047
     2  C    0.191589
     3  C   -0.186329
     4  C    0.321301
     5  C   -0.044717
     6  C   -0.331693
     7  C    0.214706
     8  C    0.396823
     9  C   -0.095449
    10  C    0.423761
    11  C    0.421030
    12  O   -0.462641
    13  C   -0.134749
    14  C   -0.257438
    15  C   -0.455957
    16  O   -0.506054
    17  C   -0.163894
    18  C    0.313278
    19  O   -0.532970
    20  C   -0.321870
    21  O   -0.661000
    22  C   -0.324753
    23  C    0.105395
    24  O   -0.584689
    25  C    0.178403
    26  C   -0.504765
    27  C   -0.391884
    28  C   -0.462756
    29  C   -0.461987
    30  H    0.142478
    31  H    0.163177
    32  C   -0.517768
    33  H    0.123438
    34  H    0.152116
    35  H    0.178003
    36  H    0.141169
    37  H    0.143602
    38  H    0.150648
    39  H    0.142100
    40  H    0.165651
    41  H    0.156763
    42  H    0.175356
    43  H    0.147117
    44  H    0.410437
    45  H    0.171178
    46  H    0.167530
    47  H    0.136268
    48  H    0.165929
    49  H    0.153574
    50  H    0.154585
    51  H    0.142585
    52  H    0.149061
    53  H    0.149085
    54  H    0.138349
    55  H    0.183327
    56  H    0.164456
    57  H    0.158256
    58  H    0.147391
    59  H    0.157946
    60  H    0.162879
    61  H    0.148343
    62  C   -0.447381
    63  H    0.143029
    64  H    0.149302
    65  H    0.142374
 Sum of Mulliken atomic charges =   0.00000
 Mulliken charges with hydrogens summed into heavy atoms:
              1
     1  C   -0.069610
     2  C    0.191589
     3  C   -0.023151
     4  C    0.321301
     5  C   -0.044717
     6  C   -0.001574
     7  C    0.214706
     8  C    0.396823
     9  C   -0.095449
    10  C    0.423761
    11  C    0.421030
    12  O   -0.462641
    13  C    0.006419
    14  C    0.036812
    15  C    0.008557
    16  O   -0.506054
    17  C   -0.021415
    18  C    0.313278
    19  O   -0.532970
    20  C    0.000603
    21  O   -0.250563
    22  C    0.013956
    23  C    0.241663
    24  O   -0.584689
    25  C    0.178403
    26  C   -0.030677
    27  C   -0.100238
    28  C    0.008006
    29  C    0.008116
    32  C   -0.048600
    62  C   -0.012675
 Sum of Mulliken charges with hydrogens summed into heavy atoms =   0.00000
 Electronic spatial extent (au):  <R**2>=          11545.5444
 Charge=              0.0000 electrons
 Dipole moment (field-independent basis, Debye):
    X=             -4.4361    Y=              1.5105    Z=             -1.9280  Tot=              5.0673
 Quadrupole moment (field-independent basis, Debye-Ang):
   XX=           -183.2728   YY=           -178.4285   ZZ=           -183.9916
   XY=             -1.2622   XZ=             -5.8885   YZ=             -0.2376
 Traceless Quadrupole moment (field-independent basis, Debye-Ang):
   XX=             -1.3751   YY=              3.4691   ZZ=             -2.0940
   XY=             -1.2622   XZ=             -5.8885   YZ=             -0.2376
 Octapole moment (field-independent basis, Debye-Ang**2):
  XXX=            -19.8250  YYY=             35.9772  ZZZ=              0.6432  XYY=            -15.8562
  XXY=            -27.3985  XXZ=            -32.2796  XZZ=            -24.7989  YZZ=              8.8515
  YYZ=            -24.4608  XYZ=             -8.0762
 Hexadecapole moment (field-independent basis, Debye-Ang**3):
 XXXX=          -7899.2156 YYYY=          -4079.3775 ZZZZ=          -3352.4934 XXXY=             -9.1084
 XXXZ=             27.5702 YYYX=             22.0284 YYYZ=              7.4776 ZZZX=             17.3159
 ZZZY=             -8.6387 XXYY=          -2007.7953 XXZZ=          -1883.9978 YYZZ=          -1231.9579
 XXYZ=            -15.7186 YYXZ=              5.0430 ZZXY=             36.5029
 N-N= 3.512003128721D+03 E-N=-1.025047976740D+04  KE= 1.374795073277D+03
 Calling FoFJK, ICntrl=      2127 FMM=T ISym2X=0 I1Cent= 0 IOpClX= 0 NMat=1 NMatS=1 NMatT=0.
 ***** Axes restored to original set *****
 -------------------------------------------------------------------
 Center     Atomic                   Forces (Hartrees/Bohr)
 Number     Number              X              Y              Z
 -------------------------------------------------------------------
      1        6           0.009671420   -0.000351977    0.000344662
      2        6          -0.012532799   -0.005262886    0.001846503
      3        6          -0.001026862   -0.007920520   -0.000572963
      4        6           0.003221946   -0.004126869    0.010503229
      5        6          -0.011206572   -0.002338145    0.001014494
      6        6          -0.004385625   -0.011044443   -0.000782034
      7        6           0.010584282    0.020371527    0.008817017
      8        6           0.012606794   -0.013371571   -0.015204457
      9        6           0.001393288    0.004421995    0.012003380
     10        6          -0.006315672    0.002577199   -0.021182039
     11        6          -0.003007507   -0.021763520   -0.015549596
     12        8          -0.007135284    0.018639842    0.003537876
     13        6          -0.001163637   -0.005360485    0.000425818
     14        6           0.005756021    0.003405227   -0.001452973
     15        6          -0.006758884   -0.005235215   -0.003464795
     16        8           0.006784836   -0.004237387    0.009990918
     17        6           0.007818811   -0.011201650   -0.005847992
     18        6           0.032071316    0.008015003   -0.000212191
     19        8          -0.028076220    0.001950396    0.026499448
     20        6           0.011369171   -0.004951796   -0.000025922
     21        8          -0.005500426    0.007182627   -0.002238020
     22        6          -0.007163265    0.013721355    0.001418502
     23        6          -0.005149676    0.008054012    0.000784015
     24        8           0.001750344   -0.006261007   -0.009607360
     25        6          -0.003084816    0.014799417    0.001251619
     26        6           0.001319947    0.001685723    0.000290356
     27        6           0.001090701   -0.009974071   -0.001390625
     28        6          -0.002978696    0.007816138   -0.004613771
     29        6          -0.003712291   -0.006388935   -0.008906067
     30        1          -0.001727529    0.001125285   -0.001659175
     31        1          -0.003285570    0.005973487    0.000008579
     32        6          -0.001238057    0.000894941   -0.001023295
     33        1           0.001454838   -0.000878137   -0.000062909
     34        1          -0.000551981    0.005704770    0.001815598
     35        1           0.000438110    0.007306441   -0.001429335
     36        1           0.001933229   -0.000278992    0.000965169
     37        1           0.001037315   -0.000717256    0.001209678
     38        1          -0.000592084   -0.002505895    0.002566764
     39        1          -0.000089794    0.000623817   -0.000258293
     40        1           0.000013582    0.001577766    0.000323029
     41        1           0.001360700    0.000350890    0.000537535
     42        1          -0.000033992    0.002894030   -0.000278682
     43        1          -0.001301049   -0.001918950   -0.001361441
     44        1          -0.001975260   -0.003522695   -0.002572549
     45        1           0.002070985    0.000313496    0.003496802
     46        1           0.001412449   -0.002981222   -0.001264222
     47        1          -0.001885206   -0.001247716    0.003027407
     48        1           0.000996311   -0.003314155    0.002284387
     49        1          -0.001335837   -0.000120058   -0.001611879
     50        1           0.002550912   -0.002646839    0.001650483
     51        1          -0.000030729   -0.000646949    0.000999545
     52        1          -0.000257873   -0.000406585   -0.001411544
     53        1           0.002042439   -0.003885570    0.000325777
     54        1           0.000564085   -0.000864601    0.000142926
     55        1          -0.001246395   -0.002716023    0.005411017
     56        1          -0.000331514    0.000145483    0.003560600
     57        1           0.000513481    0.002697092    0.001492766
     58        1          -0.000699921    0.001269067    0.000728289
     59        1          -0.001104903    0.001796906   -0.000603322
     60        1           0.004228630   -0.001591747    0.000257021
     61        1           0.004097265   -0.001156948    0.000153857
     62        6          -0.000306655    0.001982131   -0.003400159
     63        1          -0.000298926    0.001269333   -0.001022434
     64        1          -0.001387072    0.001015538   -0.000455648
     65        1          -0.001274626    0.001609879   -0.000219376
 -------------------------------------------------------------------
 Cartesian Forces:  Max     0.032071316 RMS     0.006636049

 GradGradGradGradGradGradGradGradGradGradGradGradGradGradGradGradGradGrad
 Berny optimization.
 Internal  Forces:  Max     0.020568332 RMS     0.003436664
 Search for a local minimum.
 Step number   1 out of a maximum of  390
 All quantities printed in internal units (Hartrees-Bohrs-Radians)
 Mixed Optimization -- RFO/linear search
 Second derivative matrix not updated -- first step.
 ITU=  0
     Eigenvalues ---    0.00275   0.00296   0.00336   0.00408   0.00429
     Eigenvalues ---    0.00452   0.00484   0.00557   0.00609   0.00613
     Eigenvalues ---    0.00661   0.00674   0.00683   0.00687   0.00731
     Eigenvalues ---    0.01029   0.01082   0.01244   0.01248   0.01421
     Eigenvalues ---    0.01458   0.01621   0.01713   0.01819   0.01930
     Eigenvalues ---    0.02507   0.02827   0.02827   0.03032   0.03116
     Eigenvalues ---    0.03475   0.03597   0.03744   0.04004   0.04032
     Eigenvalues ---    0.04108   0.04319   0.04405   0.04585   0.04638
     Eigenvalues ---    0.04643   0.04826   0.04926   0.05095   0.05249
     Eigenvalues ---    0.05307   0.05381   0.05419   0.05478   0.05492
     Eigenvalues ---    0.05501   0.05536   0.05551   0.05566   0.05617
     Eigenvalues ---    0.05714   0.05897   0.05922   0.06271   0.06636
     Eigenvalues ---    0.06689   0.06860   0.07090   0.07111   0.07161
     Eigenvalues ---    0.07247   0.07249   0.07362   0.07659   0.08380
     Eigenvalues ---    0.08472   0.08819   0.09018   0.09177   0.09802
     Eigenvalues ---    0.10095   0.10644   0.10893   0.11635   0.12300
     Eigenvalues ---    0.13184   0.14697   0.15188   0.15970   0.16000
     Eigenvalues ---    0.16000   0.16000   0.16000   0.16000   0.16000
     Eigenvalues ---    0.16000   0.16000   0.16000   0.16000   0.16000
     Eigenvalues ---    0.16000   0.16000   0.16000   0.16000   0.16000
     Eigenvalues ---    0.16000   0.16000   0.16000   0.16000   0.16000
     Eigenvalues ---    0.16443   0.16854   0.17260   0.17480   0.18327
     Eigenvalues ---    0.19714   0.21557   0.21907   0.22691   0.23537
     Eigenvalues ---    0.24509   0.24930   0.24987   0.24993   0.24998
     Eigenvalues ---    0.24999   0.25000   0.25000   0.25871   0.27258
     Eigenvalues ---    0.27382   0.27703   0.27805   0.28123   0.28266
     Eigenvalues ---    0.28647   0.28778   0.28920   0.29190   0.29698
     Eigenvalues ---    0.30008   0.30239   0.30415   0.30558   0.31164
     Eigenvalues ---    0.31557   0.31760   0.31800   0.33370   0.33669
     Eigenvalues ---    0.33971   0.33982   0.33999   0.34003   0.34004
     Eigenvalues ---    0.34012   0.34040   0.34063   0.34064   0.34069
     Eigenvalues ---    0.34122   0.34132   0.34142   0.34171   0.34175
     Eigenvalues ---    0.34197   0.34208   0.34241   0.34245   0.34262
     Eigenvalues ---    0.34267   0.34274   0.34276   0.34290   0.34307
     Eigenvalues ---    0.34338   0.34349   0.34370   0.34444   0.34558
     Eigenvalues ---    0.34961   0.35205   0.35301   0.35466   0.36394
     Eigenvalues ---    0.37313   0.42815   0.43679   0.51641   0.53302
     Eigenvalues ---    0.54548   0.56279   0.89805   0.90610
 RFO step:  Lambda=-2.14446460D-02 EMin= 2.75269469D-03
 Linear search not attempted -- first point.
 Iteration  1 RMS(Cart)=  0.04048579 RMS(Int)=  0.00060671
 Iteration  2 RMS(Cart)=  0.00089628 RMS(Int)=  0.00025346
 Iteration  3 RMS(Cart)=  0.00000058 RMS(Int)=  0.00025346
 Variable       Old X    -DE/DX   Delta X   Delta X   Delta X     New X
                                 (Linear)    (Quad)   (Total)
    R1        2.53526  -0.00282   0.00000  -0.00597  -0.00599   2.52926
    R2        2.82379   0.00843   0.00000   0.02461   0.02454   2.84833
    R3        2.05739   0.00003   0.00000   0.00009   0.00009   2.05747
    R4        2.85504   0.00364   0.00000   0.00793   0.00797   2.86302
    R5        2.84585   0.00304   0.00000   0.00896   0.00896   2.85481
    R6        2.94025   0.00506   0.00000   0.01253   0.01245   2.95269
    R7        2.91013   0.01100   0.00000   0.03749   0.03745   2.94758
    R8        2.07892  -0.00074   0.00000  -0.00207  -0.00207   2.07685
    R9        2.90581   0.00877   0.00000   0.02862   0.02845   2.93426
   R10        2.91260   0.00721   0.00000   0.02458   0.02471   2.93731
   R11        2.76247  -0.00447   0.00000  -0.01044  -0.01046   2.75201
   R12        2.91401   0.00009   0.00000   0.00322   0.00315   2.91716
   R13        2.90447   0.00592   0.00000   0.01284   0.01282   2.91728
   R14        2.89318   0.01241   0.00000   0.04014   0.04015   2.93333
   R15        2.07223   0.00294   0.00000   0.00811   0.00811   2.08034
   R16        2.07361  -0.00126   0.00000  -0.00350  -0.00350   2.07011
   R17        2.81459   0.00903   0.00000   0.01971   0.01933   2.83393
   R18        2.85894   0.01540   0.00000   0.05528   0.05480   2.91374
   R19        2.67898   0.00357   0.00000   0.00793   0.00793   2.68691
   R20        2.52549   0.01294   0.00000   0.02251   0.02252   2.54800
   R21        2.62931  -0.02057   0.00000  -0.04843  -0.04823   2.58109
   R22        2.79328  -0.00237   0.00000  -0.01032  -0.01014   2.78314
   R23        2.79698   0.01883   0.00000   0.05130   0.05130   2.84829
   R24        2.33023  -0.00942   0.00000  -0.01024  -0.01024   2.31998
   R25        2.32653  -0.02007   0.00000  -0.02163  -0.02163   2.30490
   R26        2.87947   0.00211   0.00000   0.00656   0.00656   2.88604
   R27        2.90170   0.00616   0.00000   0.01984   0.01984   2.92153
   R28        2.88569   0.00666   0.00000   0.02092   0.02092   2.90662
   R29        2.07309  -0.00044   0.00000  -0.00121  -0.00121   2.07188
   R30        2.07379   0.00108   0.00000   0.00298   0.00298   2.07677
   R31        2.07325   0.00002   0.00000   0.00007   0.00007   2.07332
   R32        2.87489   0.00843   0.00000   0.02602   0.02602   2.90091
   R33        2.06763   0.00056   0.00000   0.00153   0.00153   2.06916
   R34        2.07036  -0.00055   0.00000  -0.00151  -0.00151   2.06885
   R35        2.07042  -0.00011   0.00000  -0.00031  -0.00031   2.07012
   R36        2.91806  -0.00090   0.00000   0.00929   0.00953   2.92759
   R37        2.90593   0.00417   0.00000   0.01419   0.01424   2.92018
   R38        2.07124  -0.00160   0.00000  -0.00442  -0.00442   2.06682
[...]
     55          1           0       -0.087320    1.542451   -3.509752
     56          1           0        0.705333    4.255240   -0.235073
     57          1           0        1.518604    4.427478   -1.796207
     58          1           0       -0.198573    4.849532   -1.646199
     59          1           0       -1.939949    2.365160    4.468297
     60          1           0       -1.316870    3.323826    3.116674
     61          1           0       -3.035826    2.948297    3.201215
     62          6           0        5.484725   -2.296895   -1.279468
     63          1           0        6.018995   -2.167178   -2.227870
     64          1           0        6.232198   -2.515503   -0.509394
     65          1           0        4.840633   -3.179582   -1.378837
 ---------------------------------------------------------------------
 Rotational constants (GHZ):      0.1844684      0.1264210      0.1153959

 **********************************************************************

            Population analysis using the SCF density.

 **********************************************************************

 Orbital symmetries:
       Occupied  (A) (A) (A) (A) (A) (A) (A) (A) (A) (A) (A) (A)
                 (A) (A) (A) (A) (A) (A) (A) (A) (A) (A) (A) (A)
                 (A) (A) (A) (A) (A) (A) (A) (A) (A) (A) (A) (A)
                 (A) (A) (A) (A) (A) (A) (A) (A) (A) (A) (A) (A)
                 (A) (A) (A) (A) (A) (A) (A) (A) (A) (A) (A) (A)
                 (A) (A) (A) (A) (A) (A) (A) (A) (A) (A) (A) (A)
                 (A) (A) (A) (A) (A) (A) (A) (A) (A) (A) (A) (A)
                 (A) (A) (A) (A) (A) (A) (A) (A) (A) (A) (A) (A)
                 (A) (A) (A) (A) (A) (A) (A) (A) (A) (A) (A) (A)
                 (A) (A) (A) (A) (A) (A) (A)
       Virtual   (A) (A) (A) (A) (A) (A) (A) (A) (A) (A) (A) (A)
                 (A) (A) (A) (A) (A) (A) (A) (A) (A) (A) (A) (A)
                 (A) (A) (A) (A) (A) (A) (A) (A) (A) (A) (A) (A)
                 (A) (A) (A) (A) (A) (A) (A) (A) (A) (A) (A) (A)
                 (A) (A) (A) (A) (A) (A) (A) (A) (A) (A) (A) (A)
                 (A) (A) (A) (A) (A) (A) (A) (A) (A) (A) (A) (A)
                 (A) (A) (A) (A) (A) (A) (A) (A) (A) (A) (A) (A)
                 (A) (A) (A) (A) (A) (A) (A) (A) (A) (A) (A) (A)
                 (A) (A) (A) (A) (A) (A) (A) (A) (A) (A) (A) (A)
                 (A) (A) (A) (A) (A) (A) (A) (A) (A) (A) (A) (A)
                 (A) (A) (A) (A) (A) (A) (A) (A) (A) (A) (A) (A)
                 (A) (A) (A) (A) (A) (A) (A) (A) (A) (A) (A) (A)
                 (A) (A) (A) (A) (A) (A) (A) (A) (A) (A) (A) (A)
                 (A) (A) (A) (A) (A) (A) (A) (A) (A) (A) (A) (A)
                 (A) (A) (A) (A) (A) (A) (A) (A) (A) (A) (A) (A)
                 (A) (A) (A) (A) (A) (A) (A) (A) (A) (A) (A) (A)
                 (A) (A) (A) (A) (A) (A) (A) (A) (A) (A) (A) (A)
                 (A) (A) (A) (A) (A) (A) (A) (A) (A) (A) (A) (A)
                 (A) (A) (A) (A) (A) (A) (A) (A) (A) (A) (A) (A)
                 (A) (A) (A) (A) (A) (A) (A) (A) (A) (A) (A) (A)
                 (A) (A) (A) (A) (A) (A) (A) (A) (A) (A) (A) (A)
                 (A) (A) (A) (A) (A) (A) (A) (A) (A) (A) (A) (A)
                 (A) (A) (A) (A) (A) (A) (A) (A) (A) (A) (A) (A)
                 (A) (A) (A) (A) (A) (A) (A) (A) (A) (A) (A) (A)
                 (A) (A) (A) (A) (A) (A) (A) (A) (A) (A) (A) (A)
                 (A) (A) (A) (A) (A) (A) (A) (A) (A) (A) (A) (A)
                 (A) (A) (A) (A) (A) (A) (A) (A) (A) (A) (A) (A)
                 (A) (A) (A) (A) (A) (A) (A) (A) (A) (A) (A) (A)
                 (A) (A) (A) (A) (A) (A) (A) (A) (A) (A) (A) (A)
                 (A) (A) (A) (A) (A) (A) (A) (A) (A) (A) (A) (A)
                 (A) (A) (A) (A) (A) (A) (A) (A) (A) (A) (A) (A)
                 (A) (A) (A) (A) (A) (A) (A) (A) (A) (A) (A) (A)
                 (A) (A) (A) (A) (A) (A) (A) (A) (A) (A) (A) (A)
                 (A) (A) (A) (A) (A) (A) (A) (A) (A) (A) (A) (A)
                 (A) (A) (A) (A) (A) (A) (A) (A) (A) (A)
 The electronic state is 1-A.
 Alpha  occ. eigenvalues --  -19.19583 -19.16708 -19.15862 -19.12629 -19.12128
 Alpha  occ. eigenvalues --  -10.27413 -10.27126 -10.26613 -10.26001 -10.25787
 Alpha  occ. eigenvalues --  -10.25768 -10.25249 -10.21333 -10.20888 -10.20584
 Alpha  occ. eigenvalues --  -10.20367 -10.19868 -10.19672 -10.19358 -10.19099
 Alpha  occ. eigenvalues --  -10.18995 -10.18974 -10.18785 -10.18679 -10.18484
 Alpha  occ. eigenvalues --  -10.18129 -10.18110 -10.17425 -10.17110 -10.16485
 Alpha  occ. eigenvalues --  -10.15605  -1.09294  -1.05910  -1.02880  -1.02472
 Alpha  occ. eigenvalues --   -1.01966  -0.86695  -0.83571  -0.82405  -0.81347
 Alpha  occ. eigenvalues --   -0.80248  -0.78950  -0.76640  -0.74310  -0.73138
 Alpha  occ. eigenvalues --   -0.71709  -0.71059  -0.69881  -0.69559  -0.67828
 Alpha  occ. eigenvalues --   -0.65278  -0.64075  -0.63378  -0.61740  -0.60578
 Alpha  occ. eigenvalues --   -0.59418  -0.58078  -0.56913  -0.54512  -0.53515
 Alpha  occ. eigenvalues --   -0.52626  -0.52021  -0.50679  -0.50339  -0.49238
 Alpha  occ. eigenvalues --   -0.48193  -0.47469  -0.46598  -0.46044  -0.45787
 Alpha  occ. eigenvalues --   -0.45230  -0.44388  -0.44189  -0.43345  -0.43260
 Alpha  occ. eigenvalues --   -0.43003  -0.42008  -0.41862  -0.41446  -0.41289
 Alpha  occ. eigenvalues --   -0.40822  -0.40780  -0.40334  -0.40029  -0.39335
 Alpha  occ. eigenvalues --   -0.39023  -0.38692  -0.38301  -0.38031  -0.37722
 Alpha  occ. eigenvalues --   -0.37490  -0.37363  -0.37051  -0.36800  -0.36768
 Alpha  occ. eigenvalues --   -0.36395  -0.34981  -0.34915  -0.34409  -0.34122
 Alpha  occ. eigenvalues --   -0.33784  -0.33584  -0.33399  -0.32754  -0.31966
 Alpha  occ. eigenvalues --   -0.31243  -0.30963  -0.30496  -0.28143  -0.26749
 Alpha  occ. eigenvalues --   -0.26319  -0.24621  -0.23970  -0.23429  -0.22369
 Alpha virt. eigenvalues --   -0.04783  -0.00959   0.00230   0.02226   0.06015
 Alpha virt. eigenvalues --    0.07218   0.08828   0.08871   0.09491   0.10453
 Alpha virt. eigenvalues --    0.10795   0.10854   0.11258   0.12093   0.12398
 Alpha virt. eigenvalues --    0.13002   0.13257   0.13418   0.14127   0.14402
 Alpha virt. eigenvalues --    0.14720   0.14909   0.15064   0.15236   0.16094
 Alpha virt. eigenvalues --    0.16202   0.16638   0.16934   0.17264   0.17363
 Alpha virt. eigenvalues --    0.17874   0.18112   0.18278   0.18512   0.18745
 Alpha virt. eigenvalues --    0.19007   0.19262   0.19370   0.20002   0.20291
 Alpha virt. eigenvalues --    0.20768   0.20951   0.21412   0.21955   0.22565
 Alpha virt. eigenvalues --    0.22953   0.23372   0.23687   0.23856   0.24301
 Alpha virt. eigenvalues --    0.25076   0.25468   0.26311   0.26539   0.27019
 Alpha virt. eigenvalues --    0.27332   0.27711   0.28523   0.28859   0.29832
 Alpha virt. eigenvalues --    0.30087   0.31671   0.32490   0.32939   0.33821
 Alpha virt. eigenvalues --    0.34355   0.35789   0.37498   0.38443   0.39881
 Alpha virt. eigenvalues --    0.41680   0.45572   0.46382   0.48234   0.48922
 Alpha virt. eigenvalues --    0.49299   0.50355   0.51273   0.51515   0.51851
 Alpha virt. eigenvalues --    0.52294   0.52754   0.53260   0.53498   0.53724
 Alpha virt. eigenvalues --    0.53886   0.54361   0.54805   0.55783   0.56390
 Alpha virt. eigenvalues --    0.57163   0.57619   0.57910   0.58506   0.58749
 Alpha virt. eigenvalues --    0.58907   0.60183   0.60659   0.61175   0.61430
 Alpha virt. eigenvalues --    0.61579   0.62472   0.63020   0.63163   0.64661
 Alpha virt. eigenvalues --    0.65209   0.65853   0.66175   0.66619   0.67358
 Alpha virt. eigenvalues --    0.67654   0.68419   0.68916   0.69154   0.69488
 Alpha virt. eigenvalues --    0.69813   0.70641   0.71194   0.71968   0.73220
 Alpha virt. eigenvalues --    0.73603   0.74624   0.75110   0.75820   0.76469
 Alpha virt. eigenvalues --    0.77208   0.77838   0.79189   0.79609   0.80163
 Alpha virt. eigenvalues --    0.80957   0.81176   0.81624   0.82727   0.82803
 Alpha virt. eigenvalues --    0.83050   0.83890   0.84058   0.84732   0.85143
 Alpha virt. eigenvalues --    0.85504   0.86059   0.86460   0.86538   0.87207
 Alpha virt. eigenvalues --    0.87718   0.88026   0.88491   0.88771   0.89195
 Alpha virt. eigenvalues --    0.89318   0.89490   0.90198   0.90655   0.90751
 Alpha virt. eigenvalues --    0.91001   0.91242   0.91421   0.92396   0.92495
 Alpha virt. eigenvalues --    0.93176   0.93762   0.94054   0.94294   0.94530
 Alpha virt. eigenvalues --    0.94937   0.95596   0.96257   0.96996   0.97283
 Alpha virt. eigenvalues --    0.97634   0.98002   0.98809   0.99047   0.99397
 Alpha virt. eigenvalues --    1.00032   1.01109   1.01395   1.02615   1.03054
 Alpha virt. eigenvalues --    1.03780   1.05012   1.06284   1.07627   1.07838
 Alpha virt. eigenvalues --    1.08013   1.10486   1.11153   1.12220   1.12414
 Alpha virt. eigenvalues --    1.13166   1.14184   1.15019   1.15675   1.16317
 Alpha virt. eigenvalues --    1.17774   1.18822   1.19359   1.19902   1.20960
 Alpha virt. eigenvalues --    1.22387   1.24175   1.24880   1.25350   1.27102
 Alpha virt. eigenvalues --    1.27722   1.28938   1.31030   1.31525   1.32525
 Alpha virt. eigenvalues --    1.34240   1.36189   1.37319   1.37912   1.38753
 Alpha virt. eigenvalues --    1.40526   1.41901   1.42193   1.43759   1.45764
 Alpha virt. eigenvalues --    1.46340   1.48430   1.50215   1.52640   1.52797
 Alpha virt. eigenvalues --    1.53881   1.55120   1.55902   1.56937   1.58850
 Alpha virt. eigenvalues --    1.59127   1.61109   1.61669   1.62751   1.62887
 Alpha virt. eigenvalues --    1.63897   1.65267   1.66169   1.68312   1.68643
 Alpha virt. eigenvalues --    1.70572   1.71352   1.72590   1.72892   1.74280
 Alpha virt. eigenvalues --    1.74525   1.75403   1.75956   1.77679   1.78044
 Alpha virt. eigenvalues --    1.78640   1.79624   1.79854   1.80568   1.81636
 Alpha virt. eigenvalues --    1.82152   1.82553   1.84042   1.84686   1.85289
 Alpha virt. eigenvalues --    1.85961   1.86592   1.86706   1.87124   1.88308
 Alpha virt. eigenvalues --    1.89084   1.89215   1.90083   1.90289   1.91655
 Alpha virt. eigenvalues --    1.91806   1.92775   1.94046   1.94274   1.94696
 Alpha virt. eigenvalues --    1.95390   1.96981   1.97240   1.98114   1.98474
 Alpha virt. eigenvalues --    1.99041   1.99336   1.99451   1.99730   2.00591
 Alpha virt. eigenvalues --    2.01963   2.03390   2.04207   2.04639   2.05548
 Alpha virt. eigenvalues --    2.05985   2.06678   2.08348   2.09061   2.09179
 Alpha virt. eigenvalues --    2.09691   2.10616   2.11867   2.12418   2.12967
 Alpha virt. eigenvalues --    2.14264   2.15095   2.16476   2.16697   2.17364
 Alpha virt. eigenvalues --    2.18388   2.19520   2.19815   2.21438   2.22447
 Alpha virt. eigenvalues --    2.23726   2.24434   2.25563   2.26262   2.26523
 Alpha virt. eigenvalues --    2.28416   2.29616   2.29801   2.30117   2.31850
 Alpha virt. eigenvalues --    2.32841   2.33216   2.33662   2.33922   2.34442
 Alpha virt. eigenvalues --    2.35032   2.35952   2.37347   2.38208   2.39501
 Alpha virt. eigenvalues --    2.40614   2.40684   2.41438   2.42579   2.42863
 Alpha virt. eigenvalues --    2.43545   2.45737   2.46240   2.47402   2.47817
 Alpha virt. eigenvalues --    2.49151   2.49970   2.51577   2.53193   2.54483
 Alpha virt. eigenvalues --    2.55577   2.56603   2.56893   2.58893   2.59954
 Alpha virt. eigenvalues --    2.61027   2.61919   2.63374   2.64213   2.65991
 Alpha virt. eigenvalues --    2.66563   2.67870   2.69238   2.69379   2.70601
 Alpha virt. eigenvalues --    2.71749   2.72262   2.74579   2.76117   2.77232
 Alpha virt. eigenvalues --    2.78460   2.79791   2.81222   2.82902   2.84161
 Alpha virt. eigenvalues --    2.86654   2.88680   2.90739   2.93342   2.96087
 Alpha virt. eigenvalues --    2.97543   3.00460   3.00880   3.01527   3.02498
 Alpha virt. eigenvalues --    3.05227   3.07188   3.11938   3.17978   3.21290
 Alpha virt. eigenvalues --    3.25887   3.28985   4.03652   4.05914   4.08091
 Alpha virt. eigenvalues --    4.12652   4.13874   4.16150   4.16919   4.19697
 Alpha virt. eigenvalues --    4.21638   4.24497   4.26645   4.28774   4.30031
 Alpha virt. eigenvalues --    4.31968   4.34725   4.37382   4.39216   4.42922
 Alpha virt. eigenvalues --    4.45314   4.49232   4.53422   4.55954   4.60635
 Alpha virt. eigenvalues --    4.65161   4.66923   4.69815   4.74650   4.82158
 Alpha virt. eigenvalues --    4.89906   5.01036   5.15887
          Condensed to atoms (all electrons):
 Mulliken atomic charges:
              1
     1  C   -0.187206
     2  C    0.193172
     3  C   -0.188273
     4  C    0.324909
     5  C   -0.055235
     6  C   -0.333494
     7  C    0.198248
     8  C    0.402838
     9  C   -0.100013
    10  C    0.423041
    11  C    0.421558
    12  O   -0.465044
    13  C   -0.129813
    14  C   -0.254459
    15  C   -0.460042
    16  O   -0.513648
    17  C   -0.163837
    18  C    0.301462
    19  O   -0.506912
    20  C   -0.324058
    21  O   -0.657549
    22  C   -0.326031
    23  C    0.097269
    24  O   -0.591569
    25  C    0.180149
    26  C   -0.508027
    27  C   -0.392222
    28  C   -0.469203
    29  C   -0.456829
    30  H    0.143129
    31  H    0.164002
    32  C   -0.520052
    33  H    0.122555
    34  H    0.145270
    35  H    0.185564
    36  H    0.138642
    37  H    0.132181
    38  H    0.151256
    39  H    0.139236
    40  H    0.164863
    41  H    0.156946
    42  H    0.171450
    43  H    0.151399
    44  H    0.414396
    45  H    0.169869
    46  H    0.167352
    47  H    0.139180
    48  H    0.170962
    49  H    0.154663
    50  H    0.156797
    51  H    0.142732
    52  H    0.152611
    53  H    0.159517
    54  H    0.143063
    55  H    0.191414
    56  H    0.167082
    57  H    0.167691
    58  H    0.147926
    59  H    0.158121
    60  H    0.159124
    61  H    0.149868
    62  C   -0.448121
    63  H    0.141529
    64  H    0.148108
    65  H    0.140494
 Sum of Mulliken atomic charges =   0.00000
 Mulliken charges with hydrogens summed into heavy atoms:
              1
     1  C   -0.064651
     2  C    0.193172
     3  C   -0.024270
     4  C    0.324909
     5  C   -0.055235
     6  C   -0.002660
     7  C    0.198248
     8  C    0.402838
     9  C   -0.100013
    10  C    0.423041
    11  C    0.421558
    12  O   -0.465044
    13  C    0.008829
    14  C    0.028979
    15  C    0.001003
    16  O   -0.513648
    17  C   -0.020708
    18  C    0.301462
    19  O   -0.506912
    20  C   -0.001209
    21  O   -0.243153
    22  C    0.011190
    23  C    0.236449
    24  O   -0.591569
    25  C    0.180149
    26  C   -0.025606
    27  C   -0.096880
    28  C    0.024791
    29  C    0.025869
    32  C   -0.052939
    62  C   -0.017989
 Sum of Mulliken charges with hydrogens summed into heavy atoms =   0.00000
 Electronic spatial extent (au):  <R**2>=          11732.4707
 Charge=              0.0000 electrons
 Dipole moment (field-independent basis, Debye):
    X=             -5.4404    Y=              0.9551    Z=             -1.8055  Tot=              5.8112
 Quadrupole moment (field-independent basis, Debye-Ang):
   XX=           -187.8423   YY=           -174.6285   ZZ=           -182.7891
   XY=             -3.1567   XZ=             -3.5287   YZ=              0.2785
 Traceless Quadrupole moment (field-independent basis, Debye-Ang):
   XX=             -6.0890   YY=              7.1248   ZZ=             -1.0358
   XY=             -3.1567   XZ=             -3.5287   YZ=              0.2785
 Octapole moment (field-independent basis, Debye-Ang**2):
  XXX=            -35.7308  YYY=             35.7527  ZZZ=             -5.1654  XYY=            -29.9491
  XXY=            -30.1343  XXZ=            -25.7069  XZZ=            -16.7387  YZZ=             14.3637
  YYZ=            -28.3561  XYZ=             -5.0987
 Hexadecapole moment (field-independent basis, Debye-Ang**3):
 XXXX=          -7853.6139 YYYY=          -4419.3947 ZZZZ=          -3351.2892 XXXY=            -13.7220
 XXXZ=             42.2236 YYYX=             23.9761 YYYZ=            -28.9526 ZZZX=             14.7399
 ZZZY=             -2.2995 XXYY=          -2065.9675 XXZZ=          -1854.5874 YYZZ=          -1268.4165
 XXYZ=              3.0591 YYXZ=              3.1138 ZZXY=             49.2029
 N-N= 3.492245525634D+03 E-N=-1.021088899625D+04  KE= 1.374458526117D+03
 1\1\GINC-B0600\FOpt\RB3LYP\6-31G(d)\C26H34O5\CAOFEI\24-Mar-2021\0\\# o
 pt rb3lyp/6-31g(d) geom=connectivity\\Title Card Required\\0,1\C,-0.04
 11861211,0.033105371,-0.0214757762\C,1.2932920481,-0.0261119381,0.0543
 012344\C,2.1387557697,1.229867093,0.051653986\C,1.3979309836,2.5493987
 585,-0.33143926\C,-0.0786670315,2.4673233676,-0.7998475612\C,-0.832225
 4673,1.3089964085,-0.1040318892\C,2.3289101569,3.2246671158,-1.3738060
 789\C,2.0298262466,2.8143128163,-2.8019894431\C,0.7892801553,2.5304936
 138,-3.2811339865\C,-0.3142572314,2.3565493807,-2.3321551419\C,0.56231
 0878,2.2363541121,-4.7440580964\O,1.3319631383,1.5155761688,-5.3568798
 859\C,-0.6027859976,2.9261027022,-5.4606820507\C,0.0039862529,3.928229
 2972,-6.474482129\C,-1.501816816,1.8681447975,-6.120575212\O,-1.449595
 9316,2.0854385729,-2.7179037585\C,3.7360996981,2.6072718703,-1.2339983
 62\C,4.3505243466,2.8405977288,-2.6354780539\O,3.1528027434,2.77919805
 41,-3.5195108109\C,3.3945626245,1.1495116097,-0.8654944313\O,2.2659244
 025,4.637765262,-1.3126717858\C,-0.6348199406,3.8357671204,-0.32135479
 55\C,0.0796188353,4.0423029202,1.0114885443\O,1.3845557617,3.418384753
 7,0.8302433287\C,0.2902609255,5.4525657121,1.52387127\C,1.0747479606,5
 .5460703068,2.8109705556\C,-0.2086249334,6.531445116,0.9124109916\C,4.
 9757652509,4.2283609784,-2.7905833402\C,5.2979111091,1.7566431607,-3.1
 424643872\H,4.3192048326,3.0988428469,-0.4490133846\H,2.4941610491,1.4
 017709671,1.0779824759\C,2.0243439872,-1.3362720071,0.2145928354\H,-0.
 6130432998,-0.893116106,0.0185729035\H,-1.1240467385,1.6139075943,0.91
 19739713\H,-1.7645603568,1.1521757467,-0.6538320375\H,-1.1928781185,3.
 4812803614,-4.7254310179\H,0.7254099027,4.5698393163,-5.9489255037\H,0
 .5810176317,3.3645528612,-7.2176360594\H,-2.3256488886,2.3361694339,-6
 .6689871595\H,-1.9352643196,1.2138310485,-5.3580352637\H,-0.9200972577
 ,1.2555573629,-6.8174196291\H,3.1465080148,0.5824833723,-1.7697397221\
 H,4.2264458853,0.6313607082,-0.3799337426\H,2.1548621612,4.8332448109,
 -0.3610516896\H,-0.3557117658,4.6197996335,-1.0308100817\H,-1.72384573
 88,3.8195580269,-0.2262501182\H,-0.4355866832,3.4760401056,1.803164665
 4\H,2.0661947403,5.092055167,2.7006188004\H,1.1989275254,6.5850689952,
 3.129838917\H,0.568199507,4.9985649418,3.6177522966\H,-0.0600176945,7.
 526487882,1.3243534426\H,-0.7874615816,6.474380598,-0.0037441163\H,5.2
 167236183,4.4105145802,-3.842911123\H,5.9052829855,4.2850522008,-2.212
 4037664\H,4.2947010361,5.0054189282,-2.4391347534\H,4.8264222704,0.771
 5014221,-3.1478376144\H,5.6139370009,1.9854668802,-4.16485563\H,6.1906
 670294,1.7156607085,-2.5083782835\H,1.32277942,-2.1736055565,0.2788853
 9\H,2.7058854518,-1.5345004978,-0.6226208019\H,2.6383550745,-1.3387552
 706,1.1266933841\C,-1.0318371888,4.8197358601,-7.1673420169\H,-0.53898
 43307,5.5425919573,-7.8278817413\H,-1.7299824377,4.2390793649,-7.77967
 47579\H,-1.6217125405,5.3862235245,-6.435902742\\Version=EM64L-G09RevB
 .01\State=1-A\HF=-1387.3201483\RMSD=6.729e-09\RMSF=7.649e-06\Dipole=1.
 0396803,0.5099526,1.9713583\Quadrupole=3.5524737,0.6998865,-4.2523602,
 -3.3299559,-0.5607501,-3.163535\PG=C01 [X(C26H34O5)]\\@


 ... FOR AFTERWARDS A MAN FINDS PLEASURE IN HIS PAINS,
 WHEN HE HAS SUFFERED LONG AND WANDERED FAR.

                                    -- HOMER
 Job cpu time:  0 days  5 hours 15 minutes  0.1 seconds.
 File lengths (MBytes):  RWF=    186 Int=      0 D2E=      0 Chk=     20 Scr=      1
 Normal termination of Gaussian 09 at Wed Mar 24 17:06:12 2021.
