 Entering Gaussian System, Link 0=g09
 Initial command:
 /public/software/g09/g09/l1.exe /tmp/Gau-26681.inp -scrdir=/tmp/
 Entering Link 1 = /public/software/g09/g09/l1.exe PID=     26682.
  
 Copyright (c) 1988,1990,1992,1993,1995,1998,2003,2009,2010,
            Gaussian, Inc.  All Rights Reserved.
  
 This is part of the Gaussian(R) 09 program.  It is based on
 the Gaussian(R) 03 system (copyright 2003, Gaussian, Inc.),
 the Gaussian(R) 98 system (copyright 1998, Gaussian, Inc.),
 the Gaussian(R) 94 system (copyright 1995, Gaussian, Inc.),
 the Gaussian 92(TM) system (copyright 1992, Gaussian, Inc.),
 the Gaussian 90(TM) system (copyright 1990, Gaussian, Inc.),
 the Gaussian 88(TM) system (copyright 1988, Gaussian, Inc.),
 the Gaussian 86(TM) system (copyright 1986, Carnegie Mellon
 University), and the Gaussian 82(TM) system (copyright 1983,
 Carnegie Mellon University). Gaussian is a federally registered
 trademark of Gaussian, Inc.
  
 This software contains proprietary and confidential information,
 including trade secrets, belonging to Gaussian, Inc.
  
 This software is provided under written license and may be
 used, copied, transmitted, or stored only in accord with that
 written license.
  
 The following legend is applicable only to US Government
 contracts under FAR:
  
                    RESTRICTED RIGHTS LEGEND
  
 Use, reproduction and disclosure by the US Government is
 subject to restrictions as set forth in subparagraphs (a)
 and (c) of the Commercial Computer Software - Restricted
 Rights clause in FAR 52.227-19.
  
 Gaussian, Inc.
 340 Quinnipiac St., Bldg. 40, Wallingford CT 06492
  
  
 ---------------------------------------------------------------
 Warning -- This program may not be used in any manner that
 competes with the business of Gaussian, Inc. or will provide
 assistance to any competitor of Gaussian, Inc.  The licensee
 of this program is prohibited from giving any competitor of
 Gaussian, Inc. access to this program.  By using this program,
 the user acknowledges that Gaussian, Inc. is engaged in the
 business of creating and licensing software in the field of
 computational chemistry and represents and warrants to the
 licensee that it is not a competitor of Gaussian, Inc. and that
 it will not use this program in any manner prohibited above.
 ---------------------------------------------------------------
  

 Cite this work as:
 Gaussian 09, Revision B.01,
 M. J. Frisch, G. W. Trucks, H. B. Schlegel, G. E. Scuseria, 
 M. A. Robb, J. R. Cheeseman, G. Scalmani, V. Barone, B. Mennucci, 
 G. A. Petersson, H. Nakatsuji, M. Caricato, X. Li, H. P. Hratchian, 
 A. F. Izmaylov, J. Bloino, G. Zheng, J. L. Sonnenberg, M. Hada, 
 M. Ehara, K. Toyota, R. Fukuda, J. Hasegawa, M. Ishida, T. Nakajima, 
 Y. Honda, O. Kitao, H. Nakai, T. Vreven, J. A. Montgomery, Jr., 
 J. E. Peralta, F. Ogliaro, M. Bearpark, J. J. Heyd, E. Brothers, 
 K. N. Kudin, V. N. Staroverov, T. Keith, R. Kobayashi, J. Normand, 
 K. Raghavachari, A. Rendell, J. C. Burant, S. S. Iyengar, J. Tomasi, 
 M. Cossi, N. Rega, J. M. Millam, M. Klene, J. E. Knox, J. B. Cross, 
 V. Bakken, C. Adamo, J. Jaramillo, R. Gomperts, R. E. Stratmann, 
 O. Yazyev, A. J. Austin, R. Cammi, C. Pomelli, J. W. Ochterski, 
 R. L. Martin, K. Morokuma, V. G. Zakrzewski, G. A. Voth, 
 P. Salvador, J. J. Dannenberg, S. Dapprich, A. D. Daniels, 
 O. Farkas, J. B. Foresman, J. V. Ortiz, J. Cioslowski, 
 and D. J. Fox, Gaussian, Inc., Wallingford CT, 2010.
 
 ******************************************
 Gaussian 09:  EM64L-G09RevB.01 12-Aug-2010
                24-Mar-2021 
 ******************************************
 %mem=600MW
 %nprocshared=10
 Will use up to   10 processors via shared memory.
 ---------------------------------------
 # opt rb3lyp/6-31g(d) geom=connectivity
 ---------------------------------------
 1/14=-1,18=20,19=15,26=3,38=1,57=2/1,3;
 2/9=110,12=2,17=6,18=5,40=1/2;
 3/5=1,6=6,7=1,11=2,16=1,25=1,30=1,71=1,74=-5,116=1/1,2,3;
 4//1;
 5/5=2,38=5/2;
 6/7=2,8=2,9=2,10=2,28=1/1;
 7//1,2,3,16;
 1/14=-1,18=20,19=15/3(2);
 2/9=110/2;
 99//99;
 2/9=110/2;
 3/5=1,6=6,7=1,11=2,16=1,25=1,30=1,71=1,74=-5,116=1/1,2,3;
 4/5=5,16=3/1;
 5/5=2,38=5/2;
 7//1,2,3,16;
 1/14=-1,18=20,19=15/3(-5);
 2/9=110/2;
 6/7=2,8=2,9=2,10=2,19=2,28=1/1;
 99/9=1/99;
 -------------------
 Title Card Required
 -------------------
 Symbolic Z-matrix:
 Charge =  0 Multiplicity = 1
 C                     0.        0.        0. 
 C                     1.3408    0.        0. 
 C                     2.1195    1.2896    0. 
 C                     1.3821    2.5389    0.5695 
 C                    -0.1538    2.4345    0.7403 
 C                    -0.8001    1.2619   -0.027 
 C                     1.8701    3.7065   -0.3194 
 C                     0.8811    4.2058   -1.3157 
 C                    -0.4314    4.2548   -1.0682 
 C                    -0.8723    3.6981    0.2326 
 C                    -1.411     4.6961   -2.0841 
 O                    -2.3025    3.9181   -2.4238 
 C                    -1.2915    6.1149   -2.6334 
 C                    -1.1171    6.1152   -4.1614 
 C                    -2.4758    6.9448   -2.1459 
 O                    -1.835     4.1977    0.811 
 C                     2.9528    3.1767   -1.2396 
 C                     2.8255    4.0747   -2.4848 
 O                     1.4349    4.4743   -2.5587 
 C                     2.5532    1.7058   -1.4111 
 O                     2.3291    4.8075    0.4523 
 C                    -0.3496    2.2766    2.2612 
 C                     1.0489    2.1188    2.8321 
 O                     1.9143    2.7775    1.9042 
 C                     1.2449    2.7091    4.2058 
 C                     1.2462    4.2086    4.3356 
 C                     1.428     1.9247    5.282 
 C                     3.6727    5.3518   -2.37 
 C                     3.1878    3.365    -3.7922 
 H                     3.9545    3.242    -0.7967 
 H                     3.0257    1.1301    0.6033 
 C                     2.1364   -1.2739   -0.0237 
 H                    -0.5522   -0.9368   -0.0337 
 H                    -0.9757    1.5134   -1.0809 
 H                    -1.7949    1.0581    0.3913 
 H                    -0.3855    6.5676   -2.2101 
 H                    -0.7209    7.0926   -4.4646 
 H                    -0.3615    5.3727   -4.4447 
 H                    -2.4737    7.0075   -1.0518 
 H                    -2.4285    7.9642   -2.5421 
 H                    -3.4342    6.5024   -2.4375 
 H                     1.7244    1.584    -2.1194 
 H                     3.3933    1.1049   -1.7757 
 H                     2.5383    4.439     1.3371 
 H                    -0.9672    1.4125    2.5332 
 H                    -0.85      3.1465    2.6987 
 H                     1.3254    1.0565    2.8355 
 H                     2.071     4.6441    3.763 
 H                     0.307     4.6353    3.9721 
 H                     1.3674    4.5284    5.3764 
 H                     1.4353    0.8418    5.2037 
 H                     1.576     2.3449    6.2723 
 H                     3.53      5.9897   -3.2503 
 H                     4.7384    5.1163   -2.2839 
 H                     3.3822    5.9646   -1.5117 
 H                     3.1098    4.054    -4.6415 
 H                     4.2077    2.9686   -3.763 
 H                     2.4957    2.547    -4.0165 
 H                     1.4933   -2.1602   -0.0358 
 H                     2.7717   -1.3114   -0.9143 
 H                     2.7749   -1.3383    0.8632 
 C                    -2.3781    5.8516   -4.9744 
 H                    -3.1283    6.6319   -4.816 
 H                    -2.1351    5.8444   -6.0423 
 H                    -2.8247    4.8842   -4.7311 
 

 GradGradGradGradGradGradGradGradGradGradGradGradGradGradGradGradGradGrad
 Berny optimization.
 Initialization pass.
                           ----------------------------
                           !    Initial Parameters    !
                           ! (Angstroms and Degrees)  !
 --------------------------                            --------------------------
 ! Name  Definition              Value          Derivative Info.                !
 --------------------------------------------------------------------------------
 ! R1    R(1,2)                  1.3408         estimate D2E/DX2                !
 ! R2    R(1,6)                  1.4944         estimate D2E/DX2                !
 ! R3    R(1,33)                 1.088          estimate D2E/DX2                !
 ! R4    R(2,3)                  1.5065         estimate D2E/DX2                !
 ! R5    R(2,32)                 1.5021         estimate D2E/DX2                !
 ! R6    R(3,4)                  1.5585         estimate D2E/DX2                !
 ! R7    R(3,20)                 1.5338         estimate D2E/DX2                !
 ! R8    R(3,31)                 1.1003         estimate D2E/DX2                !
 ! R9    R(4,5)                  1.5489         estimate D2E/DX2                !
 ! R10   R(4,7)                  1.5465         estimate D2E/DX2                !
 ! R11   R(4,24)                 1.4566         estimate D2E/DX2                !
 ! R12   R(5,6)                  1.5432         estimate D2E/DX2                !
 ! R13   R(5,10)                 1.5397         estimate D2E/DX2                !
 ! R14   R(5,22)                 1.5416         estimate D2E/DX2                !
 ! R15   R(6,34)                 1.0976         estimate D2E/DX2                !
 ! R16   R(6,35)                 1.0982         estimate D2E/DX2                !
 ! R17   R(7,8)                  1.49           estimate D2E/DX2                !
 ! R18   R(7,17)                 1.5165         estimate D2E/DX2                !
 ! R19   R(7,21)                 1.4207         estimate D2E/DX2                !
 ! R20   R(8,9)                  1.3365         estimate D2E/DX2                !
 ! R21   R(8,19)                 1.387          estimate D2E/DX2                !
 ! R22   R(9,10)                 1.482          estimate D2E/DX2                !
 ! R23   R(9,11)                 1.4787         estimate D2E/DX2                !
 ! R24   R(10,16)                1.2292         estimate D2E/DX2                !
 ! R25   R(11,12)                1.231          estimate D2E/DX2                !
 ! R26   R(11,13)                1.5261         estimate D2E/DX2                !
 ! R27   R(13,14)                1.5379         estimate D2E/DX2                !
 ! R28   R(13,15)                1.5261         estimate D2E/DX2                !
 ! R29   R(13,36)                1.0977         estimate D2E/DX2                !
 ! R30   R(14,37)                1.0974         estimate D2E/DX2                !
 ! R31   R(14,38)                1.0966         estimate D2E/DX2                !
 ! R32   R(14,62)                1.5233         estimate D2E/DX2                !
 ! R33   R(15,39)                1.0959         estimate D2E/DX2                !
 ! R34   R(15,40)                1.0947         estimate D2E/DX2                !
 ! R35   R(15,41)                1.0951         estimate D2E/DX2                !
 ! R36   R(17,18)                1.5405         estimate D2E/DX2                !
 ! R37   R(17,20)                1.5338         estimate D2E/DX2                !
 ! R38   R(17,30)                1.0972         estimate D2E/DX2                !
 ! R39   R(18,19)                1.4488         estimate D2E/DX2                !
 ! R40   R(18,28)                1.5369         estimate D2E/DX2                !
 ! R41   R(18,29)                1.5311         estimate D2E/DX2                !
 ! R42   R(20,42)                1.097          estimate D2E/DX2                !
 ! R43   R(20,43)                1.0953         estimate D2E/DX2                !
 ! R44   R(21,44)                0.981          estimate D2E/DX2                !
 ! R45   R(22,23)                1.5188         estimate D2E/DX2                !
 ! R46   R(22,45)                1.0964         estimate D2E/DX2                !
 ! R47   R(22,46)                1.0948         estimate D2E/DX2                !
 ! R48   R(23,24)                1.4296         estimate D2E/DX2                !
 ! R49   R(23,25)                1.508          estimate D2E/DX2                !
 ! R50   R(23,47)                1.0977         estimate D2E/DX2                !
 ! R51   R(24,44)                1.8632         estimate D2E/DX2                !
 ! R52   R(25,26)                1.5051         estimate D2E/DX2                !
 ! R53   R(25,27)                1.3443         estimate D2E/DX2                !
 ! R54   R(26,48)                1.0945         estimate D2E/DX2                !
 ! R55   R(26,49)                1.0938         estimate D2E/DX2                !
 ! R56   R(26,50)                1.0955         estimate D2E/DX2                !
 ! R57   R(27,51)                1.0858         estimate D2E/DX2                !
 ! R58   R(27,52)                1.0859         estimate D2E/DX2                !
 ! R59   R(28,53)                1.0965         estimate D2E/DX2                !
 ! R60   R(28,54)                1.0948         estimate D2E/DX2                !
 ! R61   R(28,55)                1.0939         estimate D2E/DX2                !
 ! R62   R(29,56)                1.0964         estimate D2E/DX2                !
 ! R63   R(29,57)                1.0946         estimate D2E/DX2                !
 ! R64   R(29,58)                1.0947         estimate D2E/DX2                !
 ! R65   R(32,59)                1.0951         estimate D2E/DX2                !
 ! R66   R(32,60)                1.0946         estimate D2E/DX2                !
 ! R67   R(32,61)                1.0947         estimate D2E/DX2                !
 ! R68   R(62,63)                1.094          estimate D2E/DX2                !
 ! R69   R(62,64)                1.0952         estimate D2E/DX2                !
 ! R70   R(62,65)                1.0929         estimate D2E/DX2                !
 ! A1    A(2,1,6)              122.3706         estimate D2E/DX2                !
 ! A2    A(2,1,33)             120.5012         estimate D2E/DX2                !
 ! A3    A(6,1,33)             117.0513         estimate D2E/DX2                !
 ! A4    A(1,2,3)              121.1249         estimate D2E/DX2                !
 ! A5    A(1,2,32)             121.9819         estimate D2E/DX2                !
 ! A6    A(3,2,32)             116.8851         estimate D2E/DX2                !
 ! A7    A(2,3,4)              116.2087         estimate D2E/DX2                !
 ! A8    A(2,3,20)             112.2378         estimate D2E/DX2                !
 ! A9    A(2,3,31)             107.5557         estimate D2E/DX2                !
 ! A10   A(4,3,20)             104.6231         estimate D2E/DX2                !
 ! A11   A(4,3,31)             107.7903         estimate D2E/DX2                !
 ! A12   A(20,3,31)            108.1137         estimate D2E/DX2                !
 ! A13   A(3,4,5)              117.094          estimate D2E/DX2                !
 ! A14   A(3,4,7)              104.2338         estimate D2E/DX2                !
 ! A15   A(3,4,24)             107.0544         estimate D2E/DX2                !
 ! A16   A(5,4,7)              115.289          estimate D2E/DX2                !
 ! A17   A(5,4,24)             105.8018         estimate D2E/DX2                !
 ! A18   A(7,4,24)             106.7218         estimate D2E/DX2                !
 ! A19   A(4,5,6)              114.3105         estimate D2E/DX2                !
 ! A20   A(4,5,10)             111.7808         estimate D2E/DX2                !
 ! A21   A(4,5,22)             103.9838         estimate D2E/DX2                !
 ! A22   A(6,5,10)             105.3199         estimate D2E/DX2                !
 ! A23   A(6,5,22)             111.0712         estimate D2E/DX2                !
 ! A24   A(10,5,22)            110.494          estimate D2E/DX2                !
 ! A25   A(1,6,5)              114.1055         estimate D2E/DX2                !
 ! A26   A(1,6,34)             107.2463         estimate D2E/DX2                !
 ! A27   A(1,6,35)             108.7468         estimate D2E/DX2                !
 ! A28   A(5,6,34)             111.7343         estimate D2E/DX2                !
 ! A29   A(5,6,35)             109.3286         estimate D2E/DX2                !
 ! A30   A(34,6,35)            105.2668         estimate D2E/DX2                !
 ! A31   A(4,7,8)              115.3341         estimate D2E/DX2                !
 ! A32   A(4,7,17)             108.0778         estimate D2E/DX2                !
 ! A33   A(4,7,21)             112.0145         estimate D2E/DX2                !
 ! A34   A(8,7,17)             100.6744         estimate D2E/DX2                !
 ! A35   A(8,7,21)             108.5397         estimate D2E/DX2                !
 ! A36   A(17,7,21)            111.6961         estimate D2E/DX2                !
 ! A37   A(7,8,9)              122.7037         estimate D2E/DX2                !
 ! A38   A(7,8,19)             113.5207         estimate D2E/DX2                !
 ! A39   A(9,8,19)             123.4321         estimate D2E/DX2                !
 ! A40   A(8,9,10)             116.1623         estimate D2E/DX2                !
 ! A41   A(8,9,11)             122.2963         estimate D2E/DX2                !
 ! A42   A(10,9,11)            121.2014         estimate D2E/DX2                !
 ! A43   A(5,10,9)             117.314          estimate D2E/DX2                !
 ! A44   A(5,10,16)            122.9478         estimate D2E/DX2                !
 ! A45   A(9,10,16)            119.56           estimate D2E/DX2                !
 ! A46   A(9,11,12)            118.7339         estimate D2E/DX2                !
 ! A47   A(9,11,13)            118.2213         estimate D2E/DX2                !
 ! A48   A(12,11,13)           123.0201         estimate D2E/DX2                !
 ! A49   A(11,13,14)           111.5107         estimate D2E/DX2                !
 ! A50   A(11,13,15)           109.2581         estimate D2E/DX2                !
 ! A51   A(11,13,36)           108.0133         estimate D2E/DX2                !
 ! A52   A(14,13,15)           113.9086         estimate D2E/DX2                !
 ! A53   A(14,13,36)           106.8256         estimate D2E/DX2                !
 ! A54   A(15,13,36)           107.0408         estimate D2E/DX2                !
 ! A55   A(13,14,37)           108.3989         estimate D2E/DX2                !
 ! A56   A(13,14,38)           109.5535         estimate D2E/DX2                !
 ! A57   A(13,14,62)           115.8711         estimate D2E/DX2                !
 ! A58   A(37,14,38)           106.4346         estimate D2E/DX2                !
 ! A59   A(37,14,62)           107.7902         estimate D2E/DX2                !
 ! A60   A(38,14,62)           108.3813         estimate D2E/DX2                !
 ! A61   A(13,15,39)           110.3984         estimate D2E/DX2                !
 ! A62   A(13,15,40)           110.9315         estimate D2E/DX2                !
 ! A63   A(13,15,41)           111.9878         estimate D2E/DX2                !
 ! A64   A(39,15,40)           107.9369         estimate D2E/DX2                !
 ! A65   A(39,15,41)           106.8955         estimate D2E/DX2                !
 ! A66   A(40,15,41)           108.5195         estimate D2E/DX2                !
 ! A67   A(7,17,18)            103.1695         estimate D2E/DX2                !
 ! A68   A(7,17,20)            102.5254         estimate D2E/DX2                !
 ! A69   A(7,17,30)            112.711          estimate D2E/DX2                !
 ! A70   A(18,17,20)           116.5581         estimate D2E/DX2                !
 ! A71   A(18,17,30)           111.5331         estimate D2E/DX2                !
 ! A72   A(20,17,30)           109.8804         estimate D2E/DX2                !
 ! A73   A(17,18,19)           106.3398         estimate D2E/DX2                !
 ! A74   A(17,18,28)           112.2391         estimate D2E/DX2                !
 ! A75   A(17,18,29)           113.607          estimate D2E/DX2                !
 ! A76   A(19,18,28)           107.682          estimate D2E/DX2                !
 ! A77   A(19,18,29)           108.145          estimate D2E/DX2                !
 ! A78   A(28,18,29)           108.5738         estimate D2E/DX2                !
 ! A79   A(8,19,18)            106.5073         estimate D2E/DX2                !
 ! A80   A(3,20,17)            103.3571         estimate D2E/DX2                !
 ! A81   A(3,20,42)            110.503          estimate D2E/DX2                !
 ! A82   A(3,20,43)            111.9776         estimate D2E/DX2                !
 ! A83   A(17,20,42)           112.0548         estimate D2E/DX2                !
 ! A84   A(17,20,43)           111.3146         estimate D2E/DX2                !
 ! A85   A(42,20,43)           107.6755         estimate D2E/DX2                !
 ! A86   A(7,21,44)            105.5272         estimate D2E/DX2                !
 ! A87   A(5,22,23)            105.34           estimate D2E/DX2                !
 ! A88   A(5,22,45)            113.393          estimate D2E/DX2                !
 ! A89   A(5,22,46)            111.7734         estimate D2E/DX2                !
 ! A90   A(23,22,45)           110.0936         estimate D2E/DX2                !
 ! A91   A(23,22,46)           110.6848         estimate D2E/DX2                !
 ! A92   A(45,22,46)           105.642          estimate D2E/DX2                !
 ! A93   A(22,23,24)           105.3998         estimate D2E/DX2                !
 ! A94   A(22,23,25)           114.9259         estimate D2E/DX2                !
 ! A95   A(22,23,47)           109.491          estimate D2E/DX2                !
 ! A96   A(24,23,25)           109.4038         estimate D2E/DX2                !
 ! A97   A(24,23,47)           107.1831         estimate D2E/DX2                !
 ! A98   A(25,23,47)           110.0763         estimate D2E/DX2                !
 ! A99   A(4,24,23)            107.3433         estimate D2E/DX2                !
 ! A100  A(23,25,26)           117.9482         estimate D2E/DX2                !
 ! A101  A(23,25,27)           121.2382         estimate D2E/DX2                !
 ! A102  A(26,25,27)           120.8096         estimate D2E/DX2                !
 ! A103  A(25,26,48)           110.6075         estimate D2E/DX2                !
 ! A104  A(25,26,49)           111.0552         estimate D2E/DX2                !
 ! A105  A(25,26,50)           111.8913         estimate D2E/DX2                !
 ! A106  A(48,26,49)           108.5429         estimate D2E/DX2                !
 ! A107  A(48,26,50)           107.3082         estimate D2E/DX2                !
 ! A108  A(49,26,50)           107.2685         estimate D2E/DX2                !
 ! A109  A(25,27,51)           121.6796         estimate D2E/DX2                !
 ! A110  A(25,27,52)           121.5256         estimate D2E/DX2                !
 ! A111  A(51,27,52)           116.7948         estimate D2E/DX2                !
 ! A112  A(18,28,53)           110.5937         estimate D2E/DX2                !
 ! A113  A(18,28,54)           111.3293         estimate D2E/DX2                !
 ! A114  A(18,28,55)           112.1935         estimate D2E/DX2                !
 ! A115  A(53,28,54)           108.3593         estimate D2E/DX2                !
 ! A116  A(53,28,55)           105.6328         estimate D2E/DX2                !
 ! A117  A(54,28,55)           108.5            estimate D2E/DX2                !
 ! A118  A(18,29,56)           110.691          estimate D2E/DX2                !
 ! A119  A(18,29,57)           111.442          estimate D2E/DX2                !
 ! A120  A(18,29,58)           111.8212         estimate D2E/DX2                !
 ! A121  A(56,29,57)           108.3319         estimate D2E/DX2                !
 ! A122  A(56,29,58)           105.4188         estimate D2E/DX2                !
 ! A123  A(57,29,58)           108.9007         estimate D2E/DX2                !
 ! A124  A(2,32,59)            112.0554         estimate D2E/DX2                !
 ! A125  A(2,32,60)            110.4441         estimate D2E/DX2                !
 ! A126  A(2,32,61)            110.2445         estimate D2E/DX2                !
 ! A127  A(59,32,60)           107.705          estimate D2E/DX2                !
 ! A128  A(59,32,61)           107.6893         estimate D2E/DX2                !
 ! A129  A(60,32,61)           108.5803         estimate D2E/DX2                !
 ! A130  A(14,62,63)           111.5284         estimate D2E/DX2                !
 ! A131  A(14,62,64)           109.7463         estimate D2E/DX2                !
 ! A132  A(14,62,65)           111.8767         estimate D2E/DX2                !
 ! A133  A(63,62,64)           107.3389         estimate D2E/DX2                !
 ! A134  A(63,62,65)           108.5962         estimate D2E/DX2                !
 ! A135  A(64,62,65)           107.5719         estimate D2E/DX2                !
 ! D1    D(6,1,2,3)              1.2257         estimate D2E/DX2                !
 ! D2    D(6,1,2,32)          -177.7084         estimate D2E/DX2                !
 ! D3    D(33,1,2,3)           177.9398         estimate D2E/DX2                !
 ! D4    D(33,1,2,32)           -0.9944         estimate D2E/DX2                !
 ! D5    D(2,1,6,5)            -34.222          estimate D2E/DX2                !
 ! D6    D(2,1,6,34)            90.0886         estimate D2E/DX2                !
 ! D7    D(2,1,6,35)          -156.5508         estimate D2E/DX2                !
 ! D8    D(33,1,6,5)           148.957          estimate D2E/DX2                !
 ! D9    D(33,1,6,34)          -86.7324         estimate D2E/DX2                !
 ! D10   D(33,1,6,35)           26.6281         estimate D2E/DX2                !
 ! D11   D(1,2,3,4)             24.035          estimate D2E/DX2                !
 ! D12   D(1,2,3,20)           -96.3138         estimate D2E/DX2                !
 ! D13   D(1,2,3,31)           144.8932         estimate D2E/DX2                !
 ! D14   D(32,2,3,4)          -156.9786         estimate D2E/DX2                !
 ! D15   D(32,2,3,20)           82.6726         estimate D2E/DX2                !
 ! D16   D(32,2,3,31)          -36.1204         estimate D2E/DX2                !
 ! D17   D(1,2,32,59)           -0.2477         estimate D2E/DX2                !
 ! D18   D(1,2,32,60)          119.8327         estimate D2E/DX2                !
 ! D19   D(1,2,32,61)         -120.1722         estimate D2E/DX2                !
 ! D20   D(3,2,32,59)         -179.2248         estimate D2E/DX2                !
 ! D21   D(3,2,32,60)          -59.1443         estimate D2E/DX2                !
 ! D22   D(3,2,32,61)           60.8507         estimate D2E/DX2                !
 ! D23   D(2,3,4,5)            -15.028          estimate D2E/DX2                !
 ! D24   D(2,3,4,7)           -143.6965         estimate D2E/DX2                !
 ! D25   D(2,3,4,24)           103.4543         estimate D2E/DX2                !
 ! D26   D(20,3,4,5)           109.3308         estimate D2E/DX2                !
 ! D27   D(20,3,4,7)           -19.3377         estimate D2E/DX2                !
 ! D28   D(20,3,4,24)         -132.1869         estimate D2E/DX2                !
 ! D29   D(31,3,4,5)          -135.7607         estimate D2E/DX2                !
 ! D30   D(31,3,4,7)            95.5708         estimate D2E/DX2                !
 ! D31   D(31,3,4,24)          -17.2784         estimate D2E/DX2                !
 ! D32   D(2,3,20,17)          164.5784         estimate D2E/DX2                !
 ! D33   D(2,3,20,42)           44.5238         estimate D2E/DX2                !
 ! D34   D(2,3,20,43)          -75.5078         estimate D2E/DX2                !
 ! D35   D(4,3,20,17)           37.7241         estimate D2E/DX2                !
 ! D36   D(4,3,20,42)          -82.3305         estimate D2E/DX2                !
 ! D37   D(4,3,20,43)          157.638          estimate D2E/DX2                !
 ! D38   D(31,3,20,17)         -76.9575         estimate D2E/DX2                !
 ! D39   D(31,3,20,42)         162.9879         estimate D2E/DX2                !
 ! D40   D(31,3,20,43)          42.9563         estimate D2E/DX2                !
 ! D41   D(3,4,5,6)            -15.9344         estimate D2E/DX2                !
 ! D42   D(3,4,5,10)          -135.4532         estimate D2E/DX2                !
 ! D43   D(3,4,5,22)           105.3344         estimate D2E/DX2                !
 ! D44   D(7,4,5,6)            107.2388         estimate D2E/DX2                !
 ! D45   D(7,4,5,10)           -12.2801         estimate D2E/DX2                !
 ! D46   D(7,4,5,22)          -131.4924         estimate D2E/DX2                !
 ! D47   D(24,4,5,6)          -135.0879         estimate D2E/DX2                !
 ! D48   D(24,4,5,10)          105.3932         estimate D2E/DX2                !
 ! D49   D(24,4,5,22)          -13.8192         estimate D2E/DX2                !
 ! D50   D(3,4,7,8)            105.433          estimate D2E/DX2                !
 ! D51   D(3,4,7,17)            -6.2896         estimate D2E/DX2                !
 ! D52   D(3,4,7,21)          -129.7556         estimate D2E/DX2                !
 ! D53   D(5,4,7,8)            -24.3236         estimate D2E/DX2                !
 ! D54   D(5,4,7,17)          -136.0463         estimate D2E/DX2                !
 ! D55   D(5,4,7,21)           100.4877         estimate D2E/DX2                !
 ! D56   D(24,4,7,8)          -141.4795         estimate D2E/DX2                !
 ! D57   D(24,4,7,17)          106.7978         estimate D2E/DX2                !
 ! D58   D(24,4,7,21)          -16.6681         estimate D2E/DX2                !
 ! D59   D(3,4,24,23)          -94.1994         estimate D2E/DX2                !
 ! D60   D(5,4,24,23)           31.3869         estimate D2E/DX2                !
 ! D61   D(7,4,24,23)          154.657          estimate D2E/DX2                !
 ! D62   D(4,5,6,1)             39.6888         estimate D2E/DX2                !
 ! D63   D(4,5,6,34)           -82.1835         estimate D2E/DX2                !
 ! D64   D(4,5,6,35)           161.6985         estimate D2E/DX2                !
 ! D65   D(10,5,6,1)           162.7759         estimate D2E/DX2                !
 ! D66   D(10,5,6,34)           40.9036         estimate D2E/DX2                !
 ! D67   D(10,5,6,35)          -75.2145         estimate D2E/DX2                !
 ! D68   D(22,5,6,1)           -77.5829         estimate D2E/DX2                !
 ! D69   D(22,5,6,34)          160.5448         estimate D2E/DX2                !
 ! D70   D(22,5,6,35)           44.4268         estimate D2E/DX2                !
 ! D71   D(4,5,10,9)            44.6097         estimate D2E/DX2                !
 ! D72   D(4,5,10,16)         -140.2708         estimate D2E/DX2                !
 ! D73   D(6,5,10,9)           -80.0798         estimate D2E/DX2                !
 ! D74   D(6,5,10,16)           95.0398         estimate D2E/DX2                !
 ! D75   D(22,5,10,9)          159.897          estimate D2E/DX2                !
 ! D76   D(22,5,10,16)         -24.9834         estimate D2E/DX2                !
 ! D77   D(4,5,22,23)           -7.1246         estimate D2E/DX2                !
 ! D78   D(4,5,22,45)         -127.5769         estimate D2E/DX2                !
 ! D79   D(4,5,22,46)          113.1395         estimate D2E/DX2                !
 ! D80   D(6,5,22,23)          116.2838         estimate D2E/DX2                !
 ! D81   D(6,5,22,45)           -4.1685         estimate D2E/DX2                !
 ! D82   D(6,5,22,46)         -123.4521         estimate D2E/DX2                !
 ! D83   D(10,5,22,23)        -127.211          estimate D2E/DX2                !
 ! D84   D(10,5,22,45)         112.3367         estimate D2E/DX2                !
 ! D85   D(10,5,22,46)          -6.9469         estimate D2E/DX2                !
 ! D86   D(4,7,8,9)             35.4145         estimate D2E/DX2                !
 ! D87   D(4,7,8,19)          -138.0642         estimate D2E/DX2                !
 ! D88   D(17,7,8,9)           151.4295         estimate D2E/DX2                !
 ! D89   D(17,7,8,19)          -22.0491         estimate D2E/DX2                !
 ! D90   D(21,7,8,9)           -91.1835         estimate D2E/DX2                !
 ! D91   D(21,7,8,19)           95.3378         estimate D2E/DX2                !
 ! D92   D(4,7,17,18)          150.793          estimate D2E/DX2                !
 ! D93   D(4,7,17,20)           29.3024         estimate D2E/DX2                !
 ! D94   D(4,7,17,30)          -88.7715         estimate D2E/DX2                !
 ! D95   D(8,7,17,18)           29.4897         estimate D2E/DX2                !
 ! D96   D(8,7,17,20)          -92.0008         estimate D2E/DX2                !
 ! D97   D(8,7,17,30)          149.9252         estimate D2E/DX2                !
 ! D98   D(21,7,17,18)         -85.5485         estimate D2E/DX2                !
 ! D99   D(21,7,17,20)         152.9609         estimate D2E/DX2                !
 ! D100  D(21,7,17,30)          34.8869         estimate D2E/DX2                !
 ! D101  D(4,7,21,44)           20.7957         estimate D2E/DX2                !
 ! D102  D(8,7,21,44)          149.2878         estimate D2E/DX2                !
 ! D103  D(17,7,21,44)        -100.6102         estimate D2E/DX2                !
 ! D104  D(7,8,9,10)            -3.8799         estimate D2E/DX2                !
 ! D105  D(7,8,9,11)          -177.2548         estimate D2E/DX2                !
 ! D106  D(19,8,9,10)          168.9518         estimate D2E/DX2                !
 ! D107  D(19,8,9,11)           -4.4231         estimate D2E/DX2                !
 ! D108  D(7,8,19,18)            3.9345         estimate D2E/DX2                !
 ! D109  D(9,8,19,18)         -169.4897         estimate D2E/DX2                !
 ! D110  D(8,9,10,5)           -37.8614         estimate D2E/DX2                !
 ! D111  D(8,9,10,16)          146.8465         estimate D2E/DX2                !
 ! D112  D(11,9,10,5)          135.5917         estimate D2E/DX2                !
 ! D113  D(11,9,10,16)         -39.7003         estimate D2E/DX2                !
 ! D114  D(8,9,11,12)          120.8455         estimate D2E/DX2                !
 ! D115  D(8,9,11,13)          -60.9094         estimate D2E/DX2                !
 ! D116  D(10,9,11,12)         -52.201          estimate D2E/DX2                !
 ! D117  D(10,9,11,13)         126.044          estimate D2E/DX2                !
 ! D118  D(9,11,13,14)         121.9791         estimate D2E/DX2                !
 ! D119  D(9,11,13,15)        -111.2126         estimate D2E/DX2                !
 ! D120  D(9,11,13,36)           4.8932         estimate D2E/DX2                !
 ! D121  D(12,11,13,14)        -59.8562         estimate D2E/DX2                !
 ! D122  D(12,11,13,15)         66.952          estimate D2E/DX2                !
 ! D123  D(12,11,13,36)       -176.9421         estimate D2E/DX2                !
 ! D124  D(11,13,14,37)       -162.095          estimate D2E/DX2                !
 ! D125  D(11,13,14,38)        -46.3382         estimate D2E/DX2                !
 ! D126  D(11,13,14,62)         76.6284         estimate D2E/DX2                !
 ! D127  D(15,13,14,37)         73.675          estimate D2E/DX2                !
 ! D128  D(15,13,14,38)       -170.5682         estimate D2E/DX2                !
 ! D129  D(15,13,14,62)        -47.6015         estimate D2E/DX2                !
 ! D130  D(36,13,14,37)        -44.2916         estimate D2E/DX2                !
 ! D131  D(36,13,14,38)         71.4652         estimate D2E/DX2                !
 ! D132  D(36,13,14,62)       -165.5681         estimate D2E/DX2                !
 ! D133  D(11,13,15,39)         61.5919         estimate D2E/DX2                !
 ! D134  D(11,13,15,40)       -178.8027         estimate D2E/DX2                !
 ! D135  D(11,13,15,41)        -57.3907         estimate D2E/DX2                !
 ! D136  D(14,13,15,39)       -172.9752         estimate D2E/DX2                !
 ! D137  D(14,13,15,40)        -53.3698         estimate D2E/DX2                !
 ! D138  D(14,13,15,41)         68.0422         estimate D2E/DX2                !
 ! D139  D(36,13,15,39)        -55.1323         estimate D2E/DX2                !
 ! D140  D(36,13,15,40)         64.4731         estimate D2E/DX2                !
 ! D141  D(36,13,15,41)       -174.1149         estimate D2E/DX2                !
 ! D142  D(13,14,62,63)         62.8757         estimate D2E/DX2                !
 ! D143  D(13,14,62,64)       -178.3085         estimate D2E/DX2                !
 ! D144  D(13,14,62,65)        -58.9819         estimate D2E/DX2                !
 ! D145  D(37,14,62,63)        -58.7262         estimate D2E/DX2                !
 ! D146  D(37,14,62,64)         60.0896         estimate D2E/DX2                !
 ! D147  D(37,14,62,65)        179.4162         estimate D2E/DX2                !
 ! D148  D(38,14,62,63)       -173.5436         estimate D2E/DX2                !
 ! D149  D(38,14,62,64)        -54.7279         estimate D2E/DX2                !
 ! D150  D(38,14,62,65)         64.5987         estimate D2E/DX2                !
 ! D151  D(7,17,18,19)         -29.3044         estimate D2E/DX2                !
 ! D152  D(7,17,18,28)          88.2009         estimate D2E/DX2                !
 ! D153  D(7,17,18,29)        -148.14           estimate D2E/DX2                !
 ! D154  D(20,17,18,19)         82.1625         estimate D2E/DX2                !
 ! D155  D(20,17,18,28)       -160.3323         estimate D2E/DX2                !
 ! D156  D(20,17,18,29)        -36.6732         estimate D2E/DX2                !
 ! D157  D(30,17,18,19)       -150.5419         estimate D2E/DX2                !
 ! D158  D(30,17,18,28)        -33.0367         estimate D2E/DX2                !
 ! D159  D(30,17,18,29)         90.6225         estimate D2E/DX2                !
 ! D160  D(7,17,20,3)          -41.1261         estimate D2E/DX2                !
 ! D161  D(7,17,20,42)          77.8611         estimate D2E/DX2                !
 ! D162  D(7,17,20,43)        -161.4932         estimate D2E/DX2                !
 ! D163  D(18,17,20,3)        -152.963          estimate D2E/DX2                !
 ! D164  D(18,17,20,42)        -33.9757         estimate D2E/DX2                !
 ! D165  D(18,17,20,43)         86.67           estimate D2E/DX2                !
 ! D166  D(30,17,20,3)          78.933          estimate D2E/DX2                !
 ! D167  D(30,17,20,42)       -162.0797         estimate D2E/DX2                !
 ! D168  D(30,17,20,43)        -41.434          estimate D2E/DX2                !
 ! D169  D(17,18,19,8)          16.0569         estimate D2E/DX2                !
 ! D170  D(28,18,19,8)        -104.4353         estimate D2E/DX2                !
 ! D171  D(29,18,19,8)         138.4168         estimate D2E/DX2                !
 ! D172  D(17,18,28,53)       -177.645          estimate D2E/DX2                !
 ! D173  D(17,18,28,54)         61.8285         estimate D2E/DX2                !
 ! D174  D(17,18,28,55)        -59.9872         estimate D2E/DX2                !
 ! D175  D(19,18,28,53)        -60.942          estimate D2E/DX2                !
 ! D176  D(19,18,28,54)        178.5315         estimate D2E/DX2                !
 ! D177  D(19,18,28,55)         56.7158         estimate D2E/DX2                !
 ! D178  D(29,18,28,53)         55.9268         estimate D2E/DX2                !
 ! D179  D(29,18,28,54)        -64.5997         estimate D2E/DX2                !
 ! D180  D(29,18,28,55)        173.5846         estimate D2E/DX2                !
 ! D181  D(17,18,29,56)       -178.3091         estimate D2E/DX2                !
 ! D182  D(17,18,29,57)        -57.6759         estimate D2E/DX2                !
 ! D183  D(17,18,29,58)         64.4736         estimate D2E/DX2                !
 ! D184  D(19,18,29,56)         63.8952         estimate D2E/DX2                !
 ! D185  D(19,18,29,57)       -175.4716         estimate D2E/DX2                !
 ! D186  D(19,18,29,58)        -53.3221         estimate D2E/DX2                !
 ! D187  D(28,18,29,56)        -52.6762         estimate D2E/DX2                !
 ! D188  D(28,18,29,57)         67.957          estimate D2E/DX2                !
 ! D189  D(28,18,29,58)       -169.8935         estimate D2E/DX2                !
 ! D190  D(5,22,23,24)          26.1351         estimate D2E/DX2                !
 ! D191  D(5,22,23,25)         146.6657         estimate D2E/DX2                !
 ! D192  D(5,22,23,47)         -88.8604         estimate D2E/DX2                !
 ! D193  D(45,22,23,24)        148.7329         estimate D2E/DX2                !
 ! D194  D(45,22,23,25)        -90.7365         estimate D2E/DX2                !
 ! D195  D(45,22,23,47)         33.7374         estimate D2E/DX2                !
 ! D196  D(46,22,23,24)        -94.8435         estimate D2E/DX2                !
 ! D197  D(46,22,23,25)         25.6872         estimate D2E/DX2                !
 ! D198  D(46,22,23,47)        150.161          estimate D2E/DX2                !
 ! D199  D(22,23,24,4)         -36.1557         estimate D2E/DX2                !
 ! D200  D(25,23,24,4)        -160.245          estimate D2E/DX2                !
 ! D201  D(47,23,24,4)          80.4231         estimate D2E/DX2                !
 ! D202  D(22,23,25,26)        -70.4687         estimate D2E/DX2                !
 ! D203  D(22,23,25,27)        110.255          estimate D2E/DX2                !
 ! D204  D(24,23,25,26)         47.8358         estimate D2E/DX2                !
 ! D205  D(24,23,25,27)       -131.4405         estimate D2E/DX2                !
 ! D206  D(47,23,25,26)        165.3658         estimate D2E/DX2                !
 ! D207  D(47,23,25,27)        -13.9105         estimate D2E/DX2                !
 ! D208  D(23,25,26,48)        -62.0267         estimate D2E/DX2                !
 ! D209  D(23,25,26,49)         58.5585         estimate D2E/DX2                !
 ! D210  D(23,25,26,50)        178.3929         estimate D2E/DX2                !
 ! D211  D(27,25,26,48)        117.2528         estimate D2E/DX2                !
 ! D212  D(27,25,26,49)       -122.1619         estimate D2E/DX2                !
 ! D213  D(27,25,26,50)         -2.3276         estimate D2E/DX2                !
 ! D214  D(23,25,27,51)         -0.3918         estimate D2E/DX2                !
 ! D215  D(23,25,27,52)        179.5977         estimate D2E/DX2                !
 ! D216  D(26,25,27,51)       -179.6474         estimate D2E/DX2                !
 ! D217  D(26,25,27,52)          0.342          estimate D2E/DX2                !
 --------------------------------------------------------------------------------
 Trust Radius=3.00D-01 FncErr=1.00D-07 GrdErr=1.00D-06
 Number of steps in this run=    390 maximum allowed number of steps=    390.
 GradGradGradGradGradGradGradGradGradGradGradGradGradGradGradGradGradGrad

 Stoichiometry    C26H34O5
 Framework group  C1[X(C26H34O5)]
 Deg. of freedom   189
 Full point group                 C1      NOp   1
 Largest Abelian subgroup         C1      NOp   1
 Largest concise Abelian subgroup C1      NOp   1
                         Standard orientation:                         
 ---------------------------------------------------------------------
 Center     Atomic      Atomic             Coordinates (Angstroms)
 Number     Number       Type             X           Y           Z
 ---------------------------------------------------------------------
      1          6           0       -1.878897    0.565285    2.839858
      2          6           0       -2.269529    1.587793    2.065501
      3          6           0       -1.829587    1.688502    0.628229
      4          6           0       -1.427133    0.351304   -0.063703
      5          6           0       -1.171108   -0.869179    0.854955
      6          6           0       -0.971576   -0.513337    2.343245
      7          6           0       -0.250162    0.740737   -0.988180
      8          6           0        1.098006    0.315382   -0.517487
      9          6           0        1.306532   -0.833409    0.132981
     10          6           0        0.100203   -1.635428    0.445911
     11          6           0        2.637746   -1.219191    0.648206
     12          8           0        2.768603   -1.424325    1.854958
     13          6           0        3.778642   -1.384016   -0.351890
     14          6           0        4.957776   -0.453932   -0.020551
     15          6           0        4.160436   -2.858867   -0.441357
     16          8           0        0.173489   -2.862405    0.455682
     17          6           0       -0.098931    2.249102   -0.947429
     18          6           0        1.404665    2.458286   -1.209294
     19          8           0        2.075904    1.283550   -0.691275
     20          6           0       -0.605035    2.596303    0.458255
     21          8           0       -0.435689    0.267142   -2.314713
     22          6           0       -2.419783   -1.751613    0.658670
     23          6           0       -3.368300   -0.922614   -0.189685
     24          8           0       -2.533028   -0.030424   -0.931385
     25          6           0       -4.225781   -1.715567   -1.143558
     26          6           0       -3.555285   -2.355696   -2.329315
     27          6           0       -5.550878   -1.837465   -0.953100
     28          6           0        1.725791    2.556119   -2.709034
     29          6           0        1.984391    3.688071   -0.505181
     30          1           0       -0.713466    2.756965   -1.701252
     31          1           0       -2.661632    2.125814    0.056329
     32          6           0       -3.140938    2.694024    2.588246
     33          1           0       -2.175283    0.519980    3.885686
     34          1           0        0.057843   -0.193576    2.550229
     35          1           0       -1.123789   -1.412289    2.955498
     36          1           0        3.408075   -1.087047   -1.341560
     37          1           0        5.591754   -0.367350   -0.912061
     38          1           0        4.581725    0.554030    0.191805
     39          1           0        3.311673   -3.452063   -0.800120
     40          1           0        4.992630   -3.005900   -1.137219
     41          1           0        4.445598   -3.268446    0.533428
     42          1           0        0.143516    2.380366    1.230574
     43          1           0       -0.867055    3.656975    0.536376
     44          1           0       -1.399296    0.105968   -2.403666
     45          1           0       -2.905563   -2.034084    1.600110
     46          1           0       -2.176314   -2.694124    0.157743
     47          1           0       -4.000873   -0.307309    0.463151
     48          1           0       -3.109553   -1.594487   -2.977165
     49          1           0       -2.768466   -3.045460   -2.010815
     50          1           0       -4.262911   -2.928571   -2.938664
     51          1           0       -6.049918   -1.376952   -0.105903
     52          1           0       -6.173754   -2.401947   -1.640523
     53          1           0        2.805700    2.662641   -2.866061
     54          1           0        1.224241    3.413966   -3.168529
     55          1           0        1.436494    1.652451   -3.253354
     56          1           0        3.046923    3.808220   -0.747477
     57          1           0        1.458784    4.602204   -0.798914
     58          1           0        1.943593    3.590090    0.584393
     59          1           0       -3.402114    2.548818    3.641789
     60          1           0       -2.628632    3.657500    2.502018
     61          1           0       -4.074069    2.742857    2.017891
     62          6           0        5.843192   -0.890621    1.139586
     63          1           0        6.337739   -1.843755    0.930501
     64          1           0        6.628157   -0.145401    1.306882
     65          1           0        5.277278   -0.988210    2.069493
 ---------------------------------------------------------------------
 Rotational constants (GHZ):      0.2213450      0.1206104      0.1067154
 Standard basis: 6-31G(d) (6D, 7F)
 There are   533 symmetry adapted basis functions of A   symmetry.
 Integral buffers will be    131072 words long.
 Raffenetti 2 integral format.
 Two-electron integral symmetry is turned on.
   533 basis functions,  1004 primitive gaussians,   533 cartesian basis functions
   115 alpha electrons      115 beta electrons
       nuclear repulsion energy      3505.9810853921 Hartrees.
 NAtoms=   65 NActive=   65 NUniq=   65 SFac= 1.00D+00 NAtFMM=   50 NAOKFM=T Big=T
 One-electron integrals computed using PRISM.
 NBasis=   533 RedAO= T  NBF=   533
 NBsUse=   533 1.00D-06 NBFU=   533
 Harris functional with IExCor=  402 diagonalized for initial guess.
 ExpMin= 1.61D-01 ExpMax= 5.48D+03 ExpMxC= 8.25D+02 IAcc=1 IRadAn=         1 AccDes= 0.00D+00
 HarFok:  IExCor=  402 AccDes= 0.00D+00 IRadAn=         1 IDoV= 1
 ScaDFX=  1.000000  1.000000  1.000000  1.000000
 FoFCou: FMM=F IPFlag=           0 FMFlag=      100000 FMFlg1=        2001
         NFxFlg=           0 DoJE=T BraDBF=F KetDBF=T FulRan=T
         Omega=  0.000000  0.000000  1.000000  0.000000  0.000000 ICntrl=     500 IOpCl=  0
         NMat0=    1 NMatS0=    1 NMatT0=    0 NMatD0=    1 NMtDS0=    0 NMtDT0=    0
         I1Cent=           4 NGrid=           0.
 Petite list used in FoFCou.
 Initial guess orbital symmetries:
       Occupied  (A) (A) (A) (A) (A) (A) (A) (A) (A) (A) (A) (A)
                 (A) (A) (A) (A) (A) (A) (A) (A) (A) (A) (A) (A)
                 (A) (A) (A) (A) (A) (A) (A) (A) (A) (A) (A) (A)
                 (A) (A) (A) (A) (A) (A) (A) (A) (A) (A) (A) (A)
                 (A) (A) (A) (A) (A) (A) (A) (A) (A) (A) (A) (A)
                 (A) (A) (A) (A) (A) (A) (A) (A) (A) (A) (A) (A)
                 (A) (A) (A) (A) (A) (A) (A) (A) (A) (A) (A) (A)
                 (A) (A) (A) (A) (A) (A) (A) (A) (A) (A) (A) (A)
                 (A) (A) (A) (A) (A) (A) (A) (A) (A) (A) (A) (A)
                 (A) (A) (A) (A) (A) (A) (A)
       Virtual   (A) (A) (A) (A) (A) (A) (A) (A) (A) (A) (A) (A)
                 (A) (A) (A) (A) (A) (A) (A) (A) (A) (A) (A) (A)
                 (A) (A) (A) (A) (A) (A) (A) (A) (A) (A) (A) (A)
                 (A) (A) (A) (A) (A) (A) (A) (A) (A) (A) (A) (A)
                 (A) (A) (A) (A) (A) (A) (A) (A) (A) (A) (A) (A)
                 (A) (A) (A) (A) (A) (A) (A) (A) (A) (A) (A) (A)
                 (A) (A) (A) (A) (A) (A) (A) (A) (A) (A) (A) (A)
                 (A) (A) (A) (A) (A) (A) (A) (A) (A) (A) (A) (A)
                 (A) (A) (A) (A) (A) (A) (A) (A) (A) (A) (A) (A)
                 (A) (A) (A) (A) (A) (A) (A) (A) (A) (A) (A) (A)
                 (A) (A) (A) (A) (A) (A) (A) (A) (A) (A) (A) (A)
                 (A) (A) (A) (A) (A) (A) (A) (A) (A) (A) (A) (A)
                 (A) (A) (A) (A) (A) (A) (A) (A) (A) (A) (A) (A)
                 (A) (A) (A) (A) (A) (A) (A) (A) (A) (A) (A) (A)
                 (A) (A) (A) (A) (A) (A) (A) (A) (A) (A) (A) (A)
                 (A) (A) (A) (A) (A) (A) (A) (A) (A) (A) (A) (A)
                 (A) (A) (A) (A) (A) (A) (A) (A) (A) (A) (A) (A)
                 (A) (A) (A) (A) (A) (A) (A) (A) (A) (A) (A) (A)
                 (A) (A) (A) (A) (A) (A) (A) (A) (A) (A) (A) (A)
                 (A) (A) (A) (A) (A) (A) (A) (A) (A) (A) (A) (A)
                 (A) (A) (A) (A) (A) (A) (A) (A) (A) (A) (A) (A)
                 (A) (A) (A) (A) (A) (A) (A) (A) (A) (A) (A) (A)
                 (A) (A) (A) (A) (A) (A) (A) (A) (A) (A) (A) (A)
                 (A) (A) (A) (A) (A) (A) (A) (A) (A) (A) (A) (A)
                 (A) (A) (A) (A) (A) (A) (A) (A) (A) (A) (A) (A)
                 (A) (A) (A) (A) (A) (A) (A) (A) (A) (A) (A) (A)
                 (A) (A) (A) (A) (A) (A) (A) (A) (A) (A) (A) (A)
                 (A) (A) (A) (A) (A) (A) (A) (A) (A) (A) (A) (A)
                 (A) (A) (A) (A) (A) (A) (A) (A) (A) (A) (A) (A)
                 (A) (A) (A) (A) (A) (A) (A) (A) (A) (A) (A) (A)
                 (A) (A) (A) (A) (A) (A) (A) (A) (A) (A) (A) (A)
                 (A) (A) (A) (A) (A) (A) (A) (A) (A) (A) (A) (A)
                 (A) (A) (A) (A) (A) (A) (A) (A) (A) (A) (A) (A)
                 (A) (A) (A) (A) (A) (A) (A) (A) (A) (A) (A) (A)
                 (A) (A) (A) (A) (A) (A) (A) (A) (A) (A)
 The electronic state of the initial guess is 1-A.
 Requested convergence on RMS density matrix=1.00D-08 within 128 cycles.
 Requested convergence on MAX density matrix=1.00D-06.
 Requested convergence on             energy=1.00D-06.
 No special actions if energy rises.
 Integral accuracy reduced to 1.0D-05 until final iterations.
 Initial convergence to 1.0D-05 achieved.  Increase integral accuracy.
 SCF Done:  E(RB3LYP) =  -1387.30263909     A.U. after   16 cycles
             Convg  =    0.3962D-08             -V/T =  2.0090

 **********************************************************************

            Population analysis using the SCF density.

 **********************************************************************

 Orbital symmetries:
       Occupied  (A) (A) (A) (A) (A) (A) (A) (A) (A) (A) (A) (A)
                 (A) (A) (A) (A) (A) (A) (A) (A) (A) (A) (A) (A)
                 (A) (A) (A) (A) (A) (A) (A) (A) (A) (A) (A) (A)
                 (A) (A) (A) (A) (A) (A) (A) (A) (A) (A) (A) (A)
                 (A) (A) (A) (A) (A) (A) (A) (A) (A) (A) (A) (A)
                 (A) (A) (A) (A) (A) (A) (A) (A) (A) (A) (A) (A)
                 (A) (A) (A) (A) (A) (A) (A) (A) (A) (A) (A) (A)
                 (A) (A) (A) (A) (A) (A) (A) (A) (A) (A) (A) (A)
                 (A) (A) (A) (A) (A) (A) (A) (A) (A) (A) (A) (A)
                 (A) (A) (A) (A) (A) (A) (A)
       Virtual   (A) (A) (A) (A) (A) (A) (A) (A) (A) (A) (A) (A)
                 (A) (A) (A) (A) (A) (A) (A) (A) (A) (A) (A) (A)
                 (A) (A) (A) (A) (A) (A) (A) (A) (A) (A) (A) (A)
                 (A) (A) (A) (A) (A) (A) (A) (A) (A) (A) (A) (A)
                 (A) (A) (A) (A) (A) (A) (A) (A) (A) (A) (A) (A)
                 (A) (A) (A) (A) (A) (A) (A) (A) (A) (A) (A) (A)
                 (A) (A) (A) (A) (A) (A) (A) (A) (A) (A) (A) (A)
                 (A) (A) (A) (A) (A) (A) (A) (A) (A) (A) (A) (A)
                 (A) (A) (A) (A) (A) (A) (A) (A) (A) (A) (A) (A)
                 (A) (A) (A) (A) (A) (A) (A) (A) (A) (A) (A) (A)
                 (A) (A) (A) (A) (A) (A) (A) (A) (A) (A) (A) (A)
                 (A) (A) (A) (A) (A) (A) (A) (A) (A) (A) (A) (A)
                 (A) (A) (A) (A) (A) (A) (A) (A) (A) (A) (A) (A)
                 (A) (A) (A) (A) (A) (A) (A) (A) (A) (A) (A) (A)
                 (A) (A) (A) (A) (A) (A) (A) (A) (A) (A) (A) (A)
                 (A) (A) (A) (A) (A) (A) (A) (A) (A) (A) (A) (A)
                 (A) (A) (A) (A) (A) (A) (A) (A) (A) (A) (A) (A)
                 (A) (A) (A) (A) (A) (A) (A) (A) (A) (A) (A) (A)
                 (A) (A) (A) (A) (A) (A) (A) (A) (A) (A) (A) (A)
                 (A) (A) (A) (A) (A) (A) (A) (A) (A) (A) (A) (A)
                 (A) (A) (A) (A) (A) (A) (A) (A) (A) (A) (A) (A)
                 (A) (A) (A) (A) (A) (A) (A) (A) (A) (A) (A) (A)
                 (A) (A) (A) (A) (A) (A) (A) (A) (A) (A) (A) (A)
                 (A) (A) (A) (A) (A) (A) (A) (A) (A) (A) (A) (A)
                 (A) (A) (A) (A) (A) (A) (A) (A) (A) (A) (A) (A)
                 (A) (A) (A) (A) (A) (A) (A) (A) (A) (A) (A) (A)
                 (A) (A) (A) (A) (A) (A) (A) (A) (A) (A) (A) (A)
                 (A) (A) (A) (A) (A) (A) (A) (A) (A) (A) (A) (A)
                 (A) (A) (A) (A) (A) (A) (A) (A) (A) (A) (A) (A)
                 (A) (A) (A) (A) (A) (A) (A) (A) (A) (A) (A) (A)
                 (A) (A) (A) (A) (A) (A) (A) (A) (A) (A) (A) (A)
                 (A) (A) (A) (A) (A) (A) (A) (A) (A) (A) (A) (A)
                 (A) (A) (A) (A) (A) (A) (A) (A) (A) (A) (A) (A)
                 (A) (A) (A) (A) (A) (A) (A) (A) (A) (A) (A) (A)
                 (A) (A) (A) (A) (A) (A) (A) (A) (A) (A)
 The electronic state is 1-A.
 Alpha  occ. eigenvalues --  -19.19822 -19.16968 -19.14756 -19.13634 -19.13264
 Alpha  occ. eigenvalues --  -10.27665 -10.26921 -10.26647 -10.26332 -10.26206
 Alpha  occ. eigenvalues --  -10.25733 -10.24491 -10.21732 -10.20440 -10.20119
 Alpha  occ. eigenvalues --  -10.20071 -10.19963 -10.19693 -10.19598 -10.19178
 Alpha  occ. eigenvalues --  -10.18913 -10.18873 -10.18655 -10.18645 -10.18510
 Alpha  occ. eigenvalues --  -10.18296 -10.18220 -10.17909 -10.17327 -10.16858
 Alpha  occ. eigenvalues --  -10.15629  -1.08716  -1.06391  -1.03406  -1.02317
 Alpha  occ. eigenvalues --   -1.02030  -0.87718  -0.84111  -0.82682  -0.81583
 Alpha  occ. eigenvalues --   -0.80380  -0.79801  -0.77166  -0.74252  -0.73590
 Alpha  occ. eigenvalues --   -0.72587  -0.71588  -0.69846  -0.69154  -0.68360
 Alpha  occ. eigenvalues --   -0.65694  -0.64141  -0.63403  -0.62312  -0.61138
 Alpha  occ. eigenvalues --   -0.59203  -0.58675  -0.57142  -0.55192  -0.53634
 Alpha  occ. eigenvalues --   -0.53047  -0.51828  -0.51044  -0.50173  -0.49630
 Alpha  occ. eigenvalues --   -0.48303  -0.47740  -0.46950  -0.46365  -0.45898
 Alpha  occ. eigenvalues --   -0.45198  -0.44849  -0.44416  -0.44030  -0.43223
 Alpha  occ. eigenvalues --   -0.43097  -0.42622  -0.42283  -0.41852  -0.41532
 Alpha  occ. eigenvalues --   -0.41242  -0.40726  -0.40283  -0.39924  -0.39578
 Alpha  occ. eigenvalues --   -0.39388  -0.38817  -0.38678  -0.38509  -0.37923
 Alpha  occ. eigenvalues --   -0.37701  -0.37025  -0.37000  -0.36675  -0.36453
 Alpha  occ. eigenvalues --   -0.36049  -0.35487  -0.35391  -0.34814  -0.34315
 Alpha  occ. eigenvalues --   -0.33995  -0.33473  -0.33051  -0.32684  -0.32332
 Alpha  occ. eigenvalues --   -0.31856  -0.31537  -0.31315  -0.28143  -0.27138
 Alpha  occ. eigenvalues --   -0.25254  -0.24942  -0.24303  -0.23668  -0.23244
 Alpha virt. eigenvalues --   -0.04873  -0.02428   0.00828   0.01634   0.03840
 Alpha virt. eigenvalues --    0.06572   0.08023   0.08516   0.09256   0.10026
 Alpha virt. eigenvalues --    0.10304   0.10621   0.11310   0.11681   0.12155
 Alpha virt. eigenvalues --    0.12766   0.13280   0.13368   0.13795   0.14054
 Alpha virt. eigenvalues --    0.14311   0.14581   0.15240   0.15795   0.15955
 Alpha virt. eigenvalues --    0.16099   0.16668   0.16788   0.16960   0.17558
 Alpha virt. eigenvalues --    0.17986   0.18109   0.18779   0.18948   0.19132
 Alpha virt. eigenvalues --    0.19307   0.19513   0.19960   0.20206   0.20328
 Alpha virt. eigenvalues --    0.21174   0.21308   0.21821   0.21922   0.21987
 Alpha virt. eigenvalues --    0.22942   0.23654   0.24061   0.24509   0.24655
 Alpha virt. eigenvalues --    0.24872   0.25376   0.26010   0.26329   0.26731
 Alpha virt. eigenvalues --    0.27589   0.27856   0.28301   0.29561   0.30342
 Alpha virt. eigenvalues --    0.30668   0.31417   0.32339   0.33681   0.34361
 Alpha virt. eigenvalues --    0.35126   0.35991   0.37378   0.38009   0.40430
 Alpha virt. eigenvalues --    0.41586   0.44871   0.45833   0.47530   0.48449
 Alpha virt. eigenvalues --    0.48978   0.49844   0.50840   0.51612   0.51897
 Alpha virt. eigenvalues --    0.51997   0.52317   0.52558   0.53127   0.53263
 Alpha virt. eigenvalues --    0.53808   0.54209   0.54910   0.55945   0.56193
 Alpha virt. eigenvalues --    0.56737   0.56948   0.57638   0.57899   0.58575
 Alpha virt. eigenvalues --    0.59441   0.60377   0.61007   0.61279   0.61821
 Alpha virt. eigenvalues --    0.62107   0.62516   0.63155   0.63359   0.63748
 Alpha virt. eigenvalues --    0.65614   0.66256   0.66579   0.66722   0.67215
 Alpha virt. eigenvalues --    0.67680   0.68035   0.68378   0.68988   0.69667
 Alpha virt. eigenvalues --    0.70061   0.71196   0.71532   0.72131   0.72198
 Alpha virt. eigenvalues --    0.73532   0.73958   0.75011   0.75331   0.76412
 Alpha virt. eigenvalues --    0.77009   0.77275   0.77871   0.78159   0.78746
 Alpha virt. eigenvalues --    0.79762   0.80234   0.80939   0.81132   0.82031
 Alpha virt. eigenvalues --    0.82672   0.83369   0.83927   0.84141   0.84547
 Alpha virt. eigenvalues --    0.85397   0.85483   0.85903   0.86410   0.86737
 Alpha virt. eigenvalues --    0.87433   0.88003   0.88304   0.88590   0.89297
 Alpha virt. eigenvalues --    0.89406   0.89700   0.90375   0.90472   0.90604
 Alpha virt. eigenvalues --    0.90832   0.91397   0.91575   0.91837   0.92035
 Alpha virt. eigenvalues --    0.92313   0.92727   0.93509   0.94578   0.94903
 Alpha virt. eigenvalues --    0.95300   0.95984   0.96167   0.96624   0.97216
 Alpha virt. eigenvalues --    0.97388   0.98454   0.98558   0.98995   0.99084
 Alpha virt. eigenvalues --    1.00694   1.01283   1.02339   1.02830   1.03154
 Alpha virt. eigenvalues --    1.04093   1.05841   1.06493   1.07098   1.08128
 Alpha virt. eigenvalues --    1.08729   1.09695   1.10095   1.12271   1.13326
 Alpha virt. eigenvalues --    1.14114   1.15105   1.15516   1.16670   1.16928
 Alpha virt. eigenvalues --    1.17925   1.18752   1.19208   1.20060   1.20457
 Alpha virt. eigenvalues --    1.21695   1.22990   1.24197   1.25866   1.26500
 Alpha virt. eigenvalues --    1.28108   1.29627   1.30679   1.30984   1.33616
 Alpha virt. eigenvalues --    1.34584   1.36420   1.37854   1.39240   1.40164
 Alpha virt. eigenvalues --    1.41920   1.41988   1.44173   1.45114   1.45936
 Alpha virt. eigenvalues --    1.47531   1.49991   1.50515   1.52190   1.52758
 Alpha virt. eigenvalues --    1.53552   1.54850   1.54955   1.56978   1.58315
 Alpha virt. eigenvalues --    1.58870   1.60463   1.61326   1.62252   1.64112
 Alpha virt. eigenvalues --    1.64865   1.65119   1.66998   1.69008   1.69402
 Alpha virt. eigenvalues --    1.70697   1.71705   1.72448   1.72981   1.74310
 Alpha virt. eigenvalues --    1.75173   1.75737   1.76616   1.77511   1.77658
 Alpha virt. eigenvalues --    1.78555   1.79591   1.80138   1.80553   1.81348
 Alpha virt. eigenvalues --    1.82031   1.82570   1.83618   1.84470   1.84898
 Alpha virt. eigenvalues --    1.86280   1.86490   1.87717   1.88120   1.88381
 Alpha virt. eigenvalues --    1.89270   1.89610   1.90553   1.91489   1.91976
 Alpha virt. eigenvalues --    1.92530   1.93046   1.93838   1.94968   1.95739
 Alpha virt. eigenvalues --    1.96143   1.96809   1.97060   1.97329   1.97923
 Alpha virt. eigenvalues --    1.98347   1.98819   2.00217   2.00448   2.01294
 Alpha virt. eigenvalues --    2.02035   2.02781   2.04080   2.05231   2.05529
 Alpha virt. eigenvalues --    2.06697   2.07374   2.07835   2.09244   2.09887
 Alpha virt. eigenvalues --    2.10428   2.11873   2.12082   2.12699   2.14212
 Alpha virt. eigenvalues --    2.15536   2.16177   2.16984   2.17907   2.18754
 Alpha virt. eigenvalues --    2.19359   2.20389   2.20947   2.21174   2.22794
 Alpha virt. eigenvalues --    2.23486   2.24913   2.25061   2.25730   2.27249
 Alpha virt. eigenvalues --    2.27996   2.28278   2.30613   2.31084   2.31769
 Alpha virt. eigenvalues --    2.32545   2.33561   2.33932   2.34361   2.35399
 Alpha virt. eigenvalues --    2.36305   2.36676   2.38267   2.39260   2.40261
 Alpha virt. eigenvalues --    2.40602   2.41476   2.42073   2.44229   2.45504
 Alpha virt. eigenvalues --    2.46377   2.46554   2.47341   2.47856   2.48930
 Alpha virt. eigenvalues --    2.49388   2.50102   2.51187   2.52506   2.53638
 Alpha virt. eigenvalues --    2.55182   2.56773   2.59205   2.59313   2.60349
 Alpha virt. eigenvalues --    2.61391   2.62953   2.64748   2.65833   2.66736
 Alpha virt. eigenvalues --    2.67153   2.68889   2.70162   2.71457   2.71837
 Alpha virt. eigenvalues --    2.73349   2.74232   2.75051   2.76267   2.77155
 Alpha virt. eigenvalues --    2.78747   2.79007   2.80365   2.81829   2.87696
 Alpha virt. eigenvalues --    2.88620   2.90726   2.93125   2.93786   2.95166
 Alpha virt. eigenvalues --    2.96188   2.98454   2.99773   3.00268   3.02754
 Alpha virt. eigenvalues --    3.04353   3.07215   3.11432   3.16107   3.21451
 Alpha virt. eigenvalues --    3.23744   3.27662   3.99708   4.10772   4.12825
 Alpha virt. eigenvalues --    4.14593   4.15886   4.16993   4.18815   4.20354
 Alpha virt. eigenvalues --    4.24039   4.24245   4.26350   4.27393   4.29619
 Alpha virt. eigenvalues --    4.32096   4.33040   4.38032   4.38890   4.43830
 Alpha virt. eigenvalues --    4.47410   4.50747   4.51868   4.56989   4.61661
 Alpha virt. eigenvalues --    4.65207   4.65631   4.69432   4.71666   4.77785
 Alpha virt. eigenvalues --    4.87822   4.94471   5.25380
          Condensed to atoms (all electrons):
 Mulliken atomic charges:
              1
     1  C   -0.197026
     2  C    0.195374
     3  C   -0.195633
     4  C    0.312804
     5  C   -0.019313
     6  C   -0.330571
     7  C    0.198738
     8  C    0.408299
     9  C   -0.096104
    10  C    0.397875
    11  C    0.423575
    12  O   -0.468242
    13  C   -0.139866
    14  C   -0.259920
    15  C   -0.458666
    16  O   -0.475089
    17  C   -0.151865
    18  C    0.305115
    19  O   -0.537688
    20  C   -0.306771
    21  O   -0.676061
    22  C   -0.333191
    23  C    0.106221
    24  O   -0.589445
    25  C    0.207779
    26  C   -0.518213
    27  C   -0.399692
    28  C   -0.459827
    29  C   -0.464528
    30  H    0.146783
    31  H    0.150338
    32  C   -0.519613
    33  H    0.126554
    34  H    0.180272
    35  H    0.164606
    36  H    0.139549
    37  H    0.129346
    38  H    0.145437
    39  H    0.161313
    40  H    0.144036
    41  H    0.169679
    42  H    0.162659
    43  H    0.149732
    44  H    0.427368
    45  H    0.153430
    46  H    0.186068
    47  H    0.130513
    48  H    0.162601
    49  H    0.169961
    50  H    0.155128
    51  H    0.136475
    52  H    0.140982
    53  H    0.149752
    54  H    0.141515
    55  H    0.184510
    56  H    0.158403
    57  H    0.150923
    58  H    0.158120
    59  H    0.158237
    60  H    0.155967
    61  H    0.155093
    62  C   -0.450645
    63  H    0.140460
    64  H    0.131674
    65  H    0.174704
 Sum of Mulliken atomic charges =   0.00000
 Mulliken charges with hydrogens summed into heavy atoms:
              1
     1  C   -0.070472
     2  C    0.195374
     3  C   -0.045295
     4  C    0.312804
     5  C   -0.019313
     6  C    0.014307
     7  C    0.198738
     8  C    0.408299
     9  C   -0.096104
    10  C    0.397875
    11  C    0.423575
    12  O   -0.468242
    13  C   -0.000317
    14  C    0.014864
    15  C    0.016362
    16  O   -0.475089
    17  C   -0.005082
    18  C    0.305115
    19  O   -0.537688
    20  C    0.005620
    21  O   -0.248693
    22  C    0.006307
    23  C    0.236734
    24  O   -0.589445
    25  C    0.207779
    26  C   -0.030524
    27  C   -0.122235
    28  C    0.015949
    29  C    0.002918
    32  C   -0.050316
    62  C   -0.003806
 Sum of Mulliken charges with hydrogens summed into heavy atoms =   0.00000
 Electronic spatial extent (au):  <R**2>=          11816.5985
 Charge=              0.0000 electrons
 Dipole moment (field-independent basis, Debye):
    X=             -2.9568    Y=              4.5922    Z=             -0.9659  Tot=              5.5466
 Quadrupole moment (field-independent basis, Debye-Ang):
   XX=           -179.9780   YY=           -182.7945   ZZ=           -185.9662
   XY=              4.3595   XZ=             -8.7924   YZ=              4.1630
 Traceless Quadrupole moment (field-independent basis, Debye-Ang):
   XX=              2.9349   YY=              0.1184   ZZ=             -3.0533
   XY=              4.3595   XZ=             -8.7924   YZ=              4.1630
 Octapole moment (field-independent basis, Debye-Ang**2):
  XXX=            -13.4738  YYY=             53.0431  ZZZ=             -3.3836  XYY=             -3.8255
  XXY=            -10.2647  XXZ=            -25.4198  XZZ=            -26.6588  YZZ=              2.5208
  YYZ=            -24.5072  XYZ=             -0.7576
 Hexadecapole moment (field-independent basis, Debye-Ang**3):
 XXXX=          -9221.6764 YYYY=          -4072.1146 ZZZZ=          -2513.1028 XXXY=             48.3585
 XXXZ=            -63.4294 YYYX=              2.3236 YYYZ=            -11.4061 ZZZX=            -19.5846
 ZZZY=             -4.8291 XXYY=          -2173.4882 XXZZ=          -1973.3458 YYZZ=          -1080.5980
 XXYZ=             77.1786 YYXZ=              7.4263 ZZXY=             46.2668
 N-N= 3.505981085392D+03 E-N=-1.023824297382D+04  KE= 1.374865754439D+03
 Calling FoFJK, ICntrl=      2127 FMM=T ISym2X=0 I1Cent= 0 IOpClX= 0 NMat=1 NMatS=1 NMatT=0.
 ***** Axes restored to original set *****
 -------------------------------------------------------------------
 Center     Atomic                   Forces (Hartrees/Bohr)
 Number     Number              X              Y              Z
 -------------------------------------------------------------------
      1        6           0.009241241    0.000295423    0.001207247
      2        6          -0.009252763   -0.006223288    0.004218637
      3        6          -0.007083121   -0.009827643   -0.003537616
      4        6           0.010921094   -0.006955099    0.011208334
      5        6          -0.008484518    0.004692732    0.005513716
      6        6          -0.007926089   -0.008097105   -0.006067167
      7        6           0.021669229    0.014113727    0.009375268
      8        6          -0.006059110   -0.001524386   -0.023902391
      9        6           0.005686818   -0.003504827    0.003853478
     10        6          -0.019119785    0.017553268    0.003096288
     11        6          -0.019807557   -0.005884461   -0.004208951
     12        8           0.007821653    0.010310288    0.002230588
     13        6           0.007576830   -0.000903245   -0.000814532
     14        6          -0.000713245   -0.000154774   -0.007890787
     15        6          -0.007955675    0.001787312    0.005452397
     16        8           0.009990013   -0.011679613   -0.001776359
     17        6           0.002642372   -0.006420890   -0.011766840
     18        6           0.030104148    0.005277479   -0.014756868
     19        8          -0.009777978   -0.008352441    0.033234504
     20        6           0.009528294   -0.001600652   -0.005923757
     21        8          -0.003831003    0.004660046    0.005863073
     22        6          -0.007959952   -0.001420317    0.007548875
     23        6           0.005153204   -0.004979445    0.009757743
     24        8          -0.005313319    0.004835051   -0.013449779
     25        6           0.006703457   -0.004816204    0.015281120
     26        6           0.000372993    0.001102798    0.001080241
     27        6          -0.001497634    0.002423181   -0.009878644
     28        6          -0.002012768    0.008427206    0.001788494
     29        6          -0.008741483   -0.000550163   -0.007144148
     30        1          -0.003168390    0.002024656    0.000310610
     31        1          -0.001626262    0.005594424    0.000597096
     32        6          -0.002419424   -0.000470939    0.000088197
     33        1           0.000827967   -0.000916009   -0.000016614
     34        1          -0.001912479    0.005512740   -0.000857936
     35        1           0.000768747    0.005016922   -0.000370892
     36        1           0.000101289   -0.002708878    0.000363104
     37        1           0.001964738    0.001067887    0.001993938
     38        1           0.002097508    0.001100394    0.002177551
     39        1           0.000123316    0.000399273    0.000269901
     40        1           0.000592367    0.000766814   -0.000813655
     41        1           0.001265457   -0.000117758   -0.001069881
     42        1           0.000186682    0.000654939    0.001038537
     43        1          -0.002133264   -0.001548147   -0.001434679
     44        1          -0.003111326    0.001160640   -0.004046368
     45        1           0.001085930    0.000474576   -0.003029002
     46        1          -0.000145089    0.001300222   -0.005531323
     47        1          -0.000380993   -0.001282444    0.003496743
     48        1          -0.001338690    0.002240459   -0.002034891
     49        1          -0.000077922    0.003092556   -0.002963004
     50        1          -0.000229087   -0.002535433   -0.000313363
     51        1           0.001081233   -0.001399015    0.000098568
     52        1          -0.001690089   -0.000064599    0.000555417
     53        1           0.000499919   -0.003306194   -0.002255345
     54        1           0.000100260   -0.000819306   -0.000352876
     55        1           0.000487828   -0.004609155    0.003375626
     56        1           0.002020150    0.001578057    0.001697333
     57        1          -0.000045632    0.000766779    0.001286929
     58        1           0.001424042   -0.001884773    0.002558073
     59        1          -0.000620077    0.000885968   -0.000315286
     60        1           0.004025147   -0.001589801   -0.000083214
     61        1           0.004248011   -0.001192646    0.000085547
     62        6          -0.003456830   -0.002394947   -0.004299586
     63        1          -0.001608514   -0.000187318    0.000002781
     64        1          -0.000108833    0.000562414   -0.001344805
     65        1          -0.000703037    0.000243682    0.001544606
 -------------------------------------------------------------------
 Cartesian Forces:  Max     0.033234504 RMS     0.006611093

 GradGradGradGradGradGradGradGradGradGradGradGradGradGradGradGradGradGrad
 Berny optimization.
 Internal  Forces:  Max     0.017394630 RMS     0.003313839
 Search for a local minimum.
 Step number   1 out of a maximum of  390
 All quantities printed in internal units (Hartrees-Bohrs-Radians)
 Mixed Optimization -- RFO/linear search
 Second derivative matrix not updated -- first step.
 ITU=  0
     Eigenvalues ---    0.00264   0.00278   0.00355   0.00421   0.00421
     Eigenvalues ---    0.00457   0.00482   0.00540   0.00591   0.00661
     Eigenvalues ---    0.00661   0.00698   0.00719   0.00738   0.00877
     Eigenvalues ---    0.01048   0.01163   0.01241   0.01291   0.01461
     Eigenvalues ---    0.01549   0.01719   0.01729   0.01819   0.02086
     Eigenvalues ---    0.02619   0.02826   0.02826   0.03122   0.03230
     Eigenvalues ---    0.03243   0.03622   0.03707   0.03882   0.04085
     Eigenvalues ---    0.04280   0.04355   0.04475   0.04553   0.04727
     Eigenvalues ---    0.04768   0.04839   0.05021   0.05130   0.05284
     Eigenvalues ---    0.05293   0.05323   0.05338   0.05429   0.05442
     Eigenvalues ---    0.05445   0.05503   0.05570   0.05633   0.05660
     Eigenvalues ---    0.05715   0.05887   0.05919   0.05926   0.06145
     Eigenvalues ---    0.06592   0.06825   0.07122   0.07147   0.07154
     Eigenvalues ---    0.07199   0.07267   0.07318   0.07464   0.07953
     Eigenvalues ---    0.08357   0.08619   0.08864   0.09279   0.09457
     Eigenvalues ---    0.09798   0.10256   0.11455   0.11845   0.12581
     Eigenvalues ---    0.12590   0.13294   0.14521   0.15358   0.15976
     Eigenvalues ---    0.16000   0.16000   0.16000   0.16000   0.16000
     Eigenvalues ---    0.16000   0.16000   0.16000   0.16000   0.16000
     Eigenvalues ---    0.16000   0.16000   0.16000   0.16000   0.16000
     Eigenvalues ---    0.16000   0.16000   0.16000   0.16000   0.16000
     Eigenvalues ---    0.16017   0.16522   0.17370   0.18076   0.18128
     Eigenvalues ---    0.19667   0.20865   0.21977   0.22253   0.22477
     Eigenvalues ---    0.23248   0.24780   0.24908   0.24990   0.24995
     Eigenvalues ---    0.24998   0.24999   0.25000   0.26093   0.26632
     Eigenvalues ---    0.27000   0.27252   0.27351   0.27782   0.28301
     Eigenvalues ---    0.28704   0.28800   0.28935   0.29323   0.29786
     Eigenvalues ---    0.29787   0.30047   0.30190   0.30611   0.31557
     Eigenvalues ---    0.31737   0.31847   0.32156   0.32999   0.33651
     Eigenvalues ---    0.33877   0.33937   0.33938   0.33946   0.33975
     Eigenvalues ---    0.33995   0.34015   0.34063   0.34078   0.34082
     Eigenvalues ---    0.34084   0.34140   0.34179   0.34202   0.34216
     Eigenvalues ---    0.34228   0.34229   0.34264   0.34267   0.34272
     Eigenvalues ---    0.34272   0.34274   0.34285   0.34285   0.34303
     Eigenvalues ---    0.34358   0.34367   0.34382   0.34476   0.34724
     Eigenvalues ---    0.35050   0.35291   0.35308   0.35529   0.36540
     Eigenvalues ---    0.37956   0.41045   0.44462   0.50177   0.53345
     Eigenvalues ---    0.54228   0.56262   0.90656   0.91420
 RFO step:  Lambda=-2.10244156D-02 EMin= 2.64331981D-03
 Linear search not attempted -- first point.
 Iteration  1 RMS(Cart)=  0.06725393 RMS(Int)=  0.00107386
 Iteration  2 RMS(Cart)=  0.00199717 RMS(Int)=  0.00024202
 Iteration  3 RMS(Cart)=  0.00000207 RMS(Int)=  0.00024202
 Iteration  4 RMS(Cart)=  0.00000000 RMS(Int)=  0.00024202
 Variable       Old X    -DE/DX   Delta X   Delta X   Delta X     New X
                                 (Linear)    (Quad)   (Total)
    R1        2.53374  -0.00193   0.00000  -0.00387  -0.00395   2.52979
    R2        2.82404   0.00851   0.00000   0.02504   0.02490   2.84893
    R3        2.05594   0.00037   0.00000   0.00099   0.00099   2.05694
    R4        2.84681   0.00479   0.00000   0.01224   0.01229   2.85910
    R5        2.83859   0.00478   0.00000   0.01396   0.01396   2.85256
    R6        2.94509   0.00653   0.00000   0.01628   0.01625   2.96134
    R7        2.89845   0.01029   0.00000   0.03499   0.03494   2.93339
    R8        2.07922  -0.00182   0.00000  -0.00510  -0.00510   2.07412
    R9        2.92698   0.01162   0.00000   0.03490   0.03483   2.96181
   R10        2.92241   0.00852   0.00000   0.03265   0.03297   2.95538
   R11        2.75251  -0.00548   0.00000  -0.01515  -0.01516   2.73736
   R12        2.91621   0.00495   0.00000   0.01807   0.01803   2.93424
   R13        2.90962   0.00522   0.00000   0.01021   0.00984   2.91946
   R14        2.91313   0.00454   0.00000   0.01490   0.01481   2.92793
   R15        2.07422   0.00239   0.00000   0.00664   0.00664   2.08086
   R16        2.07538  -0.00177   0.00000  -0.00492  -0.00492   2.07046
   R17        2.81565   0.01100   0.00000   0.02487   0.02461   2.84026
   R18        2.86572   0.01513   0.00000   0.05283   0.05231   2.91804
   R19        2.68474   0.00247   0.00000   0.00655   0.00661   2.69135
   R20        2.52568   0.01264   0.00000   0.02259   0.02271   2.54839
   R21        2.62110  -0.01739   0.00000  -0.04057  -0.04027   2.58082
   R22        2.80062   0.00390   0.00000   0.00742   0.00755   2.80817
   R23        2.79425   0.01405   0.00000   0.03814   0.03814   2.83239
   R24        2.32286  -0.01341   0.00000  -0.01434  -0.01434   2.30852
   R25        2.32632  -0.01280   0.00000  -0.01379  -0.01379   2.31253
   R26        2.88393   0.00103   0.00000   0.00322   0.00322   2.88715
   R27        2.90625   0.00747   0.00000   0.02425   0.02425   2.93050
   R28        2.88390   0.00741   0.00000   0.02323   0.02323   2.90713
   R29        2.07436  -0.00089   0.00000  -0.00248  -0.00248   2.07188
   R30        2.07372   0.00111   0.00000   0.00308   0.00308   2.07680
   R31        2.07224   0.00014   0.00000   0.00038   0.00038   2.07262
   R32        2.87870   0.00736   0.00000   0.02289   0.02289   2.90159
   R33        2.07095   0.00029   0.00000   0.00081   0.00081   2.07176
   R34        2.06870   0.00103   0.00000   0.00284   0.00284   2.07154
   R35        2.06947  -0.00077   0.00000  -0.00213  -0.00213   2.06734
   R36        2.91112   0.00022   0.00000   0.01250   0.01268   2.92380
[...]
     55          1           0        1.108553    1.401039   -3.435653
     56          1           0        3.203623    3.477323   -1.139932
     57          1           0        1.747854    4.475808   -1.305616
     58          1           0        2.038860    3.567717    0.192602
     59          1           0       -3.320202    2.998270    3.523466
     60          1           0       -2.664851    4.021892    2.232783
     61          1           0       -4.076452    3.018964    1.916746
     62          6           0        5.310028   -0.646418    1.774759
     63          1           0        5.963316   -1.516279    1.647152
     64          1           0        5.917969    0.163628    2.195081
     65          1           0        4.543015   -0.916313    2.506122
 ---------------------------------------------------------------------
 Rotational constants (GHZ):      0.2077562      0.1284467      0.1117467

 **********************************************************************

            Population analysis using the SCF density.

 **********************************************************************

 Orbital symmetries:
       Occupied  (A) (A) (A) (A) (A) (A) (A) (A) (A) (A) (A) (A)
                 (A) (A) (A) (A) (A) (A) (A) (A) (A) (A) (A) (A)
                 (A) (A) (A) (A) (A) (A) (A) (A) (A) (A) (A) (A)
                 (A) (A) (A) (A) (A) (A) (A) (A) (A) (A) (A) (A)
                 (A) (A) (A) (A) (A) (A) (A) (A) (A) (A) (A) (A)
                 (A) (A) (A) (A) (A) (A) (A) (A) (A) (A) (A) (A)
                 (A) (A) (A) (A) (A) (A) (A) (A) (A) (A) (A) (A)
                 (A) (A) (A) (A) (A) (A) (A) (A) (A) (A) (A) (A)
                 (A) (A) (A) (A) (A) (A) (A) (A) (A) (A) (A) (A)
                 (A) (A) (A) (A) (A) (A) (A)
       Virtual   (A) (A) (A) (A) (A) (A) (A) (A) (A) (A) (A) (A)
                 (A) (A) (A) (A) (A) (A) (A) (A) (A) (A) (A) (A)
                 (A) (A) (A) (A) (A) (A) (A) (A) (A) (A) (A) (A)
                 (A) (A) (A) (A) (A) (A) (A) (A) (A) (A) (A) (A)
                 (A) (A) (A) (A) (A) (A) (A) (A) (A) (A) (A) (A)
                 (A) (A) (A) (A) (A) (A) (A) (A) (A) (A) (A) (A)
                 (A) (A) (A) (A) (A) (A) (A) (A) (A) (A) (A) (A)
                 (A) (A) (A) (A) (A) (A) (A) (A) (A) (A) (A) (A)
                 (A) (A) (A) (A) (A) (A) (A) (A) (A) (A) (A) (A)
                 (A) (A) (A) (A) (A) (A) (A) (A) (A) (A) (A) (A)
                 (A) (A) (A) (A) (A) (A) (A) (A) (A) (A) (A) (A)
                 (A) (A) (A) (A) (A) (A) (A) (A) (A) (A) (A) (A)
                 (A) (A) (A) (A) (A) (A) (A) (A) (A) (A) (A) (A)
                 (A) (A) (A) (A) (A) (A) (A) (A) (A) (A) (A) (A)
                 (A) (A) (A) (A) (A) (A) (A) (A) (A) (A) (A) (A)
                 (A) (A) (A) (A) (A) (A) (A) (A) (A) (A) (A) (A)
                 (A) (A) (A) (A) (A) (A) (A) (A) (A) (A) (A) (A)
                 (A) (A) (A) (A) (A) (A) (A) (A) (A) (A) (A) (A)
                 (A) (A) (A) (A) (A) (A) (A) (A) (A) (A) (A) (A)
                 (A) (A) (A) (A) (A) (A) (A) (A) (A) (A) (A) (A)
                 (A) (A) (A) (A) (A) (A) (A) (A) (A) (A) (A) (A)
                 (A) (A) (A) (A) (A) (A) (A) (A) (A) (A) (A) (A)
                 (A) (A) (A) (A) (A) (A) (A) (A) (A) (A) (A) (A)
                 (A) (A) (A) (A) (A) (A) (A) (A) (A) (A) (A) (A)
                 (A) (A) (A) (A) (A) (A) (A) (A) (A) (A) (A) (A)
                 (A) (A) (A) (A) (A) (A) (A) (A) (A) (A) (A) (A)
                 (A) (A) (A) (A) (A) (A) (A) (A) (A) (A) (A) (A)
                 (A) (A) (A) (A) (A) (A) (A) (A) (A) (A) (A) (A)
                 (A) (A) (A) (A) (A) (A) (A) (A) (A) (A) (A) (A)
                 (A) (A) (A) (A) (A) (A) (A) (A) (A) (A) (A) (A)
                 (A) (A) (A) (A) (A) (A) (A) (A) (A) (A) (A) (A)
                 (A) (A) (A) (A) (A) (A) (A) (A) (A) (A) (A) (A)
                 (A) (A) (A) (A) (A) (A) (A) (A) (A) (A) (A) (A)
                 (A) (A) (A) (A) (A) (A) (A) (A) (A) (A) (A) (A)
                 (A) (A) (A) (A) (A) (A) (A) (A) (A) (A)
 The electronic state is 1-A.
 Alpha  occ. eigenvalues --  -19.20253 -19.16844 -19.15423 -19.13290 -19.12100
 Alpha  occ. eigenvalues --  -10.27282 -10.27149 -10.27136 -10.26250 -10.26166
 Alpha  occ. eigenvalues --  -10.26163 -10.24613 -10.21343 -10.20798 -10.20549
 Alpha  occ. eigenvalues --  -10.20483 -10.19968 -10.19729 -10.19662 -10.19588
 Alpha  occ. eigenvalues --  -10.19161 -10.19146 -10.18826 -10.18675 -10.18449
 Alpha  occ. eigenvalues --  -10.18190 -10.17932 -10.17601 -10.17432 -10.16369
 Alpha  occ. eigenvalues --  -10.15903  -1.09534  -1.06206  -1.03518  -1.02329
 Alpha  occ. eigenvalues --   -1.01831  -0.87111  -0.84071  -0.82108  -0.81247
 Alpha  occ. eigenvalues --   -0.80012  -0.79227  -0.76950  -0.73854  -0.73184
 Alpha  occ. eigenvalues --   -0.72268  -0.71291  -0.70510  -0.68771  -0.68187
 Alpha  occ. eigenvalues --   -0.65317  -0.64319  -0.63299  -0.61946  -0.60748
 Alpha  occ. eigenvalues --   -0.59101  -0.58602  -0.56714  -0.54865  -0.53392
 Alpha  occ. eigenvalues --   -0.53127  -0.51826  -0.51030  -0.49803  -0.49078
 Alpha  occ. eigenvalues --   -0.48026  -0.47313  -0.47072  -0.46669  -0.46148
 Alpha  occ. eigenvalues --   -0.45009  -0.44567  -0.44446  -0.44085  -0.43229
 Alpha  occ. eigenvalues --   -0.43007  -0.42505  -0.42205  -0.41389  -0.41184
 Alpha  occ. eigenvalues --   -0.41005  -0.40545  -0.40371  -0.39869  -0.39566
 Alpha  occ. eigenvalues --   -0.39367  -0.38859  -0.38673  -0.38115  -0.37913
 Alpha  occ. eigenvalues --   -0.37536  -0.37344  -0.37037  -0.36486  -0.36057
 Alpha  occ. eigenvalues --   -0.35900  -0.35813  -0.35390  -0.34887  -0.34559
 Alpha  occ. eigenvalues --   -0.33722  -0.33518  -0.33294  -0.33109  -0.32176
 Alpha  occ. eigenvalues --   -0.31496  -0.31381  -0.30898  -0.27756  -0.27624
 Alpha  occ. eigenvalues --   -0.25206  -0.24788  -0.24396  -0.23612  -0.22374
 Alpha virt. eigenvalues --   -0.04756  -0.01898   0.00900   0.01481   0.05286
 Alpha virt. eigenvalues --    0.07293   0.07873   0.08382   0.09599   0.10019
 Alpha virt. eigenvalues --    0.10536   0.10594   0.10995   0.12009   0.12844
 Alpha virt. eigenvalues --    0.13052   0.13167   0.13552   0.14077   0.14383
 Alpha virt. eigenvalues --    0.14515   0.14533   0.15148   0.15565   0.15947
 Alpha virt. eigenvalues --    0.16067   0.16630   0.16692   0.16799   0.17461
 Alpha virt. eigenvalues --    0.17648   0.17812   0.18475   0.18890   0.18937
 Alpha virt. eigenvalues --    0.19328   0.19512   0.19708   0.19926   0.20656
 Alpha virt. eigenvalues --    0.20908   0.21271   0.21535   0.22083   0.22389
 Alpha virt. eigenvalues --    0.22543   0.23639   0.23740   0.23987   0.24255
 Alpha virt. eigenvalues --    0.24531   0.25323   0.25616   0.25956   0.26441
 Alpha virt. eigenvalues --    0.26549   0.27559   0.28394   0.29188   0.29411
 Alpha virt. eigenvalues --    0.30630   0.31022   0.32484   0.33086   0.34132
 Alpha virt. eigenvalues --    0.35422   0.35926   0.37616   0.38540   0.39511
 Alpha virt. eigenvalues --    0.41469   0.43749   0.45366   0.46754   0.48002
 Alpha virt. eigenvalues --    0.48802   0.49636   0.50227   0.50978   0.51411
 Alpha virt. eigenvalues --    0.51623   0.52344   0.52460   0.52896   0.53338
 Alpha virt. eigenvalues --    0.53620   0.53870   0.54117   0.54954   0.56709
 Alpha virt. eigenvalues --    0.56853   0.57140   0.57426   0.57720   0.58562
 Alpha virt. eigenvalues --    0.59327   0.60077   0.60510   0.61319   0.61513
 Alpha virt. eigenvalues --    0.62022   0.62072   0.62854   0.63671   0.64302
 Alpha virt. eigenvalues --    0.65740   0.65912   0.66797   0.67106   0.67436
 Alpha virt. eigenvalues --    0.67708   0.68068   0.68517   0.68984   0.69906
 Alpha virt. eigenvalues --    0.70300   0.70836   0.72061   0.72466   0.72889
 Alpha virt. eigenvalues --    0.73661   0.74299   0.74386   0.75804   0.76051
 Alpha virt. eigenvalues --    0.76350   0.76826   0.77529   0.78251   0.78455
 Alpha virt. eigenvalues --    0.78949   0.79629   0.80541   0.80974   0.81787
 Alpha virt. eigenvalues --    0.82383   0.83402   0.83700   0.84353   0.84689
 Alpha virt. eigenvalues --    0.85546   0.85620   0.86122   0.86575   0.87642
 Alpha virt. eigenvalues --    0.87943   0.88048   0.88205   0.88339   0.88871
 Alpha virt. eigenvalues --    0.89225   0.89401   0.89674   0.89771   0.90617
 Alpha virt. eigenvalues --    0.90875   0.91004   0.91736   0.92178   0.92415
 Alpha virt. eigenvalues --    0.92569   0.93134   0.93403   0.93766   0.93957
 Alpha virt. eigenvalues --    0.94670   0.95378   0.96424   0.96914   0.96958
 Alpha virt. eigenvalues --    0.97545   0.98300   0.99015   0.99334   0.99472
 Alpha virt. eigenvalues --    1.00624   1.00749   1.01713   1.01805   1.02872
 Alpha virt. eigenvalues --    1.04520   1.05009   1.06723   1.08568   1.08679
 Alpha virt. eigenvalues --    1.10599   1.12253   1.12759   1.12961   1.13759
 Alpha virt. eigenvalues --    1.14035   1.14904   1.15377   1.16397   1.16780
 Alpha virt. eigenvalues --    1.18228   1.18759   1.20180   1.20305   1.21546
 Alpha virt. eigenvalues --    1.21832   1.22744   1.24515   1.24839   1.26154
 Alpha virt. eigenvalues --    1.28032   1.28838   1.31515   1.31863   1.34143
 Alpha virt. eigenvalues --    1.34904   1.36182   1.38530   1.39277   1.40404
 Alpha virt. eigenvalues --    1.41051   1.42795   1.44710   1.46183   1.46394
 Alpha virt. eigenvalues --    1.47283   1.49741   1.49908   1.51802   1.52825
 Alpha virt. eigenvalues --    1.53839   1.54419   1.54943   1.56626   1.57298
 Alpha virt. eigenvalues --    1.59261   1.60454   1.61493   1.62138   1.63471
 Alpha virt. eigenvalues --    1.64059   1.64315   1.67105   1.68473   1.68794
 Alpha virt. eigenvalues --    1.70345   1.71534   1.72091   1.73265   1.73645
 Alpha virt. eigenvalues --    1.73964   1.74358   1.75582   1.76815   1.77270
 Alpha virt. eigenvalues --    1.78535   1.79135   1.79570   1.80385   1.80602
 Alpha virt. eigenvalues --    1.81457   1.82121   1.82916   1.83136   1.84783
 Alpha virt. eigenvalues --    1.85205   1.86232   1.86264   1.86832   1.87180
 Alpha virt. eigenvalues --    1.88322   1.89204   1.89838   1.90554   1.91570
 Alpha virt. eigenvalues --    1.92138   1.92896   1.93260   1.93580   1.94110
 Alpha virt. eigenvalues --    1.96507   1.96919   1.97132   1.97477   1.98007
 Alpha virt. eigenvalues --    1.98167   1.98462   1.99083   1.99707   2.01214
 Alpha virt. eigenvalues --    2.01940   2.02143   2.04037   2.04293   2.04655
 Alpha virt. eigenvalues --    2.05961   2.06661   2.07494   2.08260   2.09868
 Alpha virt. eigenvalues --    2.10690   2.11347   2.11784   2.12177   2.13087
 Alpha virt. eigenvalues --    2.13763   2.15185   2.16858   2.17110   2.18398
 Alpha virt. eigenvalues --    2.19584   2.19974   2.20878   2.21483   2.22682
 Alpha virt. eigenvalues --    2.23633   2.24556   2.25358   2.26275   2.26802
 Alpha virt. eigenvalues --    2.27096   2.28174   2.29562   2.30478   2.31343
 Alpha virt. eigenvalues --    2.32241   2.32519   2.33060   2.34125   2.35158
 Alpha virt. eigenvalues --    2.35946   2.36829   2.37074   2.37923   2.39722
 Alpha virt. eigenvalues --    2.41014   2.41418   2.41903   2.42973   2.43579
 Alpha virt. eigenvalues --    2.44693   2.47044   2.47232   2.47405   2.48898
 Alpha virt. eigenvalues --    2.49903   2.50192   2.51175   2.52025   2.53322
 Alpha virt. eigenvalues --    2.54949   2.55995   2.57223   2.58758   2.60229
 Alpha virt. eigenvalues --    2.61006   2.62816   2.63952   2.64591   2.65520
 Alpha virt. eigenvalues --    2.66914   2.67671   2.68479   2.69288   2.70224
 Alpha virt. eigenvalues --    2.71634   2.74421   2.74758   2.76284   2.76537
 Alpha virt. eigenvalues --    2.77573   2.77707   2.78223   2.80404   2.83221
 Alpha virt. eigenvalues --    2.86996   2.87264   2.90284   2.94525   2.95491
 Alpha virt. eigenvalues --    2.96357   2.98470   2.99168   3.00866   3.02466
 Alpha virt. eigenvalues --    3.04654   3.06414   3.09533   3.13831   3.17758
 Alpha virt. eigenvalues --    3.25119   3.26879   3.98627   4.08624   4.11098
 Alpha virt. eigenvalues --    4.12337   4.14218   4.15360   4.17690   4.18578
 Alpha virt. eigenvalues --    4.22918   4.24596   4.26430   4.27099   4.28311
 Alpha virt. eigenvalues --    4.31465   4.34859   4.36545   4.40956   4.43119
 Alpha virt. eigenvalues --    4.46511   4.48984   4.54511   4.57600   4.61840
 Alpha virt. eigenvalues --    4.65274   4.67013   4.68973   4.74986   4.77084
 Alpha virt. eigenvalues --    4.87744   4.92984   5.21868
          Condensed to atoms (all electrons):
 Mulliken atomic charges:
              1
     1  C   -0.196896
     2  C    0.202295
     3  C   -0.201835
     4  C    0.324587
     5  C   -0.037740
     6  C   -0.325456
     7  C    0.195738
     8  C    0.389913
     9  C   -0.088785
    10  C    0.412360
    11  C    0.431927
    12  O   -0.470763
    13  C   -0.146486
    14  C   -0.264276
    15  C   -0.453163
    16  O   -0.463776
    17  C   -0.155871
    18  C    0.298538
    19  O   -0.531624
    20  C   -0.307586
    21  O   -0.667290
    22  C   -0.351695
    23  C    0.095501
    24  O   -0.589304
    25  C    0.223269
    26  C   -0.539134
    27  C   -0.403389
    28  C   -0.467337
    29  C   -0.462496
    30  H    0.148301
    31  H    0.148153
    32  C   -0.520835
    33  H    0.126225
    34  H    0.165763
    35  H    0.168737
    36  H    0.136068
    37  H    0.129915
    38  H    0.139622
    39  H    0.149914
    40  H    0.135458
    41  H    0.173678
    42  H    0.159491
    43  H    0.151952
    44  H    0.431421
    45  H    0.152763
    46  H    0.196268
    47  H    0.130341
    48  H    0.159485
    49  H    0.191277
    50  H    0.151727
    51  H    0.136950
    52  H    0.140266
    53  H    0.157208
    54  H    0.146432
    55  H    0.194965
    56  H    0.164926
    57  H    0.153267
    58  H    0.161564
    59  H    0.158354
    60  H    0.154405
    61  H    0.156830
    62  C   -0.446822
    63  H    0.145002
    64  H    0.131502
    65  H    0.170203
 Sum of Mulliken atomic charges =   0.00000
 Mulliken charges with hydrogens summed into heavy atoms:
              1
     1  C   -0.070671
     2  C    0.202295
     3  C   -0.053682
     4  C    0.324587
     5  C   -0.037740
     6  C    0.009043
     7  C    0.195738
     8  C    0.389913
     9  C   -0.088785
    10  C    0.412360
    11  C    0.431927
    12  O   -0.470763
    13  C   -0.010418
    14  C    0.005260
    15  C    0.005887
    16  O   -0.463776
    17  C   -0.007570
    18  C    0.298538
    19  O   -0.531624
    20  C    0.003857
    21  O   -0.235870
    22  C   -0.002664
    23  C    0.225843
    24  O   -0.589304
    25  C    0.223269
    26  C   -0.036645
    27  C   -0.126173
    28  C    0.031268
    29  C    0.017260
    32  C   -0.051245
    62  C   -0.000115
 Sum of Mulliken charges with hydrogens summed into heavy atoms =   0.00000
 Electronic spatial extent (au):  <R**2>=          11479.4676
 Charge=              0.0000 electrons
 Dipole moment (field-independent basis, Debye):
    X=             -2.2781    Y=              6.2239    Z=             -1.0828  Tot=              6.7156
 Quadrupole moment (field-independent basis, Debye-Ang):
   XX=           -179.4303   YY=           -185.0340   ZZ=           -184.8554
   XY=              6.3544   XZ=             -8.7621   YZ=              4.4464
 Traceless Quadrupole moment (field-independent basis, Debye-Ang):
   XX=              3.6763   YY=             -1.9275   ZZ=             -1.7489
   XY=              6.3544   XZ=             -8.7621   YZ=              4.4464
 Octapole moment (field-independent basis, Debye-Ang**2):
  XXX=            -13.1919  YYY=             58.8573  ZZZ=              0.6415  XYY=            -13.4612
  XXY=              3.4294  XXZ=            -16.5665  XZZ=            -14.2540  YZZ=             10.6488
  YYZ=            -38.4923  XYZ=             -1.9861
 Hexadecapole moment (field-independent basis, Debye-Ang**3):
 XXXX=          -8329.5567 YYYY=          -4288.8211 ZZZZ=          -2665.4768 XXXY=             22.9965
 XXXZ=            -49.1660 YYYX=             35.7740 YYYZ=              9.1638 ZZZX=            -39.7845
 ZZZY=            -18.9561 XXYY=          -2100.3192 XXZZ=          -1870.3366 YYZZ=          -1142.9070
 XXYZ=             55.7253 YYXZ=            -11.0651 ZZXY=             43.9267
 N-N= 3.517806753397D+03 E-N=-1.026174301449D+04  KE= 1.374448875269D+03
 1\1\GINC-B0603\FOpt\RB3LYP\6-31G(d)\C26H34O5\CAOFEI\24-Mar-2021\0\\# o
 pt rb3lyp/6-31g(d) geom=connectivity\\Title Card Required\\0,1\C,-0.02
 27981355,-0.0474919507,-0.2986585256\C,1.3123473409,-0.1281765253,-0.2
 452031198\C,2.1377213518,1.1360418708,-0.1636225824\C,1.4676026115,2.3
 469399585,0.5665038088\C,-0.0797017197,2.2737190409,0.7417481956\C,-0.
 7556419127,1.2666501481,-0.2364029072\C,1.9785525849,3.6052812232,-0.2
 27103576\C,0.9247218858,4.2029657429,-1.1426645444\C,-0.37923588,4.332
 3591218,-0.7925601525\C,-0.77009955,3.6445832886,0.4731943616\C,-1.452
 8064265,4.9991004473,-1.5939288967\O,-2.6067600672,4.6046717965,-1.499
 9950793\C,-1.1018916,6.1807152716,-2.5060669997\C,-1.121456584,5.75970
 1539,-4.0018721046\C,-2.0535808962,7.3518057259,-2.2080369345\O,-1.651
 4605693,4.0585259325,1.203754235\C,3.021721351,3.1283752936,-1.2618574
 872\C,2.8929306205,4.1648422048,-2.4003834284\O,1.464526867,4.57437787
 56,-2.3129643712\C,2.5676234378,1.6860941831,-1.550077845\O,2.42778292
 85,4.6278206646,0.6397326685\C,-0.2717220219,1.8250074861,2.2062174331
 \C,1.0856020587,2.0166053561,2.9159191654\O,2.0032808454,2.4766768363,
 1.8880829867\C,1.0961853777,2.9914056812,4.0758611537\C,0.6248894357,4
 .4032754067,3.8264055038\C,1.4998526258,2.5710647247,5.2791193492\C,3.
 7430718842,5.4125133174,-2.1492289971\C,3.0928944255,3.6338931638,-3.8
 160458853\H,4.0269547292,3.1415693977,-0.8299798208\H,3.0535358689,0.9
 356629063,0.4082181904\C,2.0606304294,-1.4337925052,-0.3108786183\H,-0
 .617604247,-0.9544544225,-0.3962500601\H,-0.8280649326,1.7127039071,-1
 .2380146512\H,-1.7902954582,1.1190354845,0.0923395394\H,-0.0780056011,
 6.4979720127,-2.2833398864\H,-0.7183322125,6.6046117672,-4.5777557145\
 H,-0.4111014294,4.9351825593,-4.1396272877\H,-1.9121402932,7.720283341
 ,-1.1858729251\H,-1.8625832434,8.1830964155,-2.8971442569\H,-3.0971600
 399,7.0436722297,-2.308448284\H,1.7054558818,1.6758788154,-2.227680751
 1\H,3.3484941359,1.0754383625,-2.0138401256\H,2.5883524278,4.167202132
 ,1.4901321591\H,-0.5616345504,0.7722208029,2.2494312073\H,-1.072809761
 1,2.4125310798,2.6595646966\H,1.4645646747,1.051559341,3.2725914471\H,
 1.1759240495,4.87504443,3.0050160473\H,-0.431577656,4.431614646,3.5346
 478089\H,0.7502980106,5.0201383233,4.7209618481\H,1.837671028,1.550984
 9614,5.4465729404\H,1.5004331313,3.229182517,6.1443693037\H,3.47672813
 74,6.1973125723,-2.8646863196\H,4.8049043755,5.174795614,-2.2801742222
 \H,3.5939142137,5.7871038652,-1.1339551858\H,2.9039322889,4.4270619886
 ,-4.5464048424\H,4.1260139163,3.2926398976,-3.9436676103\H,2.422447600
 7,2.7995148681,-4.0367422082\H,1.3781390175,-2.2845204214,-0.403497373
 7\H,2.7500393578,-1.4603405338,-1.1662328086\H,2.6745854873,-1.5844563
 714,0.5879807096\C,-2.4868489659,5.3631639721,-4.5745152246\H,-3.19336
 82408,6.1998293063,-4.5510922021\H,-2.3808741675,5.0503291828,-5.62014
 42072\H,-2.9350702329,4.5390827297,-4.0123467358\\Version=EM64L-G09Rev
 B.01\State=1-A\HF=-1387.3193938\RMSD=5.922e-09\RMSF=2.905e-06\Dipole=2
 .2351323,-1.2765525,-0.5961641\Quadrupole=-8.4420643,4.7746985,3.66736
 58,2.2400856,-3.9716872,-2.5966168\PG=C01 [X(C26H34O5)]\\@


 YOU KNOW YOU'RE A TEACHER WHEN YOU SAY 2, WRITE 3, AND MEAN 4.
 -- RONALD ANSTROM, HIGH SCHOOL TEACHER, UNDERWOOD, N.D. 1974
 Job cpu time:  0 days 12 hours 57 minutes 28.3 seconds.
 File lengths (MBytes):  RWF=    186 Int=      0 D2E=      0 Chk=     20 Scr=      1
 Normal termination of Gaussian 09 at Wed Mar 24 17:08:46 2021.
