 Entering Gaussian System, Link 0=g09
 Initial command:
 /public/software/g09/g09/l1.exe /tmp/Gau-1171.inp -scrdir=/tmp/
 Entering Link 1 = /public/software/g09/g09/l1.exe PID=      1172.
  
 Copyright (c) 1988,1990,1992,1993,1995,1998,2003,2009,2010,
            Gaussian, Inc.  All Rights Reserved.
  
 This is part of the Gaussian(R) 09 program.  It is based on
 the Gaussian(R) 03 system (copyright 2003, Gaussian, Inc.),
 the Gaussian(R) 98 system (copyright 1998, Gaussian, Inc.),
 the Gaussian(R) 94 system (copyright 1995, Gaussian, Inc.),
 the Gaussian 92(TM) system (copyright 1992, Gaussian, Inc.),
 the Gaussian 90(TM) system (copyright 1990, Gaussian, Inc.),
 the Gaussian 88(TM) system (copyright 1988, Gaussian, Inc.),
 the Gaussian 86(TM) system (copyright 1986, Carnegie Mellon
 University), and the Gaussian 82(TM) system (copyright 1983,
 Carnegie Mellon University). Gaussian is a federally registered
 trademark of Gaussian, Inc.
  
 This software contains proprietary and confidential information,
 including trade secrets, belonging to Gaussian, Inc.
  
 This software is provided under written license and may be
 used, copied, transmitted, or stored only in accord with that
 written license.
  
 The following legend is applicable only to US Government
 contracts under FAR:
  
                    RESTRICTED RIGHTS LEGEND
  
 Use, reproduction and disclosure by the US Government is
 subject to restrictions as set forth in subparagraphs (a)
 and (c) of the Commercial Computer Software - Restricted
 Rights clause in FAR 52.227-19.
  
 Gaussian, Inc.
 340 Quinnipiac St., Bldg. 40, Wallingford CT 06492
  
  
 ---------------------------------------------------------------
 Warning -- This program may not be used in any manner that
 competes with the business of Gaussian, Inc. or will provide
 assistance to any competitor of Gaussian, Inc.  The licensee
 of this program is prohibited from giving any competitor of
 Gaussian, Inc. access to this program.  By using this program,
 the user acknowledges that Gaussian, Inc. is engaged in the
 business of creating and licensing software in the field of
 computational chemistry and represents and warrants to the
 licensee that it is not a competitor of Gaussian, Inc. and that
 it will not use this program in any manner prohibited above.
 ---------------------------------------------------------------
  

 Cite this work as:
 Gaussian 09, Revision B.01,
 M. J. Frisch, G. W. Trucks, H. B. Schlegel, G. E. Scuseria, 
 M. A. Robb, J. R. Cheeseman, G. Scalmani, V. Barone, B. Mennucci, 
 G. A. Petersson, H. Nakatsuji, M. Caricato, X. Li, H. P. Hratchian, 
 A. F. Izmaylov, J. Bloino, G. Zheng, J. L. Sonnenberg, M. Hada, 
 M. Ehara, K. Toyota, R. Fukuda, J. Hasegawa, M. Ishida, T. Nakajima, 
 Y. Honda, O. Kitao, H. Nakai, T. Vreven, J. A. Montgomery, Jr., 
 J. E. Peralta, F. Ogliaro, M. Bearpark, J. J. Heyd, E. Brothers, 
 K. N. Kudin, V. N. Staroverov, T. Keith, R. Kobayashi, J. Normand, 
 K. Raghavachari, A. Rendell, J. C. Burant, S. S. Iyengar, J. Tomasi, 
 M. Cossi, N. Rega, J. M. Millam, M. Klene, J. E. Knox, J. B. Cross, 
 V. Bakken, C. Adamo, J. Jaramillo, R. Gomperts, R. E. Stratmann, 
 O. Yazyev, A. J. Austin, R. Cammi, C. Pomelli, J. W. Ochterski, 
 R. L. Martin, K. Morokuma, V. G. Zakrzewski, G. A. Voth, 
 P. Salvador, J. J. Dannenberg, S. Dapprich, A. D. Daniels, 
 O. Farkas, J. B. Foresman, J. V. Ortiz, J. Cioslowski, 
 and D. J. Fox, Gaussian, Inc., Wallingford CT, 2010.
 
 ******************************************
 Gaussian 09:  EM64L-G09RevB.01 12-Aug-2010
                24-Mar-2021 
 ******************************************
 %mem=600MW
 %nprocshared=10
 Will use up to   10 processors via shared memory.
 ---------------------------------------
 # opt rb3lyp/6-31g(d) geom=connectivity
 ---------------------------------------
 1/14=-1,18=20,19=15,26=3,38=1,57=2/1,3;
 2/9=110,12=2,17=6,18=5,40=1/2;
 3/5=1,6=6,7=1,11=2,16=1,25=1,30=1,71=1,74=-5,116=1/1,2,3;
 4//1;
 5/5=2,38=5/2;
 6/7=2,8=2,9=2,10=2,28=1/1;
 7//1,2,3,16;
 1/14=-1,18=20,19=15/3(2);
 2/9=110/2;
 99//99;
 2/9=110/2;
 3/5=1,6=6,7=1,11=2,16=1,25=1,30=1,71=1,74=-5,116=1/1,2,3;
 4/5=5,16=3/1;
 5/5=2,38=5/2;
 7//1,2,3,16;
 1/14=-1,18=20,19=15/3(-5);
 2/9=110/2;
 6/7=2,8=2,9=2,10=2,19=2,28=1/1;
 99/9=1/99;
 -------------------
 Title Card Required
 -------------------
 Symbolic Z-matrix:
 Charge =  0 Multiplicity = 1
 C                     0.        0.        0. 
 C                     1.3416    0.        0. 
 C                     2.1355    1.2853    0. 
 C                     1.3356    2.5813   -0.3184 
 C                    -0.1582    2.4536   -0.6601 
 C                    -0.831     1.2418    0.016 
 C                     2.145     3.283    -1.4265 
 C                     1.7889    2.8922   -2.8186 
 C                     0.5744    2.4609   -3.1721 
 C                    -0.5008    2.425    -2.1583 
 C                     0.3357    2.0039   -4.5606 
 O                     0.746     0.8975   -4.9115 
 C                    -0.4168    2.9516   -5.492 
 C                     0.5288    3.9952   -6.1076 
 C                    -1.2002    2.1652   -6.5417 
 O                    -1.6742    2.3866   -2.5358 
 C                     3.5559    2.7394   -1.3721 
 C                     4.0606    2.9663   -2.8136 
 O                     2.8924    2.8432   -3.6646 
 C                     3.3151    1.2695   -0.9898 
 O                     2.0933    4.6955   -1.3161 
 C                    -0.7209    3.7558   -0.0843 
 C                     0.1137    3.9671    1.1719 
 O                     1.4176    3.442     0.8605 
 C                     0.2745    5.3744    1.7005 
 C                     1.2012    5.5107    2.8823 
 C                    -0.3614    6.4563    1.219 
 C                     4.6524    4.3695   -3.021 
 C                     5.0995    1.9361   -3.2696 
 H                     4.1856    3.2392   -0.6271 
 H                     2.5659    1.3831    1.0077 
 C                     2.1112   -1.2911    0.0927 
 H                    -0.5436   -0.9421    0.0484 
 H                    -1.0799    1.4492    1.0637 
 H                    -1.7888    1.0144   -0.4687 
 H                    -1.1556    3.4931   -4.8875 
 H                    -0.0671    4.7322   -6.6601 
 H                     1.036     4.5478   -5.3076 
 H                    -1.7489    2.841    -7.2056 
 H                    -1.9273    1.5032   -6.0582 
 H                    -0.5498    1.5338   -7.1556 
 H                     4.2133    0.8308   -0.5404 
 H                     3.0618    0.6586   -1.8648 
 H                     2.1639    4.8918   -0.3598 
 H                    -1.7934    3.7111    0.1365 
 H                    -0.575     4.5694   -0.8058 
 H                    -0.2888    3.35      1.9846 
 H                     0.8837    4.8457    3.6923 
 H                     2.2268    5.2526    2.5997 
 H                     1.2161    6.5308    3.2809 
 H                    -1.0557    6.4091    0.3872 
 H                    -0.2086    7.4402    1.6543 
 H                     3.9185    5.1625   -2.8552 
 H                     4.9878    4.4965   -4.0572 
 H                     5.5076    4.5418   -2.3595 
 H                     5.9655    1.9196   -2.6001 
 H                     5.4519    2.164    -4.2827 
 H                     4.6795    0.9274   -3.331 
 H                     1.4521   -2.1532    0.2414 
 H                     2.6838   -1.4699   -0.8224 
 H                     2.8045   -1.2587    0.9395 
 C                     1.5871    3.4311   -7.0468 
 H                     1.1352    2.9629   -7.926 
 H                     2.219     2.6924   -6.5456 
 H                     2.2367    4.2381   -7.4017 
 

 GradGradGradGradGradGradGradGradGradGradGradGradGradGradGradGradGradGrad
 Berny optimization.
 Initialization pass.
                           ----------------------------
                           !    Initial Parameters    !
                           ! (Angstroms and Degrees)  !
 --------------------------                            --------------------------
 ! Name  Definition              Value          Derivative Info.                !
 --------------------------------------------------------------------------------
 ! R1    R(1,2)                  1.3416         estimate D2E/DX2                !
 ! R2    R(1,6)                  1.4943         estimate D2E/DX2                !
 ! R3    R(1,33)                 1.0888         estimate D2E/DX2                !
 ! R4    R(2,3)                  1.5107         estimate D2E/DX2                !
 ! R5    R(2,32)                 1.5059         estimate D2E/DX2                !
 ! R6    R(3,4)                  1.5559         estimate D2E/DX2                !
 ! R7    R(3,20)                 1.5399         estimate D2E/DX2                !
 ! R8    R(3,31)                 1.1001         estimate D2E/DX2                !
 ! R9    R(4,5)                  1.5377         estimate D2E/DX2                !
 ! R10   R(4,7)                  1.5412         estimate D2E/DX2                !
 ! R11   R(4,24)                 1.462          estimate D2E/DX2                !
 ! R12   R(5,6)                  1.5422         estimate D2E/DX2                !
 ! R13   R(5,10)                 1.5371         estimate D2E/DX2                !
 ! R14   R(5,22)                 1.531          estimate D2E/DX2                !
 ! R15   R(6,34)                 1.0967         estimate D2E/DX2                !
 ! R16   R(6,35)                 1.0973         estimate D2E/DX2                !
 ! R17   R(7,8)                  1.4891         estimate D2E/DX2                !
 ! R18   R(7,17)                 1.513          estimate D2E/DX2                !
 ! R19   R(7,21)                 1.4178         estimate D2E/DX2                !
 ! R20   R(8,9)                  1.3364         estimate D2E/DX2                !
 ! R21   R(8,19)                 1.3913         estimate D2E/DX2                !
 ! R22   R(9,10)                 1.4782         estimate D2E/DX2                !
 ! R23   R(9,11)                 1.4811         estimate D2E/DX2                !
 ! R24   R(10,16)                1.2332         estimate D2E/DX2                !
 ! R25   R(11,12)                1.2311         estimate D2E/DX2                !
 ! R26   R(11,13)                1.5271         estimate D2E/DX2                !
 ! R27   R(13,14)                1.537          estimate D2E/DX2                !
 ! R28   R(13,15)                1.5277         estimate D2E/DX2                !
 ! R29   R(13,36)                1.0975         estimate D2E/DX2                !
 ! R30   R(14,37)                1.0971         estimate D2E/DX2                !
 ! R31   R(14,38)                1.0966         estimate D2E/DX2                !
 ! R32   R(14,62)                1.5233         estimate D2E/DX2                !
 ! R33   R(15,39)                1.0948         estimate D2E/DX2                !
 ! R34   R(15,40)                1.0958         estimate D2E/DX2                !
 ! R35   R(15,41)                1.0948         estimate D2E/DX2                !
 ! R36   R(17,18)                1.5441         estimate D2E/DX2                !
 ! R37   R(17,20)                1.5378         estimate D2E/DX2                !
 ! R38   R(17,30)                1.0961         estimate D2E/DX2                !
 ! R39   R(18,19)                1.4505         estimate D2E/DX2                !
 ! R40   R(18,28)                1.5369         estimate D2E/DX2                !
 ! R41   R(18,29)                1.5325         estimate D2E/DX2                !
 ! R42   R(20,42)                1.096          estimate D2E/DX2                !
 ! R43   R(20,43)                1.0968         estimate D2E/DX2                !
 ! R44   R(21,44)                0.9788         estimate D2E/DX2                !
 ! R45   R(22,23)                1.5229         estimate D2E/DX2                !
 ! R46   R(22,45)                1.0959         estimate D2E/DX2                !
 ! R47   R(22,46)                1.0972         estimate D2E/DX2                !
 ! R48   R(23,24)                1.4397         estimate D2E/DX2                !
 ! R49   R(23,25)                1.5119         estimate D2E/DX2                !
 ! R50   R(23,47)                1.097          estimate D2E/DX2                !
 ! R51   R(25,26)                1.508          estimate D2E/DX2                !
 ! R52   R(25,27)                1.3441         estimate D2E/DX2                !
 ! R53   R(26,48)                1.095          estimate D2E/DX2                !
 ! R54   R(26,49)                1.0947         estimate D2E/DX2                !
 ! R55   R(26,50)                1.0953         estimate D2E/DX2                !
 ! R56   R(27,51)                1.0845         estimate D2E/DX2                !
 ! R57   R(27,52)                1.0867         estimate D2E/DX2                !
 ! R58   R(28,53)                1.0931         estimate D2E/DX2                !
 ! R59   R(28,54)                1.0965         estimate D2E/DX2                !
 ! R60   R(28,55)                1.0948         estimate D2E/DX2                !
 ! R61   R(29,56)                1.0947         estimate D2E/DX2                !
 ! R62   R(29,57)                1.0966         estimate D2E/DX2                !
 ! R63   R(29,58)                1.0944         estimate D2E/DX2                !
 ! R64   R(32,59)                1.0953         estimate D2E/DX2                !
 ! R65   R(32,60)                1.0942         estimate D2E/DX2                !
 ! R66   R(32,61)                1.0949         estimate D2E/DX2                !
 ! R67   R(62,63)                1.0938         estimate D2E/DX2                !
 ! R68   R(62,64)                1.0937         estimate D2E/DX2                !
 ! R69   R(62,65)                1.0951         estimate D2E/DX2                !
 ! A1    A(2,1,6)              123.7878         estimate D2E/DX2                !
 ! A2    A(2,1,33)             119.9526         estimate D2E/DX2                !
 ! A3    A(6,1,33)             116.1647         estimate D2E/DX2                !
 ! A4    A(1,2,3)              121.7027         estimate D2E/DX2                !
 ! A5    A(1,2,32)             120.7336         estimate D2E/DX2                !
 ! A6    A(3,2,32)             117.4424         estimate D2E/DX2                !
 ! A7    A(2,3,4)              116.0082         estimate D2E/DX2                !
 ! A8    A(2,3,20)             113.1921         estimate D2E/DX2                !
 ! A9    A(2,3,31)             106.3336         estimate D2E/DX2                !
 ! A10   A(4,3,20)             105.7131         estimate D2E/DX2                !
 ! A11   A(4,3,31)             108.3326         estimate D2E/DX2                !
 ! A12   A(20,3,31)            106.857          estimate D2E/DX2                !
 ! A13   A(3,4,5)              118.407          estimate D2E/DX2                !
 ! A14   A(3,4,7)              104.8549         estimate D2E/DX2                !
 ! A15   A(3,4,24)             107.2494         estimate D2E/DX2                !
 ! A16   A(5,4,7)              112.8436         estimate D2E/DX2                !
 ! A17   A(5,4,24)             106.4137         estimate D2E/DX2                !
 ! A18   A(7,4,24)             106.3957         estimate D2E/DX2                !
 ! A19   A(4,5,6)              113.0575         estimate D2E/DX2                !
 ! A20   A(4,5,10)             115.7631         estimate D2E/DX2                !
 ! A21   A(4,5,22)             101.703          estimate D2E/DX2                !
 ! A22   A(6,5,10)             108.388          estimate D2E/DX2                !
 ! A23   A(6,5,22)             110.0675         estimate D2E/DX2                !
 ! A24   A(10,5,22)            107.4864         estimate D2E/DX2                !
 ! A25   A(1,6,5)              113.935          estimate D2E/DX2                !
 ! A26   A(1,6,34)             107.0745         estimate D2E/DX2                !
 ! A27   A(1,6,35)             107.9674         estimate D2E/DX2                !
 ! A28   A(5,6,34)             111.6696         estimate D2E/DX2                !
 ! A29   A(5,6,35)             110.4875         estimate D2E/DX2                !
 ! A30   A(34,6,35)            105.2536         estimate D2E/DX2                !
 ! A31   A(4,7,8)              115.2811         estimate D2E/DX2                !
 ! A32   A(4,7,17)             107.4757         estimate D2E/DX2                !
 ! A33   A(4,7,21)             112.2384         estimate D2E/DX2                !
 ! A34   A(8,7,17)              99.3417         estimate D2E/DX2                !
 ! A35   A(8,7,21)             108.9984         estimate D2E/DX2                !
 ! A36   A(17,7,21)            112.9027         estimate D2E/DX2                !
 ! A37   A(7,8,9)              123.3189         estimate D2E/DX2                !
 ! A38   A(7,8,19)             112.8308         estimate D2E/DX2                !
 ! A39   A(9,8,19)             123.2687         estimate D2E/DX2                !
 ! A40   A(8,9,10)             119.1723         estimate D2E/DX2                !
 ! A41   A(8,9,11)             119.6043         estimate D2E/DX2                !
 ! A42   A(10,9,11)            121.2127         estimate D2E/DX2                !
 ! A43   A(5,10,9)             120.3901         estimate D2E/DX2                !
 ! A44   A(5,10,16)            120.7306         estimate D2E/DX2                !
 ! A45   A(9,10,16)            118.8747         estimate D2E/DX2                !
 ! A46   A(9,11,12)            119.3923         estimate D2E/DX2                !
 ! A47   A(9,11,13)            117.3687         estimate D2E/DX2                !
 ! A48   A(12,11,13)           123.2388         estimate D2E/DX2                !
 ! A49   A(11,13,14)           111.2547         estimate D2E/DX2                !
 ! A50   A(11,13,15)           110.6288         estimate D2E/DX2                !
 ! A51   A(11,13,36)           107.5766         estimate D2E/DX2                !
 ! A52   A(14,13,15)           112.9419         estimate D2E/DX2                !
 ! A53   A(14,13,36)           107.4432         estimate D2E/DX2                !
 ! A54   A(15,13,36)           106.6926         estimate D2E/DX2                !
 ! A55   A(13,14,37)           108.8859         estimate D2E/DX2                !
 ! A56   A(13,14,38)           109.5431         estimate D2E/DX2                !
 ! A57   A(13,14,62)           115.0212         estimate D2E/DX2                !
 ! A58   A(37,14,38)           106.2659         estimate D2E/DX2                !
 ! A59   A(37,14,62)           108.3999         estimate D2E/DX2                !
 ! A60   A(38,14,62)           108.365          estimate D2E/DX2                !
 ! A61   A(13,15,39)           110.8501         estimate D2E/DX2                !
 ! A62   A(13,15,40)           110.369          estimate D2E/DX2                !
 ! A63   A(13,15,41)           112.18           estimate D2E/DX2                !
 ! A64   A(39,15,40)           107.9354         estimate D2E/DX2                !
 ! A65   A(39,15,41)           108.2834         estimate D2E/DX2                !
 ! A66   A(40,15,41)           107.0501         estimate D2E/DX2                !
 ! A67   A(7,17,18)            102.6178         estimate D2E/DX2                !
 ! A68   A(7,17,20)            101.9084         estimate D2E/DX2                !
 ! A69   A(7,17,30)            113.3505         estimate D2E/DX2                !
 ! A70   A(18,17,20)           115.071          estimate D2E/DX2                !
 ! A71   A(18,17,30)           112.3189         estimate D2E/DX2                !
 ! A72   A(20,17,30)           110.9071         estimate D2E/DX2                !
 ! A73   A(17,18,19)           105.7831         estimate D2E/DX2                !
 ! A74   A(17,18,28)           112.7059         estimate D2E/DX2                !
 ! A75   A(17,18,29)           113.615          estimate D2E/DX2                !
 ! A76   A(19,18,28)           107.9637         estimate D2E/DX2                !
 ! A77   A(19,18,29)           108.3212         estimate D2E/DX2                !
 ! A78   A(28,18,29)           108.2132         estimate D2E/DX2                !
 ! A79   A(8,19,18)            106.2022         estimate D2E/DX2                !
 ! A80   A(3,20,17)            105.6603         estimate D2E/DX2                !
 ! A81   A(3,20,42)            111.6121         estimate D2E/DX2                !
 ! A82   A(3,20,43)            109.9732         estimate D2E/DX2                !
 ! A83   A(17,20,42)           110.8682         estimate D2E/DX2                !
 ! A84   A(17,20,43)           111.7298         estimate D2E/DX2                !
 ! A85   A(42,20,43)           107.0639         estimate D2E/DX2                !
 ! A86   A(7,21,44)            105.8584         estimate D2E/DX2                !
 ! A87   A(5,22,23)            103.1101         estimate D2E/DX2                !
 ! A88   A(5,22,45)            113.6266         estimate D2E/DX2                !
 ! A89   A(5,22,46)            109.5441         estimate D2E/DX2                !
 ! A90   A(23,22,45)           112.0734         estimate D2E/DX2                !
 ! A91   A(23,22,46)           111.5104         estimate D2E/DX2                !
 ! A92   A(45,22,46)           107.0302         estimate D2E/DX2                !
 ! A93   A(22,23,24)           105.5042         estimate D2E/DX2                !
 ! A94   A(22,23,25)           118.414          estimate D2E/DX2                !
 ! A95   A(22,23,47)           109.3891         estimate D2E/DX2                !
 ! A96   A(24,23,25)           108.5897         estimate D2E/DX2                !
 ! A97   A(24,23,47)           106.7007         estimate D2E/DX2                !
 ! A98   A(25,23,47)           107.6764         estimate D2E/DX2                !
 ! A99   A(4,24,23)            109.7755         estimate D2E/DX2                !
 ! A100  A(23,25,26)           115.0557         estimate D2E/DX2                !
 ! A101  A(23,25,27)           125.0061         estimate D2E/DX2                !
 ! A102  A(26,25,27)           119.9149         estimate D2E/DX2                !
 ! A103  A(25,26,48)           110.2812         estimate D2E/DX2                !
 ! A104  A(25,26,49)           110.6171         estimate D2E/DX2                !
 ! A105  A(25,26,50)           112.1936         estimate D2E/DX2                !
 ! A106  A(48,26,49)           108.6278         estimate D2E/DX2                !
 ! A107  A(48,26,50)           107.4779         estimate D2E/DX2                !
 ! A108  A(49,26,50)           107.5049         estimate D2E/DX2                !
 ! A109  A(25,27,51)           122.8599         estimate D2E/DX2                !
 ! A110  A(25,27,52)           121.2484         estimate D2E/DX2                !
 ! A111  A(51,27,52)           115.8907         estimate D2E/DX2                !
 ! A112  A(18,28,53)           112.54           estimate D2E/DX2                !
 ! A113  A(18,28,54)           110.5511         estimate D2E/DX2                !
 ! A114  A(18,28,55)           111.2797         estimate D2E/DX2                !
 ! A115  A(53,28,54)           105.3473         estimate D2E/DX2                !
 ! A116  A(53,28,55)           108.5794         estimate D2E/DX2                !
 ! A117  A(54,28,55)           108.2893         estimate D2E/DX2                !
 ! A118  A(18,29,56)           111.3722         estimate D2E/DX2                !
 ! A119  A(18,29,57)           110.6737         estimate D2E/DX2                !
 ! A120  A(18,29,58)           112.0944         estimate D2E/DX2                !
 ! A121  A(56,29,57)           108.2956         estimate D2E/DX2                !
 ! A122  A(56,29,58)           108.9058         estimate D2E/DX2                !
 ! A123  A(57,29,58)           105.2515         estimate D2E/DX2                !
 ! A124  A(2,32,59)            112.0634         estimate D2E/DX2                !
 ! A125  A(2,32,60)            110.858          estimate D2E/DX2                !
 ! A126  A(2,32,61)            110.2331         estimate D2E/DX2                !
 ! A127  A(59,32,60)           107.4468         estimate D2E/DX2                !
 ! A128  A(59,32,61)           107.4169         estimate D2E/DX2                !
 ! A129  A(60,32,61)           108.6806         estimate D2E/DX2                !
 ! A130  A(14,62,63)           111.5357         estimate D2E/DX2                !
 ! A131  A(14,62,64)           111.6527         estimate D2E/DX2                !
 ! A132  A(14,62,65)           109.8192         estimate D2E/DX2                !
 ! A133  A(63,62,64)           108.5384         estimate D2E/DX2                !
 ! A134  A(63,62,65)           107.4588         estimate D2E/DX2                !
 ! A135  A(64,62,65)           107.6694         estimate D2E/DX2                !
 ! D1    D(6,1,2,3)             -0.7382         estimate D2E/DX2                !
 ! D2    D(6,1,2,32)           175.1551         estimate D2E/DX2                !
 ! D3    D(33,1,2,3)          -177.059          estimate D2E/DX2                !
 ! D4    D(33,1,2,32)           -1.1658         estimate D2E/DX2                !
 ! D5    D(2,1,6,5)             29.3864         estimate D2E/DX2                !
 ! D6    D(2,1,6,34)           -94.5974         estimate D2E/DX2                !
 ! D7    D(2,1,6,35)           152.5142         estimate D2E/DX2                !
 ! D8    D(33,1,6,5)          -154.1651         estimate D2E/DX2                !
 ! D9    D(33,1,6,34)           81.8511         estimate D2E/DX2                !
 ! D10   D(33,1,6,35)          -31.0374         estimate D2E/DX2                !
 ! D11   D(1,2,3,4)            -13.1616         estimate D2E/DX2                !
 ! D12   D(1,2,3,20)          -135.6323         estimate D2E/DX2                !
 ! D13   D(1,2,3,31)           107.3477         estimate D2E/DX2                !
 ! D14   D(32,2,3,4)           170.8157         estimate D2E/DX2                !
 ! D15   D(32,2,3,20)           48.345          estimate D2E/DX2                !
 ! D16   D(32,2,3,31)          -68.675          estimate D2E/DX2                !
 ! D17   D(1,2,32,59)           -4.8927         estimate D2E/DX2                !
 ! D18   D(1,2,32,60)          115.1492         estimate D2E/DX2                !
 ! D19   D(1,2,32,61)         -124.4707         estimate D2E/DX2                !
 ! D20   D(3,2,32,59)          171.1706         estimate D2E/DX2                !
 ! D21   D(3,2,32,60)          -68.7875         estimate D2E/DX2                !
 ! D22   D(3,2,32,61)           51.5926         estimate D2E/DX2                !
 ! D23   D(2,3,4,5)             -2.4841         estimate D2E/DX2                !
 ! D24   D(2,3,4,7)           -129.3594         estimate D2E/DX2                !
 ! D25   D(2,3,4,24)           117.8019         estimate D2E/DX2                !
 ! D26   D(20,3,4,5)           123.8482         estimate D2E/DX2                !
 ! D27   D(20,3,4,7)            -3.0271         estimate D2E/DX2                !
 ! D28   D(20,3,4,24)         -115.8658         estimate D2E/DX2                !
 ! D29   D(31,3,4,5)          -121.9113         estimate D2E/DX2                !
 ! D30   D(31,3,4,7)           111.2133         estimate D2E/DX2                !
 ! D31   D(31,3,4,24)           -1.6253         estimate D2E/DX2                !
 ! D32   D(2,3,20,17)          153.0885         estimate D2E/DX2                !
 ! D33   D(2,3,20,42)          -86.3148         estimate D2E/DX2                !
 ! D34   D(2,3,20,43)           32.3582         estimate D2E/DX2                !
 ! D35   D(4,3,20,17)           25.0563         estimate D2E/DX2                !
 ! D36   D(4,3,20,42)          145.653          estimate D2E/DX2                !
 ! D37   D(4,3,20,43)          -95.674          estimate D2E/DX2                !
 ! D38   D(31,3,20,17)         -90.1994         estimate D2E/DX2                !
 ! D39   D(31,3,20,42)          30.3973         estimate D2E/DX2                !
 ! D40   D(31,3,20,43)         149.0704         estimate D2E/DX2                !
 ! D41   D(3,4,5,6)             29.2293         estimate D2E/DX2                !
 ! D42   D(3,4,5,10)           -96.6522         estimate D2E/DX2                !
 ! D43   D(3,4,5,22)           147.1992         estimate D2E/DX2                !
 ! D44   D(7,4,5,6)            152.1934         estimate D2E/DX2                !
 ! D45   D(7,4,5,10)            26.3118         estimate D2E/DX2                !
 ! D46   D(7,4,5,22)           -89.8367         estimate D2E/DX2                !
 ! D47   D(24,4,5,6)           -91.4859         estimate D2E/DX2                !
 ! D48   D(24,4,5,10)          142.6326         estimate D2E/DX2                !
 ! D49   D(24,4,5,22)           26.4841         estimate D2E/DX2                !
 ! D50   D(3,4,7,8)             89.0929         estimate D2E/DX2                !
 ! D51   D(3,4,7,17)           -20.595          estimate D2E/DX2                !
 ! D52   D(3,4,7,21)          -145.3113         estimate D2E/DX2                !
 ! D53   D(5,4,7,8)            -41.1329         estimate D2E/DX2                !
 ! D54   D(5,4,7,17)          -150.8208         estimate D2E/DX2                !
 ! D55   D(5,4,7,21)            84.4629         estimate D2E/DX2                !
 ! D56   D(24,4,7,8)          -157.4644         estimate D2E/DX2                !
 ! D57   D(24,4,7,17)           92.8477         estimate D2E/DX2                !
 ! D58   D(24,4,7,21)          -31.8686         estimate D2E/DX2                !
 ! D59   D(3,4,24,23)         -134.0457         estimate D2E/DX2                !
 ! D60   D(5,4,24,23)           -6.4009         estimate D2E/DX2                !
 ! D61   D(7,4,24,23)          114.1656         estimate D2E/DX2                !
 ! D62   D(4,5,6,1)            -41.7174         estimate D2E/DX2                !
 ! D63   D(4,5,6,34)            79.7513         estimate D2E/DX2                !
 ! D64   D(4,5,6,35)          -163.4619         estimate D2E/DX2                !
 ! D65   D(10,5,6,1)            88.0226         estimate D2E/DX2                !
 ! D66   D(10,5,6,34)         -150.5087         estimate D2E/DX2                !
 ! D67   D(10,5,6,35)          -33.7219         estimate D2E/DX2                !
 ! D68   D(22,5,6,1)          -154.6839         estimate D2E/DX2                !
 ! D69   D(22,5,6,34)          -33.2152         estimate D2E/DX2                !
 ! D70   D(22,5,6,35)           83.5716         estimate D2E/DX2                !
 ! D71   D(4,5,10,9)             2.536          estimate D2E/DX2                !
 ! D72   D(4,5,10,16)         -176.6669         estimate D2E/DX2                !
 ! D73   D(6,5,10,9)          -125.6865         estimate D2E/DX2                !
 ! D74   D(6,5,10,16)           55.1106         estimate D2E/DX2                !
 ! D75   D(22,5,10,9)          115.3775         estimate D2E/DX2                !
 ! D76   D(22,5,10,16)         -63.8254         estimate D2E/DX2                !
 ! D77   D(4,5,22,23)          -35.8294         estimate D2E/DX2                !
 ! D78   D(4,5,22,45)         -157.3651         estimate D2E/DX2                !
 ! D79   D(4,5,22,46)           82.998          estimate D2E/DX2                !
 ! D80   D(6,5,22,23)           84.2693         estimate D2E/DX2                !
 ! D81   D(6,5,22,45)          -37.2664         estimate D2E/DX2                !
 ! D82   D(6,5,22,46)         -156.9032         estimate D2E/DX2                !
 ! D83   D(10,5,22,23)        -157.8783         estimate D2E/DX2                !
 ! D84   D(10,5,22,45)          80.586          estimate D2E/DX2                !
 ! D85   D(10,5,22,46)         -39.0509         estimate D2E/DX2                !
 ! D86   D(4,7,8,9)             27.7654         estimate D2E/DX2                !
 ! D87   D(4,7,8,19)          -143.735          estimate D2E/DX2                !
 ! D88   D(17,7,8,9)           142.2386         estimate D2E/DX2                !
 ! D89   D(17,7,8,19)          -29.2618         estimate D2E/DX2                !
 ! D90   D(21,7,8,9)           -99.483          estimate D2E/DX2                !
 ! D91   D(21,7,8,19)           89.0166         estimate D2E/DX2                !
 ! D92   D(4,7,17,18)          155.0842         estimate D2E/DX2                !
 ! D93   D(4,7,17,20)           35.6788         estimate D2E/DX2                !
 ! D94   D(4,7,17,30)          -83.5488         estimate D2E/DX2                !
 ! D95   D(8,7,17,18)           34.7174         estimate D2E/DX2                !
 ! D96   D(8,7,17,20)          -84.688          estimate D2E/DX2                !
 ! D97   D(8,7,17,30)          156.0844         estimate D2E/DX2                !
 ! D98   D(21,7,17,18)         -80.601          estimate D2E/DX2                !
 ! D99   D(21,7,17,20)         159.9936         estimate D2E/DX2                !
 ! D100  D(21,7,17,30)          40.766          estimate D2E/DX2                !
 ! D101  D(4,7,21,44)           40.5372         estimate D2E/DX2                !
 ! D102  D(8,7,21,44)          169.4938         estimate D2E/DX2                !
 ! D103  D(17,7,21,44)         -81.1268         estimate D2E/DX2                !
 ! D104  D(7,8,9,10)             3.0814         estimate D2E/DX2                !
 ! D105  D(7,8,9,11)          -175.7416         estimate D2E/DX2                !
 ! D106  D(19,8,9,10)          173.7046         estimate D2E/DX2                !
 ! D107  D(19,8,9,11)           -5.1184         estimate D2E/DX2                !
 ! D108  D(7,8,19,18)           10.0068         estimate D2E/DX2                !
 ! D109  D(9,8,19,18)         -161.4984         estimate D2E/DX2                !
 ! D110  D(8,9,10,5)           -18.8116         estimate D2E/DX2                !
 ! D111  D(8,9,10,16)          160.4059         estimate D2E/DX2                !
 ! D112  D(11,9,10,5)          159.9919         estimate D2E/DX2                !
 ! D113  D(11,9,10,16)         -20.7906         estimate D2E/DX2                !
 ! D114  D(8,9,11,12)           76.2626         estimate D2E/DX2                !
 ! D115  D(8,9,11,13)         -103.616          estimate D2E/DX2                !
 ! D116  D(10,9,11,12)        -102.5357         estimate D2E/DX2                !
 ! D117  D(10,9,11,13)          77.5856         estimate D2E/DX2                !
 ! D118  D(9,11,13,14)          83.0723         estimate D2E/DX2                !
 ! D119  D(9,11,13,15)        -150.534          estimate D2E/DX2                !
 ! D120  D(9,11,13,36)         -34.3539         estimate D2E/DX2                !
 ! D121  D(12,11,13,14)        -96.8012         estimate D2E/DX2                !
 ! D122  D(12,11,13,15)         29.5925         estimate D2E/DX2                !
 ! D123  D(12,11,13,36)        145.7726         estimate D2E/DX2                !
 ! D124  D(11,13,14,37)       -172.5835         estimate D2E/DX2                !
 ! D125  D(11,13,14,38)        -56.7624         estimate D2E/DX2                !
 ! D126  D(11,13,14,62)         65.5571         estimate D2E/DX2                !
 ! D127  D(15,13,14,37)         62.307          estimate D2E/DX2                !
 ! D128  D(15,13,14,38)        178.1281         estimate D2E/DX2                !
 ! D129  D(15,13,14,62)        -59.5524         estimate D2E/DX2                !
 ! D130  D(36,13,14,37)        -55.0764         estimate D2E/DX2                !
 ! D131  D(36,13,14,38)         60.7448         estimate D2E/DX2                !
 ! D132  D(36,13,14,62)       -176.9358         estimate D2E/DX2                !
 ! D133  D(11,13,15,39)        179.4546         estimate D2E/DX2                !
 ! D134  D(11,13,15,40)         59.9225         estimate D2E/DX2                !
 ! D135  D(11,13,15,41)        -59.3606         estimate D2E/DX2                !
 ! D136  D(14,13,15,39)        -55.0973         estimate D2E/DX2                !
 ! D137  D(14,13,15,40)       -174.6295         estimate D2E/DX2                !
 ! D138  D(14,13,15,41)         66.0875         estimate D2E/DX2                !
 ! D139  D(36,13,15,39)         62.7268         estimate D2E/DX2                !
 ! D140  D(36,13,15,40)        -56.8053         estimate D2E/DX2                !
 ! D141  D(36,13,15,41)       -176.0884         estimate D2E/DX2                !
 ! D142  D(13,14,62,63)         63.3447         estimate D2E/DX2                !
 ! D143  D(13,14,62,64)        -58.2843         estimate D2E/DX2                !
 ! D144  D(13,14,62,65)       -177.6383         estimate D2E/DX2                !
 ! D145  D(37,14,62,63)        -58.7772         estimate D2E/DX2                !
 ! D146  D(37,14,62,64)        179.5939         estimate D2E/DX2                !
 ! D147  D(37,14,62,65)         60.2398         estimate D2E/DX2                !
 ! D148  D(38,14,62,63)       -173.704          estimate D2E/DX2                !
 ! D149  D(38,14,62,64)         64.667          estimate D2E/DX2                !
 ! D150  D(38,14,62,65)        -54.6871         estimate D2E/DX2                !
 ! D151  D(7,17,18,19)         -31.4573         estimate D2E/DX2                !
 ! D152  D(7,17,18,28)          86.2978         estimate D2E/DX2                !
 ! D153  D(7,17,18,29)        -150.1487         estimate D2E/DX2                !
 ! D154  D(20,17,18,19)         78.3082         estimate D2E/DX2                !
 ! D155  D(20,17,18,28)       -163.9367         estimate D2E/DX2                !
 ! D156  D(20,17,18,29)        -40.3832         estimate D2E/DX2                !
 ! D157  D(30,17,18,19)       -153.5271         estimate D2E/DX2                !
 ! D158  D(30,17,18,28)        -35.772          estimate D2E/DX2                !
 ! D159  D(30,17,18,29)         87.7815         estimate D2E/DX2                !
 ! D160  D(7,17,20,3)          -37.1855         estimate D2E/DX2                !
 ! D161  D(7,17,20,42)        -158.2664         estimate D2E/DX2                !
 ! D162  D(7,17,20,43)          82.393          estimate D2E/DX2                !
 ! D163  D(18,17,20,3)        -147.3752         estimate D2E/DX2                !
 ! D164  D(18,17,20,42)         91.5439         estimate D2E/DX2                !
 ! D165  D(18,17,20,43)        -27.7967         estimate D2E/DX2                !
 ! D166  D(30,17,20,3)          83.7573         estimate D2E/DX2                !
 ! D167  D(30,17,20,42)        -37.3236         estimate D2E/DX2                !
 ! D168  D(30,17,20,43)       -156.6642         estimate D2E/DX2                !
 ! D169  D(17,18,19,8)          13.7437         estimate D2E/DX2                !
 ! D170  D(28,18,19,8)        -107.1416         estimate D2E/DX2                !
 ! D171  D(29,18,19,8)         135.8916         estimate D2E/DX2                !
 ! D172  D(17,18,28,53)        -61.8167         estimate D2E/DX2                !
 ! D173  D(17,18,28,54)       -179.3091         estimate D2E/DX2                !
 ! D174  D(17,18,28,55)         60.3143         estimate D2E/DX2                !
 ! D175  D(19,18,28,53)         54.6463         estimate D2E/DX2                !
 ! D176  D(19,18,28,54)        -62.846          estimate D2E/DX2                !
 ! D177  D(19,18,28,55)        176.7774         estimate D2E/DX2                !
 ! D178  D(29,18,28,53)        171.6831         estimate D2E/DX2                !
 ! D179  D(29,18,28,54)         54.1907         estimate D2E/DX2                !
 ! D180  D(29,18,28,55)        -66.1859         estimate D2E/DX2                !
 ! D181  D(17,18,29,56)        -57.3311         estimate D2E/DX2                !
 ! D182  D(17,18,29,57)       -177.8599         estimate D2E/DX2                !
 ! D183  D(17,18,29,58)         64.9705         estimate D2E/DX2                !
 ! D184  D(19,18,29,56)       -174.5556         estimate D2E/DX2                !
 ! D185  D(19,18,29,57)         64.9156         estimate D2E/DX2                !
 ! D186  D(19,18,29,58)        -52.254          estimate D2E/DX2                !
 ! D187  D(28,18,29,56)         68.6383         estimate D2E/DX2                !
 ! D188  D(28,18,29,57)        -51.8904         estimate D2E/DX2                !
 ! D189  D(28,18,29,58)       -169.0601         estimate D2E/DX2                !
 ! D190  D(5,22,23,24)          33.2268         estimate D2E/DX2                !
 ! D191  D(5,22,23,25)         154.9772         estimate D2E/DX2                !
 ! D192  D(5,22,23,47)         -81.2161         estimate D2E/DX2                !
 ! D193  D(45,22,23,24)        155.8077         estimate D2E/DX2                !
 ! D194  D(45,22,23,25)        -82.4419         estimate D2E/DX2                !
 ! D195  D(45,22,23,47)         41.3648         estimate D2E/DX2                !
 ! D196  D(46,22,23,24)        -84.224          estimate D2E/DX2                !
 ! D197  D(46,22,23,25)         37.5264         estimate D2E/DX2                !
 ! D198  D(46,22,23,47)        161.3331         estimate D2E/DX2                !
 ! D199  D(22,23,24,4)         -16.8123         estimate D2E/DX2                !
 ! D200  D(25,23,24,4)        -144.7129         estimate D2E/DX2                !
 ! D201  D(47,23,24,4)          99.478          estimate D2E/DX2                !
 ! D202  D(22,23,25,26)       -175.4501         estimate D2E/DX2                !
 ! D203  D(22,23,25,27)          6.3143         estimate D2E/DX2                !
 ! D204  D(24,23,25,26)        -55.2769         estimate D2E/DX2                !
 ! D205  D(24,23,25,27)        126.4875         estimate D2E/DX2                !
 ! D206  D(47,23,25,26)         59.8992         estimate D2E/DX2                !
 ! D207  D(47,23,25,27)       -118.3364         estimate D2E/DX2                !
 ! D208  D(23,25,26,48)        -55.2547         estimate D2E/DX2                !
 ! D209  D(23,25,26,49)         64.9347         estimate D2E/DX2                !
 ! D210  D(23,25,26,50)       -175.0278         estimate D2E/DX2                !
 ! D211  D(27,25,26,48)        123.078          estimate D2E/DX2                !
 ! D212  D(27,25,26,49)       -116.7326         estimate D2E/DX2                !
 ! D213  D(27,25,26,50)          3.3049         estimate D2E/DX2                !
 ! D214  D(23,25,27,51)         -0.353          estimate D2E/DX2                !
 ! D215  D(23,25,27,52)        179.2661         estimate D2E/DX2                !
 ! D216  D(26,25,27,51)       -178.509          estimate D2E/DX2                !
 ! D217  D(26,25,27,52)          1.1101         estimate D2E/DX2                !
 --------------------------------------------------------------------------------
 Trust Radius=3.00D-01 FncErr=1.00D-07 GrdErr=1.00D-06
 Number of steps in this run=    390 maximum allowed number of steps=    390.
 GradGradGradGradGradGradGradGradGradGradGradGradGradGradGradGradGradGrad

 Stoichiometry    C26H34O5
 Framework group  C1[X(C26H34O5)]
 Deg. of freedom   189
 Full point group                 C1      NOp   1
 Largest Abelian subgroup         C1      NOp   1
 Largest concise Abelian subgroup C1      NOp   1
                         Standard orientation:                         
 ---------------------------------------------------------------------
 Center     Atomic      Atomic             Coordinates (Angstroms)
 Number     Number       Type             X           Y           Z
 ---------------------------------------------------------------------
      1          6           0       -1.488555   -0.126188    3.220335
      2          6           0       -1.431265    1.138313    2.775761
      3          6           0       -1.586417    1.472551    1.310672
      4          6           0       -1.496560    0.272900    0.323961
      5          6           0       -1.203898   -1.124219    0.895724
      6          6           0       -1.722508   -1.308038    2.336378
      7          6           0       -0.470184    0.711481   -0.738863
      8          6           0        0.947766    0.378287   -0.429231
      9          6           0        1.308673   -0.658829    0.332430
     10          6           0        0.266201   -1.570774    0.848903
     11          6           0        2.737817   -0.859726    0.665518
     12          8           0        3.264837   -0.147714    1.520437
     13          6           0        3.486696   -1.956861   -0.087722
     14          6           0        3.981910   -1.456371   -1.453920
     15          6           0        4.606229   -2.535000    0.776229
     16          8           0        0.594788   -2.697847    1.226509
     17          6           0       -0.383735    2.221235   -0.691234
     18          6           0        1.028934    2.496010   -1.250691
     19          8           0        1.838114    1.359135   -0.854729
     20          6           0       -0.555600    2.501679    0.810950
     21          8           0       -0.789254    0.217529   -2.028911
     22          6           0       -1.988474   -2.023003   -0.063719
     23          6           0       -3.225292   -1.193035   -0.381018
     24          8           0       -2.784649    0.177470   -0.360914
     25          6           0       -3.947788   -1.447939   -1.684395
     26          6           0       -5.096119   -0.513603   -1.971364
     27          6           0       -3.658260   -2.438510   -2.545593
     28          6           0        1.052762    2.583392   -2.784969
     29          6           0        1.675450    3.766632   -0.688463
     30          1           0       -1.166570    2.719810   -1.274277
     31          1           0       -2.578234    1.936073    1.202428
     32          6           0       -1.300099    2.287812    3.739745
     33          1           0       -1.421024   -0.330775    4.287565
     34          1           0       -2.798981   -1.516537    2.355735
     35          1           0       -1.250980   -2.180524    2.805904
     36          1           0        2.778131   -2.774033   -0.273821
     37          1           0        4.394039   -2.304432   -2.014691
     38          1           0        3.131726   -1.085387   -2.038880
     39          1           0        5.139461   -3.328738    0.243140
     40          1           0        4.194758   -2.964187    1.696654
     41          1           0        5.333532   -1.773021    1.074522
     42          1           0       -0.896813    3.529432    0.979701
     43          1           0        0.388116    2.382133    1.356929
     44          1           0       -1.760129    0.305640   -2.116462
     45          1           0       -2.245892   -2.999889    0.361058
     46          1           0       -1.388928   -2.211556   -0.963045
     47          1           0       -3.954822   -1.301548    0.430962
     48          1           0       -5.812305   -0.526809   -1.143092
     49          1           0       -4.735094    0.511140   -2.105140
     50          1           0       -5.639426   -0.792820   -2.880519
     51          1           0       -2.858980   -3.151467   -2.375254
     52          1           0       -4.226620   -2.572836   -3.462008
     53          1           0        0.740937    1.650919   -3.262679
     54          1           0        2.072378    2.766718   -3.144285
     55          1           0        0.410243    3.392602   -3.146888
     56          1           0        1.053257    4.647549   -0.876396
     57          1           0        2.658123    3.935526   -1.144888
     58          1           0        1.866559    3.690259    0.386381
     59          1           0       -1.348384    1.957487    4.782958
     60          1           0       -0.345045    2.803954    3.602934
     61          1           0       -2.112068    3.005924    3.585450
     62          6           0        5.038194   -0.360460   -1.394359
     63          1           0        5.956590   -0.713532   -0.916545
     64          1           0        4.678546    0.517531   -0.850334
     65          1           0        5.297944   -0.039624   -2.408645
 ---------------------------------------------------------------------
 Rotational constants (GHZ):      0.2030194      0.1259061      0.1214128
 Standard basis: 6-31G(d) (6D, 7F)
 There are   533 symmetry adapted basis functions of A   symmetry.
 Integral buffers will be    131072 words long.
 Raffenetti 2 integral format.
 Two-electron integral symmetry is turned on.
   533 basis functions,  1004 primitive gaussians,   533 cartesian basis functions
   115 alpha electrons      115 beta electrons
       nuclear repulsion energy      3532.6177165769 Hartrees.
 NAtoms=   65 NActive=   65 NUniq=   65 SFac= 1.00D+00 NAtFMM=   50 NAOKFM=T Big=T
 One-electron integrals computed using PRISM.
 NBasis=   533 RedAO= T  NBF=   533
 NBsUse=   533 1.00D-06 NBFU=   533
 Harris functional with IExCor=  402 diagonalized for initial guess.
 ExpMin= 1.61D-01 ExpMax= 5.48D+03 ExpMxC= 8.25D+02 IAcc=1 IRadAn=         1 AccDes= 0.00D+00
 HarFok:  IExCor=  402 AccDes= 0.00D+00 IRadAn=         1 IDoV= 1
 ScaDFX=  1.000000  1.000000  1.000000  1.000000
 FoFCou: FMM=F IPFlag=           0 FMFlag=      100000 FMFlg1=        2001
         NFxFlg=           0 DoJE=T BraDBF=F KetDBF=T FulRan=T
         Omega=  0.000000  0.000000  1.000000  0.000000  0.000000 ICntrl=     500 IOpCl=  0
         NMat0=    1 NMatS0=    1 NMatT0=    0 NMatD0=    1 NMtDS0=    0 NMtDT0=    0
         I1Cent=           4 NGrid=           0.
 Petite list used in FoFCou.
 Initial guess orbital symmetries:
       Occupied  (A) (A) (A) (A) (A) (A) (A) (A) (A) (A) (A) (A)
                 (A) (A) (A) (A) (A) (A) (A) (A) (A) (A) (A) (A)
                 (A) (A) (A) (A) (A) (A) (A) (A) (A) (A) (A) (A)
                 (A) (A) (A) (A) (A) (A) (A) (A) (A) (A) (A) (A)
                 (A) (A) (A) (A) (A) (A) (A) (A) (A) (A) (A) (A)
                 (A) (A) (A) (A) (A) (A) (A) (A) (A) (A) (A) (A)
                 (A) (A) (A) (A) (A) (A) (A) (A) (A) (A) (A) (A)
                 (A) (A) (A) (A) (A) (A) (A) (A) (A) (A) (A) (A)
                 (A) (A) (A) (A) (A) (A) (A) (A) (A) (A) (A) (A)
                 (A) (A) (A) (A) (A) (A) (A)
       Virtual   (A) (A) (A) (A) (A) (A) (A) (A) (A) (A) (A) (A)
                 (A) (A) (A) (A) (A) (A) (A) (A) (A) (A) (A) (A)
                 (A) (A) (A) (A) (A) (A) (A) (A) (A) (A) (A) (A)
                 (A) (A) (A) (A) (A) (A) (A) (A) (A) (A) (A) (A)
                 (A) (A) (A) (A) (A) (A) (A) (A) (A) (A) (A) (A)
                 (A) (A) (A) (A) (A) (A) (A) (A) (A) (A) (A) (A)
                 (A) (A) (A) (A) (A) (A) (A) (A) (A) (A) (A) (A)
                 (A) (A) (A) (A) (A) (A) (A) (A) (A) (A) (A) (A)
                 (A) (A) (A) (A) (A) (A) (A) (A) (A) (A) (A) (A)
                 (A) (A) (A) (A) (A) (A) (A) (A) (A) (A) (A) (A)
                 (A) (A) (A) (A) (A) (A) (A) (A) (A) (A) (A) (A)
                 (A) (A) (A) (A) (A) (A) (A) (A) (A) (A) (A) (A)
                 (A) (A) (A) (A) (A) (A) (A) (A) (A) (A) (A) (A)
                 (A) (A) (A) (A) (A) (A) (A) (A) (A) (A) (A) (A)
                 (A) (A) (A) (A) (A) (A) (A) (A) (A) (A) (A) (A)
                 (A) (A) (A) (A) (A) (A) (A) (A) (A) (A) (A) (A)
                 (A) (A) (A) (A) (A) (A) (A) (A) (A) (A) (A) (A)
                 (A) (A) (A) (A) (A) (A) (A) (A) (A) (A) (A) (A)
                 (A) (A) (A) (A) (A) (A) (A) (A) (A) (A) (A) (A)
                 (A) (A) (A) (A) (A) (A) (A) (A) (A) (A) (A) (A)
                 (A) (A) (A) (A) (A) (A) (A) (A) (A) (A) (A) (A)
                 (A) (A) (A) (A) (A) (A) (A) (A) (A) (A) (A) (A)
                 (A) (A) (A) (A) (A) (A) (A) (A) (A) (A) (A) (A)
                 (A) (A) (A) (A) (A) (A) (A) (A) (A) (A) (A) (A)
                 (A) (A) (A) (A) (A) (A) (A) (A) (A) (A) (A) (A)
                 (A) (A) (A) (A) (A) (A) (A) (A) (A) (A) (A) (A)
                 (A) (A) (A) (A) (A) (A) (A) (A) (A) (A) (A) (A)
                 (A) (A) (A) (A) (A) (A) (A) (A) (A) (A) (A) (A)
                 (A) (A) (A) (A) (A) (A) (A) (A) (A) (A) (A) (A)
                 (A) (A) (A) (A) (A) (A) (A) (A) (A) (A) (A) (A)
                 (A) (A) (A) (A) (A) (A) (A) (A) (A) (A) (A) (A)
                 (A) (A) (A) (A) (A) (A) (A) (A) (A) (A) (A) (A)
                 (A) (A) (A) (A) (A) (A) (A) (A) (A) (A) (A) (A)
                 (A) (A) (A) (A) (A) (A) (A) (A) (A) (A) (A) (A)
                 (A) (A) (A) (A) (A) (A) (A) (A) (A) (A)
 The electronic state of the initial guess is 1-A.
 Requested convergence on RMS density matrix=1.00D-08 within 128 cycles.
 Requested convergence on MAX density matrix=1.00D-06.
 Requested convergence on             energy=1.00D-06.
 No special actions if energy rises.
 Integral accuracy reduced to 1.0D-05 until final iterations.
 Initial convergence to 1.0D-05 achieved.  Increase integral accuracy.
 SCF Done:  E(RB3LYP) =  -1387.30384721     A.U. after   16 cycles
             Convg  =    0.4419D-08             -V/T =  2.0091

 **********************************************************************

            Population analysis using the SCF density.

 **********************************************************************

 Orbital symmetries:
       Occupied  (A) (A) (A) (A) (A) (A) (A) (A) (A) (A) (A) (A)
                 (A) (A) (A) (A) (A) (A) (A) (A) (A) (A) (A) (A)
                 (A) (A) (A) (A) (A) (A) (A) (A) (A) (A) (A) (A)
                 (A) (A) (A) (A) (A) (A) (A) (A) (A) (A) (A) (A)
                 (A) (A) (A) (A) (A) (A) (A) (A) (A) (A) (A) (A)
                 (A) (A) (A) (A) (A) (A) (A) (A) (A) (A) (A) (A)
                 (A) (A) (A) (A) (A) (A) (A) (A) (A) (A) (A) (A)
                 (A) (A) (A) (A) (A) (A) (A) (A) (A) (A) (A) (A)
                 (A) (A) (A) (A) (A) (A) (A) (A) (A) (A) (A) (A)
                 (A) (A) (A) (A) (A) (A) (A)
       Virtual   (A) (A) (A) (A) (A) (A) (A) (A) (A) (A) (A) (A)
                 (A) (A) (A) (A) (A) (A) (A) (A) (A) (A) (A) (A)
                 (A) (A) (A) (A) (A) (A) (A) (A) (A) (A) (A) (A)
                 (A) (A) (A) (A) (A) (A) (A) (A) (A) (A) (A) (A)
                 (A) (A) (A) (A) (A) (A) (A) (A) (A) (A) (A) (A)
                 (A) (A) (A) (A) (A) (A) (A) (A) (A) (A) (A) (A)
                 (A) (A) (A) (A) (A) (A) (A) (A) (A) (A) (A) (A)
                 (A) (A) (A) (A) (A) (A) (A) (A) (A) (A) (A) (A)
                 (A) (A) (A) (A) (A) (A) (A) (A) (A) (A) (A) (A)
                 (A) (A) (A) (A) (A) (A) (A) (A) (A) (A) (A) (A)
                 (A) (A) (A) (A) (A) (A) (A) (A) (A) (A) (A) (A)
                 (A) (A) (A) (A) (A) (A) (A) (A) (A) (A) (A) (A)
                 (A) (A) (A) (A) (A) (A) (A) (A) (A) (A) (A) (A)
                 (A) (A) (A) (A) (A) (A) (A) (A) (A) (A) (A) (A)
                 (A) (A) (A) (A) (A) (A) (A) (A) (A) (A) (A) (A)
                 (A) (A) (A) (A) (A) (A) (A) (A) (A) (A) (A) (A)
                 (A) (A) (A) (A) (A) (A) (A) (A) (A) (A) (A) (A)
                 (A) (A) (A) (A) (A) (A) (A) (A) (A) (A) (A) (A)
                 (A) (A) (A) (A) (A) (A) (A) (A) (A) (A) (A) (A)
                 (A) (A) (A) (A) (A) (A) (A) (A) (A) (A) (A) (A)
                 (A) (A) (A) (A) (A) (A) (A) (A) (A) (A) (A) (A)
                 (A) (A) (A) (A) (A) (A) (A) (A) (A) (A) (A) (A)
                 (A) (A) (A) (A) (A) (A) (A) (A) (A) (A) (A) (A)
                 (A) (A) (A) (A) (A) (A) (A) (A) (A) (A) (A) (A)
                 (A) (A) (A) (A) (A) (A) (A) (A) (A) (A) (A) (A)
                 (A) (A) (A) (A) (A) (A) (A) (A) (A) (A) (A) (A)
                 (A) (A) (A) (A) (A) (A) (A) (A) (A) (A) (A) (A)
                 (A) (A) (A) (A) (A) (A) (A) (A) (A) (A) (A) (A)
                 (A) (A) (A) (A) (A) (A) (A) (A) (A) (A) (A) (A)
                 (A) (A) (A) (A) (A) (A) (A) (A) (A) (A) (A) (A)
                 (A) (A) (A) (A) (A) (A) (A) (A) (A) (A) (A) (A)
                 (A) (A) (A) (A) (A) (A) (A) (A) (A) (A) (A) (A)
                 (A) (A) (A) (A) (A) (A) (A) (A) (A) (A) (A) (A)
                 (A) (A) (A) (A) (A) (A) (A) (A) (A) (A) (A) (A)
                 (A) (A) (A) (A) (A) (A) (A) (A) (A) (A)
 The electronic state is 1-A.
 Alpha  occ. eigenvalues --  -19.19405 -19.16744 -19.15322 -19.13516 -19.13262
 Alpha  occ. eigenvalues --  -10.28017 -10.26844 -10.26829 -10.25950 -10.25890
 Alpha  occ. eigenvalues --  -10.25426 -10.25030 -10.21641 -10.20656 -10.20194
 Alpha  occ. eigenvalues --  -10.20041 -10.19500 -10.19472 -10.19347 -10.19236
 Alpha  occ. eigenvalues --  -10.19121 -10.18771 -10.18695 -10.18400 -10.18287
 Alpha  occ. eigenvalues --  -10.18168 -10.17986 -10.17727 -10.17585 -10.15999
 Alpha  occ. eigenvalues --  -10.15989  -1.08341  -1.05961  -1.03350  -1.02312
 Alpha  occ. eigenvalues --   -1.02229  -0.87363  -0.83909  -0.82594  -0.81683
 Alpha  occ. eigenvalues --   -0.80395  -0.79818  -0.76872  -0.74396  -0.73624
 Alpha  occ. eigenvalues --   -0.72046  -0.71440  -0.69423  -0.69189  -0.67863
 Alpha  occ. eigenvalues --   -0.65611  -0.64388  -0.63409  -0.61990  -0.60803
 Alpha  occ. eigenvalues --   -0.59428  -0.58807  -0.57312  -0.54865  -0.53566
 Alpha  occ. eigenvalues --   -0.52965  -0.52141  -0.50909  -0.50393  -0.49155
 Alpha  occ. eigenvalues --   -0.48098  -0.47567  -0.46616  -0.46146  -0.45829
 Alpha  occ. eigenvalues --   -0.45074  -0.44784  -0.44651  -0.43938  -0.43332
 Alpha  occ. eigenvalues --   -0.43018  -0.42695  -0.42031  -0.41781  -0.41478
 Alpha  occ. eigenvalues --   -0.41218  -0.40879  -0.40273  -0.39712  -0.39171
 Alpha  occ. eigenvalues --   -0.38873  -0.38404  -0.38243  -0.37984  -0.37641
 Alpha  occ. eigenvalues --   -0.37216  -0.37044  -0.36970  -0.36762  -0.36681
 Alpha  occ. eigenvalues --   -0.36448  -0.35906  -0.34977  -0.34577  -0.33949
 Alpha  occ. eigenvalues --   -0.33716  -0.33450  -0.33212  -0.32432  -0.32189
 Alpha  occ. eigenvalues --   -0.31454  -0.31344  -0.31177  -0.27878  -0.26554
 Alpha  occ. eigenvalues --   -0.26075  -0.25244  -0.24484  -0.23359  -0.23248
 Alpha virt. eigenvalues --   -0.05149  -0.01601   0.00380   0.02269   0.03818
 Alpha virt. eigenvalues --    0.06975   0.08623   0.08908   0.09273   0.10208
 Alpha virt. eigenvalues --    0.10571   0.10867   0.11482   0.12065   0.12547
 Alpha virt. eigenvalues --    0.12974   0.13278   0.13583   0.13895   0.14222
 Alpha virt. eigenvalues --    0.14407   0.14831   0.15044   0.15245   0.15771
 Alpha virt. eigenvalues --    0.16243   0.16833   0.16907   0.17329   0.17586
 Alpha virt. eigenvalues --    0.17677   0.18131   0.18522   0.18947   0.19257
 Alpha virt. eigenvalues --    0.19414   0.19677   0.20077   0.20154   0.20311
 Alpha virt. eigenvalues --    0.20751   0.21356   0.21721   0.22006   0.22268
 Alpha virt. eigenvalues --    0.22994   0.23417   0.23685   0.23926   0.24391
 Alpha virt. eigenvalues --    0.24772   0.25330   0.25697   0.26148   0.26602
 Alpha virt. eigenvalues --    0.27183   0.27723   0.28531   0.29099   0.29855
 Alpha virt. eigenvalues --    0.31364   0.32226   0.32431   0.33423   0.34496
 Alpha virt. eigenvalues --    0.34770   0.36289   0.37684   0.38886   0.39603
 Alpha virt. eigenvalues --    0.42178   0.45420   0.46845   0.47729   0.48295
 Alpha virt. eigenvalues --    0.49746   0.50426   0.50876   0.51775   0.52049
 Alpha virt. eigenvalues --    0.52280   0.52646   0.52969   0.53347   0.54281
 Alpha virt. eigenvalues --    0.54401   0.54664   0.55316   0.55947   0.56941
 Alpha virt. eigenvalues --    0.57430   0.57697   0.57923   0.58662   0.59194
 Alpha virt. eigenvalues --    0.59478   0.60380   0.60666   0.61185   0.61796
 Alpha virt. eigenvalues --    0.62766   0.62846   0.62904   0.63648   0.64347
 Alpha virt. eigenvalues --    0.64960   0.65841   0.66371   0.66891   0.67158
 Alpha virt. eigenvalues --    0.68392   0.68538   0.69115   0.69369   0.69560
 Alpha virt. eigenvalues --    0.70350   0.71169   0.71882   0.72739   0.73362
 Alpha virt. eigenvalues --    0.73927   0.74589   0.75107   0.75448   0.76144
 Alpha virt. eigenvalues --    0.76726   0.77586   0.78521   0.80181   0.80471
 Alpha virt. eigenvalues --    0.80663   0.80981   0.81733   0.82350   0.82527
 Alpha virt. eigenvalues --    0.82926   0.83257   0.83658   0.84227   0.84864
 Alpha virt. eigenvalues --    0.85834   0.86113   0.86704   0.86808   0.87324
 Alpha virt. eigenvalues --    0.87610   0.87964   0.88430   0.88827   0.88968
 Alpha virt. eigenvalues --    0.89279   0.89814   0.90113   0.90574   0.90777
 Alpha virt. eigenvalues --    0.90956   0.90982   0.91274   0.91687   0.92413
 Alpha virt. eigenvalues --    0.92854   0.93401   0.93748   0.93976   0.94242
 Alpha virt. eigenvalues --    0.95197   0.95522   0.96439   0.96758   0.96971
 Alpha virt. eigenvalues --    0.97523   0.97862   0.98194   0.99194   0.99426
 Alpha virt. eigenvalues --    1.01138   1.01879   1.02296   1.02639   1.03250
 Alpha virt. eigenvalues --    1.04516   1.04997   1.05554   1.06382   1.06668
 Alpha virt. eigenvalues --    1.08613   1.08886   1.10382   1.11020   1.11969
 Alpha virt. eigenvalues --    1.12901   1.13306   1.13727   1.15737   1.16245
 Alpha virt. eigenvalues --    1.17286   1.18047   1.18496   1.19491   1.20805
 Alpha virt. eigenvalues --    1.21709   1.22687   1.24334   1.25463   1.26027
 Alpha virt. eigenvalues --    1.26241   1.28484   1.30569   1.31009   1.33096
 Alpha virt. eigenvalues --    1.35684   1.36170   1.36466   1.38529   1.39112
 Alpha virt. eigenvalues --    1.40449   1.42038   1.43453   1.44197   1.44710
 Alpha virt. eigenvalues --    1.47565   1.48785   1.50419   1.51959   1.53099
 Alpha virt. eigenvalues --    1.54485   1.55139   1.56678   1.58505   1.58714
 Alpha virt. eigenvalues --    1.60215   1.60945   1.62527   1.62726   1.63169
 Alpha virt. eigenvalues --    1.65154   1.65831   1.66485   1.67271   1.68891
 Alpha virt. eigenvalues --    1.71224   1.72022   1.73129   1.73684   1.74192
 Alpha virt. eigenvalues --    1.75272   1.75339   1.77007   1.78076   1.78833
 Alpha virt. eigenvalues --    1.79818   1.80457   1.80853   1.81225   1.82511
 Alpha virt. eigenvalues --    1.82856   1.83141   1.83855   1.84413   1.85609
 Alpha virt. eigenvalues --    1.86208   1.86609   1.87014   1.87739   1.88307
 Alpha virt. eigenvalues --    1.88991   1.89497   1.90231   1.91371   1.91762
 Alpha virt. eigenvalues --    1.92104   1.92763   1.93471   1.94811   1.95200
 Alpha virt. eigenvalues --    1.95909   1.96480   1.97363   1.98036   1.99280
 Alpha virt. eigenvalues --    1.99838   2.00142   2.00869   2.01345   2.02906
 Alpha virt. eigenvalues --    2.03325   2.04471   2.04889   2.05544   2.06749
 Alpha virt. eigenvalues --    2.07299   2.07623   2.08511   2.09345   2.10132
 Alpha virt. eigenvalues --    2.10469   2.12040   2.12928   2.13526   2.13737
 Alpha virt. eigenvalues --    2.14694   2.15870   2.16431   2.16651   2.17154
 Alpha virt. eigenvalues --    2.18932   2.19890   2.21219   2.22106   2.23080
 Alpha virt. eigenvalues --    2.23414   2.24472   2.25374   2.25995   2.27663
 Alpha virt. eigenvalues --    2.28804   2.29119   2.30326   2.30589   2.31300
 Alpha virt. eigenvalues --    2.32601   2.33009   2.33846   2.34246   2.35224
 Alpha virt. eigenvalues --    2.35820   2.36558   2.37627   2.38529   2.39460
 Alpha virt. eigenvalues --    2.40312   2.42220   2.42477   2.42541   2.43982
 Alpha virt. eigenvalues --    2.45088   2.45314   2.46693   2.48325   2.48398
 Alpha virt. eigenvalues --    2.49991   2.50481   2.51896   2.52343   2.54739
 Alpha virt. eigenvalues --    2.57121   2.57706   2.59171   2.59626   2.59980
 Alpha virt. eigenvalues --    2.61429   2.62771   2.63393   2.64546   2.65993
 Alpha virt. eigenvalues --    2.66998   2.67957   2.69323   2.70022   2.71355
 Alpha virt. eigenvalues --    2.71652   2.73538   2.75090   2.77915   2.79173
 Alpha virt. eigenvalues --    2.79456   2.80987   2.82378   2.82940   2.85611
 Alpha virt. eigenvalues --    2.87091   2.89466   2.92712   2.95054   2.95572
 Alpha virt. eigenvalues --    2.96788   3.00633   3.00873   3.01776   3.03131
 Alpha virt. eigenvalues --    3.06294   3.07047   3.12854   3.18369   3.20886
 Alpha virt. eigenvalues --    3.22336   3.29631   4.00508   4.07846   4.09271
 Alpha virt. eigenvalues --    4.12580   4.14607   4.15769   4.17506   4.19692
 Alpha virt. eigenvalues --    4.22833   4.24644   4.27215   4.28951   4.31757
 Alpha virt. eigenvalues --    4.32228   4.35639   4.38032   4.40927   4.43604
 Alpha virt. eigenvalues --    4.46384   4.50979   4.54291   4.55927   4.61805
 Alpha virt. eigenvalues --    4.64018   4.65762   4.70119   4.73724   4.82454
 Alpha virt. eigenvalues --    4.91117   5.03460   5.19849
          Condensed to atoms (all electrons):
 Mulliken atomic charges:
              1
     1  C   -0.192576
     2  C    0.191338
     3  C   -0.186287
     4  C    0.322232
     5  C   -0.045511
     6  C   -0.331727
     7  C    0.213150
     8  C    0.403053
     9  C   -0.089242
    10  C    0.424266
    11  C    0.421727
    12  O   -0.457416
    13  C   -0.154786
    14  C   -0.265241
    15  C   -0.451720
    16  O   -0.505704
    17  C   -0.163944
    18  C    0.313144
    19  O   -0.537102
    20  C   -0.321934
    21  O   -0.661201
    22  C   -0.324771
    23  C    0.105630
    24  O   -0.585019
    25  C    0.178305
    26  C   -0.504780
    27  C   -0.391896
    28  C   -0.462841
    29  C   -0.462582
    30  H    0.142731
    31  H    0.163261
    32  C   -0.517708
    33  H    0.123640
    34  H    0.151939
    35  H    0.178587
    36  H    0.157963
    37  H    0.138281
    38  H    0.144754
    39  H    0.134413
    40  H    0.155648
    41  H    0.164541
    42  H    0.147346
    43  H    0.175090
    44  H    0.410685
    45  H    0.167727
    46  H    0.171196
    47  H    0.136475
    48  H    0.154650
    49  H    0.165824
    50  H    0.153641
    51  H    0.149117
    52  H    0.142645
    53  H    0.183594
    54  H    0.149520
    55  H    0.138656
    56  H    0.148059
    57  H    0.158298
    58  H    0.164237
    59  H    0.158116
    60  H    0.162677
    61  H    0.148290
    62  C   -0.450109
    63  H    0.145965
    64  H    0.167839
    65  H    0.135850
 Sum of Mulliken atomic charges =   0.00000
 Mulliken charges with hydrogens summed into heavy atoms:
              1
     1  C   -0.068937
     2  C    0.191338
     3  C   -0.023027
     4  C    0.322232
     5  C   -0.045511
     6  C   -0.001201
     7  C    0.213150
     8  C    0.403053
     9  C   -0.089242
    10  C    0.424266
    11  C    0.421727
    12  O   -0.457416
    13  C    0.003178
    14  C    0.017793
    15  C    0.002883
    16  O   -0.505704
    17  C   -0.021214
    18  C    0.313144
    19  O   -0.537102
    20  C    0.000502
    21  O   -0.250515
    22  C    0.014152
    23  C    0.242105
    24  O   -0.585019
    25  C    0.178305
    26  C   -0.030665
    27  C   -0.100134
    28  C    0.008928
    29  C    0.008012
    32  C   -0.048625
    62  C   -0.000455
 Sum of Mulliken charges with hydrogens summed into heavy atoms =   0.00000
 Electronic spatial extent (au):  <R**2>=          11267.4846
 Charge=              0.0000 electrons
 Dipole moment (field-independent basis, Debye):
    X=             -4.2868    Y=              2.4804    Z=             -1.6826  Tot=              5.2307
 Quadrupole moment (field-independent basis, Debye-Ang):
   XX=           -184.3205   YY=           -178.7692   ZZ=           -183.8558
   XY=              1.0328   XZ=             -6.2506   YZ=              2.1508
 Traceless Quadrupole moment (field-independent basis, Debye-Ang):
   XX=             -2.0054   YY=              3.5460   ZZ=             -1.5406
   XY=              1.0328   XZ=             -6.2506   YZ=              2.1508
 Octapole moment (field-independent basis, Debye-Ang**2):
  XXX=            -37.9689  YYY=             46.6211  ZZZ=              3.2060  XYY=             -1.2182
  XXY=            -21.1570  XXZ=            -39.2715  XZZ=            -25.7822  YZZ=              3.1933
  YYZ=            -19.2847  XYZ=              0.4622
 Hexadecapole moment (field-independent basis, Debye-Ang**3):
 XXXX=          -7904.8665 YYYY=          -3814.3436 ZZZZ=          -3321.6157 XXXY=            -27.6915
 XXXZ=             14.9432 YYYX=              6.3299 YYYZ=              8.6787 ZZZX=             27.5722
 ZZZY=            -11.3935 XXYY=          -1924.9385 XXZZ=          -1862.9540 YYZZ=          -1178.7918
 XXYZ=              4.1287 YYXZ=             -8.9693 ZZXY=             26.6073
 N-N= 3.532617716577D+03 E-N=-1.029165992598D+04  KE= 1.374779010656D+03
 Calling FoFJK, ICntrl=      2127 FMM=T ISym2X=0 I1Cent= 0 IOpClX= 0 NMat=1 NMatS=1 NMatT=0.
 ***** Axes restored to original set *****
 -------------------------------------------------------------------
 Center     Atomic                   Forces (Hartrees/Bohr)
 Number     Number              X              Y              Z
 -------------------------------------------------------------------
      1        6           0.009674730   -0.000394800    0.000263110
      2        6          -0.012678128   -0.005315037    0.002014023
      3        6          -0.000879698   -0.007923775   -0.000722076
      4        6           0.003275335   -0.004191441    0.010613238
      5        6          -0.011366797   -0.002795408    0.001063038
      6        6          -0.004284835   -0.010759419   -0.000761420
      7        6           0.010782011    0.020276863    0.008836860
      8        6           0.011401958   -0.012978091   -0.015023793
      9        6           0.001399631    0.005915409    0.011134406
     10        6          -0.007523829    0.002309695   -0.021123627
     11        6          -0.004861112   -0.020746905   -0.018040979
     12        8          -0.006138730    0.018327066    0.003640465
     13        6          -0.009420037   -0.004483729   -0.000581217
     14        6           0.006321210    0.005097021    0.000198535
     15        6          -0.001187872   -0.006107524   -0.004171526
     16        8           0.007573284   -0.003903874    0.010276809
     17        6           0.007834540   -0.011113739   -0.005760428
     18        6           0.032324908    0.007863791   -0.000218120
     19        8          -0.027962836    0.001783990    0.026286305
     20        6           0.011257491   -0.004909907    0.000088804
     21        8          -0.005470061    0.007066863   -0.002198966
     22        6          -0.007295060    0.013846357    0.001396774
     23        6          -0.004972127    0.008029375    0.000860924
     24        8           0.001580050   -0.006124268   -0.009640313
     25        6          -0.003031696    0.014733333    0.001259606
     26        6           0.001321056    0.001686882    0.000338026
     27        6           0.000995094   -0.009867149   -0.001506098
     28        6          -0.002839921    0.007873298   -0.004610183
     29        6          -0.003666247   -0.006331024   -0.008913463
     30        1          -0.001684358    0.001131195   -0.001652582
     31        1          -0.003244247    0.006013269   -0.000024656
     32        6          -0.001107990    0.000863323   -0.001149324
     33        1           0.001468857   -0.000850460   -0.000082526
     34        1          -0.000541871    0.005664556    0.001791297
     35        1           0.000477435    0.007336021   -0.001495411
     36        1           0.002881822   -0.000046250    0.003733759
     37        1          -0.002902772    0.000018949    0.001694293
     38        1          -0.001002235    0.000962098    0.001514208
     39        1          -0.000182654    0.001376550   -0.000258602
     40        1           0.000021057    0.000554417   -0.000106494
     41        1           0.000010358    0.000759163    0.001071974
     42        1          -0.001287059   -0.001913224   -0.001429699
     43        1           0.000058798    0.002816784   -0.000284454
     44        1          -0.001991314   -0.003550685   -0.002637242
     45        1           0.001403824   -0.002979818   -0.001278271
     46        1           0.002179305    0.000297798    0.003550376
     47        1          -0.001917963   -0.001324588    0.003014291
     48        1           0.002555156   -0.002619037    0.001644299
     49        1           0.000996907   -0.003337589    0.002305359
     50        1          -0.001383622   -0.000148617   -0.001674880
     51        1          -0.000184103   -0.000433367   -0.001358422
     52        1          -0.000016389   -0.000661482    0.001026777
     53        1          -0.001350872   -0.002779634    0.005446064
     54        1           0.002049173   -0.003854452    0.000344003
     55        1           0.000537656   -0.000864927    0.000137850
     56        1          -0.000740079    0.001262501    0.000704217
     57        1           0.000573728    0.002730322    0.001505222
     58        1          -0.000354703    0.000141976    0.003619986
     59        1          -0.001110802    0.001780715   -0.000601214
     60        1           0.004189233   -0.001613695    0.000368425
     61        1           0.004115436   -0.001164945    0.000176016
     62        6           0.003863982   -0.000545851   -0.002850772
     63        1           0.000673529   -0.001264371   -0.000689857
     64        1           0.000025687   -0.000975292   -0.000321228
     65        1           0.000758781    0.000354800   -0.000751496
 -------------------------------------------------------------------
 Cartesian Forces:  Max     0.032324908 RMS     0.006671233

 GradGradGradGradGradGradGradGradGradGradGradGradGradGradGradGradGradGrad
 Berny optimization.
 Internal  Forces:  Max     0.020164201 RMS     0.003410460
 Search for a local minimum.
 Step number   1 out of a maximum of  390
 All quantities printed in internal units (Hartrees-Bohrs-Radians)
 Mixed Optimization -- RFO/linear search
 Second derivative matrix not updated -- first step.
 ITU=  0
     Eigenvalues ---    0.00277   0.00277   0.00336   0.00399   0.00408
     Eigenvalues ---    0.00429   0.00458   0.00556   0.00609   0.00613
     Eigenvalues ---    0.00639   0.00660   0.00683   0.00688   0.00730
     Eigenvalues ---    0.01016   0.01082   0.01244   0.01248   0.01418
     Eigenvalues ---    0.01457   0.01620   0.01713   0.01818   0.01927
     Eigenvalues ---    0.02506   0.02828   0.02828   0.03031   0.03115
     Eigenvalues ---    0.03317   0.03597   0.03624   0.03745   0.04031
     Eigenvalues ---    0.04108   0.04316   0.04402   0.04584   0.04642
     Eigenvalues ---    0.04778   0.04781   0.04926   0.05095   0.05250
     Eigenvalues ---    0.05308   0.05381   0.05418   0.05422   0.05455
     Eigenvalues ---    0.05493   0.05503   0.05552   0.05617   0.05618
     Eigenvalues ---    0.05709   0.05840   0.05923   0.06273   0.06637
     Eigenvalues ---    0.06691   0.06861   0.07089   0.07112   0.07157
     Eigenvalues ---    0.07248   0.07249   0.07362   0.07659   0.08382
     Eigenvalues ---    0.08735   0.08819   0.09023   0.09176   0.09803
     Eigenvalues ---    0.10097   0.10646   0.10892   0.11633   0.12489
     Eigenvalues ---    0.13184   0.14697   0.15193   0.15971   0.16000
     Eigenvalues ---    0.16000   0.16000   0.16000   0.16000   0.16000
     Eigenvalues ---    0.16000   0.16000   0.16000   0.16000   0.16000
     Eigenvalues ---    0.16000   0.16000   0.16000   0.16000   0.16000
     Eigenvalues ---    0.16000   0.16000   0.16000   0.16000   0.16000
     Eigenvalues ---    0.16442   0.17263   0.17295   0.18225   0.18327
     Eigenvalues ---    0.19716   0.21558   0.21951   0.22706   0.23546
     Eigenvalues ---    0.24516   0.24931   0.24987   0.24993   0.24994
     Eigenvalues ---    0.24998   0.25000   0.25000   0.25880   0.27254
     Eigenvalues ---    0.27393   0.27698   0.27805   0.28125   0.28265
     Eigenvalues ---    0.28644   0.28791   0.28791   0.29194   0.29632
     Eigenvalues ---    0.29697   0.30055   0.30424   0.30582   0.31163
     Eigenvalues ---    0.31554   0.31763   0.31802   0.33369   0.33669
     Eigenvalues ---    0.33962   0.33985   0.33996   0.34010   0.34022
     Eigenvalues ---    0.34038   0.34055   0.34056   0.34063   0.34071
     Eigenvalues ---    0.34122   0.34130   0.34139   0.34155   0.34204
     Eigenvalues ---    0.34206   0.34233   0.34236   0.34254   0.34261
     Eigenvalues ---    0.34265   0.34266   0.34270   0.34277   0.34312
     Eigenvalues ---    0.34333   0.34376   0.34389   0.34440   0.34453
     Eigenvalues ---    0.34956   0.35198   0.35288   0.35454   0.36424
     Eigenvalues ---    0.37292   0.42801   0.43686   0.51621   0.53306
     Eigenvalues ---    0.54560   0.56287   0.89755   0.90631
 RFO step:  Lambda=-2.13673631D-02 EMin= 2.77133723D-03
 Linear search not attempted -- first point.
 Iteration  1 RMS(Cart)=  0.03850508 RMS(Int)=  0.00059826
 Iteration  2 RMS(Cart)=  0.00097526 RMS(Int)=  0.00024936
 Iteration  3 RMS(Cart)=  0.00000049 RMS(Int)=  0.00024936
 Variable       Old X    -DE/DX   Delta X   Delta X   Delta X     New X
                                 (Linear)    (Quad)   (Total)
    R1        2.53526  -0.00280   0.00000  -0.00587  -0.00589   2.52937
    R2        2.82379   0.00848   0.00000   0.02485   0.02478   2.84857
    R3        2.05746   0.00000   0.00000   0.00000   0.00000   2.05745
    R4        2.85485   0.00378   0.00000   0.00835   0.00840   2.86325
    R5        2.84579   0.00315   0.00000   0.00929   0.00929   2.85508
    R6        2.94023   0.00510   0.00000   0.01256   0.01247   2.95270
    R7        2.91006   0.01094   0.00000   0.03731   0.03728   2.94734
    R8        2.07893  -0.00076   0.00000  -0.00212  -0.00212   2.07681
    R9        2.90582   0.00883   0.00000   0.02877   0.02860   2.93442
   R10        2.91251   0.00721   0.00000   0.02464   0.02477   2.93727
   R11        2.76271  -0.00450   0.00000  -0.01055  -0.01057   2.75214
   R12        2.91424  -0.00021   0.00000   0.00217   0.00209   2.91633
   R13        2.90477   0.00604   0.00000   0.01321   0.01318   2.91795
   R14        2.89313   0.01256   0.00000   0.04070   0.04070   2.93383
   R15        2.07237   0.00291   0.00000   0.00803   0.00803   2.08040
   R16        2.07356  -0.00128   0.00000  -0.00353  -0.00353   2.07003
   R17        2.81403   0.00907   0.00000   0.01976   0.01938   2.83341
   R18        2.85911   0.01555   0.00000   0.05568   0.05519   2.91430
   R19        2.67916   0.00340   0.00000   0.00756   0.00756   2.68672
   R20        2.52545   0.01254   0.00000   0.02183   0.02184   2.54729
   R21        2.62925  -0.02016   0.00000  -0.04752  -0.04733   2.58193
   R22        2.79343  -0.00184   0.00000  -0.00890  -0.00874   2.78469
   R23        2.79894   0.01878   0.00000   0.05133   0.05133   2.85027
   R24        2.33046  -0.01023   0.00000  -0.01113  -0.01113   2.31933
   R25        2.32643  -0.01956   0.00000  -0.02108  -0.02108   2.30535
   R26        2.88572  -0.00165   0.00000  -0.00518  -0.00518   2.88054
   R27        2.90442   0.00773   0.00000   0.02499   0.02499   2.92941
   R28        2.88702   0.00482   0.00000   0.01517   0.01517   2.90220
   R29        2.07394   0.00010   0.00000   0.00027   0.00027   2.07421
   R30        2.07313   0.00074   0.00000   0.00204   0.00204   2.07517
   R31        2.07235   0.00113   0.00000   0.00312   0.00312   2.07546
   R32        2.87853   0.00744   0.00000   0.02310   0.02310   2.90164
   R33        2.06883   0.00110   0.00000   0.00303   0.00303   2.07186
   R34        2.07069  -0.00040   0.00000  -0.00109  -0.00109   2.06959
   R35        2.06885  -0.00104   0.00000  -0.00285  -0.00285   2.06600
   R36        2.91785  -0.00091   0.00000   0.00917   0.00942   2.92728
   R37        2.90597   0.00424   0.00000   0.01447   0.01453   2.92050
   R38        2.07125  -0.00158   0.00000  -0.00435  -0.00435   2.06690
[...]
     55          1           0        0.320103    2.801946   -3.896951
     56          1           0        0.830460    4.521832   -2.011466
     57          1           0        2.448560    3.794744   -1.986729
     58          1           0        1.527233    3.935271   -0.483981
     59          1           0       -1.614757    3.021099    4.167395
     60          1           0       -0.768853    3.708744    2.772718
     61          1           0       -2.529667    3.664974    2.790973
     62          6           0        4.263073   -1.489600   -1.773612
     63          1           0        5.335087   -1.390593   -1.571409
     64          1           0        3.842370   -0.479336   -1.834742
     65          1           0        4.155002   -1.956085   -2.759631
 ---------------------------------------------------------------------
 Rotational constants (GHZ):      0.1920301      0.1303554      0.1226719

 **********************************************************************

            Population analysis using the SCF density.

 **********************************************************************

 Orbital symmetries:
       Occupied  (A) (A) (A) (A) (A) (A) (A) (A) (A) (A) (A) (A)
                 (A) (A) (A) (A) (A) (A) (A) (A) (A) (A) (A) (A)
                 (A) (A) (A) (A) (A) (A) (A) (A) (A) (A) (A) (A)
                 (A) (A) (A) (A) (A) (A) (A) (A) (A) (A) (A) (A)
                 (A) (A) (A) (A) (A) (A) (A) (A) (A) (A) (A) (A)
                 (A) (A) (A) (A) (A) (A) (A) (A) (A) (A) (A) (A)
                 (A) (A) (A) (A) (A) (A) (A) (A) (A) (A) (A) (A)
                 (A) (A) (A) (A) (A) (A) (A) (A) (A) (A) (A) (A)
                 (A) (A) (A) (A) (A) (A) (A) (A) (A) (A) (A) (A)
                 (A) (A) (A) (A) (A) (A) (A)
       Virtual   (A) (A) (A) (A) (A) (A) (A) (A) (A) (A) (A) (A)
                 (A) (A) (A) (A) (A) (A) (A) (A) (A) (A) (A) (A)
                 (A) (A) (A) (A) (A) (A) (A) (A) (A) (A) (A) (A)
                 (A) (A) (A) (A) (A) (A) (A) (A) (A) (A) (A) (A)
                 (A) (A) (A) (A) (A) (A) (A) (A) (A) (A) (A) (A)
                 (A) (A) (A) (A) (A) (A) (A) (A) (A) (A) (A) (A)
                 (A) (A) (A) (A) (A) (A) (A) (A) (A) (A) (A) (A)
                 (A) (A) (A) (A) (A) (A) (A) (A) (A) (A) (A) (A)
                 (A) (A) (A) (A) (A) (A) (A) (A) (A) (A) (A) (A)
                 (A) (A) (A) (A) (A) (A) (A) (A) (A) (A) (A) (A)
                 (A) (A) (A) (A) (A) (A) (A) (A) (A) (A) (A) (A)
                 (A) (A) (A) (A) (A) (A) (A) (A) (A) (A) (A) (A)
                 (A) (A) (A) (A) (A) (A) (A) (A) (A) (A) (A) (A)
                 (A) (A) (A) (A) (A) (A) (A) (A) (A) (A) (A) (A)
                 (A) (A) (A) (A) (A) (A) (A) (A) (A) (A) (A) (A)
                 (A) (A) (A) (A) (A) (A) (A) (A) (A) (A) (A) (A)
                 (A) (A) (A) (A) (A) (A) (A) (A) (A) (A) (A) (A)
                 (A) (A) (A) (A) (A) (A) (A) (A) (A) (A) (A) (A)
                 (A) (A) (A) (A) (A) (A) (A) (A) (A) (A) (A) (A)
                 (A) (A) (A) (A) (A) (A) (A) (A) (A) (A) (A) (A)
                 (A) (A) (A) (A) (A) (A) (A) (A) (A) (A) (A) (A)
                 (A) (A) (A) (A) (A) (A) (A) (A) (A) (A) (A) (A)
                 (A) (A) (A) (A) (A) (A) (A) (A) (A) (A) (A) (A)
                 (A) (A) (A) (A) (A) (A) (A) (A) (A) (A) (A) (A)
                 (A) (A) (A) (A) (A) (A) (A) (A) (A) (A) (A) (A)
                 (A) (A) (A) (A) (A) (A) (A) (A) (A) (A) (A) (A)
                 (A) (A) (A) (A) (A) (A) (A) (A) (A) (A) (A) (A)
                 (A) (A) (A) (A) (A) (A) (A) (A) (A) (A) (A) (A)
                 (A) (A) (A) (A) (A) (A) (A) (A) (A) (A) (A) (A)
                 (A) (A) (A) (A) (A) (A) (A) (A) (A) (A) (A) (A)
                 (A) (A) (A) (A) (A) (A) (A) (A) (A) (A) (A) (A)
                 (A) (A) (A) (A) (A) (A) (A) (A) (A) (A) (A) (A)
                 (A) (A) (A) (A) (A) (A) (A) (A) (A) (A) (A) (A)
                 (A) (A) (A) (A) (A) (A) (A) (A) (A) (A) (A) (A)
                 (A) (A) (A) (A) (A) (A) (A) (A) (A) (A)
 The electronic state is 1-A.
 Alpha  occ. eigenvalues --  -19.19523 -19.16671 -19.15816 -19.12682 -19.12430
 Alpha  occ. eigenvalues --  -10.27231 -10.27212 -10.26594 -10.26206 -10.25731
 Alpha  occ. eigenvalues --  -10.25710 -10.25198 -10.21344 -10.20846 -10.20553
 Alpha  occ. eigenvalues --  -10.20318 -10.19795 -10.19586 -10.19336 -10.19122
 Alpha  occ. eigenvalues --  -10.18944 -10.18937 -10.18772 -10.18749 -10.18443
 Alpha  occ. eigenvalues --  -10.18115 -10.18083 -10.17567 -10.17499 -10.16240
 Alpha  occ. eigenvalues --  -10.15686  -1.09152  -1.05859  -1.02958  -1.02432
 Alpha  occ. eigenvalues --   -1.02190  -0.86650  -0.83557  -0.82384  -0.81350
 Alpha  occ. eigenvalues --   -0.80199  -0.79245  -0.76549  -0.74265  -0.73092
 Alpha  occ. eigenvalues --   -0.71580  -0.71121  -0.69873  -0.69526  -0.67813
 Alpha  occ. eigenvalues --   -0.65438  -0.64154  -0.63355  -0.61498  -0.60525
 Alpha  occ. eigenvalues --   -0.59356  -0.58607  -0.56904  -0.54587  -0.53467
 Alpha  occ. eigenvalues --   -0.52599  -0.51967  -0.50659  -0.50254  -0.49206
 Alpha  occ. eigenvalues --   -0.48057  -0.47011  -0.46458  -0.46104  -0.45781
 Alpha  occ. eigenvalues --   -0.45204  -0.44543  -0.44483  -0.43713  -0.43279
 Alpha  occ. eigenvalues --   -0.42855  -0.42662  -0.41974  -0.41602  -0.41310
 Alpha  occ. eigenvalues --   -0.40713  -0.40571  -0.40432  -0.39933  -0.39200
 Alpha  occ. eigenvalues --   -0.38972  -0.38348  -0.38064  -0.37699  -0.37517
 Alpha  occ. eigenvalues --   -0.37464  -0.37307  -0.37122  -0.36898  -0.36595
 Alpha  occ. eigenvalues --   -0.36401  -0.35606  -0.35161  -0.34874  -0.34130
 Alpha  occ. eigenvalues --   -0.33594  -0.33448  -0.33328  -0.32711  -0.31958
 Alpha  occ. eigenvalues --   -0.31389  -0.31146  -0.30837  -0.28090  -0.26668
 Alpha  occ. eigenvalues --   -0.26321  -0.24509  -0.24063  -0.23373  -0.22544
 Alpha virt. eigenvalues --   -0.04670  -0.00759   0.00281   0.02240   0.05517
 Alpha virt. eigenvalues --    0.07174   0.08803   0.08880   0.09344   0.10298
 Alpha virt. eigenvalues --    0.10662   0.10809   0.11247   0.11875   0.12317
 Alpha virt. eigenvalues --    0.12961   0.13188   0.13449   0.14073   0.14390
 Alpha virt. eigenvalues --    0.14457   0.14633   0.15101   0.15475   0.16099
 Alpha virt. eigenvalues --    0.16572   0.16808   0.16980   0.17073   0.17265
 Alpha virt. eigenvalues --    0.17667   0.17959   0.18311   0.18722   0.18998
 Alpha virt. eigenvalues --    0.19094   0.19443   0.19675   0.20281   0.20619
 Alpha virt. eigenvalues --    0.21014   0.21304   0.21702   0.21978   0.22353
 Alpha virt. eigenvalues --    0.22859   0.23589   0.23681   0.24043   0.24253
 Alpha virt. eigenvalues --    0.25040   0.25119   0.25758   0.26324   0.26684
 Alpha virt. eigenvalues --    0.27290   0.27670   0.27977   0.29093   0.29426
 Alpha virt. eigenvalues --    0.31100   0.31859   0.32569   0.33096   0.33999
 Alpha virt. eigenvalues --    0.34433   0.36868   0.37329   0.38041   0.39250
 Alpha virt. eigenvalues --    0.41631   0.45553   0.46712   0.48048   0.48863
 Alpha virt. eigenvalues --    0.49284   0.50233   0.50692   0.51243   0.51694
 Alpha virt. eigenvalues --    0.52004   0.52084   0.52952   0.53247   0.53831
 Alpha virt. eigenvalues --    0.53876   0.54128   0.55115   0.55973   0.56533
 Alpha virt. eigenvalues --    0.57002   0.57613   0.57981   0.58607   0.58996
 Alpha virt. eigenvalues --    0.59560   0.60359   0.61317   0.61440   0.61965
 Alpha virt. eigenvalues --    0.62551   0.62867   0.63104   0.64460   0.64604
 Alpha virt. eigenvalues --    0.65158   0.65823   0.66577   0.67075   0.67452
 Alpha virt. eigenvalues --    0.67855   0.68155   0.68823   0.69387   0.69428
 Alpha virt. eigenvalues --    0.69796   0.70511   0.71446   0.72374   0.73000
 Alpha virt. eigenvalues --    0.73776   0.74903   0.75125   0.75596   0.76277
 Alpha virt. eigenvalues --    0.76757   0.77660   0.78500   0.79696   0.80050
 Alpha virt. eigenvalues --    0.80185   0.80630   0.81482   0.82158   0.82505
 Alpha virt. eigenvalues --    0.82863   0.83774   0.84305   0.84741   0.85202
 Alpha virt. eigenvalues --    0.85700   0.86300   0.86468   0.86942   0.87299
 Alpha virt. eigenvalues --    0.87412   0.87917   0.88236   0.88576   0.89127
 Alpha virt. eigenvalues --    0.89320   0.89854   0.90355   0.90620   0.90667
 Alpha virt. eigenvalues --    0.90854   0.91190   0.91314   0.91882   0.92223
 Alpha virt. eigenvalues --    0.93240   0.93260   0.94114   0.94437   0.94904
 Alpha virt. eigenvalues --    0.95660   0.96105   0.96344   0.96922   0.97237
 Alpha virt. eigenvalues --    0.97396   0.98252   0.98986   0.99486   0.99960
 Alpha virt. eigenvalues --    1.00873   1.01231   1.01858   1.02646   1.02955
 Alpha virt. eigenvalues --    1.04226   1.05780   1.06020   1.06761   1.07918
 Alpha virt. eigenvalues --    1.08739   1.09138   1.10273   1.10609   1.12385
 Alpha virt. eigenvalues --    1.13319   1.14189   1.14621   1.16346   1.16945
 Alpha virt. eigenvalues --    1.17564   1.18051   1.18235   1.19064   1.21555
 Alpha virt. eigenvalues --    1.22762   1.23399   1.25150   1.25605   1.26573
 Alpha virt. eigenvalues --    1.28187   1.28347   1.29706   1.32194   1.32385
 Alpha virt. eigenvalues --    1.34366   1.36447   1.37602   1.37832   1.40389
 Alpha virt. eigenvalues --    1.41121   1.41482   1.43718   1.44632   1.45458
 Alpha virt. eigenvalues --    1.47021   1.48605   1.49945   1.51794   1.53266
 Alpha virt. eigenvalues --    1.53531   1.54568   1.55614   1.57408   1.58618
 Alpha virt. eigenvalues --    1.60435   1.60641   1.61504   1.62431   1.64200
 Alpha virt. eigenvalues --    1.65821   1.65990   1.66299   1.67440   1.68412
 Alpha virt. eigenvalues --    1.70559   1.71217   1.72503   1.72852   1.73293
 Alpha virt. eigenvalues --    1.74123   1.75246   1.76662   1.77068   1.78130
 Alpha virt. eigenvalues --    1.79005   1.79518   1.79804   1.80554   1.81129
 Alpha virt. eigenvalues --    1.81996   1.82393   1.83444   1.84050   1.85416
 Alpha virt. eigenvalues --    1.85917   1.86414   1.86662   1.86987   1.87796
 Alpha virt. eigenvalues --    1.88558   1.89276   1.89416   1.91066   1.91425
 Alpha virt. eigenvalues --    1.91988   1.92221   1.94487   1.94754   1.95236
 Alpha virt. eigenvalues --    1.96010   1.96909   1.97081   1.98521   1.98820
 Alpha virt. eigenvalues --    1.99189   1.99608   1.99913   2.00467   2.01563
 Alpha virt. eigenvalues --    2.02679   2.03181   2.03694   2.05021   2.05988
 Alpha virt. eigenvalues --    2.06386   2.07380   2.08215   2.09201   2.09755
 Alpha virt. eigenvalues --    2.10108   2.11033   2.11657   2.12480   2.12789
 Alpha virt. eigenvalues --    2.13936   2.14595   2.16209   2.16433   2.16820
 Alpha virt. eigenvalues --    2.17800   2.19521   2.19853   2.21451   2.22506
 Alpha virt. eigenvalues --    2.23644   2.24286   2.24507   2.26415   2.26460
 Alpha virt. eigenvalues --    2.28353   2.29529   2.30119   2.30160   2.31199
 Alpha virt. eigenvalues --    2.32598   2.33322   2.33803   2.34348   2.34822
 Alpha virt. eigenvalues --    2.35162   2.36065   2.36829   2.38357   2.39076
 Alpha virt. eigenvalues --    2.40295   2.40753   2.41947   2.42637   2.43068
 Alpha virt. eigenvalues --    2.44540   2.44867   2.45691   2.47735   2.48395
 Alpha virt. eigenvalues --    2.48767   2.50359   2.51760   2.52680   2.53560
 Alpha virt. eigenvalues --    2.55752   2.56927   2.58005   2.59127   2.59718
 Alpha virt. eigenvalues --    2.60010   2.61788   2.62981   2.64526   2.65090
 Alpha virt. eigenvalues --    2.65854   2.66706   2.68808   2.69304   2.70403
 Alpha virt. eigenvalues --    2.71386   2.72575   2.73675   2.76219   2.76737
 Alpha virt. eigenvalues --    2.78356   2.80046   2.82156   2.82622   2.84440
 Alpha virt. eigenvalues --    2.86749   2.88986   2.90824   2.94164   2.96291
 Alpha virt. eigenvalues --    2.98407   3.00864   3.01161   3.01754   3.02531
 Alpha virt. eigenvalues --    3.05630   3.06886   3.12030   3.18089   3.21472
 Alpha virt. eigenvalues --    3.25575   3.28749   4.02883   4.05244   4.08251
 Alpha virt. eigenvalues --    4.12597   4.13902   4.14832   4.16355   4.19549
 Alpha virt. eigenvalues --    4.22267   4.24185   4.25957   4.28464   4.30924
 Alpha virt. eigenvalues --    4.31860   4.35195   4.37500   4.39691   4.44992
 Alpha virt. eigenvalues --    4.45699   4.51252   4.53380   4.56110   4.61175
 Alpha virt. eigenvalues --    4.62209   4.66872   4.68082   4.74369   4.81948
 Alpha virt. eigenvalues --    4.90185   5.03075   5.17637
          Condensed to atoms (all electrons):
 Mulliken atomic charges:
              1
     1  C   -0.187832
     2  C    0.193960
     3  C   -0.188358
     4  C    0.325460
     5  C   -0.051786
     6  C   -0.334256
     7  C    0.199335
     8  C    0.408997
     9  C   -0.096677
    10  C    0.421011
    11  C    0.423260
    12  O   -0.453611
    13  C   -0.174495
    14  C   -0.265959
    15  C   -0.444265
    16  O   -0.512537
    17  C   -0.164887
    18  C    0.302740
    19  O   -0.519404
    20  C   -0.325088
    21  O   -0.657093
    22  C   -0.325395
    23  C    0.096868
    24  O   -0.591829
    25  C    0.181630
    26  C   -0.507920
    27  C   -0.393145
    28  C   -0.469369
    29  C   -0.457360
    30  H    0.143071
    31  H    0.163773
    32  C   -0.519958
    33  H    0.122730
    34  H    0.145718
    35  H    0.184723
    36  H    0.180768
    37  H    0.136691
    38  H    0.141604
    39  H    0.131502
    40  H    0.152052
    41  H    0.157934
    42  H    0.150981
    43  H    0.173625
    44  H    0.413588
    45  H    0.167891
    46  H    0.169061
    47  H    0.138782
    48  H    0.156597
    49  H    0.170893
    50  H    0.154462
    51  H    0.152438
    52  H    0.142425
    53  H    0.191740
    54  H    0.158652
    55  H    0.143021
    56  H    0.147960
    57  H    0.166282
    58  H    0.168067
    59  H    0.158069
    60  H    0.159727
    61  H    0.149696
    62  C   -0.454456
    63  H    0.148052
    64  H    0.160852
    65  H    0.138991
 Sum of Mulliken atomic charges =   0.00000
 Mulliken charges with hydrogens summed into heavy atoms:
              1
     1  C   -0.065101
     2  C    0.193960
     3  C   -0.024586
     4  C    0.325460
     5  C   -0.051786
     6  C   -0.003815
     7  C    0.199335
     8  C    0.408997
     9  C   -0.096677
    10  C    0.421011
    11  C    0.423260
    12  O   -0.453611
    13  C    0.006273
    14  C    0.012336
    15  C   -0.002776
    16  O   -0.512537
    17  C   -0.021816
    18  C    0.302740
    19  O   -0.519404
    20  C   -0.000481
    21  O   -0.243505
    22  C    0.011557
    23  C    0.235649
    24  O   -0.591829
    25  C    0.181630
    26  C   -0.025967
    27  C   -0.098283
    28  C    0.024044
    29  C    0.024949
    32  C   -0.052466
    62  C   -0.006561
 Sum of Mulliken charges with hydrogens summed into heavy atoms =   0.00000
 Electronic spatial extent (au):  <R**2>=          11217.7161
 Charge=              0.0000 electrons
 Dipole moment (field-independent basis, Debye):
    X=             -4.8865    Y=              1.6604    Z=             -2.3703  Tot=              5.6792
 Quadrupole moment (field-independent basis, Debye-Ang):
   XX=           -187.7399   YY=           -174.6744   ZZ=           -183.9202
   XY=             -1.0222   XZ=             -4.8319   YZ=             -0.0391
 Traceless Quadrupole moment (field-independent basis, Debye-Ang):
   XX=             -5.6284   YY=              7.4371   ZZ=             -1.8087
   XY=             -1.0222   XZ=             -4.8319   YZ=             -0.0391
 Octapole moment (field-independent basis, Debye-Ang**2):
  XXX=            -47.9370  YYY=             32.3627  ZZZ=             -8.1650  XYY=             -8.4442
  XXY=            -33.1442  XXZ=            -28.6596  XZZ=            -17.5111  YZZ=             19.1889
  YYZ=            -27.7453  XYZ=             -9.0978
 Hexadecapole moment (field-independent basis, Debye-Ang**3):
 XXXX=          -7495.1838 YYYY=          -4097.5909 ZZZZ=          -3380.6570 XXXY=            -16.1302
 XXXZ=             19.6264 YYYX=             13.7602 YYYZ=             -3.9571 ZZZX=             16.0840
 ZZZY=              1.0688 XXYY=          -1909.9079 XXZZ=          -1791.4746 YYZZ=          -1239.0537
 XXYZ=             -9.0478 YYXZ=             -1.2779 ZZXY=             45.7197
 N-N= 3.525399190158D+03 E-N=-1.027717285267D+04  KE= 1.374454581185D+03
 1\1\GINC-B0800\FOpt\RB3LYP\6-31G(d)\C26H34O5\CAOFEI\24-Mar-2021\0\\# o
 pt rb3lyp/6-31g(d) geom=connectivity\\Title Card Required\\0,1\C,-0.02
 76410773,0.0388628666,0.0810719445\C,1.3084405354,-0.0136361416,0.1243
 622897\C,2.1486719643,1.2446812098,0.0605387156\C,1.3959584057,2.54797
 66993,-0.3552287764\C,-0.0961687302,2.4503001022,-0.7699791478\C,-0.82
 49022525,1.3092724531,-0.0182525966\C,2.2889269765,3.1727587602,-1.459
 0830152\C,1.946257399,2.679993727,-2.8486157037\C,0.6987323703,2.35729
 27449,-3.2733240667\C,-0.3879171238,2.2957756553,-2.2898587312\C,0.462
 0561844,1.9165998612,-4.7058376993\O,1.1513504219,1.0322120169,-5.1825
 914743\C,-0.6126120014,2.6434645359,-5.5090308776\C,-0.2470976061,4.14
 64493634,-5.6568107875\C,-0.8706677613,1.9474317251,-6.8486446914\O,-1
 .5531447895,2.0908588091,-2.622684965\C,3.7044290297,2.5707236155,-1.3
 328922004\C,4.272130168,2.7311243369,-2.7641598971\O,3.0474257035,2.61
 13786959,-3.6034644281\C,3.3848909628,1.1316068922,-0.8804150752\O,2.2
 166538898,4.5867198175,-1.4684895809\C,-0.6438897276,3.8285481767,-0.3
 109464669\C,0.1220567869,4.0813437111,0.9840101275\O,1.4270621772,3.47
 06948124,0.7643370078\C,0.3330257745,5.5078417478,1.4479953919\C,1.179
 9196074,5.6496187609,2.6901078699\C,-0.2198062305,6.5597477039,0.83588
 65928\C,4.8783984813,4.1137524963,-3.0142738713\C,5.2157461831,1.62989
 23417,-3.2406636673\H,4.3096835511,3.1054400424,-0.5942990907\H,2.5230
 306878,1.4543448588,1.0728456513\C,2.0477234208,-1.3160742699,0.307949
 536\H,-0.5947851523,-0.8873519015,0.1644589397\H,-1.087834596,1.645978
 1709,0.9957923886\H,-1.7739990916,1.1342112771,-0.5330902635\H,-1.5205
 410355,2.6012916555,-4.8954487405\H,-1.0871213056,4.6431548714,-6.1600
 094189\H,-0.1811381901,4.5947642733,-4.6574988926\H,-1.6431466371,2.48
 42986023,-7.4116348398\H,-1.2127723704,0.9196398417,-6.6922387081\H,0.
 0339656459,1.8955804735,-7.460787008\H,4.2327934813,0.6459138748,-0.38
 91178478\H,3.1203796112,0.5175599356,-1.7481969375\H,2.1415883024,4.82
 8468157,-0.5239253138\H,-1.7279651549,3.8066937839,-0.1719137231\H,-0.
 4020358819,4.5939965207,-1.0535113326\H,-0.3515617516,3.5308603806,1.8
 122716956\H,0.7265884651,5.1129373118,3.5349538751\H,2.1735687091,5.21
 22757769,2.5399883558\H,1.2983735888,6.6985874696,2.976931958\H,-0.844
 1923897,6.4652766765,-0.0466735926\H,-0.0719856134,7.5684976496,1.2134
 277531\H,4.2009509106,4.9037486789,-2.6853139691\H,5.0856351086,4.2403
 405436,-4.0818310867\H,5.8244106347,4.2103591884,-2.4690276082\H,6.126
 6345528,1.6304766582,-2.6314910941\H,5.5010158263,1.8076771112,-4.2821
 628047\H,4.7550908037,0.6413268083,-3.1821326619\H,1.3504742052,-2.152
 523001,0.415935779\H,2.7093661178,-1.5396870307,-0.5387259149\H,2.6836
 866904,-1.288306243,1.2045083893\C,1.050961784,4.4293451751,-6.4236668
 543\H,1.0018839653,4.0626742308,-7.4547084274\H,1.9144054945,3.9546654
 268,-5.9435584519\H,1.2437818913,5.5075695237,-6.4657619585\\Version=E
 M64L-G09RevB.01\State=1-A\HF=-1387.320333\RMSD=4.837e-09\RMSF=4.171e-0
 6\Dipole=1.0952826,0.638834,1.8397319\Quadrupole=3.211068,-0.0594993,-
 3.1515687,-3.4579874,-1.0869536,-3.8945059\PG=C01 [X(C26H34O5)]\\@


 THERE'S NOTHING WRONG WITH FOLLOWING A TRAIN OF THOUGHT...
 AS LONG AS IT ULTIMATELY PULLS INTO THE STATION.
 Job cpu time:  0 days  5 hours 30 minutes 28.7 seconds.
 File lengths (MBytes):  RWF=    186 Int=      0 D2E=      0 Chk=     20 Scr=      1
 Normal termination of Gaussian 09 at Wed Mar 24 16:51:12 2021.
