 Entering Gaussian System, Link 0=g09
 Initial command:
 /public/software/g09/g09/l1.exe /tmp/Gau-8903.inp -scrdir=/tmp/
 Entering Link 1 = /public/software/g09/g09/l1.exe PID=      8904.
  
 Copyright (c) 1988,1990,1992,1993,1995,1998,2003,2009,2010,
            Gaussian, Inc.  All Rights Reserved.
  
 This is part of the Gaussian(R) 09 program.  It is based on
 the Gaussian(R) 03 system (copyright 2003, Gaussian, Inc.),
 the Gaussian(R) 98 system (copyright 1998, Gaussian, Inc.),
 the Gaussian(R) 94 system (copyright 1995, Gaussian, Inc.),
 the Gaussian 92(TM) system (copyright 1992, Gaussian, Inc.),
 the Gaussian 90(TM) system (copyright 1990, Gaussian, Inc.),
 the Gaussian 88(TM) system (copyright 1988, Gaussian, Inc.),
 the Gaussian 86(TM) system (copyright 1986, Carnegie Mellon
 University), and the Gaussian 82(TM) system (copyright 1983,
 Carnegie Mellon University). Gaussian is a federally registered
 trademark of Gaussian, Inc.
  
 This software contains proprietary and confidential information,
 including trade secrets, belonging to Gaussian, Inc.
  
 This software is provided under written license and may be
 used, copied, transmitted, or stored only in accord with that
 written license.
  
 The following legend is applicable only to US Government
 contracts under FAR:
  
                    RESTRICTED RIGHTS LEGEND
  
 Use, reproduction and disclosure by the US Government is
 subject to restrictions as set forth in subparagraphs (a)
 and (c) of the Commercial Computer Software - Restricted
 Rights clause in FAR 52.227-19.
  
 Gaussian, Inc.
 340 Quinnipiac St., Bldg. 40, Wallingford CT 06492
  
  
 ---------------------------------------------------------------
 Warning -- This program may not be used in any manner that
 competes with the business of Gaussian, Inc. or will provide
 assistance to any competitor of Gaussian, Inc.  The licensee
 of this program is prohibited from giving any competitor of
 Gaussian, Inc. access to this program.  By using this program,
 the user acknowledges that Gaussian, Inc. is engaged in the
 business of creating and licensing software in the field of
 computational chemistry and represents and warrants to the
 licensee that it is not a competitor of Gaussian, Inc. and that
 it will not use this program in any manner prohibited above.
 ---------------------------------------------------------------
  

 Cite this work as:
 Gaussian 09, Revision B.01,
 M. J. Frisch, G. W. Trucks, H. B. Schlegel, G. E. Scuseria, 
 M. A. Robb, J. R. Cheeseman, G. Scalmani, V. Barone, B. Mennucci, 
 G. A. Petersson, H. Nakatsuji, M. Caricato, X. Li, H. P. Hratchian, 
 A. F. Izmaylov, J. Bloino, G. Zheng, J. L. Sonnenberg, M. Hada, 
 M. Ehara, K. Toyota, R. Fukuda, J. Hasegawa, M. Ishida, T. Nakajima, 
 Y. Honda, O. Kitao, H. Nakai, T. Vreven, J. A. Montgomery, Jr., 
 J. E. Peralta, F. Ogliaro, M. Bearpark, J. J. Heyd, E. Brothers, 
 K. N. Kudin, V. N. Staroverov, T. Keith, R. Kobayashi, J. Normand, 
 K. Raghavachari, A. Rendell, J. C. Burant, S. S. Iyengar, J. Tomasi, 
 M. Cossi, N. Rega, J. M. Millam, M. Klene, J. E. Knox, J. B. Cross, 
 V. Bakken, C. Adamo, J. Jaramillo, R. Gomperts, R. E. Stratmann, 
 O. Yazyev, A. J. Austin, R. Cammi, C. Pomelli, J. W. Ochterski, 
 R. L. Martin, K. Morokuma, V. G. Zakrzewski, G. A. Voth, 
 P. Salvador, J. J. Dannenberg, S. Dapprich, A. D. Daniels, 
 O. Farkas, J. B. Foresman, J. V. Ortiz, J. Cioslowski, 
 and D. J. Fox, Gaussian, Inc., Wallingford CT, 2010.
 
 ******************************************
 Gaussian 09:  EM64L-G09RevB.01 12-Aug-2010
                24-Mar-2021 
 ******************************************
 %mem=600MW
 %nprocshared=10
 Will use up to   10 processors via shared memory.
 ---------------------------------------
 # opt rb3lyp/6-31g(d) geom=connectivity
 ---------------------------------------
 1/14=-1,18=20,19=15,26=3,38=1,57=2/1,3;
 2/9=110,12=2,17=6,18=5,40=1/2;
 3/5=1,6=6,7=1,11=2,16=1,25=1,30=1,71=1,74=-5,116=1/1,2,3;
 4//1;
 5/5=2,38=5/2;
 6/7=2,8=2,9=2,10=2,28=1/1;
 7//1,2,3,16;
 1/14=-1,18=20,19=15/3(2);
 2/9=110/2;
 99//99;
 2/9=110/2;
 3/5=1,6=6,7=1,11=2,16=1,25=1,30=1,71=1,74=-5,116=1/1,2,3;
 4/5=5,16=3/1;
 5/5=2,38=5/2;
 7//1,2,3,16;
 1/14=-1,18=20,19=15/3(-5);
 2/9=110/2;
 6/7=2,8=2,9=2,10=2,19=2,28=1/1;
 99/9=1/99;
 -------------------
 Title Card Required
 -------------------
 Symbolic Z-matrix:
 Charge =  0 Multiplicity = 1
 C                     0.        0.        0. 
 C                     1.3414    0.        0. 
 C                     2.1335    1.2867    0. 
 C                     1.3335    2.5839   -0.3183 
 C                    -0.1547    2.4522   -0.6749 
 C                    -0.8277    1.2442    0.0141 
 C                     2.151     3.2904   -1.4185 
 C                     1.7965    2.9207   -2.8187 
 C                     0.5785    2.5147   -3.1937 
 C                    -0.4896    2.4033   -2.1743 
 C                     0.3396    2.1433   -4.6153 
 O                     0.5015    2.9871   -5.4977 
 C                    -0.1577    0.7226   -4.9165 
 C                    -0.1494    0.4264   -6.4302 
 C                     0.6141   -0.3398   -4.1329 
 O                    -1.6563    2.2653   -2.5495 
 C                     3.5595    2.7399   -1.361 
 C                     4.0725    2.9726   -2.7972 
 O                     2.9103    2.8338   -3.652 
 C                     3.3107    1.2692   -0.9909 
 O                     2.1117    4.7004   -1.294 
 C                    -0.7247    3.7548   -0.1107 
 C                     0.0871    3.9624    1.1603 
 O                     1.3956    3.434     0.8717 
 C                     0.1576    5.3943    1.6457 
 C                    -1.1656    6.0908    1.828 
 C                     1.3017    6.029     1.9568 
 C                     4.6558    4.3793   -3.0038 
 C                     5.122     1.9486   -3.2437 
 H                     4.1877    3.2322   -0.6098 
 H                     2.5649    1.3851    1.0072 
 C                     2.112    -1.2899    0.0986 
 H                    -0.545    -0.9409    0.054 
 H                    -1.0687    1.457     1.0625 
 H                    -1.7903    1.0157   -0.4598 
 H                    -1.2084    0.69     -4.601 
 H                    -0.7164   -0.495    -6.6137 
 H                    -0.6801    1.224    -6.9648 
 H                     0.3392   -1.3477   -4.461 
 H                     0.3922   -0.2782   -3.0635 
 H                     1.6969   -0.2202   -4.247 
 H                     4.2066    0.8214   -0.546 
 H                     3.0521    0.6667   -1.8702 
 H                     2.168     4.8888   -0.3372 
 H                    -1.8011    3.7049    0.0899 
 H                    -0.5694    4.5831   -0.8147 
 H                    -0.3234    3.3545    1.9756 
 H                    -1.6629    6.2349    0.8638 
 H                    -1.8203    5.4971    2.4745 
 H                    -1.0531    7.077     2.2912 
 H                     2.2695    5.544     1.8809 
 H                     1.3021    7.0531    2.3184 
 H                     3.9141    5.1679   -2.8523 
 H                     5.0039    4.5036   -4.0362 
 H                     5.5012    4.5613   -2.3324 
 H                     5.9844    1.9414   -2.5695 
 H                     5.4781    2.1751   -4.2558 
 H                     4.7103    0.9363   -3.3033 
 H                     1.4532   -2.1521    0.2486 
 H                     2.686    -1.4707   -0.8152 
 H                     2.8039   -1.2543    0.9464 
 C                     1.2364    0.264    -7.0445 
 H                     1.7516   -0.6136   -6.6427 
 H                     1.8637    1.1425   -6.8689 
 H                     1.149     0.1255   -8.1272 
 

 GradGradGradGradGradGradGradGradGradGradGradGradGradGradGradGradGradGrad
 Berny optimization.
 Initialization pass.
                           ----------------------------
                           !    Initial Parameters    !
                           ! (Angstroms and Degrees)  !
 --------------------------                            --------------------------
 ! Name  Definition              Value          Derivative Info.                !
 --------------------------------------------------------------------------------
 ! R1    R(1,2)                  1.3414         estimate D2E/DX2                !
 ! R2    R(1,6)                  1.4944         estimate D2E/DX2                !
 ! R3    R(1,33)                 1.0887         estimate D2E/DX2                !
 ! R4    R(2,3)                  1.511          estimate D2E/DX2                !
 ! R5    R(2,32)                 1.5058         estimate D2E/DX2                !
 ! R6    R(3,4)                  1.5569         estimate D2E/DX2                !
 ! R7    R(3,20)                 1.5388         estimate D2E/DX2                !
 ! R8    R(3,31)                 1.1001         estimate D2E/DX2                !
 ! R9    R(4,5)                  1.536          estimate D2E/DX2                !
 ! R10   R(4,7)                  1.542          estimate D2E/DX2                !
 ! R11   R(4,24)                 1.4638         estimate D2E/DX2                !
 ! R12   R(5,6)                  1.545          estimate D2E/DX2                !
 ! R13   R(5,10)                 1.5371         estimate D2E/DX2                !
 ! R14   R(5,22)                 1.5297         estimate D2E/DX2                !
 ! R15   R(6,34)                 1.0966         estimate D2E/DX2                !
 ! R16   R(6,35)                 1.097          estimate D2E/DX2                !
 ! R17   R(7,8)                  1.4909         estimate D2E/DX2                !
 ! R18   R(7,17)                 1.5134         estimate D2E/DX2                !
 ! R19   R(7,21)                 1.416          estimate D2E/DX2                !
 ! R20   R(8,9)                  1.3375         estimate D2E/DX2                !
 ! R21   R(8,19)                 1.3937         estimate D2E/DX2                !
 ! R22   R(9,10)                 1.4807         estimate D2E/DX2                !
 ! R23   R(9,11)                 1.4886         estimate D2E/DX2                !
 ! R24   R(10,16)                1.2333         estimate D2E/DX2                !
 ! R25   R(11,12)                1.2316         estimate D2E/DX2                !
 ! R26   R(11,13)                1.5351         estimate D2E/DX2                !
 ! R27   R(13,14)                1.5424         estimate D2E/DX2                !
 ! R28   R(13,15)                1.5292         estimate D2E/DX2                !
 ! R29   R(13,36)                1.0975         estimate D2E/DX2                !
 ! R30   R(14,37)                1.0973         estimate D2E/DX2                !
 ! R31   R(14,38)                1.0971         estimate D2E/DX2                !
 ! R32   R(14,62)                1.5245         estimate D2E/DX2                !
 ! R33   R(15,39)                1.095          estimate D2E/DX2                !
 ! R34   R(15,40)                1.0939         estimate D2E/DX2                !
 ! R35   R(15,41)                1.0953         estimate D2E/DX2                !
 ! R36   R(17,18)                1.5427         estimate D2E/DX2                !
 ! R37   R(17,20)                1.5368         estimate D2E/DX2                !
 ! R38   R(17,30)                1.096          estimate D2E/DX2                !
 ! R39   R(18,19)                1.4494         estimate D2E/DX2                !
 ! R40   R(18,28)                1.5368         estimate D2E/DX2                !
 ! R41   R(18,29)                1.5328         estimate D2E/DX2                !
 ! R42   R(20,42)                1.0959         estimate D2E/DX2                !
 ! R43   R(20,43)                1.0968         estimate D2E/DX2                !
 ! R44   R(21,44)                0.9768         estimate D2E/DX2                !
 ! R45   R(22,23)                1.5224         estimate D2E/DX2                !
 ! R46   R(22,45)                1.0961         estimate D2E/DX2                !
 ! R47   R(22,46)                1.0981         estimate D2E/DX2                !
 ! R48   R(23,24)                1.4404         estimate D2E/DX2                !
 ! R49   R(23,25)                1.5136         estimate D2E/DX2                !
 ! R50   R(23,47)                1.0967         estimate D2E/DX2                !
 ! R51   R(25,26)                1.5064         estimate D2E/DX2                !
 ! R52   R(25,27)                1.3448         estimate D2E/DX2                !
 ! R53   R(26,48)                1.0944         estimate D2E/DX2                !
 ! R54   R(26,49)                1.095          estimate D2E/DX2                !
 ! R55   R(26,50)                1.0954         estimate D2E/DX2                !
 ! R56   R(27,51)                1.0852         estimate D2E/DX2                !
 ! R57   R(27,52)                1.0861         estimate D2E/DX2                !
 ! R58   R(28,53)                1.0931         estimate D2E/DX2                !
 ! R59   R(28,54)                1.0966         estimate D2E/DX2                !
 ! R60   R(28,55)                1.0948         estimate D2E/DX2                !
 ! R61   R(29,56)                1.0947         estimate D2E/DX2                !
 ! R62   R(29,57)                1.0966         estimate D2E/DX2                !
 ! R63   R(29,58)                1.0944         estimate D2E/DX2                !
 ! R64   R(32,59)                1.0954         estimate D2E/DX2                !
 ! R65   R(32,60)                1.0942         estimate D2E/DX2                !
 ! R66   R(32,61)                1.0949         estimate D2E/DX2                !
 ! R67   R(62,63)                1.0941         estimate D2E/DX2                !
 ! R68   R(62,64)                1.0937         estimate D2E/DX2                !
 ! R69   R(62,65)                1.095          estimate D2E/DX2                !
 ! A1    A(2,1,6)              123.632          estimate D2E/DX2                !
 ! A2    A(2,1,33)             120.04           estimate D2E/DX2                !
 ! A3    A(6,1,33)             116.2195         estimate D2E/DX2                !
 ! A4    A(1,2,3)              121.6167         estimate D2E/DX2                !
 ! A5    A(1,2,32)             120.7811         estimate D2E/DX2                !
 ! A6    A(3,2,32)             117.4647         estimate D2E/DX2                !
 ! A7    A(2,3,4)              116.1131         estimate D2E/DX2                !
 ! A8    A(2,3,20)             113.0388         estimate D2E/DX2                !
 ! A9    A(2,3,31)             106.3643         estimate D2E/DX2                !
 ! A10   A(4,3,20)             105.7184         estimate D2E/DX2                !
 ! A11   A(4,3,31)             108.3092         estimate D2E/DX2                !
 ! A12   A(20,3,31)            106.8925         estimate D2E/DX2                !
 ! A13   A(3,4,5)              118.2858         estimate D2E/DX2                !
 ! A14   A(3,4,7)              104.7846         estimate D2E/DX2                !
 ! A15   A(3,4,24)             107.2099         estimate D2E/DX2                !
 ! A16   A(5,4,7)              112.786          estimate D2E/DX2                !
 ! A17   A(5,4,24)             106.2389         estimate D2E/DX2                !
 ! A18   A(7,4,24)             106.9452         estimate D2E/DX2                !
 ! A19   A(4,5,6)              112.6786         estimate D2E/DX2                !
 ! A20   A(4,5,10)             116.1224         estimate D2E/DX2                !
 ! A21   A(4,5,22)             101.6766         estimate D2E/DX2                !
 ! A22   A(6,5,10)             108.3752         estimate D2E/DX2                !
 ! A23   A(6,5,22)             109.8166         estimate D2E/DX2                !
 ! A24   A(10,5,22)            107.7993         estimate D2E/DX2                !
 ! A25   A(1,6,5)              113.9225         estimate D2E/DX2                !
 ! A26   A(1,6,34)             106.9961         estimate D2E/DX2                !
 ! A27   A(1,6,35)             107.9694         estimate D2E/DX2                !
 ! A28   A(5,6,34)             111.7385         estimate D2E/DX2                !
 ! A29   A(5,6,35)             110.6374         estimate D2E/DX2                !
 ! A30   A(34,6,35)            105.105          estimate D2E/DX2                !
 ! A31   A(4,7,8)              115.4922         estimate D2E/DX2                !
 ! A32   A(4,7,17)             107.4361         estimate D2E/DX2                !
 ! A33   A(4,7,21)             112.2572         estimate D2E/DX2                !
 ! A34   A(8,7,17)              99.6006         estimate D2E/DX2                !
 ! A35   A(8,7,21)             108.8372         estimate D2E/DX2                !
 ! A36   A(17,7,21)            112.6253         estimate D2E/DX2                !
 ! A37   A(7,8,9)              123.7171         estimate D2E/DX2                !
 ! A38   A(7,8,19)             112.7648         estimate D2E/DX2                !
 ! A39   A(9,8,19)             122.7638         estimate D2E/DX2                !
 ! A40   A(8,9,10)             119.1243         estimate D2E/DX2                !
 ! A41   A(8,9,11)             119.3158         estimate D2E/DX2                !
 ! A42   A(10,9,11)            121.5295         estimate D2E/DX2                !
 ! A43   A(5,10,9)             120.7979         estimate D2E/DX2                !
 ! A44   A(5,10,16)            120.4263         estimate D2E/DX2                !
 ! A45   A(9,10,16)            118.7753         estimate D2E/DX2                !
 ! A46   A(9,11,12)            119.4842         estimate D2E/DX2                !
 ! A47   A(9,11,13)            118.0524         estimate D2E/DX2                !
 ! A48   A(12,11,13)           122.4178         estimate D2E/DX2                !
 ! A49   A(11,13,14)           111.6258         estimate D2E/DX2                !
 ! A50   A(11,13,15)           112.2679         estimate D2E/DX2                !
 ! A51   A(11,13,36)           106.3332         estimate D2E/DX2                !
 ! A52   A(14,13,15)           111.5156         estimate D2E/DX2                !
 ! A53   A(14,13,36)           106.3531         estimate D2E/DX2                !
 ! A54   A(15,13,36)           108.3751         estimate D2E/DX2                !
 ! A55   A(13,14,37)           108.8187         estimate D2E/DX2                !
 ! A56   A(13,14,38)           109.6332         estimate D2E/DX2                !
 ! A57   A(13,14,62)           114.8843         estimate D2E/DX2                !
 ! A58   A(37,14,38)           106.2016         estimate D2E/DX2                !
 ! A59   A(37,14,62)           108.2317         estimate D2E/DX2                !
 ! A60   A(38,14,62)           108.712          estimate D2E/DX2                !
 ! A61   A(13,15,39)           111.0528         estimate D2E/DX2                !
 ! A62   A(13,15,40)           111.066          estimate D2E/DX2                !
 ! A63   A(13,15,41)           111.6969         estimate D2E/DX2                !
 ! A64   A(39,15,40)           107.0868         estimate D2E/DX2                !
 ! A65   A(39,15,41)           108.5093         estimate D2E/DX2                !
 ! A66   A(40,15,41)           107.2302         estimate D2E/DX2                !
 ! A67   A(7,17,18)            102.665          estimate D2E/DX2                !
 ! A68   A(7,17,20)            101.9223         estimate D2E/DX2                !
 ! A69   A(7,17,30)            113.3345         estimate D2E/DX2                !
 ! A70   A(18,17,20)           114.9846         estimate D2E/DX2                !
 ! A71   A(18,17,30)           112.3159         estimate D2E/DX2                !
 ! A72   A(20,17,30)           110.9512         estimate D2E/DX2                !
 ! A73   A(17,18,19)           105.5431         estimate D2E/DX2                !
 ! A74   A(17,18,28)           112.9194         estimate D2E/DX2                !
 ! A75   A(17,18,29)           113.4597         estimate D2E/DX2                !
 ! A76   A(19,18,28)           108.2237         estimate D2E/DX2                !
 ! A77   A(19,18,29)           108.256          estimate D2E/DX2                !
 ! A78   A(28,18,29)           108.2082         estimate D2E/DX2                !
 ! A79   A(8,19,18)            106.3927         estimate D2E/DX2                !
 ! A80   A(3,20,17)            105.5475         estimate D2E/DX2                !
 ! A81   A(3,20,42)            111.6295         estimate D2E/DX2                !
 ! A82   A(3,20,43)            110.0052         estimate D2E/DX2                !
 ! A83   A(17,20,42)           110.8815         estimate D2E/DX2                !
 ! A84   A(17,20,43)           111.7639         estimate D2E/DX2                !
 ! A85   A(42,20,43)           107.0812         estimate D2E/DX2                !
 ! A86   A(7,21,44)            106.056          estimate D2E/DX2                !
 ! A87   A(5,22,23)            103.0237         estimate D2E/DX2                !
 ! A88   A(5,22,45)            113.2454         estimate D2E/DX2                !
 ! A89   A(5,22,46)            110.6808         estimate D2E/DX2                !
 ! A90   A(23,22,45)           112.1537         estimate D2E/DX2                !
 ! A91   A(23,22,46)           110.9147         estimate D2E/DX2                !
 ! A92   A(45,22,46)           106.8917         estimate D2E/DX2                !
 ! A93   A(22,23,24)           105.4931         estimate D2E/DX2                !
 ! A94   A(22,23,25)           114.9353         estimate D2E/DX2                !
 ! A95   A(22,23,47)           110.211          estimate D2E/DX2                !
 ! A96   A(24,23,25)           111.6537         estimate D2E/DX2                !
 ! A97   A(24,23,47)           106.5973         estimate D2E/DX2                !
 ! A98   A(25,23,47)           107.6625         estimate D2E/DX2                !
 ! A99   A(4,24,23)            109.7187         estimate D2E/DX2                !
 ! A100  A(23,25,26)           115.805          estimate D2E/DX2                !
 ! A101  A(23,25,27)           124.0763         estimate D2E/DX2                !
 ! A102  A(26,25,27)           120.0708         estimate D2E/DX2                !
 ! A103  A(25,26,48)           110.6953         estimate D2E/DX2                !
 ! A104  A(25,26,49)           110.2394         estimate D2E/DX2                !
 ! A105  A(25,26,50)           112.1633         estimate D2E/DX2                !
 ! A106  A(48,26,49)           108.6545         estimate D2E/DX2                !
 ! A107  A(48,26,50)           107.4987         estimate D2E/DX2                !
 ! A108  A(49,26,50)           107.4511         estimate D2E/DX2                !
 ! A109  A(25,27,51)           122.1137         estimate D2E/DX2                !
 ! A110  A(25,27,52)           121.4906         estimate D2E/DX2                !
 ! A111  A(51,27,52)           116.3842         estimate D2E/DX2                !
 ! A112  A(18,28,53)           112.5926         estimate D2E/DX2                !
 ! A113  A(18,28,54)           110.5371         estimate D2E/DX2                !
 ! A114  A(18,28,55)           111.2731         estimate D2E/DX2                !
 ! A115  A(53,28,54)           105.3131         estimate D2E/DX2                !
 ! A116  A(53,28,55)           108.6034         estimate D2E/DX2                !
 ! A117  A(54,28,55)           108.2642         estimate D2E/DX2                !
 ! A118  A(18,29,56)           111.3708         estimate D2E/DX2                !
 ! A119  A(18,29,57)           110.6846         estimate D2E/DX2                !
 ! A120  A(18,29,58)           112.1            estimate D2E/DX2                !
 ! A121  A(56,29,57)           108.2987         estimate D2E/DX2                !
 ! A122  A(56,29,58)           108.8934         estimate D2E/DX2                !
 ! A123  A(57,29,58)           105.2451         estimate D2E/DX2                !
 ! A124  A(2,32,59)            112.0517         estimate D2E/DX2                !
 ! A125  A(2,32,60)            110.8138         estimate D2E/DX2                !
 ! A126  A(2,32,61)            110.2583         estimate D2E/DX2                !
 ! A127  A(59,32,60)           107.4461         estimate D2E/DX2                !
 ! A128  A(59,32,61)           107.435          estimate D2E/DX2                !
 ! A129  A(60,32,61)           108.6959         estimate D2E/DX2                !
 ! A130  A(14,62,63)           111.4388         estimate D2E/DX2                !
 ! A131  A(14,62,64)           111.7846         estimate D2E/DX2                !
 ! A132  A(14,62,65)           109.8362         estimate D2E/DX2                !
 ! A133  A(63,62,64)           108.3764         estimate D2E/DX2                !
 ! A134  A(63,62,65)           107.4121         estimate D2E/DX2                !
 ! A135  A(64,62,65)           107.8264         estimate D2E/DX2                !
 ! D1    D(6,1,2,3)             -0.6493         estimate D2E/DX2                !
 ! D2    D(6,1,2,32)           174.9795         estimate D2E/DX2                !
 ! D3    D(33,1,2,3)          -176.7153         estimate D2E/DX2                !
 ! D4    D(33,1,2,32)           -1.0865         estimate D2E/DX2                !
 ! D5    D(2,1,6,5)             29.8372         estimate D2E/DX2                !
 ! D6    D(2,1,6,34)           -94.1683         estimate D2E/DX2                !
 ! D7    D(2,1,6,35)           153.1509         estimate D2E/DX2                !
 ! D8    D(33,1,6,5)          -153.9587         estimate D2E/DX2                !
 ! D9    D(33,1,6,34)           82.0357         estimate D2E/DX2                !
 ! D10   D(33,1,6,35)          -30.645          estimate D2E/DX2                !
 ! D11   D(1,2,3,4)            -13.1605         estimate D2E/DX2                !
 ! D12   D(1,2,3,20)          -135.5936         estimate D2E/DX2                !
 ! D13   D(1,2,3,31)           107.4076         estimate D2E/DX2                !
 ! D14   D(32,2,3,4)           171.0716         estimate D2E/DX2                !
 ! D15   D(32,2,3,20)           48.6386         estimate D2E/DX2                !
 ! D16   D(32,2,3,31)          -68.3602         estimate D2E/DX2                !
 ! D17   D(1,2,32,59)           -4.7373         estimate D2E/DX2                !
 ! D18   D(1,2,32,60)          115.2654         estimate D2E/DX2                !
 ! D19   D(1,2,32,61)         -124.3474         estimate D2E/DX2                !
 ! D20   D(3,2,32,59)          171.0678         estimate D2E/DX2                !
 ! D21   D(3,2,32,60)          -68.9295         estimate D2E/DX2                !
 ! D22   D(3,2,32,61)           51.4577         estimate D2E/DX2                !
 ! D23   D(2,3,4,5)             -3.1537         estimate D2E/DX2                !
 ! D24   D(2,3,4,7)           -129.8012         estimate D2E/DX2                !
 ! D25   D(2,3,4,24)           116.7884         estimate D2E/DX2                !
 ! D26   D(20,3,4,5)           123.0548         estimate D2E/DX2                !
 ! D27   D(20,3,4,7)            -3.5927         estimate D2E/DX2                !
 ! D28   D(20,3,4,24)         -117.0031         estimate D2E/DX2                !
 ! D29   D(31,3,4,5)          -122.672          estimate D2E/DX2                !
 ! D30   D(31,3,4,7)           110.6805         estimate D2E/DX2                !
 ! D31   D(31,3,4,24)           -2.7299         estimate D2E/DX2                !
 ! D32   D(2,3,20,17)          153.716          estimate D2E/DX2                !
 ! D33   D(2,3,20,42)          -85.7322         estimate D2E/DX2                !
 ! D34   D(2,3,20,43)           32.9942         estimate D2E/DX2                !
 ! D35   D(4,3,20,17)           25.6507         estimate D2E/DX2                !
 ! D36   D(4,3,20,42)          146.2025         estimate D2E/DX2                !
 ! D37   D(4,3,20,43)          -95.071          estimate D2E/DX2                !
 ! D38   D(31,3,20,17)         -89.5969         estimate D2E/DX2                !
 ! D39   D(31,3,20,42)          30.9549         estimate D2E/DX2                !
 ! D40   D(31,3,20,43)         149.6813         estimate D2E/DX2                !
 ! D41   D(3,4,5,6)             30.3014         estimate D2E/DX2                !
 ! D42   D(3,4,5,10)           -95.5326         estimate D2E/DX2                !
 ! D43   D(3,4,5,22)           147.788          estimate D2E/DX2                !
 ! D44   D(7,4,5,6)            153.0103         estimate D2E/DX2                !
 ! D45   D(7,4,5,10)            27.1763         estimate D2E/DX2                !
 ! D46   D(7,4,5,22)           -89.503          estimate D2E/DX2                !
 ! D47   D(24,4,5,6)           -90.1422         estimate D2E/DX2                !
 ! D48   D(24,4,5,10)          144.0238         estimate D2E/DX2                !
 ! D49   D(24,4,5,22)           27.3445         estimate D2E/DX2                !
 ! D50   D(3,4,7,8)             89.8519         estimate D2E/DX2                !
 ! D51   D(3,4,7,17)           -20.2334         estimate D2E/DX2                !
 ! D52   D(3,4,7,21)          -144.5822         estimate D2E/DX2                !
 ! D53   D(5,4,7,8)            -40.1229         estimate D2E/DX2                !
 ! D54   D(5,4,7,17)          -150.2081         estimate D2E/DX2                !
 ! D55   D(5,4,7,21)            85.443          estimate D2E/DX2                !
 ! D56   D(24,4,7,8)          -156.5508         estimate D2E/DX2                !
 ! D57   D(24,4,7,17)           93.364          estimate D2E/DX2                !
 ! D58   D(24,4,7,21)          -30.9849         estimate D2E/DX2                !
 ! D59   D(3,4,24,23)         -134.6234         estimate D2E/DX2                !
 ! D60   D(5,4,24,23)           -7.257          estimate D2E/DX2                !
 ! D61   D(7,4,24,23)          113.4359         estimate D2E/DX2                !
 ! D62   D(4,5,6,1)            -42.7446         estimate D2E/DX2                !
 ! D63   D(4,5,6,34)            78.664          estimate D2E/DX2                !
 ! D64   D(4,5,6,35)          -164.5959         estimate D2E/DX2                !
 ! D65   D(10,5,6,1)            87.1689         estimate D2E/DX2                !
 ! D66   D(10,5,6,34)         -151.4226         estimate D2E/DX2                !
 ! D67   D(10,5,6,35)          -34.6824         estimate D2E/DX2                !
 ! D68   D(22,5,6,1)          -155.3097         estimate D2E/DX2                !
 ! D69   D(22,5,6,34)          -33.9011         estimate D2E/DX2                !
 ! D70   D(22,5,6,35)           82.839          estimate D2E/DX2                !
 ! D71   D(4,5,10,9)            -1.5346         estimate D2E/DX2                !
 ! D72   D(4,5,10,16)          178.204          estimate D2E/DX2                !
 ! D73   D(6,5,10,9)          -129.5148         estimate D2E/DX2                !
 ! D74   D(6,5,10,16)           50.2238         estimate D2E/DX2                !
 ! D75   D(22,5,10,9)          111.6803         estimate D2E/DX2                !
 ! D76   D(22,5,10,16)         -68.5811         estimate D2E/DX2                !
 ! D77   D(4,5,22,23)          -36.4166         estimate D2E/DX2                !
 ! D78   D(4,5,22,45)         -157.789          estimate D2E/DX2                !
 ! D79   D(4,5,22,46)           82.2004         estimate D2E/DX2                !
 ! D80   D(6,5,22,23)           83.1189         estimate D2E/DX2                !
 ! D81   D(6,5,22,45)          -38.2534         estimate D2E/DX2                !
 ! D82   D(6,5,22,46)         -158.264          estimate D2E/DX2                !
 ! D83   D(10,5,22,23)        -159.0013         estimate D2E/DX2                !
 ! D84   D(10,5,22,45)          79.6263         estimate D2E/DX2                !
 ! D85   D(10,5,22,46)         -40.3843         estimate D2E/DX2                !
 ! D86   D(4,7,8,9)             28.3581         estimate D2E/DX2                !
 ! D87   D(4,7,8,19)          -141.9163         estimate D2E/DX2                !
 ! D88   D(17,7,8,9)           143.0241         estimate D2E/DX2                !
 ! D89   D(17,7,8,19)          -27.2503         estimate D2E/DX2                !
 ! D90   D(21,7,8,9)           -98.9447         estimate D2E/DX2                !
 ! D91   D(21,7,8,19)           90.7809         estimate D2E/DX2                !
 ! D92   D(4,7,17,18)          155.0407         estimate D2E/DX2                !
 ! D93   D(4,7,17,20)           35.7068         estimate D2E/DX2                !
 ! D94   D(4,7,17,30)          -83.5741         estimate D2E/DX2                !
 ! D95   D(8,7,17,18)           34.3337         estimate D2E/DX2                !
 ! D96   D(8,7,17,20)          -85.0002         estimate D2E/DX2                !
 ! D97   D(8,7,17,30)          155.7188         estimate D2E/DX2                !
 ! D98   D(21,7,17,18)         -80.8338         estimate D2E/DX2                !
 ! D99   D(21,7,17,20)         159.8323         estimate D2E/DX2                !
 ! D100  D(21,7,17,30)          40.5513         estimate D2E/DX2                !
 ! D101  D(4,7,21,44)           39.6595         estimate D2E/DX2                !
 ! D102  D(8,7,21,44)          168.7814         estimate D2E/DX2                !
 ! D103  D(17,7,21,44)         -81.7619         estimate D2E/DX2                !
 ! D104  D(7,8,9,10)            -0.7577         estimate D2E/DX2                !
 ! D105  D(7,8,9,11)          -178.7809         estimate D2E/DX2                !
 ! D106  D(19,8,9,10)          168.5672         estimate D2E/DX2                !
 ! D107  D(19,8,9,11)           -9.456          estimate D2E/DX2                !
 ! D108  D(7,8,19,18)            7.2771         estimate D2E/DX2                !
 ! D109  D(9,8,19,18)         -163.1038         estimate D2E/DX2                !
 ! D110  D(8,9,10,5)           -13.1341         estimate D2E/DX2                !
 ! D111  D(8,9,10,16)          167.1231         estimate D2E/DX2                !
 ! D112  D(11,9,10,5)          164.8437         estimate D2E/DX2                !
 ! D113  D(11,9,10,16)         -14.8991         estimate D2E/DX2                !
 ! D114  D(8,9,11,12)          -61.0166         estimate D2E/DX2                !
 ! D115  D(8,9,11,13)          121.3806         estimate D2E/DX2                !
 ! D116  D(10,9,11,12)         121.0094         estimate D2E/DX2                !
 ! D117  D(10,9,11,13)         -56.5935         estimate D2E/DX2                !
 ! D118  D(9,11,13,14)        -171.2856         estimate D2E/DX2                !
 ! D119  D(9,11,13,15)         -45.224          estimate D2E/DX2                !
 ! D120  D(9,11,13,36)          73.133          estimate D2E/DX2                !
 ! D121  D(12,11,13,14)         11.1864         estimate D2E/DX2                !
 ! D122  D(12,11,13,15)        137.248          estimate D2E/DX2                !
 ! D123  D(12,11,13,36)       -104.395          estimate D2E/DX2                !
 ! D124  D(11,13,14,37)       -167.3144         estimate D2E/DX2                !
 ! D125  D(11,13,14,38)        -51.5581         estimate D2E/DX2                !
 ! D126  D(11,13,14,62)         71.19           estimate D2E/DX2                !
 ! D127  D(15,13,14,37)         66.212          estimate D2E/DX2                !
 ! D128  D(15,13,14,38)       -178.0317         estimate D2E/DX2                !
 ! D129  D(15,13,14,62)        -55.2837         estimate D2E/DX2                !
 ! D130  D(36,13,14,37)        -51.7452         estimate D2E/DX2                !
 ! D131  D(36,13,14,38)         64.0112         estimate D2E/DX2                !
 ! D132  D(36,13,14,62)       -173.2408         estimate D2E/DX2                !
 ! D133  D(11,13,15,39)       -172.2969         estimate D2E/DX2                !
 ! D134  D(11,13,15,40)         68.648          estimate D2E/DX2                !
 ! D135  D(11,13,15,41)        -51.0145         estimate D2E/DX2                !
 ! D136  D(14,13,15,39)        -46.1755         estimate D2E/DX2                !
 ! D137  D(14,13,15,40)       -165.2306         estimate D2E/DX2                !
 ! D138  D(14,13,15,41)         75.1069         estimate D2E/DX2                !
 ! D139  D(36,13,15,39)         70.5589         estimate D2E/DX2                !
 ! D140  D(36,13,15,40)        -48.4961         estimate D2E/DX2                !
 ! D141  D(36,13,15,41)       -168.1586         estimate D2E/DX2                !
 ! D142  D(13,14,62,63)         64.9417         estimate D2E/DX2                !
 ! D143  D(13,14,62,64)        -56.5031         estimate D2E/DX2                !
 ! D144  D(13,14,62,65)       -176.1494         estimate D2E/DX2                !
 ! D145  D(37,14,62,63)        -56.873          estimate D2E/DX2                !
 ! D146  D(37,14,62,64)       -178.3178         estimate D2E/DX2                !
 ! D147  D(37,14,62,65)         62.0359         estimate D2E/DX2                !
 ! D148  D(38,14,62,63)       -171.8169         estimate D2E/DX2                !
 ! D149  D(38,14,62,64)         66.7383         estimate D2E/DX2                !
 ! D150  D(38,14,62,65)        -52.908          estimate D2E/DX2                !
 ! D151  D(7,17,18,19)         -32.5161         estimate D2E/DX2                !
 ! D152  D(7,17,18,28)          85.5195         estimate D2E/DX2                !
 ! D153  D(7,17,18,29)        -150.8857         estimate D2E/DX2                !
 ! D154  D(20,17,18,19)         77.2579         estimate D2E/DX2                !
 ! D155  D(20,17,18,28)       -164.7065         estimate D2E/DX2                !
 ! D156  D(20,17,18,29)        -41.1118         estimate D2E/DX2                !
 ! D157  D(30,17,18,19)       -154.5945         estimate D2E/DX2                !
 ! D158  D(30,17,18,28)        -36.5589         estimate D2E/DX2                !
 ! D159  D(30,17,18,29)         87.0359         estimate D2E/DX2                !
 ! D160  D(7,17,20,3)          -37.5795         estimate D2E/DX2                !
 ! D161  D(7,17,20,42)        -158.6195         estimate D2E/DX2                !
 ! D162  D(7,17,20,43)          81.9866         estimate D2E/DX2                !
 ! D163  D(18,17,20,3)        -147.7982         estimate D2E/DX2                !
 ! D164  D(18,17,20,42)         91.1618         estimate D2E/DX2                !
 ! D165  D(18,17,20,43)        -28.2321         estimate D2E/DX2                !
 ! D166  D(30,17,20,3)          83.3735         estimate D2E/DX2                !
 ! D167  D(30,17,20,42)        -37.6666         estimate D2E/DX2                !
 ! D168  D(30,17,20,43)       -157.0604         estimate D2E/DX2                !
 ! D169  D(17,18,19,8)          15.9759         estimate D2E/DX2                !
 ! D170  D(28,18,19,8)        -105.1645         estimate D2E/DX2                !
 ! D171  D(29,18,19,8)         137.7697         estimate D2E/DX2                !
 ! D172  D(17,18,28,53)        -62.2884         estimate D2E/DX2                !
 ! D173  D(17,18,28,54)       -179.7621         estimate D2E/DX2                !
 ! D174  D(17,18,28,55)         59.9068         estimate D2E/DX2                !
 ! D175  D(19,18,28,53)         54.1671         estimate D2E/DX2                !
 ! D176  D(19,18,28,54)        -63.3066         estimate D2E/DX2                !
 ! D177  D(19,18,28,55)        176.3623         estimate D2E/DX2                !
 ! D178  D(29,18,28,53)        171.2637         estimate D2E/DX2                !
 ! D179  D(29,18,28,54)         53.79           estimate D2E/DX2                !
 ! D180  D(29,18,28,55)        -66.5412         estimate D2E/DX2                !
 ! D181  D(17,18,29,56)        -57.6226         estimate D2E/DX2                !
 ! D182  D(17,18,29,57)       -178.1618         estimate D2E/DX2                !
 ! D183  D(17,18,29,58)         64.666          estimate D2E/DX2                !
 ! D184  D(19,18,29,56)       -174.4141         estimate D2E/DX2                !
 ! D185  D(19,18,29,57)         65.0467         estimate D2E/DX2                !
 ! D186  D(19,18,29,58)        -52.1255         estimate D2E/DX2                !
 ! D187  D(28,18,29,56)         68.5101         estimate D2E/DX2                !
 ! D188  D(28,18,29,57)        -52.029          estimate D2E/DX2                !
 ! D189  D(28,18,29,58)       -169.2012         estimate D2E/DX2                !
 ! D190  D(5,22,23,24)          33.2696         estimate D2E/DX2                !
 ! D191  D(5,22,23,25)         156.7155         estimate D2E/DX2                !
 ! D192  D(5,22,23,47)         -81.4332         estimate D2E/DX2                !
 ! D193  D(45,22,23,24)        155.3802         estimate D2E/DX2                !
 ! D194  D(45,22,23,25)        -81.174          estimate D2E/DX2                !
 ! D195  D(45,22,23,47)         40.6774         estimate D2E/DX2                !
 ! D196  D(46,22,23,24)        -85.184          estimate D2E/DX2                !
 ! D197  D(46,22,23,25)         38.2619         estimate D2E/DX2                !
 ! D198  D(46,22,23,47)        160.1132         estimate D2E/DX2                !
 ! D199  D(22,23,24,4)         -16.3006         estimate D2E/DX2                !
 ! D200  D(25,23,24,4)        -141.8045         estimate D2E/DX2                !
 ! D201  D(47,23,24,4)         100.8746         estimate D2E/DX2                !
 ! D202  D(22,23,25,26)         53.3032         estimate D2E/DX2                !
 ! D203  D(22,23,25,27)       -129.2223         estimate D2E/DX2                !
 ! D204  D(24,23,25,26)        173.4047         estimate D2E/DX2                !
 ! D205  D(24,23,25,27)         -9.1208         estimate D2E/DX2                !
 ! D206  D(47,23,25,26)        -69.9189         estimate D2E/DX2                !
 ! D207  D(47,23,25,27)        107.5556         estimate D2E/DX2                !
 ! D208  D(23,25,26,48)        -66.7108         estimate D2E/DX2                !
 ! D209  D(23,25,26,49)         53.5353         estimate D2E/DX2                !
 ! D210  D(23,25,26,50)        173.2262         estimate D2E/DX2                !
 ! D211  D(27,25,26,48)        115.7064         estimate D2E/DX2                !
 ! D212  D(27,25,26,49)       -124.0476         estimate D2E/DX2                !
 ! D213  D(27,25,26,50)         -4.3567         estimate D2E/DX2                !
 ! D214  D(23,25,27,51)         -0.1776         estimate D2E/DX2                !
 ! D215  D(23,25,27,52)       -178.9034         estimate D2E/DX2                !
 ! D216  D(26,25,27,51)        177.1951         estimate D2E/DX2                !
 ! D217  D(26,25,27,52)         -1.5308         estimate D2E/DX2                !
 --------------------------------------------------------------------------------
 Trust Radius=3.00D-01 FncErr=1.00D-07 GrdErr=1.00D-06
 Number of steps in this run=    390 maximum allowed number of steps=    390.
 GradGradGradGradGradGradGradGradGradGradGradGradGradGradGradGradGradGrad

 Stoichiometry    C26H34O5
 Framework group  C1[X(C26H34O5)]
 Deg. of freedom   189
 Full point group                 C1      NOp   1
 Largest Abelian subgroup         C1      NOp   1
 Largest concise Abelian subgroup C1      NOp   1
                         Standard orientation:                         
 ---------------------------------------------------------------------
 Center     Atomic      Atomic             Coordinates (Angstroms)
 Number     Number       Type             X           Y           Z
 ---------------------------------------------------------------------
      1          6           0       -0.555536   -2.156235    2.376730
      2          6           0       -0.400725   -0.907674    2.842008
      3          6           0       -0.924380    0.290427    2.084803
      4          6           0       -1.359644    0.033693    0.612161
      5          6           0       -1.157938   -1.372556    0.028185
      6          6           0       -1.258093   -2.482080    1.098623
      7          6           0       -0.645039    1.128227   -0.205900
      8          6           0        0.709973    0.768416   -0.713234
      9          6           0        1.090005   -0.483224   -0.992443
     10          6           0        0.132363   -1.591964   -0.777875
     11          6           0        2.477805   -0.734477   -1.468722
     12          8           0        2.861469   -0.216949   -2.518392
     13          6           0        3.361802   -1.684111   -0.648258
     14          6           0        4.822378   -1.671594   -1.143891
     15          6           0        3.276420   -1.403614    0.852552
     16          8           0        0.390380   -2.699858   -1.254328
     17          6           0       -0.269400    2.237874    0.752123
     18          6           0        0.929116    2.903905    0.045050
     19          8           0        1.605638    1.835042   -0.662415
     20          6           0        0.082655    1.452464    2.025316
     21          8           0       -1.431992    1.587509   -1.289832
     22          6           0       -2.337661   -1.477914   -0.939877
     23          6           0       -3.449910   -0.741045   -0.206743
     24          8           0       -2.795016    0.308789    0.530570
     25          6           0       -4.548907   -0.198153   -1.094659
     26          6           0       -5.193294   -1.193679   -2.023581
     27          6           0       -4.991152    1.071290   -1.055577
     28          6           0        0.503894    3.965767   -0.981284
     29          6           0        1.928515    3.546734    1.013224
     30          1           0       -1.086324    2.943887    0.940475
     31          1           0       -1.798631    0.653437    2.645293
     32          6           0        0.218956   -0.659599    4.191765
     33          1           0       -0.215683   -3.004447    2.968566
     34          1           0       -2.300506   -2.706979    1.354167
     35          1           0       -0.847319   -3.425182    0.717552
     36          1           0        2.981408   -2.696875   -0.833140
     37          1           0        5.357170   -2.515904   -0.690814
     38          1           0        4.845354   -1.840751   -2.227617
     39          1           0        4.012180   -1.996429    1.406006
     40          1           0        2.290203   -1.666425    1.246198
     41          1           0        3.443565   -0.344565    1.076728
     42          1           0        0.012720    2.093394    2.911553
     43          1           0        1.106454    1.060386    1.991254
     44          1           0       -2.348671    1.637305   -0.956140
     45          1           0       -2.612704   -2.512380   -1.175670
     46          1           0       -2.102688   -0.985147   -1.892653
     47          1           0       -3.916604   -1.400567    0.534872
     48          1           0       -4.480010   -1.534328   -2.780508
     49          1           0       -5.547980   -2.063050   -1.460140
     50          1           0       -6.055059   -0.769692   -2.550266
     51          1           0       -4.581529    1.803967   -0.367816
     52          1           0       -5.795505    1.411950   -1.700946
     53          1           0       -0.090590    3.546735   -1.797350
     54          1           0        1.383595    4.409911   -1.462259
     55          1           0       -0.070148    4.768660   -0.507533
     56          1           0        1.444439    4.297485    1.645975
     57          1           0        2.742609    4.033440    0.462929
     58          1           0        2.416799    2.805345    1.653320
     59          1           0        0.424465   -1.592581    4.727691
     60          1           0        1.167303   -0.123146    4.091512
     61          1           0       -0.456416   -0.064934    4.815466
     62          6           0        5.594835   -0.394874   -0.831681
     63          1           0        5.723946   -0.259068    0.246254
     64          1           0        5.094389    0.490777   -1.233276
     65          1           0        6.593697   -0.446524   -1.277403
 ---------------------------------------------------------------------
 Rotational constants (GHZ):      0.2166032      0.1269356      0.1178618
 Standard basis: 6-31G(d) (6D, 7F)
 There are   533 symmetry adapted basis functions of A   symmetry.
 Integral buffers will be    131072 words long.
 Raffenetti 2 integral format.
 Two-electron integral symmetry is turned on.
   533 basis functions,  1004 primitive gaussians,   533 cartesian basis functions
   115 alpha electrons      115 beta electrons
       nuclear repulsion energy      3545.8142941966 Hartrees.
 NAtoms=   65 NActive=   65 NUniq=   65 SFac= 1.00D+00 NAtFMM=   50 NAOKFM=T Big=T
 One-electron integrals computed using PRISM.
 NBasis=   533 RedAO= T  NBF=   533
 NBsUse=   533 1.00D-06 NBFU=   533
 Harris functional with IExCor=  402 diagonalized for initial guess.
 ExpMin= 1.61D-01 ExpMax= 5.48D+03 ExpMxC= 8.25D+02 IAcc=1 IRadAn=         1 AccDes= 0.00D+00
 HarFok:  IExCor=  402 AccDes= 0.00D+00 IRadAn=         1 IDoV= 1
 ScaDFX=  1.000000  1.000000  1.000000  1.000000
 FoFCou: FMM=F IPFlag=           0 FMFlag=      100000 FMFlg1=        2001
         NFxFlg=           0 DoJE=T BraDBF=F KetDBF=T FulRan=T
         Omega=  0.000000  0.000000  1.000000  0.000000  0.000000 ICntrl=     500 IOpCl=  0
         NMat0=    1 NMatS0=    1 NMatT0=    0 NMatD0=    1 NMtDS0=    0 NMtDT0=    0
         I1Cent=           4 NGrid=           0.
 Petite list used in FoFCou.
 Initial guess orbital symmetries:
       Occupied  (A) (A) (A) (A) (A) (A) (A) (A) (A) (A) (A) (A)
                 (A) (A) (A) (A) (A) (A) (A) (A) (A) (A) (A) (A)
                 (A) (A) (A) (A) (A) (A) (A) (A) (A) (A) (A) (A)
                 (A) (A) (A) (A) (A) (A) (A) (A) (A) (A) (A) (A)
                 (A) (A) (A) (A) (A) (A) (A) (A) (A) (A) (A) (A)
                 (A) (A) (A) (A) (A) (A) (A) (A) (A) (A) (A) (A)
                 (A) (A) (A) (A) (A) (A) (A) (A) (A) (A) (A) (A)
                 (A) (A) (A) (A) (A) (A) (A) (A) (A) (A) (A) (A)
                 (A) (A) (A) (A) (A) (A) (A) (A) (A) (A) (A) (A)
                 (A) (A) (A) (A) (A) (A) (A)
       Virtual   (A) (A) (A) (A) (A) (A) (A) (A) (A) (A) (A) (A)
                 (A) (A) (A) (A) (A) (A) (A) (A) (A) (A) (A) (A)
                 (A) (A) (A) (A) (A) (A) (A) (A) (A) (A) (A) (A)
                 (A) (A) (A) (A) (A) (A) (A) (A) (A) (A) (A) (A)
                 (A) (A) (A) (A) (A) (A) (A) (A) (A) (A) (A) (A)
                 (A) (A) (A) (A) (A) (A) (A) (A) (A) (A) (A) (A)
                 (A) (A) (A) (A) (A) (A) (A) (A) (A) (A) (A) (A)
                 (A) (A) (A) (A) (A) (A) (A) (A) (A) (A) (A) (A)
                 (A) (A) (A) (A) (A) (A) (A) (A) (A) (A) (A) (A)
                 (A) (A) (A) (A) (A) (A) (A) (A) (A) (A) (A) (A)
                 (A) (A) (A) (A) (A) (A) (A) (A) (A) (A) (A) (A)
                 (A) (A) (A) (A) (A) (A) (A) (A) (A) (A) (A) (A)
                 (A) (A) (A) (A) (A) (A) (A) (A) (A) (A) (A) (A)
                 (A) (A) (A) (A) (A) (A) (A) (A) (A) (A) (A) (A)
                 (A) (A) (A) (A) (A) (A) (A) (A) (A) (A) (A) (A)
                 (A) (A) (A) (A) (A) (A) (A) (A) (A) (A) (A) (A)
                 (A) (A) (A) (A) (A) (A) (A) (A) (A) (A) (A) (A)
                 (A) (A) (A) (A) (A) (A) (A) (A) (A) (A) (A) (A)
                 (A) (A) (A) (A) (A) (A) (A) (A) (A) (A) (A) (A)
                 (A) (A) (A) (A) (A) (A) (A) (A) (A) (A) (A) (A)
                 (A) (A) (A) (A) (A) (A) (A) (A) (A) (A) (A) (A)
                 (A) (A) (A) (A) (A) (A) (A) (A) (A) (A) (A) (A)
                 (A) (A) (A) (A) (A) (A) (A) (A) (A) (A) (A) (A)
                 (A) (A) (A) (A) (A) (A) (A) (A) (A) (A) (A) (A)
                 (A) (A) (A) (A) (A) (A) (A) (A) (A) (A) (A) (A)
                 (A) (A) (A) (A) (A) (A) (A) (A) (A) (A) (A) (A)
                 (A) (A) (A) (A) (A) (A) (A) (A) (A) (A) (A) (A)
                 (A) (A) (A) (A) (A) (A) (A) (A) (A) (A) (A) (A)
                 (A) (A) (A) (A) (A) (A) (A) (A) (A) (A) (A) (A)
                 (A) (A) (A) (A) (A) (A) (A) (A) (A) (A) (A) (A)
                 (A) (A) (A) (A) (A) (A) (A) (A) (A) (A) (A) (A)
                 (A) (A) (A) (A) (A) (A) (A) (A) (A) (A) (A) (A)
                 (A) (A) (A) (A) (A) (A) (A) (A) (A) (A) (A) (A)
                 (A) (A) (A) (A) (A) (A) (A) (A) (A) (A) (A) (A)
                 (A) (A) (A) (A) (A) (A) (A) (A) (A) (A)
 The electronic state of the initial guess is 1-A.
 Requested convergence on RMS density matrix=1.00D-08 within 128 cycles.
 Requested convergence on MAX density matrix=1.00D-06.
 Requested convergence on             energy=1.00D-06.
 No special actions if energy rises.
 Integral accuracy reduced to 1.0D-05 until final iterations.
 Initial convergence to 1.0D-05 achieved.  Increase integral accuracy.
 SCF Done:  E(RB3LYP) =  -1387.30440814     A.U. after   16 cycles
             Convg  =    0.3830D-08             -V/T =  2.0092

 **********************************************************************

            Population analysis using the SCF density.

 **********************************************************************

 Orbital symmetries:
       Occupied  (A) (A) (A) (A) (A) (A) (A) (A) (A) (A) (A) (A)
                 (A) (A) (A) (A) (A) (A) (A) (A) (A) (A) (A) (A)
                 (A) (A) (A) (A) (A) (A) (A) (A) (A) (A) (A) (A)
                 (A) (A) (A) (A) (A) (A) (A) (A) (A) (A) (A) (A)
                 (A) (A) (A) (A) (A) (A) (A) (A) (A) (A) (A) (A)
                 (A) (A) (A) (A) (A) (A) (A) (A) (A) (A) (A) (A)
                 (A) (A) (A) (A) (A) (A) (A) (A) (A) (A) (A) (A)
                 (A) (A) (A) (A) (A) (A) (A) (A) (A) (A) (A) (A)
                 (A) (A) (A) (A) (A) (A) (A) (A) (A) (A) (A) (A)
                 (A) (A) (A) (A) (A) (A) (A)
       Virtual   (A) (A) (A) (A) (A) (A) (A) (A) (A) (A) (A) (A)
                 (A) (A) (A) (A) (A) (A) (A) (A) (A) (A) (A) (A)
                 (A) (A) (A) (A) (A) (A) (A) (A) (A) (A) (A) (A)
                 (A) (A) (A) (A) (A) (A) (A) (A) (A) (A) (A) (A)
                 (A) (A) (A) (A) (A) (A) (A) (A) (A) (A) (A) (A)
                 (A) (A) (A) (A) (A) (A) (A) (A) (A) (A) (A) (A)
                 (A) (A) (A) (A) (A) (A) (A) (A) (A) (A) (A) (A)
                 (A) (A) (A) (A) (A) (A) (A) (A) (A) (A) (A) (A)
                 (A) (A) (A) (A) (A) (A) (A) (A) (A) (A) (A) (A)
                 (A) (A) (A) (A) (A) (A) (A) (A) (A) (A) (A) (A)
                 (A) (A) (A) (A) (A) (A) (A) (A) (A) (A) (A) (A)
                 (A) (A) (A) (A) (A) (A) (A) (A) (A) (A) (A) (A)
                 (A) (A) (A) (A) (A) (A) (A) (A) (A) (A) (A) (A)
                 (A) (A) (A) (A) (A) (A) (A) (A) (A) (A) (A) (A)
                 (A) (A) (A) (A) (A) (A) (A) (A) (A) (A) (A) (A)
                 (A) (A) (A) (A) (A) (A) (A) (A) (A) (A) (A) (A)
                 (A) (A) (A) (A) (A) (A) (A) (A) (A) (A) (A) (A)
                 (A) (A) (A) (A) (A) (A) (A) (A) (A) (A) (A) (A)
                 (A) (A) (A) (A) (A) (A) (A) (A) (A) (A) (A) (A)
                 (A) (A) (A) (A) (A) (A) (A) (A) (A) (A) (A) (A)
                 (A) (A) (A) (A) (A) (A) (A) (A) (A) (A) (A) (A)
                 (A) (A) (A) (A) (A) (A) (A) (A) (A) (A) (A) (A)
                 (A) (A) (A) (A) (A) (A) (A) (A) (A) (A) (A) (A)
                 (A) (A) (A) (A) (A) (A) (A) (A) (A) (A) (A) (A)
                 (A) (A) (A) (A) (A) (A) (A) (A) (A) (A) (A) (A)
                 (A) (A) (A) (A) (A) (A) (A) (A) (A) (A) (A) (A)
                 (A) (A) (A) (A) (A) (A) (A) (A) (A) (A) (A) (A)
                 (A) (A) (A) (A) (A) (A) (A) (A) (A) (A) (A) (A)
                 (A) (A) (A) (A) (A) (A) (A) (A) (A) (A) (A) (A)
                 (A) (A) (A) (A) (A) (A) (A) (A) (A) (A) (A) (A)
                 (A) (A) (A) (A) (A) (A) (A) (A) (A) (A) (A) (A)
                 (A) (A) (A) (A) (A) (A) (A) (A) (A) (A) (A) (A)
                 (A) (A) (A) (A) (A) (A) (A) (A) (A) (A) (A) (A)
                 (A) (A) (A) (A) (A) (A) (A) (A) (A) (A) (A) (A)
                 (A) (A) (A) (A) (A) (A) (A) (A) (A) (A)
 The electronic state is 1-A.
 Alpha  occ. eigenvalues --  -19.19438 -19.16942 -19.15167 -19.13637 -19.12944
 Alpha  occ. eigenvalues --  -10.28094 -10.27048 -10.26811 -10.26142 -10.25941
 Alpha  occ. eigenvalues --  -10.25543 -10.25351 -10.21892 -10.20811 -10.20555
 Alpha  occ. eigenvalues --  -10.20103 -10.19911 -10.19839 -10.19716 -10.19518
 Alpha  occ. eigenvalues --  -10.19456 -10.19146 -10.18853 -10.18624 -10.18576
 Alpha  occ. eigenvalues --  -10.18457 -10.18367 -10.17407 -10.17399 -10.16711
 Alpha  occ. eigenvalues --  -10.15673  -1.08311  -1.05996  -1.03425  -1.02294
 Alpha  occ. eigenvalues --   -1.02017  -0.87593  -0.84105  -0.82755  -0.81946
 Alpha  occ. eigenvalues --   -0.80602  -0.79769  -0.76972  -0.74670  -0.73869
 Alpha  occ. eigenvalues --   -0.72463  -0.71339  -0.69430  -0.69324  -0.68278
 Alpha  occ. eigenvalues --   -0.65450  -0.64497  -0.63597  -0.62602  -0.61107
 Alpha  occ. eigenvalues --   -0.59502  -0.58854  -0.57419  -0.54799  -0.53875
 Alpha  occ. eigenvalues --   -0.53038  -0.52170  -0.51175  -0.50665  -0.49192
 Alpha  occ. eigenvalues --   -0.48258  -0.47603  -0.46928  -0.46165  -0.45920
 Alpha  occ. eigenvalues --   -0.45489  -0.45038  -0.44681  -0.44003  -0.43411
 Alpha  occ. eigenvalues --   -0.42936  -0.42697  -0.42297  -0.42116  -0.41791
 Alpha  occ. eigenvalues --   -0.41061  -0.40854  -0.40494  -0.39773  -0.39374
 Alpha  occ. eigenvalues --   -0.39089  -0.38798  -0.38684  -0.38311  -0.37888
 Alpha  occ. eigenvalues --   -0.37617  -0.37452  -0.37373  -0.37001  -0.36976
 Alpha  occ. eigenvalues --   -0.36525  -0.36036  -0.35267  -0.34611  -0.34527
 Alpha  occ. eigenvalues --   -0.34067  -0.33565  -0.32798  -0.32422  -0.31975
 Alpha  occ. eigenvalues --   -0.31684  -0.31472  -0.31076  -0.28150  -0.26566
 Alpha  occ. eigenvalues --   -0.25802  -0.25333  -0.24542  -0.23939  -0.23040
 Alpha virt. eigenvalues --   -0.05438  -0.02134   0.00934   0.01718   0.04569
 Alpha virt. eigenvalues --    0.06955   0.07616   0.08062   0.08829   0.09684
 Alpha virt. eigenvalues --    0.10589   0.10794   0.11399   0.11768   0.12517
 Alpha virt. eigenvalues --    0.12643   0.12990   0.13545   0.13846   0.14023
 Alpha virt. eigenvalues --    0.14600   0.14792   0.14914   0.15338   0.15645
 Alpha virt. eigenvalues --    0.16007   0.16200   0.16909   0.17144   0.17397
 Alpha virt. eigenvalues --    0.17534   0.18254   0.18327   0.18603   0.18821
 Alpha virt. eigenvalues --    0.19205   0.19315   0.19562   0.19913   0.20243
 Alpha virt. eigenvalues --    0.20326   0.21134   0.21384   0.21601   0.22158
 Alpha virt. eigenvalues --    0.22923   0.23191   0.23562   0.24072   0.24666
 Alpha virt. eigenvalues --    0.25128   0.25219   0.25898   0.26532   0.26722
 Alpha virt. eigenvalues --    0.27002   0.27706   0.28254   0.28918   0.30094
 Alpha virt. eigenvalues --    0.31162   0.31627   0.32273   0.33473   0.34152
 Alpha virt. eigenvalues --    0.34600   0.36388   0.37445   0.38476   0.39603
 Alpha virt. eigenvalues --    0.41543   0.44757   0.46079   0.48107   0.48370
 Alpha virt. eigenvalues --    0.50173   0.50314   0.51397   0.51935   0.51986
 Alpha virt. eigenvalues --    0.52709   0.52815   0.53277   0.53596   0.53877
 Alpha virt. eigenvalues --    0.54811   0.54888   0.55004   0.55938   0.56396
 Alpha virt. eigenvalues --    0.56967   0.57855   0.57879   0.58422   0.58705
 Alpha virt. eigenvalues --    0.59454   0.60870   0.61485   0.61675   0.61877
 Alpha virt. eigenvalues --    0.62095   0.62570   0.62672   0.63436   0.64554
 Alpha virt. eigenvalues --    0.64950   0.66113   0.66734   0.66978   0.67657
 Alpha virt. eigenvalues --    0.68050   0.68407   0.68741   0.69067   0.69390
 Alpha virt. eigenvalues --    0.70272   0.70557   0.71724   0.72251   0.73104
 Alpha virt. eigenvalues --    0.73224   0.73762   0.75176   0.75732   0.76222
 Alpha virt. eigenvalues --    0.76974   0.77516   0.78068   0.79529   0.79671
 Alpha virt. eigenvalues --    0.80308   0.80828   0.80904   0.81571   0.82207
 Alpha virt. eigenvalues --    0.82939   0.83192   0.84023   0.84634   0.84815
 Alpha virt. eigenvalues --    0.85774   0.85992   0.86229   0.86953   0.87121
 Alpha virt. eigenvalues --    0.87575   0.88040   0.88327   0.88572   0.89145
 Alpha virt. eigenvalues --    0.89377   0.89482   0.89638   0.90349   0.90730
 Alpha virt. eigenvalues --    0.90873   0.91478   0.91995   0.92058   0.92434
 Alpha virt. eigenvalues --    0.92917   0.93292   0.93805   0.94011   0.94534
 Alpha virt. eigenvalues --    0.95877   0.96041   0.96282   0.97117   0.97427
 Alpha virt. eigenvalues --    0.97691   0.97889   0.98810   0.99233   1.00287
 Alpha virt. eigenvalues --    1.01207   1.01719   1.02350   1.03557   1.04055
 Alpha virt. eigenvalues --    1.04327   1.05708   1.06541   1.07334   1.07821
 Alpha virt. eigenvalues --    1.09293   1.10579   1.10712   1.11610   1.13390
 Alpha virt. eigenvalues --    1.14104   1.15198   1.16441   1.17065   1.17464
 Alpha virt. eigenvalues --    1.18403   1.18601   1.19484   1.19738   1.20970
 Alpha virt. eigenvalues --    1.21398   1.23907   1.24482   1.24657   1.25351
 Alpha virt. eigenvalues --    1.27050   1.29514   1.30338   1.31967   1.32821
 Alpha virt. eigenvalues --    1.33466   1.36784   1.37639   1.38938   1.39886
 Alpha virt. eigenvalues --    1.41697   1.42568   1.42734   1.44870   1.46611
 Alpha virt. eigenvalues --    1.47031   1.48902   1.49052   1.49837   1.51722
 Alpha virt. eigenvalues --    1.53426   1.54339   1.56212   1.56298   1.58099
 Alpha virt. eigenvalues --    1.61001   1.61135   1.61672   1.63435   1.64560
 Alpha virt. eigenvalues --    1.65621   1.66580   1.67690   1.69625   1.70035
 Alpha virt. eigenvalues --    1.70782   1.71179   1.71916   1.72996   1.73968
 Alpha virt. eigenvalues --    1.74560   1.74600   1.75556   1.76894   1.77757
 Alpha virt. eigenvalues --    1.78557   1.79206   1.80816   1.81112   1.81842
 Alpha virt. eigenvalues --    1.82366   1.82943   1.83143   1.83413   1.84856
 Alpha virt. eigenvalues --    1.85603   1.85933   1.87041   1.87549   1.87733
 Alpha virt. eigenvalues --    1.88606   1.88753   1.89879   1.90409   1.91832
 Alpha virt. eigenvalues --    1.92043   1.92721   1.93544   1.93751   1.95065
 Alpha virt. eigenvalues --    1.95881   1.95990   1.97138   1.97348   1.98543
 Alpha virt. eigenvalues --    1.99277   1.99803   2.00920   2.01383   2.01734
 Alpha virt. eigenvalues --    2.01869   2.03065   2.03741   2.05774   2.06226
 Alpha virt. eigenvalues --    2.07284   2.07991   2.08707   2.09236   2.10019
 Alpha virt. eigenvalues --    2.10775   2.12150   2.12549   2.13040   2.14341
 Alpha virt. eigenvalues --    2.15142   2.15605   2.16177   2.17650   2.18603
 Alpha virt. eigenvalues --    2.19263   2.20746   2.21554   2.22551   2.23334
 Alpha virt. eigenvalues --    2.24364   2.24927   2.25900   2.26215   2.27192
 Alpha virt. eigenvalues --    2.27803   2.28478   2.29632   2.31510   2.32011
 Alpha virt. eigenvalues --    2.33187   2.33225   2.33726   2.35180   2.35708
 Alpha virt. eigenvalues --    2.35919   2.36583   2.36837   2.38154   2.38238
 Alpha virt. eigenvalues --    2.39120   2.40370   2.40881   2.42132   2.43434
 Alpha virt. eigenvalues --    2.43582   2.45359   2.46110   2.48098   2.50170
 Alpha virt. eigenvalues --    2.50431   2.50644   2.52327   2.53262   2.54535
 Alpha virt. eigenvalues --    2.56703   2.57137   2.57697   2.58531   2.60759
 Alpha virt. eigenvalues --    2.61150   2.61692   2.62233   2.64483   2.65485
 Alpha virt. eigenvalues --    2.66414   2.67777   2.68677   2.69371   2.70462
 Alpha virt. eigenvalues --    2.71380   2.73832   2.74674   2.76511   2.78750
 Alpha virt. eigenvalues --    2.79635   2.80121   2.81159   2.84048   2.84396
 Alpha virt. eigenvalues --    2.85745   2.90932   2.92085   2.95017   2.96921
 Alpha virt. eigenvalues --    2.97508   2.99458   3.00251   3.01616   3.03447
 Alpha virt. eigenvalues --    3.05136   3.06809   3.12391   3.18937   3.20669
 Alpha virt. eigenvalues --    3.24028   3.29362   4.03348   4.09242   4.09953
 Alpha virt. eigenvalues --    4.13071   4.13881   4.15949   4.18104   4.19562
 Alpha virt. eigenvalues --    4.22394   4.25145   4.25568   4.28436   4.32039
 Alpha virt. eigenvalues --    4.33453   4.35542   4.37857   4.39040   4.45355
 Alpha virt. eigenvalues --    4.46663   4.49342   4.52200   4.54448   4.58827
 Alpha virt. eigenvalues --    4.61813   4.63942   4.67604   4.73639   4.81956
 Alpha virt. eigenvalues --    4.90445   5.00006   5.17509
          Condensed to atoms (all electrons):
 Mulliken atomic charges:
              1
     1  C   -0.195603
     2  C    0.189914
     3  C   -0.186993
     4  C    0.320853
     5  C   -0.050751
     6  C   -0.332191
     7  C    0.206100
     8  C    0.401863
     9  C   -0.082904
    10  C    0.424399
    11  C    0.429289
    12  O   -0.450868
    13  C   -0.173057
    14  C   -0.247766
    15  C   -0.477532
    16  O   -0.506117
    17  C   -0.159772
    18  C    0.311714
    19  O   -0.527027
    20  C   -0.322077
    21  O   -0.659957
    22  C   -0.324992
    23  C    0.110376
    24  O   -0.590583
    25  C    0.189317
    26  C   -0.519241
    27  C   -0.404676
    28  C   -0.461003
    29  C   -0.463477
    30  H    0.143357
    31  H    0.166642
    32  C   -0.517708
    33  H    0.124474
    34  H    0.151894
    35  H    0.179484
    36  H    0.180052
    37  H    0.121896
    38  H    0.152960
    39  H    0.150257
    40  H    0.152389
    41  H    0.152348
    42  H    0.148971
    43  H    0.164924
    44  H    0.414301
    45  H    0.168091
    46  H    0.179504
    47  H    0.145875
    48  H    0.170535
    49  H    0.155902
    50  H    0.161872
    51  H    0.145093
    52  H    0.141152
    53  H    0.189052
    54  H    0.152631
    55  H    0.137038
    56  H    0.149766
    57  H    0.161081
    58  H    0.153921
    59  H    0.158366
    60  H    0.159980
    61  H    0.151814
    62  C   -0.452937
    63  H    0.133182
    64  H    0.166143
    65  H    0.138459
 Sum of Mulliken atomic charges =   0.00000
 Mulliken charges with hydrogens summed into heavy atoms:
              1
     1  C   -0.071129
     2  C    0.189914
     3  C   -0.020352
     4  C    0.320853
     5  C   -0.050751
     6  C   -0.000813
     7  C    0.206100
     8  C    0.401863
     9  C   -0.082904
    10  C    0.424399
    11  C    0.429289
    12  O   -0.450868
    13  C    0.006995
    14  C    0.027091
    15  C   -0.022538
    16  O   -0.506117
    17  C   -0.016415
    18  C    0.311714
    19  O   -0.527027
    20  C   -0.008182
    21  O   -0.245656
    22  C    0.022603
    23  C    0.256251
    24  O   -0.590583
    25  C    0.189317
    26  C   -0.030932
    27  C   -0.118430
    28  C    0.017718
    29  C    0.001291
    32  C   -0.047547
    62  C   -0.015153
 Sum of Mulliken charges with hydrogens summed into heavy atoms =   0.00000
 Electronic spatial extent (au):  <R**2>=          11182.5215
 Charge=              0.0000 electrons
 Dipole moment (field-independent basis, Debye):
    X=             -3.4608    Y=              1.1885    Z=              5.0456  Tot=              6.2328
 Quadrupole moment (field-independent basis, Debye-Ang):
   XX=           -180.9555   YY=           -178.7158   ZZ=           -190.6699
   XY=              3.3206   XZ=             12.6391   YZ=              0.6100
 Traceless Quadrupole moment (field-independent basis, Debye-Ang):
   XX=              2.4916   YY=              4.7312   ZZ=             -7.2228
   XY=              3.3206   XZ=             12.6391   YZ=              0.6100
 Octapole moment (field-independent basis, Debye-Ang**2):
  XXX=            -49.2477  YYY=             46.2190  ZZZ=             21.2310  XYY=             -6.5984
  XXY=            -21.3985  XXZ=            -14.2576  XZZ=            -27.7075  YZZ=              1.3784
  YYZ=             17.5226  XYZ=             -3.4997
 Hexadecapole moment (field-independent basis, Debye-Ang**3):
 XXXX=          -8194.5083 YYYY=          -3705.8360 ZZZZ=          -2964.1581 XXXY=            -11.0450
 XXXZ=            180.1876 YYYX=             21.5850 YYYZ=            -40.5290 ZZZX=             48.8199
 ZZZY=              5.5033 XXYY=          -1929.9284 XXZZ=          -1899.9521 YYZZ=          -1113.8692
 XXYZ=             13.9562 YYXZ=            -10.2196 ZZXY=             -2.0973
 N-N= 3.545814294197D+03 E-N=-1.031765764669D+04  KE= 1.374719019228D+03
 Calling FoFJK, ICntrl=      2127 FMM=T ISym2X=0 I1Cent= 0 IOpClX= 0 NMat=1 NMatS=1 NMatT=0.
 ***** Axes restored to original set *****
 -------------------------------------------------------------------
 Center     Atomic                   Forces (Hartrees/Bohr)
 Number     Number              X              Y              Z
 -------------------------------------------------------------------
      1        6           0.008376119   -0.000044211    0.000155409
      2        6          -0.011350498   -0.004855874    0.002458791
      3        6          -0.001260225   -0.007664567   -0.000631272
      4        6           0.002761297   -0.004490310    0.010992435
      5        6          -0.011708954   -0.002968579    0.001180664
      6        6          -0.004849388   -0.009715494   -0.000661280
      7        6           0.012450312    0.020085536    0.009542032
      8        6           0.015760376   -0.010219963   -0.019102017
      9        6          -0.003811872    0.000251101    0.007848399
     10        6          -0.006218890   -0.002180141   -0.021516053
     11        6          -0.014143802    0.012058721   -0.022893915
     12        8           0.000271991   -0.016087926    0.013508903
     13        6          -0.000321225   -0.000754944   -0.011851234
     14        6          -0.002064474    0.003890707   -0.003344383
     15        6           0.001346504   -0.000757642    0.009215498
     16        8           0.007991614   -0.001696918    0.010180725
     17        6           0.007940371   -0.010866765   -0.005537341
     18        6           0.031314680    0.006601428    0.000596934
     19        8          -0.030058668    0.003484443    0.027722467
     20        6           0.011636687   -0.004377668    0.000751223
     21        8          -0.006531539    0.006511877   -0.004018510
     22        6          -0.009919592    0.011760341    0.000013136
     23        6           0.007635111    0.008155858    0.004657175
     24        8          -0.003795428   -0.004406539   -0.009037959
     25        6           0.009531278    0.011984192    0.006034175
     26        6          -0.000298163   -0.000320449    0.000020363
     27        6          -0.003307476   -0.009283087   -0.003627674
     28        6          -0.002929109    0.007923853   -0.005010503
     29        6          -0.003295069   -0.005776140   -0.009258246
     30        1          -0.001849012    0.000915367   -0.001481780
     31        1          -0.003344651    0.005925367   -0.000103912
     32        6          -0.001055697    0.000640017   -0.001216395
     33        1           0.001435813   -0.001016993    0.000003520
     34        1          -0.000249906    0.005634868    0.001824309
     35        1           0.000816198    0.007565279   -0.002092831
     36        1          -0.000062280    0.002656059    0.003945176
     37        1          -0.001645196   -0.000571229    0.002383816
     38        1           0.000224100    0.000411035    0.002636889
     39        1           0.000110166    0.000116402   -0.001380371
     40        1           0.000608598   -0.000661212    0.001396718
     41        1           0.000250937   -0.001407615   -0.001470333
     42        1          -0.001343016   -0.002088397   -0.001501989
     43        1           0.000432000    0.002683863   -0.000139603
     44        1          -0.002162053   -0.002259646   -0.000785422
     45        1           0.001434868   -0.002855820   -0.001360679
     46        1           0.002281394   -0.000716006    0.002447942
     47        1          -0.003660758   -0.001175875    0.002122928
     48        1          -0.003898796   -0.000995769   -0.000363574
     49        1          -0.004185480   -0.000668477   -0.000710589
     50        1           0.001985876   -0.001471931   -0.000518802
     51        1           0.000470735   -0.000870957   -0.000271101
     52        1          -0.001112760   -0.000025554   -0.000217312
     53        1          -0.001288488   -0.002948860    0.005303819
     54        1           0.001833586   -0.003856354    0.000450585
     55        1           0.000526557   -0.000887565    0.000336473
     56        1          -0.000797351    0.001217034    0.000628616
     57        1           0.000479471    0.002804779    0.001573072
     58        1          -0.000254486   -0.000275920    0.003781543
     59        1          -0.001088699    0.001703513   -0.000552751
     60        1           0.004369314   -0.001647974    0.000467798
     61        1           0.003994914   -0.001100154    0.000052110
     62        6           0.003001611   -0.000444974   -0.002645713
     63        1           0.001683711   -0.000920323   -0.000097262
     64        1          -0.000178058    0.000587235    0.000059575
     65        1           0.001084871   -0.000234053   -0.000892409
 -------------------------------------------------------------------
 Cartesian Forces:  Max     0.031314680 RMS     0.006848244

 GradGradGradGradGradGradGradGradGradGradGradGradGradGradGradGradGradGrad
 Berny optimization.
 Internal  Forces:  Max     0.022971091 RMS     0.003425682
 Search for a local minimum.
 Step number   1 out of a maximum of  390
 All quantities printed in internal units (Hartrees-Bohrs-Radians)
 Mixed Optimization -- RFO/linear search
 Second derivative matrix not updated -- first step.
 ITU=  0
     Eigenvalues ---    0.00230   0.00279   0.00302   0.00332   0.00380
     Eigenvalues ---    0.00438   0.00442   0.00543   0.00549   0.00586
     Eigenvalues ---    0.00622   0.00681   0.00687   0.00689   0.00727
     Eigenvalues ---    0.00917   0.01080   0.01233   0.01241   0.01374
     Eigenvalues ---    0.01480   0.01610   0.01712   0.01796   0.01915
     Eigenvalues ---    0.02497   0.02818   0.02820   0.03026   0.03125
     Eigenvalues ---    0.03299   0.03541   0.03606   0.03821   0.04041
     Eigenvalues ---    0.04122   0.04316   0.04403   0.04641   0.04759
     Eigenvalues ---    0.04821   0.04831   0.04953   0.05106   0.05245
     Eigenvalues ---    0.05306   0.05377   0.05419   0.05435   0.05444
     Eigenvalues ---    0.05503   0.05506   0.05545   0.05548   0.05617
     Eigenvalues ---    0.05691   0.05716   0.05939   0.06281   0.06638
     Eigenvalues ---    0.06725   0.06864   0.07103   0.07117   0.07147
     Eigenvalues ---    0.07250   0.07257   0.07323   0.07639   0.08360
     Eigenvalues ---    0.08446   0.08701   0.09006   0.09145   0.09810
     Eigenvalues ---    0.10106   0.10639   0.10887   0.11606   0.12469
     Eigenvalues ---    0.13141   0.14631   0.15199   0.15966   0.16000
     Eigenvalues ---    0.16000   0.16000   0.16000   0.16000   0.16000
     Eigenvalues ---    0.16000   0.16000   0.16000   0.16000   0.16000
     Eigenvalues ---    0.16000   0.16000   0.16000   0.16000   0.16000
     Eigenvalues ---    0.16000   0.16000   0.16000   0.16000   0.16000
     Eigenvalues ---    0.16218   0.17160   0.17279   0.18348   0.18470
     Eigenvalues ---    0.19701   0.21550   0.21945   0.22773   0.23552
     Eigenvalues ---    0.24530   0.24921   0.24973   0.24981   0.24984
     Eigenvalues ---    0.24985   0.25000   0.25000   0.25947   0.27110
     Eigenvalues ---    0.27436   0.27697   0.27823   0.28207   0.28305
     Eigenvalues ---    0.28305   0.28666   0.28805   0.28961   0.29169
     Eigenvalues ---    0.29499   0.29935   0.30386   0.30530   0.30994
     Eigenvalues ---    0.31716   0.31778   0.31794   0.33172   0.33602
     Eigenvalues ---    0.33670   0.33894   0.33957   0.33979   0.34006
     Eigenvalues ---    0.34017   0.34034   0.34049   0.34062   0.34064
     Eigenvalues ---    0.34065   0.34121   0.34124   0.34134   0.34196
     Eigenvalues ---    0.34201   0.34202   0.34238   0.34239   0.34239
     Eigenvalues ---    0.34255   0.34263   0.34277   0.34304   0.34307
     Eigenvalues ---    0.34336   0.34343   0.34364   0.34393   0.34452
     Eigenvalues ---    0.34965   0.35099   0.35271   0.35375   0.36517
     Eigenvalues ---    0.37221   0.43064   0.43348   0.52012   0.53339
     Eigenvalues ---    0.54407   0.56134   0.89729   0.90423
 RFO step:  Lambda=-2.16678148D-02 EMin= 2.30000000D-03
 Linear search not attempted -- first point.
 Iteration  1 RMS(Cart)=  0.05837441 RMS(Int)=  0.00081232
 Iteration  2 RMS(Cart)=  0.00161348 RMS(Int)=  0.00023318
 Iteration  3 RMS(Cart)=  0.00000083 RMS(Int)=  0.00023317
 Variable       Old X    -DE/DX   Delta X   Delta X   Delta X     New X
                                 (Linear)    (Quad)   (Total)
    R1        2.53488  -0.00140   0.00000  -0.00260  -0.00267   2.53221
    R2        2.82406   0.00838   0.00000   0.02596   0.02587   2.84993
    R3        2.05732   0.00016   0.00000   0.00043   0.00043   2.05775
    R4        2.85531   0.00354   0.00000   0.00786   0.00788   2.86319
    R5        2.84552   0.00344   0.00000   0.01013   0.01013   2.85566
    R6        2.94218   0.00455   0.00000   0.00834   0.00839   2.95057
    R7        2.90796   0.01108   0.00000   0.03878   0.03878   2.94674
    R8        2.07891  -0.00088   0.00000  -0.00245  -0.00245   2.07646
    R9        2.90259   0.00854   0.00000   0.02705   0.02683   2.92942
   R10        2.91403   0.00717   0.00000   0.02286   0.02288   2.93692
   R11        2.76613  -0.00564   0.00000  -0.01496  -0.01497   2.75116
   R12        2.91956  -0.00144   0.00000  -0.00263  -0.00271   2.91685
   R13        2.90474   0.00626   0.00000   0.01427   0.01417   2.91891
   R14        2.89072   0.01150   0.00000   0.03907   0.03903   2.92975
   R15        2.07225   0.00289   0.00000   0.00798   0.00798   2.08024
   R16        2.07302  -0.00139   0.00000  -0.00383  -0.00383   2.06918
   R17        2.81747   0.00998   0.00000   0.02143   0.02110   2.83857
   R18        2.85982   0.01488   0.00000   0.05389   0.05337   2.91318
   R19        2.67591   0.00405   0.00000   0.00896   0.00896   2.68487
   R20        2.52756   0.01548   0.00000   0.02675   0.02688   2.55444
   R21        2.63377  -0.02297   0.00000  -0.05420  -0.05403   2.57975
   R22        2.79809  -0.00311   0.00000  -0.01209  -0.01202   2.78607
   R23        2.81306   0.01302   0.00000   0.03639   0.03639   2.84946
   R24        2.33058  -0.01047   0.00000  -0.01139  -0.01139   2.31919
   R25        2.32739  -0.02067   0.00000  -0.02232  -0.02232   2.30507
   R26        2.90085  -0.00266   0.00000  -0.00854  -0.00854   2.89231
   R27        2.91477   0.00135   0.00000   0.00444   0.00444   2.91921
   R28        2.88974   0.00704   0.00000   0.02222   0.02222   2.91196
   R29        2.07403   0.00111   0.00000   0.00308   0.00308   2.07711
   R30        2.07366   0.00093   0.00000   0.00258   0.00258   2.07624
   R31        2.07320  -0.00110   0.00000  -0.00303  -0.00303   2.07016
   R32        2.88094   0.00664   0.00000   0.02069   0.02069   2.90163
   R33        2.06930   0.00028   0.00000   0.00077   0.00077   2.07007
   R34        2.06720   0.00121   0.00000   0.00330   0.00330   2.07050
   R35        2.06990   0.00025   0.00000   0.00068   0.00068   2.07058
   R36        2.91532  -0.00097   0.00000   0.00968   0.00997   2.92529
   R37        2.90418   0.00435   0.00000   0.01655   0.01654   2.92072
   R38        2.07121  -0.00166   0.00000  -0.00458  -0.00458   2.06662
[...]
     54          1           0        0.990946    4.285616   -1.874617
     55          1           0       -0.390859    4.845911   -0.910738
     56          1           0        1.045750    4.703435    1.245376
     57          1           0        2.385055    4.263852    0.168675
     58          1           0        1.995049    3.234669    1.555021
     59          1           0        0.366216   -1.041390    4.899833
     60          1           0        0.875938    0.506245    4.206699
     61          1           0       -0.739855    0.345146    4.888107
     62          6           0        5.852036   -0.544698   -0.883105
     63          1           0        6.054567   -0.520047    0.194194
     64          1           0        5.423399    0.417502   -1.176297
     65          1           0        6.817103   -0.652147   -1.392200
 ---------------------------------------------------------------------
 Rotational constants (GHZ):      0.2073854      0.1255003      0.1153426

 **********************************************************************

            Population analysis using the SCF density.

 **********************************************************************

 Orbital symmetries:
       Occupied  (A) (A) (A) (A) (A) (A) (A) (A) (A) (A) (A) (A)
                 (A) (A) (A) (A) (A) (A) (A) (A) (A) (A) (A) (A)
                 (A) (A) (A) (A) (A) (A) (A) (A) (A) (A) (A) (A)
                 (A) (A) (A) (A) (A) (A) (A) (A) (A) (A) (A) (A)
                 (A) (A) (A) (A) (A) (A) (A) (A) (A) (A) (A) (A)
                 (A) (A) (A) (A) (A) (A) (A) (A) (A) (A) (A) (A)
                 (A) (A) (A) (A) (A) (A) (A) (A) (A) (A) (A) (A)
                 (A) (A) (A) (A) (A) (A) (A) (A) (A) (A) (A) (A)
                 (A) (A) (A) (A) (A) (A) (A) (A) (A) (A) (A) (A)
                 (A) (A) (A) (A) (A) (A) (A)
       Virtual   (A) (A) (A) (A) (A) (A) (A) (A) (A) (A) (A) (A)
                 (A) (A) (A) (A) (A) (A) (A) (A) (A) (A) (A) (A)
                 (A) (A) (A) (A) (A) (A) (A) (A) (A) (A) (A) (A)
                 (A) (A) (A) (A) (A) (A) (A) (A) (A) (A) (A) (A)
                 (A) (A) (A) (A) (A) (A) (A) (A) (A) (A) (A) (A)
                 (A) (A) (A) (A) (A) (A) (A) (A) (A) (A) (A) (A)
                 (A) (A) (A) (A) (A) (A) (A) (A) (A) (A) (A) (A)
                 (A) (A) (A) (A) (A) (A) (A) (A) (A) (A) (A) (A)
                 (A) (A) (A) (A) (A) (A) (A) (A) (A) (A) (A) (A)
                 (A) (A) (A) (A) (A) (A) (A) (A) (A) (A) (A) (A)
                 (A) (A) (A) (A) (A) (A) (A) (A) (A) (A) (A) (A)
                 (A) (A) (A) (A) (A) (A) (A) (A) (A) (A) (A) (A)
                 (A) (A) (A) (A) (A) (A) (A) (A) (A) (A) (A) (A)
                 (A) (A) (A) (A) (A) (A) (A) (A) (A) (A) (A) (A)
                 (A) (A) (A) (A) (A) (A) (A) (A) (A) (A) (A) (A)
                 (A) (A) (A) (A) (A) (A) (A) (A) (A) (A) (A) (A)
                 (A) (A) (A) (A) (A) (A) (A) (A) (A) (A) (A) (A)
                 (A) (A) (A) (A) (A) (A) (A) (A) (A) (A) (A) (A)
                 (A) (A) (A) (A) (A) (A) (A) (A) (A) (A) (A) (A)
                 (A) (A) (A) (A) (A) (A) (A) (A) (A) (A) (A) (A)
                 (A) (A) (A) (A) (A) (A) (A) (A) (A) (A) (A) (A)
                 (A) (A) (A) (A) (A) (A) (A) (A) (A) (A) (A) (A)
                 (A) (A) (A) (A) (A) (A) (A) (A) (A) (A) (A) (A)
                 (A) (A) (A) (A) (A) (A) (A) (A) (A) (A) (A) (A)
                 (A) (A) (A) (A) (A) (A) (A) (A) (A) (A) (A) (A)
                 (A) (A) (A) (A) (A) (A) (A) (A) (A) (A) (A) (A)
                 (A) (A) (A) (A) (A) (A) (A) (A) (A) (A) (A) (A)
                 (A) (A) (A) (A) (A) (A) (A) (A) (A) (A) (A) (A)
                 (A) (A) (A) (A) (A) (A) (A) (A) (A) (A) (A) (A)
                 (A) (A) (A) (A) (A) (A) (A) (A) (A) (A) (A) (A)
                 (A) (A) (A) (A) (A) (A) (A) (A) (A) (A) (A) (A)
                 (A) (A) (A) (A) (A) (A) (A) (A) (A) (A) (A) (A)
                 (A) (A) (A) (A) (A) (A) (A) (A) (A) (A) (A) (A)
                 (A) (A) (A) (A) (A) (A) (A) (A) (A) (A) (A) (A)
                 (A) (A) (A) (A) (A) (A) (A) (A) (A) (A)
 The electronic state is 1-A.
 Alpha  occ. eigenvalues --  -19.19638 -19.16730 -19.15817 -19.12769 -19.12097
 Alpha  occ. eigenvalues --  -10.27464 -10.27264 -10.26649 -10.26056 -10.25849
 Alpha  occ. eigenvalues --  -10.25825 -10.25358 -10.21394 -10.20958 -10.20683
 Alpha  occ. eigenvalues --  -10.20562 -10.20106 -10.19800 -10.19771 -10.19395
 Alpha  occ. eigenvalues --  -10.19146 -10.19049 -10.19035 -10.18839 -10.18503
 Alpha  occ. eigenvalues --  -10.18471 -10.17967 -10.17521 -10.16920 -10.16344
 Alpha  occ. eigenvalues --  -10.15300  -1.09328  -1.06098  -1.03009  -1.02630
 Alpha  occ. eigenvalues --   -1.01968  -0.86907  -0.83685  -0.82492  -0.81483
 Alpha  occ. eigenvalues --   -0.80381  -0.78924  -0.76662  -0.74404  -0.73323
 Alpha  occ. eigenvalues --   -0.71973  -0.70867  -0.69916  -0.69615  -0.68123
 Alpha  occ. eigenvalues --   -0.65241  -0.64128  -0.63330  -0.62084  -0.60788
 Alpha  occ. eigenvalues --   -0.59470  -0.58407  -0.56960  -0.54473  -0.53919
 Alpha  occ. eigenvalues --   -0.52755  -0.51873  -0.50887  -0.50393  -0.49250
 Alpha  occ. eigenvalues --   -0.48004  -0.47122  -0.46870  -0.46321  -0.45897
 Alpha  occ. eigenvalues --   -0.44997  -0.44776  -0.44563  -0.43882  -0.43309
 Alpha  occ. eigenvalues --   -0.42633  -0.42261  -0.42077  -0.41831  -0.41395
 Alpha  occ. eigenvalues --   -0.40867  -0.40791  -0.40453  -0.39874  -0.39437
 Alpha  occ. eigenvalues --   -0.39132  -0.38784  -0.38340  -0.38162  -0.37756
 Alpha  occ. eigenvalues --   -0.37527  -0.37236  -0.37175  -0.36945  -0.36688
 Alpha  occ. eigenvalues --   -0.36296  -0.36062  -0.35291  -0.34736  -0.34497
 Alpha  occ. eigenvalues --   -0.34043  -0.33714  -0.32804  -0.32079  -0.31827
 Alpha  occ. eigenvalues --   -0.31378  -0.30982  -0.30788  -0.28309  -0.26508
 Alpha  occ. eigenvalues --   -0.26014  -0.24506  -0.24323  -0.23573  -0.22391
 Alpha virt. eigenvalues --   -0.04892  -0.01343   0.00824   0.01762   0.06085
 Alpha virt. eigenvalues --    0.07738   0.08045   0.08570   0.09297   0.09818
 Alpha virt. eigenvalues --    0.10443   0.10882   0.11365   0.11905   0.12756
 Alpha virt. eigenvalues --    0.12824   0.12973   0.14004   0.14037   0.14316
 Alpha virt. eigenvalues --    0.14714   0.14845   0.15518   0.15773   0.15927
 Alpha virt. eigenvalues --    0.16403   0.16535   0.16660   0.17187   0.17335
 Alpha virt. eigenvalues --    0.17523   0.18131   0.18351   0.18639   0.18990
 Alpha virt. eigenvalues --    0.19134   0.19324   0.19370   0.19489   0.20333
 Alpha virt. eigenvalues --    0.20398   0.21018   0.21229   0.21688   0.22258
 Alpha virt. eigenvalues --    0.23037   0.23255   0.23364   0.23503   0.24455
 Alpha virt. eigenvalues --    0.24973   0.25155   0.25914   0.26331   0.26860
 Alpha virt. eigenvalues --    0.27174   0.27547   0.28249   0.29265   0.29999
 Alpha virt. eigenvalues --    0.30637   0.31490   0.32339   0.32990   0.33782
 Alpha virt. eigenvalues --    0.34483   0.36072   0.37490   0.38962   0.40032
 Alpha virt. eigenvalues --    0.41758   0.44852   0.46213   0.48088   0.48656
 Alpha virt. eigenvalues --    0.49403   0.50359   0.51046   0.51435   0.52010
 Alpha virt. eigenvalues --    0.52289   0.52759   0.53332   0.53401   0.53683
 Alpha virt. eigenvalues --    0.53980   0.54581   0.55260   0.55754   0.56374
 Alpha virt. eigenvalues --    0.56682   0.57647   0.57744   0.58065   0.58642
 Alpha virt. eigenvalues --    0.59463   0.60320   0.60685   0.61329   0.62058
 Alpha virt. eigenvalues --    0.62501   0.62881   0.63402   0.63718   0.64554
 Alpha virt. eigenvalues --    0.65229   0.65797   0.66469   0.66573   0.67685
 Alpha virt. eigenvalues --    0.68084   0.68708   0.68986   0.69171   0.69515
 Alpha virt. eigenvalues --    0.70472   0.70783   0.71896   0.72634   0.73141
 Alpha virt. eigenvalues --    0.73432   0.73788   0.74447   0.75613   0.76340
 Alpha virt. eigenvalues --    0.76807   0.77352   0.78307   0.79136   0.79789
 Alpha virt. eigenvalues --    0.80050   0.81164   0.81362   0.81696   0.82030
 Alpha virt. eigenvalues --    0.82970   0.83797   0.83990   0.84888   0.85325
 Alpha virt. eigenvalues --    0.85867   0.86211   0.86423   0.86624   0.87199
 Alpha virt. eigenvalues --    0.87598   0.88137   0.88194   0.88686   0.88804
 Alpha virt. eigenvalues --    0.89368   0.89409   0.89847   0.90226   0.90475
 Alpha virt. eigenvalues --    0.91233   0.91397   0.91911   0.92362   0.92633
 Alpha virt. eigenvalues --    0.92926   0.93255   0.93791   0.94149   0.94800
 Alpha virt. eigenvalues --    0.95473   0.95873   0.96547   0.97053   0.97158
 Alpha virt. eigenvalues --    0.97614   0.98329   0.98712   0.99423   0.99507
 Alpha virt. eigenvalues --    1.00897   1.01094   1.02115   1.03074   1.03724
 Alpha virt. eigenvalues --    1.04937   1.05947   1.06929   1.07465   1.08989
 Alpha virt. eigenvalues --    1.09860   1.10620   1.11888   1.12602   1.13309
 Alpha virt. eigenvalues --    1.13770   1.14022   1.16022   1.17062   1.17666
 Alpha virt. eigenvalues --    1.17876   1.18813   1.19077   1.20642   1.21007
 Alpha virt. eigenvalues --    1.23319   1.23917   1.24780   1.26230   1.26906
 Alpha virt. eigenvalues --    1.28270   1.29453   1.30944   1.31981   1.33295
 Alpha virt. eigenvalues --    1.33758   1.36570   1.37612   1.38502   1.38885
 Alpha virt. eigenvalues --    1.39824   1.42619   1.43043   1.43717   1.46432
 Alpha virt. eigenvalues --    1.47129   1.48444   1.48874   1.50802   1.51549
 Alpha virt. eigenvalues --    1.52886   1.54325   1.55552   1.57073   1.58164
 Alpha virt. eigenvalues --    1.59472   1.61566   1.62212   1.62597   1.63204
 Alpha virt. eigenvalues --    1.65312   1.66281   1.67647   1.68999   1.69893
 Alpha virt. eigenvalues --    1.71002   1.71738   1.72903   1.73079   1.73948
 Alpha virt. eigenvalues --    1.74262   1.74915   1.75620   1.76994   1.77654
 Alpha virt. eigenvalues --    1.78034   1.78828   1.79880   1.80782   1.81164
 Alpha virt. eigenvalues --    1.81704   1.82546   1.83398   1.83699   1.84490
 Alpha virt. eigenvalues --    1.85280   1.85844   1.86678   1.87015   1.87371
 Alpha virt. eigenvalues --    1.87903   1.88186   1.89382   1.90656   1.91520
 Alpha virt. eigenvalues --    1.91961   1.92657   1.93347   1.94067   1.95363
 Alpha virt. eigenvalues --    1.96032   1.96124   1.96887   1.97336   1.97891
 Alpha virt. eigenvalues --    1.99030   1.99330   1.99894   2.00908   2.01377
 Alpha virt. eigenvalues --    2.02019   2.02698   2.03553   2.05103   2.05707
 Alpha virt. eigenvalues --    2.06870   2.07566   2.07975   2.09346   2.09799
 Alpha virt. eigenvalues --    2.10090   2.11407   2.11931   2.12769   2.13488
 Alpha virt. eigenvalues --    2.14033   2.15177   2.15393   2.16928   2.18050
 Alpha virt. eigenvalues --    2.19433   2.19649   2.20912   2.21568   2.22565
 Alpha virt. eigenvalues --    2.23733   2.24350   2.25698   2.26469   2.26729
 Alpha virt. eigenvalues --    2.27481   2.29621   2.29820   2.31133   2.32424
 Alpha virt. eigenvalues --    2.32592   2.33457   2.34232   2.34907   2.35325
 Alpha virt. eigenvalues --    2.35950   2.36237   2.37297   2.38350   2.38709
 Alpha virt. eigenvalues --    2.39270   2.40437   2.41416   2.41685   2.43276
 Alpha virt. eigenvalues --    2.43439   2.44948   2.45548   2.47713   2.48262
 Alpha virt. eigenvalues --    2.49314   2.50383   2.52750   2.53404   2.53814
 Alpha virt. eigenvalues --    2.55388   2.56570   2.57557   2.57966   2.59681
 Alpha virt. eigenvalues --    2.60396   2.61416   2.61929   2.64425   2.65763
 Alpha virt. eigenvalues --    2.66398   2.67201   2.68254   2.69254   2.69853
 Alpha virt. eigenvalues --    2.70562   2.72801   2.74083   2.75840   2.76748
 Alpha virt. eigenvalues --    2.78830   2.79037   2.80235   2.83225   2.83849
 Alpha virt. eigenvalues --    2.84761   2.89051   2.91940   2.95008   2.97322
 Alpha virt. eigenvalues --    2.97822   2.99661   3.01293   3.01556   3.03226
 Alpha virt. eigenvalues --    3.05451   3.06812   3.11637   3.18430   3.21050
 Alpha virt. eigenvalues --    3.25861   3.29353   4.03558   4.05218   4.09167
 Alpha virt. eigenvalues --    4.12826   4.13486   4.15000   4.17526   4.18875
 Alpha virt. eigenvalues --    4.22644   4.24904   4.26398   4.29021   4.30455
 Alpha virt. eigenvalues --    4.32217   4.34960   4.37977   4.38462   4.45113
 Alpha virt. eigenvalues --    4.45867   4.50464   4.51881   4.54241   4.57879
 Alpha virt. eigenvalues --    4.62540   4.65701   4.67145   4.73110   4.81856
 Alpha virt. eigenvalues --    4.89525   5.01555   5.15835
          Condensed to atoms (all electrons):
 Mulliken atomic charges:
              1
     1  C   -0.190683
     2  C    0.191099
     3  C   -0.189722
     4  C    0.321006
     5  C   -0.053717
     6  C   -0.332760
     7  C    0.196695
     8  C    0.403298
     9  C   -0.082402
    10  C    0.422418
    11  C    0.420294
    12  O   -0.454185
    13  C   -0.174490
    14  C   -0.245005
    15  C   -0.467488
    16  O   -0.516953
    17  C   -0.163657
    18  C    0.301030
    19  O   -0.505240
    20  C   -0.322814
    21  O   -0.657887
    22  C   -0.325150
    23  C    0.104896
    24  O   -0.589853
    25  C    0.186770
    26  C   -0.519825
    27  C   -0.408332
    28  C   -0.467709
    29  C   -0.459683
    30  H    0.144457
    31  H    0.168150
    32  C   -0.519716
    33  H    0.123789
    34  H    0.146872
    35  H    0.183174
    36  H    0.185128
    37  H    0.120855
    38  H    0.146648
    39  H    0.147965
    40  H    0.152456
    41  H    0.146603
    42  H    0.151880
    43  H    0.163415
    44  H    0.416411
    45  H    0.165870
    46  H    0.176474
    47  H    0.145170
    48  H    0.171443
    49  H    0.158585
    50  H    0.162220
    51  H    0.153277
    52  H    0.140302
    53  H    0.194889
    54  H    0.163404
    55  H    0.141040
    56  H    0.150535
    57  H    0.168903
    58  H    0.158773
    59  H    0.158493
    60  H    0.157423
    61  H    0.152512
    62  C   -0.452586
    63  H    0.131717
    64  H    0.168410
    65  H    0.135106
 Sum of Mulliken atomic charges =   0.00000
 Mulliken charges with hydrogens summed into heavy atoms:
              1
     1  C   -0.066894
     2  C    0.191099
     3  C   -0.021572
     4  C    0.321006
     5  C   -0.053717
     6  C   -0.002714
     7  C    0.196695
     8  C    0.403298
     9  C   -0.082402
    10  C    0.422418
    11  C    0.420294
    12  O   -0.454185
    13  C    0.010637
    14  C    0.022498
    15  C   -0.020463
    16  O   -0.516953
    17  C   -0.019200
    18  C    0.301030
    19  O   -0.505240
    20  C   -0.007520
    21  O   -0.241477
    22  C    0.017194
    23  C    0.250066
    24  O   -0.589853
    25  C    0.186770
    26  C   -0.027578
    27  C   -0.114753
    28  C    0.031624
    29  C    0.018528
    32  C   -0.051288
    62  C   -0.017352
 Sum of Mulliken charges with hydrogens summed into heavy atoms =   0.00000
 Electronic spatial extent (au):  <R**2>=          11436.1515
 Charge=              0.0000 electrons
 Dipole moment (field-independent basis, Debye):
    X=             -4.2281    Y=              1.8515    Z=              3.9627  Tot=              6.0834
 Quadrupole moment (field-independent basis, Debye-Ang):
   XX=           -185.0292   YY=           -176.1624   ZZ=           -186.7458
   XY=              3.7591   XZ=             12.3723   YZ=              3.3913
 Traceless Quadrupole moment (field-independent basis, Debye-Ang):
   XX=             -2.3834   YY=              6.4834   ZZ=             -4.1000
   XY=              3.7591   XZ=             12.3723   YZ=              3.3913
 Octapole moment (field-independent basis, Debye-Ang**2):
  XXX=            -57.4341  YYY=             62.6134  ZZZ=             11.0664  XYY=            -13.9568
  XXY=            -22.8588  XXZ=            -13.6542  XZZ=            -23.4985  YZZ=             -4.3120
  YYZ=              8.2509  XYZ=             -3.2508
 Hexadecapole moment (field-independent basis, Debye-Ang**3):
 XXXX=          -8373.3725 YYYY=          -3875.9117 ZZZZ=          -3036.7403 XXXY=              5.3880
 XXXZ=            193.3509 YYYX=             56.9321 YYYZ=            -39.1880 ZZZX=             36.3622
 ZZZY=             15.9635 XXYY=          -1973.9751 XXZZ=          -1901.6161 YYZZ=          -1154.1903
 XXYZ=             33.0862 YYXZ=              0.2476 ZZXY=             -7.1680
 N-N= 3.523127288431D+03 E-N=-1.027244587275D+04  KE= 1.374449748678D+03
 1\1\GINC-B0604\FOpt\RB3LYP\6-31G(d)\C26H34O5\CAOFEI\24-Mar-2021\0\\# o
 pt rb3lyp/6-31g(d) geom=connectivity\\Title Card Required\\0,1\C,0.135
 1112725,-0.0625562127,0.0794445256\C,1.473261346,-0.028603288,0.115546
 1564\C,2.2246760688,1.2869303104,0.1228588697\C,1.3848389876,2.5490319
 204,-0.246687956\C,-0.0897719205,2.3630053719,-0.6778627811\C,-0.73960
 77295,1.1606538353,0.0482501753\C,2.2313045996,3.2802622374,-1.3191723
 382\C,1.9398362997,2.8127122922,-2.7333720186\C,0.7300348744,2.3725162
 253,-3.1787104189\C,-0.3542140606,2.2082090022,-2.2013420537\C,0.53709
 03467,2.0509093448,-4.644202617\O,1.0589314353,2.7684604286,-5.4822131
 052\C,-0.2805884574,0.8158727512,-5.0319568744\C,-0.3998467984,0.65584
 0516,-6.5607479659\C,0.2572134192,-0.4491466816,-4.3295088408\O,-1.504
 1672346,1.9431734422,-2.5436605727\C,3.6888535776,2.7876128572,-1.1929
 641108\C,4.254853903,3.0380135861,-2.6104331861\O,3.0538574476,2.83160
 60075,-3.466424539\C,3.4823577426,1.3114964283,-0.7950775389\O,2.04463
 40051,4.6825746431,-1.2972293851\C,-0.7278874297,3.6903255392,-0.19442
 28469\C,0.0244547292,3.9678143437,1.1164360443\O,1.338315048,3.4112466
 131,0.9179832008\C,0.0960338607,5.4214225428,1.5352817453\C,-1.2334768
 911,6.1292177578,1.6247771055\C,1.2513053142,6.0152243692,1.8531188045
 \C,4.7365932898,4.475143469,-2.8208388593\C,5.2992621544,2.0406314966,
 -3.1050667969\H,4.2415816007,3.3423041063,-0.428539481\H,2.5640784262,
 1.473471611,1.1518026996\C,2.2979783053,-1.2862297575,0.2370053842\H,-
 0.3702193243,-1.0266618108,0.1207775991\H,-0.9925384854,1.4467113578,1
 .0802496998\H,-1.6889881669,0.9497061945,-0.4517397825\H,-1.2841078888
 ,0.9990100011,-4.6289171506\H,-1.2039605222,-0.0675021211,-6.754522937
 \H,-0.7308779304,1.6121853718,-6.9810029941\H,-0.330537342,-1.32263136
 07,-4.6347993734\H,0.1888297858,-0.3683142496,-3.2405665645\H,1.303734
 058,-0.6446387884,-4.5888439934\H,4.359423703,0.8806502599,-0.30380831
 85\H,3.2878669354,0.7089176722,-1.68893118\H,1.9631031593,4.921369769,
 -0.353203672\H,-1.808134963,3.5927685046,-0.0589528862\H,-0.5375157156
 ,4.4915629424,-0.9149463984\H,-0.4542639117,3.4098109652,1.9380565199\
 H,-1.7234237881,6.1957321699,0.6451360264\H,-1.9246242428,5.5899922447
 ,2.2872102805\H,-1.1151950648,7.1439086364,2.015026013\H,2.1937619631,
 5.4773485955,1.8362558657\H,1.2810652886,7.0555738215,2.1656029493\H,3
 .9853240012,5.191437226,-2.484796381\H,4.9424576268,4.6443264379,-3.88
 25094759\H,5.6632853554,4.6434162244,-2.2599240436\H,6.2055442448,2.11
 67353686,-2.4940460732\H,5.5669569318,2.264913957,-4.142228893\H,4.937
 9079836,1.010618985,-3.0631927263\H,1.6589349796,-2.1729879347,0.28919
 8741\H,2.9834038187,-1.4164712254,-0.6101847225\H,2.9203661525,-1.2643
 128208,1.1430781104\C,0.8695962264,0.2040104716,-7.2943439392\H,1.2018
 645984,-0.788121632,-6.9665175927\H,1.686651237,0.9126468915,-7.133800
 6955\H,0.6837117639,0.1437407658,-8.3731824362\\Version=EM64L-G09RevB.
 01\State=1-A\HF=-1387.3203763\RMSD=4.305e-09\RMSF=6.138e-06\Dipole=1.0
 292573,-0.3206213,2.1368622\Quadrupole=6.1525228,3.2698744,-9.4223972,
 -2.7259469,-3.9276929,5.0092615\PG=C01 [X(C26H34O5)]\\@


 THE LENGTH OF A MEETING IS PROPORTIONAL TO THE
 SQUARE OF THE PARTICIPANTS.
 Job cpu time:  0 days  5 hours  5 minutes 44.1 seconds.
 File lengths (MBytes):  RWF=    186 Int=      0 D2E=      0 Chk=     20 Scr=      1
 Normal termination of Gaussian 09 at Wed Mar 24 17:01:07 2021.
