 Entering Gaussian System, Link 0=g09
 Initial command:
 /public/software/g09/g09/l1.exe /tmp/Gau-11262.inp -scrdir=/tmp/
 Entering Link 1 = /public/software/g09/g09/l1.exe PID=     11263.
  
 Copyright (c) 1988,1990,1992,1993,1995,1998,2003,2009,2010,
            Gaussian, Inc.  All Rights Reserved.
  
 This is part of the Gaussian(R) 09 program.  It is based on
 the Gaussian(R) 03 system (copyright 2003, Gaussian, Inc.),
 the Gaussian(R) 98 system (copyright 1998, Gaussian, Inc.),
 the Gaussian(R) 94 system (copyright 1995, Gaussian, Inc.),
 the Gaussian 92(TM) system (copyright 1992, Gaussian, Inc.),
 the Gaussian 90(TM) system (copyright 1990, Gaussian, Inc.),
 the Gaussian 88(TM) system (copyright 1988, Gaussian, Inc.),
 the Gaussian 86(TM) system (copyright 1986, Carnegie Mellon
 University), and the Gaussian 82(TM) system (copyright 1983,
 Carnegie Mellon University). Gaussian is a federally registered
 trademark of Gaussian, Inc.
  
 This software contains proprietary and confidential information,
 including trade secrets, belonging to Gaussian, Inc.
  
 This software is provided under written license and may be
 used, copied, transmitted, or stored only in accord with that
 written license.
  
 The following legend is applicable only to US Government
 contracts under FAR:
  
                    RESTRICTED RIGHTS LEGEND
  
 Use, reproduction and disclosure by the US Government is
 subject to restrictions as set forth in subparagraphs (a)
 and (c) of the Commercial Computer Software - Restricted
 Rights clause in FAR 52.227-19.
  
 Gaussian, Inc.
 340 Quinnipiac St., Bldg. 40, Wallingford CT 06492
  
  
 ---------------------------------------------------------------
 Warning -- This program may not be used in any manner that
 competes with the business of Gaussian, Inc. or will provide
 assistance to any competitor of Gaussian, Inc.  The licensee
 of this program is prohibited from giving any competitor of
 Gaussian, Inc. access to this program.  By using this program,
 the user acknowledges that Gaussian, Inc. is engaged in the
 business of creating and licensing software in the field of
 computational chemistry and represents and warrants to the
 licensee that it is not a competitor of Gaussian, Inc. and that
 it will not use this program in any manner prohibited above.
 ---------------------------------------------------------------
  

 Cite this work as:
 Gaussian 09, Revision B.01,
 M. J. Frisch, G. W. Trucks, H. B. Schlegel, G. E. Scuseria, 
 M. A. Robb, J. R. Cheeseman, G. Scalmani, V. Barone, B. Mennucci, 
 G. A. Petersson, H. Nakatsuji, M. Caricato, X. Li, H. P. Hratchian, 
 A. F. Izmaylov, J. Bloino, G. Zheng, J. L. Sonnenberg, M. Hada, 
 M. Ehara, K. Toyota, R. Fukuda, J. Hasegawa, M. Ishida, T. Nakajima, 
 Y. Honda, O. Kitao, H. Nakai, T. Vreven, J. A. Montgomery, Jr., 
 J. E. Peralta, F. Ogliaro, M. Bearpark, J. J. Heyd, E. Brothers, 
 K. N. Kudin, V. N. Staroverov, T. Keith, R. Kobayashi, J. Normand, 
 K. Raghavachari, A. Rendell, J. C. Burant, S. S. Iyengar, J. Tomasi, 
 M. Cossi, N. Rega, J. M. Millam, M. Klene, J. E. Knox, J. B. Cross, 
 V. Bakken, C. Adamo, J. Jaramillo, R. Gomperts, R. E. Stratmann, 
 O. Yazyev, A. J. Austin, R. Cammi, C. Pomelli, J. W. Ochterski, 
 R. L. Martin, K. Morokuma, V. G. Zakrzewski, G. A. Voth, 
 P. Salvador, J. J. Dannenberg, S. Dapprich, A. D. Daniels, 
 O. Farkas, J. B. Foresman, J. V. Ortiz, J. Cioslowski, 
 and D. J. Fox, Gaussian, Inc., Wallingford CT, 2010.
 
 ******************************************
 Gaussian 09:  EM64L-G09RevB.01 12-Aug-2010
                24-Mar-2021 
 ******************************************
 %mem=600MW
 %nprocshared=10
 Will use up to   10 processors via shared memory.
 ---------------------------------------
 # opt rb3lyp/6-31g(d) geom=connectivity
 ---------------------------------------
 1/14=-1,18=20,19=15,26=3,38=1,57=2/1,3;
 2/9=110,12=2,17=6,18=5,40=1/2;
 3/5=1,6=6,7=1,11=2,16=1,25=1,30=1,71=1,74=-5,116=1/1,2,3;
 4//1;
 5/5=2,38=5/2;
 6/7=2,8=2,9=2,10=2,28=1/1;
 7//1,2,3,16;
 1/14=-1,18=20,19=15/3(2);
 2/9=110/2;
 99//99;
 2/9=110/2;
 3/5=1,6=6,7=1,11=2,16=1,25=1,30=1,71=1,74=-5,116=1/1,2,3;
 4/5=5,16=3/1;
 5/5=2,38=5/2;
 7//1,2,3,16;
 1/14=-1,18=20,19=15/3(-5);
 2/9=110/2;
 6/7=2,8=2,9=2,10=2,19=2,28=1/1;
 99/9=1/99;
 -------------------
 Title Card Required
 -------------------
 Symbolic Z-matrix:
 Charge =  0 Multiplicity = 1
 C                     0.        0.        0. 
 C                     1.3415    0.       -0.0069 
 C                     2.1285    1.2956    0. 
 C                     1.3296    2.5805   -0.3667 
 C                    -0.161     2.4373   -0.7079 
 C                    -0.8269    1.2447    0.0104 
 C                     2.1361    3.2376   -1.5035 
 C                     1.7877    2.776    -2.8785 
 C                     0.5682    2.3491   -3.2259 
 C                    -0.5025    2.3441   -2.2026 
 C                     0.3228    1.8434   -4.6034 
 O                     0.5867    2.5368   -5.585 
 C                    -0.2021    0.4136   -4.7329 
 C                    -1.1509    0.2639   -5.9313 
 C                     0.9996   -0.5202   -4.8782 
 O                    -1.6761    2.2502   -2.5703 
 C                     3.5535    2.716    -1.4108 
 C                     4.0628    2.8696   -2.8589 
 O                     2.9053    2.6345   -3.699 
 C                     3.3315    1.2629   -0.96 
 O                     2.068     4.6511   -1.4603 
 C                    -0.7319    3.7523   -0.1754 
 C                     0.0956    4.004     1.0768 
 O                     1.4046    3.4802    0.7843 
 C                     0.1597    5.4511    1.5156 
 C                    -1.1679    6.1343    1.715 
 C                     1.303     6.1112    1.7719 
 C                     4.6013    4.2774   -3.1608 
 C                     5.1468    1.8534   -3.2363 
 H                     4.1723    3.2621   -0.6898 
 H                     2.5331    1.4163    1.0158 
 C                     2.1145   -1.283     0.1247 
 H                    -0.5436   -0.9413    0.0609 
 H                    -1.05      1.4754    1.0591 
 H                    -1.7972    1.0118   -0.4459 
 H                    -0.7439    0.1338   -3.8226 
 H                    -0.6668    0.6067   -6.8538 
 H                    -1.3913   -0.7967   -6.0752 
 H                     0.6769   -1.564    -4.9496 
 H                     1.6695   -0.4343   -4.0155 
 H                     1.5842   -0.2807   -5.7735 
 H                     3.1136    0.606    -1.8107 
 H                     4.2275    0.8655   -0.4697 
 H                     2.1353    4.8962   -0.5171 
 H                    -0.5919    4.5599   -0.9063 
 H                    -1.8051    3.7018    0.0417 
 H                    -0.2971    3.4163    1.9154 
 H                    -1.7941    5.5532    2.4 
 H                    -1.0567    7.1369    2.1418 
 H                    -1.6958    6.239     0.762 
 H                     1.2988    7.1462    2.1013 
 H                     2.2752    5.638     1.6814 
 H                     4.9529    4.3403   -4.1976 
 H                     5.4353    4.5336   -2.4996 
 H                     3.8337    5.0502   -3.0701 
 H                     4.77      0.826    -3.2302 
 H                     5.4985    2.0249   -4.2606 
 H                     6.0069    1.9193   -2.5623 
 H                     1.457    -2.1433    0.2902 
 H                     2.688    -1.4792   -0.7861 
 H                     2.8068   -1.2322    0.9714 
 C                    -2.4556    1.0266   -5.7421 
 H                    -3.1156    0.8609   -6.5996 
 H                    -2.9797    0.6884   -4.8425 
 H                    -2.2825    2.1035   -5.656 
 

 GradGradGradGradGradGradGradGradGradGradGradGradGradGradGradGradGradGrad
 Berny optimization.
 Initialization pass.
                           ----------------------------
                           !    Initial Parameters    !
                           ! (Angstroms and Degrees)  !
 --------------------------                            --------------------------
 ! Name  Definition              Value          Derivative Info.                !
 --------------------------------------------------------------------------------
 ! R1    R(1,2)                  1.3415         estimate D2E/DX2                !
 ! R2    R(1,6)                  1.4944         estimate D2E/DX2                !
 ! R3    R(1,33)                 1.0887         estimate D2E/DX2                !
 ! R4    R(2,3)                  1.5159         estimate D2E/DX2                !
 ! R5    R(2,32)                 1.5036         estimate D2E/DX2                !
 ! R6    R(3,4)                  1.5568         estimate D2E/DX2                !
 ! R7    R(3,20)                 1.5394         estimate D2E/DX2                !
 ! R8    R(3,31)                 1.1001         estimate D2E/DX2                !
 ! R9    R(4,5)                  1.5358         estimate D2E/DX2                !
 ! R10   R(4,7)                  1.541          estimate D2E/DX2                !
 ! R11   R(4,24)                 1.4628         estimate D2E/DX2                !
 ! R12   R(5,6)                  1.5433         estimate D2E/DX2                !
 ! R13   R(5,10)                 1.536          estimate D2E/DX2                !
 ! R14   R(5,22)                 1.5293         estimate D2E/DX2                !
 ! R15   R(6,34)                 1.0967         estimate D2E/DX2                !
 ! R16   R(6,35)                 1.0972         estimate D2E/DX2                !
 ! R17   R(7,8)                  1.4917         estimate D2E/DX2                !
 ! R18   R(7,17)                 1.5132         estimate D2E/DX2                !
 ! R19   R(7,21)                 1.4158         estimate D2E/DX2                !
 ! R20   R(8,9)                  1.338          estimate D2E/DX2                !
 ! R21   R(8,19)                 1.3937         estimate D2E/DX2                !
 ! R22   R(9,10)                 1.4811         estimate D2E/DX2                !
 ! R23   R(9,11)                 1.4878         estimate D2E/DX2                !
 ! R24   R(10,16)                1.2334         estimate D2E/DX2                !
 ! R25   R(11,12)                1.2304         estimate D2E/DX2                !
 ! R26   R(11,13)                1.5286         estimate D2E/DX2                !
 ! R27   R(13,14)                1.5358         estimate D2E/DX2                !
 ! R28   R(13,15)                1.5288         estimate D2E/DX2                !
 ! R29   R(13,36)                1.0957         estimate D2E/DX2                !
 ! R30   R(14,37)                1.0968         estimate D2E/DX2                !
 ! R31   R(14,38)                1.097          estimate D2E/DX2                !
 ! R32   R(14,62)                1.5231         estimate D2E/DX2                !
 ! R33   R(15,39)                1.0949         estimate D2E/DX2                !
 ! R34   R(15,40)                1.0956         estimate D2E/DX2                !
 ! R35   R(15,41)                1.0958         estimate D2E/DX2                !
 ! R36   R(17,18)                1.5427         estimate D2E/DX2                !
 ! R37   R(17,20)                1.5375         estimate D2E/DX2                !
 ! R38   R(17,30)                1.0959         estimate D2E/DX2                !
 ! R39   R(18,19)                1.4494         estimate D2E/DX2                !
 ! R40   R(18,28)                1.5372         estimate D2E/DX2                !
 ! R41   R(18,29)                1.533          estimate D2E/DX2                !
 ! R42   R(20,42)                1.0967         estimate D2E/DX2                !
 ! R43   R(20,43)                1.096          estimate D2E/DX2                !
 ! R44   R(21,44)                0.9768         estimate D2E/DX2                !
 ! R45   R(22,23)                1.5219         estimate D2E/DX2                !
 ! R46   R(22,45)                1.0982         estimate D2E/DX2                !
 ! R47   R(22,46)                1.0961         estimate D2E/DX2                !
 ! R48   R(23,24)                1.4399         estimate D2E/DX2                !
 ! R49   R(23,25)                1.5135         estimate D2E/DX2                !
 ! R50   R(23,47)                1.0967         estimate D2E/DX2                !
 ! R51   R(25,26)                1.5063         estimate D2E/DX2                !
 ! R52   R(25,27)                1.3448         estimate D2E/DX2                !
 ! R53   R(26,48)                1.095          estimate D2E/DX2                !
 ! R54   R(26,49)                1.0953         estimate D2E/DX2                !
 ! R55   R(26,50)                1.0945         estimate D2E/DX2                !
 ! R56   R(27,51)                1.0862         estimate D2E/DX2                !
 ! R57   R(27,52)                1.085          estimate D2E/DX2                !
 ! R58   R(28,53)                1.0966         estimate D2E/DX2                !
 ! R59   R(28,54)                1.0947         estimate D2E/DX2                !
 ! R60   R(28,55)                1.093          estimate D2E/DX2                !
 ! R61   R(29,56)                1.0943         estimate D2E/DX2                !
 ! R62   R(29,57)                1.0965         estimate D2E/DX2                !
 ! R63   R(29,58)                1.0947         estimate D2E/DX2                !
 ! R64   R(32,59)                1.0954         estimate D2E/DX2                !
 ! R65   R(32,60)                1.0941         estimate D2E/DX2                !
 ! R66   R(32,61)                1.0949         estimate D2E/DX2                !
 ! R67   R(62,63)                1.0947         estimate D2E/DX2                !
 ! R68   R(62,64)                1.0947         estimate D2E/DX2                !
 ! R69   R(62,65)                1.0941         estimate D2E/DX2                !
 ! A1    A(2,1,6)              123.5986         estimate D2E/DX2                !
 ! A2    A(2,1,33)             119.9732         estimate D2E/DX2                !
 ! A3    A(6,1,33)             116.326          estimate D2E/DX2                !
 ! A4    A(1,2,3)              121.2738         estimate D2E/DX2                !
 ! A5    A(1,2,32)             120.9058         estimate D2E/DX2                !
 ! A6    A(3,2,32)             117.5139         estimate D2E/DX2                !
 ! A7    A(2,3,4)              115.9702         estimate D2E/DX2                !
 ! A8    A(2,3,20)             112.6254         estimate D2E/DX2                !
 ! A9    A(2,3,31)             106.7936         estimate D2E/DX2                !
 ! A10   A(4,3,20)             105.7629         estimate D2E/DX2                !
 ! A11   A(4,3,31)             108.4023         estimate D2E/DX2                !
 ! A12   A(20,3,31)            106.903          estimate D2E/DX2                !
 ! A13   A(3,4,5)              118.2566         estimate D2E/DX2                !
 ! A14   A(3,4,7)              104.9001         estimate D2E/DX2                !
 ! A15   A(3,4,24)             107.2158         estimate D2E/DX2                !
 ! A16   A(5,4,7)              112.571          estimate D2E/DX2                !
 ! A17   A(5,4,24)             106.374          estimate D2E/DX2                !
 ! A18   A(7,4,24)             106.9395         estimate D2E/DX2                !
 ! A19   A(4,5,6)              112.7945         estimate D2E/DX2                !
 ! A20   A(4,5,10)             115.9515         estimate D2E/DX2                !
 ! A21   A(4,5,22)             101.8169         estimate D2E/DX2                !
 ! A22   A(6,5,10)             108.0649         estimate D2E/DX2                !
 ! A23   A(6,5,22)             109.959          estimate D2E/DX2                !
 ! A24   A(10,5,22)            107.9392         estimate D2E/DX2                !
 ! A25   A(1,6,5)              113.6823         estimate D2E/DX2                !
 ! A26   A(1,6,34)             107.1234         estimate D2E/DX2                !
 ! A27   A(1,6,35)             108.0373         estimate D2E/DX2                !
 ! A28   A(5,6,34)             111.7331         estimate D2E/DX2                !
 ! A29   A(5,6,35)             110.6121         estimate D2E/DX2                !
 ! A30   A(34,6,35)            105.2134         estimate D2E/DX2                !
 ! A31   A(4,7,8)              115.2029         estimate D2E/DX2                !
 ! A32   A(4,7,17)             107.3415         estimate D2E/DX2                !
 ! A33   A(4,7,21)             112.2128         estimate D2E/DX2                !
 ! A34   A(8,7,17)              99.7054         estimate D2E/DX2                !
 ! A35   A(8,7,21)             109.0165         estimate D2E/DX2                !
 ! A36   A(17,7,21)            112.7887         estimate D2E/DX2                !
 ! A37   A(7,8,9)              123.4332         estimate D2E/DX2                !
 ! A38   A(7,8,19)             112.7562         estimate D2E/DX2                !
 ! A39   A(9,8,19)             123.07           estimate D2E/DX2                !
 ! A40   A(8,9,10)             118.7247         estimate D2E/DX2                !
 ! A41   A(8,9,11)             119.9472         estimate D2E/DX2                !
 ! A42   A(10,9,11)            121.2867         estimate D2E/DX2                !
 ! A43   A(5,10,9)             120.7567         estimate D2E/DX2                !
 ! A44   A(5,10,16)            120.414          estimate D2E/DX2                !
 ! A45   A(9,10,16)            118.8253         estimate D2E/DX2                !
 ! A46   A(9,11,12)            120.7777         estimate D2E/DX2                !
 ! A47   A(9,11,13)            116.9372         estimate D2E/DX2                !
 ! A48   A(12,11,13)           122.2204         estimate D2E/DX2                !
 ! A49   A(11,13,14)           111.6793         estimate D2E/DX2                !
 ! A50   A(11,13,15)           108.0271         estimate D2E/DX2                !
 ! A51   A(11,13,36)           109.7722         estimate D2E/DX2                !
 ! A52   A(14,13,15)           110.6038         estimate D2E/DX2                !
 ! A53   A(14,13,36)           108.5362         estimate D2E/DX2                !
 ! A54   A(15,13,36)           108.1604         estimate D2E/DX2                !
 ! A55   A(13,14,37)           110.6813         estimate D2E/DX2                !
 ! A56   A(13,14,38)           109.3889         estimate D2E/DX2                !
 ! A57   A(13,14,62)           112.5482         estimate D2E/DX2                !
 ! A58   A(37,14,38)           106.7733         estimate D2E/DX2                !
 ! A59   A(37,14,62)           109.0308         estimate D2E/DX2                !
 ! A60   A(38,14,62)           108.2235         estimate D2E/DX2                !
 ! A61   A(13,15,39)           110.9062         estimate D2E/DX2                !
 ! A62   A(13,15,40)           110.9706         estimate D2E/DX2                !
 ! A63   A(13,15,41)           111.3164         estimate D2E/DX2                !
 ! A64   A(39,15,40)           107.8367         estimate D2E/DX2                !
 ! A65   A(39,15,41)           108.2002         estimate D2E/DX2                !
 ! A66   A(40,15,41)           107.4585         estimate D2E/DX2                !
 ! A67   A(7,17,18)            102.5571         estimate D2E/DX2                !
 ! A68   A(7,17,20)            102.0339         estimate D2E/DX2                !
 ! A69   A(7,17,30)            113.4188         estimate D2E/DX2                !
 ! A70   A(18,17,20)           114.644          estimate D2E/DX2                !
 ! A71   A(18,17,30)           112.4289         estimate D2E/DX2                !
 ! A72   A(20,17,30)           111.0745         estimate D2E/DX2                !
 ! A73   A(17,18,19)           105.3236         estimate D2E/DX2                !
 ! A74   A(17,18,28)           113.0279         estimate D2E/DX2                !
 ! A75   A(17,18,29)           113.4857         estimate D2E/DX2                !
 ! A76   A(19,18,28)           108.3287         estimate D2E/DX2                !
 ! A77   A(19,18,29)           108.3292         estimate D2E/DX2                !
 ! A78   A(28,18,29)           108.1205         estimate D2E/DX2                !
 ! A79   A(8,19,18)            106.4214         estimate D2E/DX2                !
 ! A80   A(3,20,17)            105.9975         estimate D2E/DX2                !
 ! A81   A(3,20,42)            109.9494         estimate D2E/DX2                !
 ! A82   A(3,20,43)            111.5673         estimate D2E/DX2                !
 ! A83   A(17,20,42)           111.5525         estimate D2E/DX2                !
 ! A84   A(17,20,43)           110.8434         estimate D2E/DX2                !
 ! A85   A(42,20,43)           106.994          estimate D2E/DX2                !
 ! A86   A(7,21,44)            106.0604         estimate D2E/DX2                !
 ! A87   A(5,22,23)            103.0459         estimate D2E/DX2                !
 ! A88   A(5,22,45)            110.6715         estimate D2E/DX2                !
 ! A89   A(5,22,46)            113.2574         estimate D2E/DX2                !
 ! A90   A(23,22,45)           110.8958         estimate D2E/DX2                !
 ! A91   A(23,22,46)           112.1496         estimate D2E/DX2                !
 ! A92   A(45,22,46)           106.8892         estimate D2E/DX2                !
 ! A93   A(22,23,24)           105.4854         estimate D2E/DX2                !
 ! A94   A(22,23,25)           114.8158         estimate D2E/DX2                !
 ! A95   A(22,23,47)           110.2318         estimate D2E/DX2                !
 ! A96   A(24,23,25)           111.6043         estimate D2E/DX2                !
 ! A97   A(24,23,47)           106.6124         estimate D2E/DX2                !
 ! A98   A(25,23,47)           107.8078         estimate D2E/DX2                !
 ! A99   A(4,24,23)            109.6914         estimate D2E/DX2                !
 ! A100  A(23,25,26)           115.7661         estimate D2E/DX2                !
 ! A101  A(23,25,27)           124.0946         estimate D2E/DX2                !
 ! A102  A(26,25,27)           120.0941         estimate D2E/DX2                !
 ! A103  A(25,26,48)           110.2509         estimate D2E/DX2                !
 ! A104  A(25,26,49)           112.1641         estimate D2E/DX2                !
 ! A105  A(25,26,50)           110.6849         estimate D2E/DX2                !
 ! A106  A(48,26,49)           107.4612         estimate D2E/DX2                !
 ! A107  A(48,26,50)           108.6415         estimate D2E/DX2                !
 ! A108  A(49,26,50)           107.4994         estimate D2E/DX2                !
 ! A109  A(25,27,51)           121.4823         estimate D2E/DX2                !
 ! A110  A(25,27,52)           122.126          estimate D2E/DX2                !
 ! A111  A(51,27,52)           116.3809         estimate D2E/DX2                !
 ! A112  A(18,28,53)           110.5199         estimate D2E/DX2                !
 ! A113  A(18,28,54)           111.2596         estimate D2E/DX2                !
 ! A114  A(18,28,55)           112.6564         estimate D2E/DX2                !
 ! A115  A(53,28,54)           108.2623         estimate D2E/DX2                !
 ! A116  A(53,28,55)           105.2525         estimate D2E/DX2                !
 ! A117  A(54,28,55)           108.6291         estimate D2E/DX2                !
 ! A118  A(18,29,56)           112.1783         estimate D2E/DX2                !
 ! A119  A(18,29,57)           110.6768         estimate D2E/DX2                !
 ! A120  A(18,29,58)           111.3513         estimate D2E/DX2                !
 ! A121  A(56,29,57)           105.2178         estimate D2E/DX2                !
 ! A122  A(56,29,58)           108.8815         estimate D2E/DX2                !
 ! A123  A(57,29,58)           108.284          estimate D2E/DX2                !
 ! A124  A(2,32,59)            112.0116         estimate D2E/DX2                !
 ! A125  A(2,32,60)            110.4652         estimate D2E/DX2                !
 ! A126  A(2,32,61)            110.6803         estimate D2E/DX2                !
 ! A127  A(59,32,60)           107.433          estimate D2E/DX2                !
 ! A128  A(59,32,61)           107.4063         estimate D2E/DX2                !
 ! A129  A(60,32,61)           108.703          estimate D2E/DX2                !
 ! A130  A(14,62,63)           110.0816         estimate D2E/DX2                !
 ! A131  A(14,62,64)           110.9466         estimate D2E/DX2                !
 ! A132  A(14,62,65)           111.5389         estimate D2E/DX2                !
 ! A133  A(63,62,64)           107.9573         estimate D2E/DX2                !
 ! A134  A(63,62,65)           107.8191         estimate D2E/DX2                !
 ! A135  A(64,62,65)           108.3706         estimate D2E/DX2                !
 ! D1    D(6,1,2,3)              0.2012         estimate D2E/DX2                !
 ! D2    D(6,1,2,32)           173.685          estimate D2E/DX2                !
 ! D3    D(33,1,2,3)          -175.9837         estimate D2E/DX2                !
 ! D4    D(33,1,2,32)           -2.4998         estimate D2E/DX2                !
 ! D5    D(2,1,6,5)             30.662          estimate D2E/DX2                !
 ! D6    D(2,1,6,34)           -93.2705         estimate D2E/DX2                !
 ! D7    D(2,1,6,35)           153.8307         estimate D2E/DX2                !
 ! D8    D(33,1,6,5)          -153.0251         estimate D2E/DX2                !
 ! D9    D(33,1,6,34)           83.0423         estimate D2E/DX2                !
 ! D10   D(33,1,6,35)          -29.8565         estimate D2E/DX2                !
 ! D11   D(1,2,3,4)            -15.8239         estimate D2E/DX2                !
 ! D12   D(1,2,3,20)          -137.8545         estimate D2E/DX2                !
 ! D13   D(1,2,3,31)           105.0927         estimate D2E/DX2                !
 ! D14   D(32,2,3,4)           170.4792         estimate D2E/DX2                !
 ! D15   D(32,2,3,20)           48.4486         estimate D2E/DX2                !
 ! D16   D(32,2,3,31)          -68.6042         estimate D2E/DX2                !
 ! D17   D(1,2,32,59)           -3.9986         estimate D2E/DX2                !
 ! D18   D(1,2,32,60)          115.7227         estimate D2E/DX2                !
 ! D19   D(1,2,32,61)         -123.8325         estimate D2E/DX2                !
 ! D20   D(3,2,32,59)          169.7228         estimate D2E/DX2                !
 ! D21   D(3,2,32,60)          -70.5559         estimate D2E/DX2                !
 ! D22   D(3,2,32,61)           49.8889         estimate D2E/DX2                !
 ! D23   D(2,3,4,5)             -0.346          estimate D2E/DX2                !
 ! D24   D(2,3,4,7)           -126.782          estimate D2E/DX2                !
 ! D25   D(2,3,4,24)           119.7594         estimate D2E/DX2                !
 ! D26   D(20,3,4,5)           125.2544         estimate D2E/DX2                !
 ! D27   D(20,3,4,7)            -1.1816         estimate D2E/DX2                !
 ! D28   D(20,3,4,24)         -114.6403         estimate D2E/DX2                !
 ! D29   D(31,3,4,5)          -120.3957         estimate D2E/DX2                !
 ! D30   D(31,3,4,7)           113.1683         estimate D2E/DX2                !
 ! D31   D(31,3,4,24)           -0.2904         estimate D2E/DX2                !
 ! D32   D(2,3,20,17)          150.9057         estimate D2E/DX2                !
 ! D33   D(2,3,20,42)           30.2011         estimate D2E/DX2                !
 ! D34   D(2,3,20,43)          -88.3413         estimate D2E/DX2                !
 ! D35   D(4,3,20,17)           23.2729         estimate D2E/DX2                !
 ! D36   D(4,3,20,42)          -97.4317         estimate D2E/DX2                !
 ! D37   D(4,3,20,43)          144.026          estimate D2E/DX2                !
 ! D38   D(31,3,20,17)         -92.1066         estimate D2E/DX2                !
 ! D39   D(31,3,20,42)         147.1889         estimate D2E/DX2                !
 ! D40   D(31,3,20,43)          28.6465         estimate D2E/DX2                !
 ! D41   D(3,4,5,6)             29.1165         estimate D2E/DX2                !
 ! D42   D(3,4,5,10)           -96.2367         estimate D2E/DX2                !
 ! D43   D(3,4,5,22)           146.9048         estimate D2E/DX2                !
 ! D44   D(7,4,5,6)            151.7689         estimate D2E/DX2                !
 ! D45   D(7,4,5,10)            26.4157         estimate D2E/DX2                !
 ! D46   D(7,4,5,22)           -90.4428         estimate D2E/DX2                !
 ! D47   D(24,4,5,6)           -91.4232         estimate D2E/DX2                !
 ! D48   D(24,4,5,10)          143.2236         estimate D2E/DX2                !
 ! D49   D(24,4,5,22)           26.3651         estimate D2E/DX2                !
 ! D50   D(3,4,7,8)             88.1703         estimate D2E/DX2                !
 ! D51   D(3,4,7,17)           -21.8375         estimate D2E/DX2                !
 ! D52   D(3,4,7,21)          -146.2967         estimate D2E/DX2                !
 ! D53   D(5,4,7,8)            -41.7058         estimate D2E/DX2                !
 ! D54   D(5,4,7,17)          -151.7136         estimate D2E/DX2                !
 ! D55   D(5,4,7,21)            83.8272         estimate D2E/DX2                !
 ! D56   D(24,4,7,8)          -158.1764         estimate D2E/DX2                !
 ! D57   D(24,4,7,17)           91.8159         estimate D2E/DX2                !
 ! D58   D(24,4,7,21)          -32.6433         estimate D2E/DX2                !
 ! D59   D(3,4,24,23)         -133.5081         estimate D2E/DX2                !
 ! D60   D(5,4,24,23)           -6.0905         estimate D2E/DX2                !
 ! D61   D(7,4,24,23)          114.4195         estimate D2E/DX2                !
 ! D62   D(4,5,6,1)            -43.397          estimate D2E/DX2                !
 ! D63   D(4,5,6,34)            77.9985         estimate D2E/DX2                !
 ! D64   D(4,5,6,35)          -165.1459         estimate D2E/DX2                !
 ! D65   D(10,5,6,1)            86.1247         estimate D2E/DX2                !
 ! D66   D(10,5,6,34)         -152.4798         estimate D2E/DX2                !
 ! D67   D(10,5,6,35)          -35.6242         estimate D2E/DX2                !
 ! D68   D(22,5,6,1)          -156.2859         estimate D2E/DX2                !
 ! D69   D(22,5,6,34)          -34.8904         estimate D2E/DX2                !
 ! D70   D(22,5,6,35)           81.9652         estimate D2E/DX2                !
 ! D71   D(4,5,10,9)             1.9624         estimate D2E/DX2                !
 ! D72   D(4,5,10,16)         -178.763          estimate D2E/DX2                !
 ! D73   D(6,5,10,9)          -125.769          estimate D2E/DX2                !
 ! D74   D(6,5,10,16)           53.5057         estimate D2E/DX2                !
 ! D75   D(22,5,10,9)          115.3501         estimate D2E/DX2                !
 ! D76   D(22,5,10,16)         -65.3753         estimate D2E/DX2                !
 ! D77   D(4,5,22,23)          -35.9259         estimate D2E/DX2                !
 ! D78   D(4,5,22,45)           82.6771         estimate D2E/DX2                !
 ! D79   D(4,5,22,46)         -157.314          estimate D2E/DX2                !
 ! D80   D(6,5,22,23)           83.8817         estimate D2E/DX2                !
 ! D81   D(6,5,22,45)         -157.5153         estimate D2E/DX2                !
 ! D82   D(6,5,22,46)          -37.5064         estimate D2E/DX2                !
 ! D83   D(10,5,22,23)        -158.4508         estimate D2E/DX2                !
 ! D84   D(10,5,22,45)         -39.8478         estimate D2E/DX2                !
 ! D85   D(10,5,22,46)          80.1611         estimate D2E/DX2                !
 ! D86   D(4,7,8,9)             29.6581         estimate D2E/DX2                !
 ! D87   D(4,7,8,19)          -140.7383         estimate D2E/DX2                !
 ! D88   D(17,7,8,9)           144.1585         estimate D2E/DX2                !
 ! D89   D(17,7,8,19)          -26.2379         estimate D2E/DX2                !
 ! D90   D(21,7,8,9)           -97.509          estimate D2E/DX2                !
 ! D91   D(21,7,8,19)           92.0946         estimate D2E/DX2                !
 ! D92   D(4,7,17,18)          154.7825         estimate D2E/DX2                !
 ! D93   D(4,7,17,20)           35.8172         estimate D2E/DX2                !
 ! D94   D(4,7,17,30)          -83.7207         estimate D2E/DX2                !
 ! D95   D(8,7,17,18)           34.3857         estimate D2E/DX2                !
 ! D96   D(8,7,17,20)          -84.5796         estimate D2E/DX2                !
 ! D97   D(8,7,17,30)          155.8825         estimate D2E/DX2                !
 ! D98   D(21,7,17,18)         -81.1083         estimate D2E/DX2                !
 ! D99   D(21,7,17,20)         159.9264         estimate D2E/DX2                !
 ! D100  D(21,7,17,30)          40.3885         estimate D2E/DX2                !
 ! D101  D(4,7,21,44)           40.7619         estimate D2E/DX2                !
 ! D102  D(8,7,21,44)          169.6095         estimate D2E/DX2                !
 ! D103  D(17,7,21,44)         -80.6228         estimate D2E/DX2                !
 ! D104  D(7,8,9,10)             0.6667         estimate D2E/DX2                !
 ! D105  D(7,8,9,11)          -177.0228         estimate D2E/DX2                !
 ! D106  D(19,8,9,10)          170.0882         estimate D2E/DX2                !
 ! D107  D(19,8,9,11)           -7.6014         estimate D2E/DX2                !
 ! D108  D(7,8,19,18)            5.5876         estimate D2E/DX2                !
 ! D109  D(9,8,19,18)         -164.849          estimate D2E/DX2                !
 ! D110  D(8,9,10,5)           -17.0587         estimate D2E/DX2                !
 ! D111  D(8,9,10,16)          163.6553         estimate D2E/DX2                !
 ! D112  D(11,9,10,5)          160.5986         estimate D2E/DX2                !
 ! D113  D(11,9,10,16)         -18.6874         estimate D2E/DX2                !
 ! D114  D(8,9,11,12)          -55.3185         estimate D2E/DX2                !
 ! D115  D(8,9,11,13)          121.8196         estimate D2E/DX2                !
 ! D116  D(10,9,11,12)         127.0525         estimate D2E/DX2                !
 ! D117  D(10,9,11,13)         -55.8094         estimate D2E/DX2                !
 ! D118  D(9,11,13,14)         146.4138         estimate D2E/DX2                !
 ! D119  D(9,11,13,15)         -91.7419         estimate D2E/DX2                !
 ! D120  D(9,11,13,36)          25.9871         estimate D2E/DX2                !
 ! D121  D(12,11,13,14)        -36.4926         estimate D2E/DX2                !
 ! D122  D(12,11,13,15)         85.3516         estimate D2E/DX2                !
 ! D123  D(12,11,13,36)       -156.9194         estimate D2E/DX2                !
 ! D124  D(11,13,14,37)         54.6392         estimate D2E/DX2                !
 ! D125  D(11,13,14,38)        172.0176         estimate D2E/DX2                !
 ! D126  D(11,13,14,62)        -67.645          estimate D2E/DX2                !
 ! D127  D(15,13,14,37)        -65.7074         estimate D2E/DX2                !
 ! D128  D(15,13,14,38)         51.6709         estimate D2E/DX2                !
 ! D129  D(15,13,14,62)        172.0083         estimate D2E/DX2                !
 ! D130  D(36,13,14,37)        175.7866         estimate D2E/DX2                !
 ! D131  D(36,13,14,38)        -66.8351         estimate D2E/DX2                !
 ! D132  D(36,13,14,62)         53.5023         estimate D2E/DX2                !
 ! D133  D(11,13,15,39)        178.5793         estimate D2E/DX2                !
 ! D134  D(11,13,15,40)         58.7408         estimate D2E/DX2                !
 ! D135  D(11,13,15,41)        -60.8927         estimate D2E/DX2                !
 ! D136  D(14,13,15,39)        -58.9154         estimate D2E/DX2                !
 ! D137  D(14,13,15,40)       -178.7538         estimate D2E/DX2                !
 ! D138  D(14,13,15,41)         61.6126         estimate D2E/DX2                !
 ! D139  D(36,13,15,39)         59.8191         estimate D2E/DX2                !
 ! D140  D(36,13,15,40)        -60.0194         estimate D2E/DX2                !
 ! D141  D(36,13,15,41)       -179.6529         estimate D2E/DX2                !
 ! D142  D(13,14,62,63)       -177.7972         estimate D2E/DX2                !
 ! D143  D(13,14,62,64)        -58.362          estimate D2E/DX2                !
 ! D144  D(13,14,62,65)         62.561          estimate D2E/DX2                !
 ! D145  D(37,14,62,63)         58.9917         estimate D2E/DX2                !
 ! D146  D(37,14,62,64)        178.4269         estimate D2E/DX2                !
 ! D147  D(37,14,62,65)        -60.6501         estimate D2E/DX2                !
 ! D148  D(38,14,62,63)        -56.7906         estimate D2E/DX2                !
 ! D149  D(38,14,62,64)         62.6445         estimate D2E/DX2                !
 ! D150  D(38,14,62,65)       -176.4325         estimate D2E/DX2                !
 ! D151  D(7,17,18,19)         -33.4895         estimate D2E/DX2                !
 ! D152  D(7,17,18,28)          84.5942         estimate D2E/DX2                !
 ! D153  D(7,17,18,29)        -151.8216         estimate D2E/DX2                !
 ! D154  D(20,17,18,19)         76.2163         estimate D2E/DX2                !
 ! D155  D(20,17,18,28)       -165.7            estimate D2E/DX2                !
 ! D156  D(20,17,18,29)        -42.1158         estimate D2E/DX2                !
 ! D157  D(30,17,18,19)       -155.6606         estimate D2E/DX2                !
 ! D158  D(30,17,18,28)        -37.577          estimate D2E/DX2                !
 ! D159  D(30,17,18,29)         86.0072         estimate D2E/DX2                !
 ! D160  D(7,17,20,3)          -36.2094         estimate D2E/DX2                !
 ! D161  D(7,17,20,42)          83.4508         estimate D2E/DX2                !
 ! D162  D(7,17,20,43)        -157.4302         estimate D2E/DX2                !
 ! D163  D(18,17,20,3)        -146.2309         estimate D2E/DX2                !
 ! D164  D(18,17,20,42)        -26.5706         estimate D2E/DX2                !
 ! D165  D(18,17,20,43)         92.5484         estimate D2E/DX2                !
 ! D166  D(30,17,20,3)          84.9658         estimate D2E/DX2                !
 ! D167  D(30,17,20,42)       -155.3739         estimate D2E/DX2                !
 ! D168  D(30,17,20,43)        -36.2549         estimate D2E/DX2                !
 ! D169  D(17,18,19,8)          17.5656         estimate D2E/DX2                !
 ! D170  D(28,18,19,8)        -103.6358         estimate D2E/DX2                !
 ! D171  D(29,18,19,8)         139.306          estimate D2E/DX2                !
 ! D172  D(17,18,28,53)        179.911          estimate D2E/DX2                !
 ! D173  D(17,18,28,54)         59.6028         estimate D2E/DX2                !
 ! D174  D(17,18,28,55)        -62.6621         estimate D2E/DX2                !
 ! D175  D(19,18,28,53)        -63.774          estimate D2E/DX2                !
 ! D176  D(19,18,28,54)        175.9178         estimate D2E/DX2                !
 ! D177  D(19,18,28,55)         53.6529         estimate D2E/DX2                !
 ! D178  D(29,18,28,53)         53.4184         estimate D2E/DX2                !
 ! D179  D(29,18,28,54)        -66.8899         estimate D2E/DX2                !
 ! D180  D(29,18,28,55)        170.8453         estimate D2E/DX2                !
 ! D181  D(17,18,29,56)         64.7105         estimate D2E/DX2                !
 ! D182  D(17,18,29,57)       -178.107          estimate D2E/DX2                !
 ! D183  D(17,18,29,58)        -57.6048         estimate D2E/DX2                !
 ! D184  D(19,18,29,56)        -51.8721         estimate D2E/DX2                !
 ! D185  D(19,18,29,57)         65.3104         estimate D2E/DX2                !
 ! D186  D(19,18,29,58)       -174.1874         estimate D2E/DX2                !
 ! D187  D(28,18,29,56)       -169.0641         estimate D2E/DX2                !
 ! D188  D(28,18,29,57)        -51.8816         estimate D2E/DX2                !
 ! D189  D(28,18,29,58)         68.6206         estimate D2E/DX2                !
 ! D190  D(5,22,23,24)          33.4678         estimate D2E/DX2                !
 ! D191  D(5,22,23,25)         156.7691         estimate D2E/DX2                !
 ! D192  D(5,22,23,47)         -81.2583         estimate D2E/DX2                !
 ! D193  D(45,22,23,24)        -84.9785         estimate D2E/DX2                !
 ! D194  D(45,22,23,25)         38.3227         estimate D2E/DX2                !
 ! D195  D(45,22,23,47)        160.2954         estimate D2E/DX2                !
 ! D196  D(46,22,23,24)        155.6045         estimate D2E/DX2                !
 ! D197  D(46,22,23,25)        -81.0942         estimate D2E/DX2                !
 ! D198  D(46,22,23,47)         40.8784         estimate D2E/DX2                !
 ! D199  D(22,23,24,4)         -17.1575         estimate D2E/DX2                !
 ! D200  D(25,23,24,4)        -142.477          estimate D2E/DX2                !
 ! D201  D(47,23,24,4)         100.0448         estimate D2E/DX2                !
 ! D202  D(22,23,25,26)         54.2364         estimate D2E/DX2                !
 ! D203  D(22,23,25,27)       -128.2148         estimate D2E/DX2                !
 ! D204  D(24,23,25,26)        174.2033         estimate D2E/DX2                !
 ! D205  D(24,23,25,27)         -8.248          estimate D2E/DX2                !
 ! D206  D(47,23,25,26)        -69.0416         estimate D2E/DX2                !
 ! D207  D(47,23,25,27)        108.5071         estimate D2E/DX2                !
 ! D208  D(23,25,26,48)         53.6566         estimate D2E/DX2                !
 ! D209  D(23,25,26,49)        173.3686         estimate D2E/DX2                !
 ! D210  D(23,25,26,50)        -66.574          estimate D2E/DX2                !
 ! D211  D(27,25,26,48)       -123.9973         estimate D2E/DX2                !
 ! D212  D(27,25,26,49)         -4.2853         estimate D2E/DX2                !
 ! D213  D(27,25,26,50)        115.7721         estimate D2E/DX2                !
 ! D214  D(23,25,27,51)       -178.9302         estimate D2E/DX2                !
 ! D215  D(23,25,27,52)         -0.1753         estimate D2E/DX2                !
 ! D216  D(26,25,27,51)         -1.4817         estimate D2E/DX2                !
 ! D217  D(26,25,27,52)        177.2732         estimate D2E/DX2                !
 --------------------------------------------------------------------------------
 Trust Radius=3.00D-01 FncErr=1.00D-07 GrdErr=1.00D-06
 Number of steps in this run=    390 maximum allowed number of steps=    390.
 GradGradGradGradGradGradGradGradGradGradGradGradGradGradGradGradGradGrad

 Stoichiometry    C26H34O5
 Framework group  C1[X(C26H34O5)]
 Deg. of freedom   189
 Full point group                 C1      NOp   1
 Largest Abelian subgroup         C1      NOp   1
 Largest concise Abelian subgroup C1      NOp   1
                         Standard orientation:                         
 ---------------------------------------------------------------------
 Center     Atomic      Atomic             Coordinates (Angstroms)
 Number     Number       Type             X           Y           Z
 ---------------------------------------------------------------------
      1          6           0       -0.182432   -1.332352    2.870163
      2          6           0       -0.267417    0.002333    2.975348
      3          6           0       -1.015953    0.826719    1.946719
      4          6           0       -1.336142    0.111253    0.601629
      5          6           0       -0.871083   -1.341432    0.422071
      6          6           0       -0.797586   -2.114854    1.755521
      7          6           0       -0.781005    1.048961   -0.487895
      8          6           0        0.648642    0.825474   -0.850175
      9          6           0        1.251549   -0.366308   -0.770992
     10          6           0        0.463077   -1.533955   -0.314399
     11          6           0        2.699800   -0.488566   -1.088925
     12          8           0        3.141370   -0.104819   -2.171394
     13          6           0        3.605474   -1.044406    0.009899
     14          6           0        4.760748   -1.872443   -0.571902
     15          6           0        4.143665    0.134541    0.820831
     16          8           0        0.902807   -2.667135   -0.523915
     17          6           0       -0.677622    2.432014    0.117216
     18          6           0        0.428286    3.088941   -0.734481
     19          8           0        1.340745    2.014586   -1.072159
     20          6           0       -0.269796    2.118332    1.566108
     21          8           0       -1.565030    1.023253   -1.666508
     22          6           0       -1.981601   -1.919498   -0.456163
     23          6           0       -3.228346   -1.214142    0.057853
     24          8           0       -2.791367    0.099733    0.453055
     25          6           0       -4.373066   -1.147021   -0.930005
     26          6           0       -4.815038   -2.464814   -1.510629
     27          6           0       -5.018027   -0.014216   -1.260666
     28          6           0       -0.102523    3.700911   -2.040911
     29          6           0        1.214172    4.171456    0.014313
     30          1           0       -1.618596    2.992843    0.085324
     31          1           0       -1.964851    1.130989    2.412690
     32          6           0        0.251926    0.715719    4.192846
     33          1           0        0.303871   -1.909892    3.654518
     34          1           0       -1.790296   -2.434467    2.094848
     35          1           0       -0.222877   -3.041531    1.633407
     36          1           0        3.022797   -1.683775    0.682339
     37          1           0        5.324102   -1.287159   -1.308751
     38          1           0        5.462851   -2.131822    0.230061
     39          1           0        4.781212   -0.213408    1.640109
     40          1           0        3.324534    0.716863    1.257091
     41          1           0        4.732231    0.813643    0.193862
     42          1           0        0.812462    1.965552    1.655916
     43          1           0       -0.532764    2.947042    2.233358
     44          1           0       -2.496024    1.003482   -1.371399
     45          1           0       -1.803992   -1.680392   -1.513195
     46          1           0       -2.065302   -3.010152   -0.386098
     47          1           0       -3.596760   -1.708141    0.965097
     48          1           0       -5.041528   -3.175363   -0.708849
     49          1           0       -5.716284   -2.364227   -2.124933
     50          1           0       -4.030737   -2.890611   -2.144205
     51          1           0       -5.846502   -0.017538   -1.963065
     52          1           0       -4.755652    0.946115   -0.829152
     53          1           0        0.715210    4.156737   -2.611936
     54          1           0       -0.853330    4.472236   -1.841596
     55          1           0       -0.538344    2.953838   -2.709191
     56          1           0        1.781249    3.762463    0.856165
     57          1           0        1.963558    4.629688   -0.641994
     58          1           0        0.552062    4.961209    0.383489
     59          1           0        0.614559    0.017067    4.954551
     60          1           0        1.086177    1.371052    3.925420
     61          1           0       -0.536540    1.320771    4.652187
     62          6           0        4.283529   -3.163833   -1.223303
     63          1           0        5.140066   -3.739449   -1.588507
     64          1           0        3.739761   -3.786442   -0.505657
     65          1           0        3.626088   -2.965037   -2.074973
 ---------------------------------------------------------------------
 Rotational constants (GHZ):      0.1982609      0.1341359      0.1175056
 Standard basis: 6-31G(d) (6D, 7F)
 There are   533 symmetry adapted basis functions of A   symmetry.
 Integral buffers will be    131072 words long.
 Raffenetti 2 integral format.
 Two-electron integral symmetry is turned on.
   533 basis functions,  1004 primitive gaussians,   533 cartesian basis functions
   115 alpha electrons      115 beta electrons
       nuclear repulsion energy      3538.1717758425 Hartrees.
 NAtoms=   65 NActive=   65 NUniq=   65 SFac= 1.00D+00 NAtFMM=   50 NAOKFM=T Big=T
 One-electron integrals computed using PRISM.
 NBasis=   533 RedAO= T  NBF=   533
 NBsUse=   533 1.00D-06 NBFU=   533
 Harris functional with IExCor=  402 diagonalized for initial guess.
 ExpMin= 1.61D-01 ExpMax= 5.48D+03 ExpMxC= 8.25D+02 IAcc=1 IRadAn=         1 AccDes= 0.00D+00
 HarFok:  IExCor=  402 AccDes= 0.00D+00 IRadAn=         1 IDoV= 1
 ScaDFX=  1.000000  1.000000  1.000000  1.000000
 FoFCou: FMM=F IPFlag=           0 FMFlag=      100000 FMFlg1=        2001
         NFxFlg=           0 DoJE=T BraDBF=F KetDBF=T FulRan=T
         Omega=  0.000000  0.000000  1.000000  0.000000  0.000000 ICntrl=     500 IOpCl=  0
         NMat0=    1 NMatS0=    1 NMatT0=    0 NMatD0=    1 NMtDS0=    0 NMtDT0=    0
         I1Cent=           4 NGrid=           0.
 Petite list used in FoFCou.
 Initial guess orbital symmetries:
       Occupied  (A) (A) (A) (A) (A) (A) (A) (A) (A) (A) (A) (A)
                 (A) (A) (A) (A) (A) (A) (A) (A) (A) (A) (A) (A)
                 (A) (A) (A) (A) (A) (A) (A) (A) (A) (A) (A) (A)
                 (A) (A) (A) (A) (A) (A) (A) (A) (A) (A) (A) (A)
                 (A) (A) (A) (A) (A) (A) (A) (A) (A) (A) (A) (A)
                 (A) (A) (A) (A) (A) (A) (A) (A) (A) (A) (A) (A)
                 (A) (A) (A) (A) (A) (A) (A) (A) (A) (A) (A) (A)
                 (A) (A) (A) (A) (A) (A) (A) (A) (A) (A) (A) (A)
                 (A) (A) (A) (A) (A) (A) (A) (A) (A) (A) (A) (A)
                 (A) (A) (A) (A) (A) (A) (A)
       Virtual   (A) (A) (A) (A) (A) (A) (A) (A) (A) (A) (A) (A)
                 (A) (A) (A) (A) (A) (A) (A) (A) (A) (A) (A) (A)
                 (A) (A) (A) (A) (A) (A) (A) (A) (A) (A) (A) (A)
                 (A) (A) (A) (A) (A) (A) (A) (A) (A) (A) (A) (A)
                 (A) (A) (A) (A) (A) (A) (A) (A) (A) (A) (A) (A)
                 (A) (A) (A) (A) (A) (A) (A) (A) (A) (A) (A) (A)
                 (A) (A) (A) (A) (A) (A) (A) (A) (A) (A) (A) (A)
                 (A) (A) (A) (A) (A) (A) (A) (A) (A) (A) (A) (A)
                 (A) (A) (A) (A) (A) (A) (A) (A) (A) (A) (A) (A)
                 (A) (A) (A) (A) (A) (A) (A) (A) (A) (A) (A) (A)
                 (A) (A) (A) (A) (A) (A) (A) (A) (A) (A) (A) (A)
                 (A) (A) (A) (A) (A) (A) (A) (A) (A) (A) (A) (A)
                 (A) (A) (A) (A) (A) (A) (A) (A) (A) (A) (A) (A)
                 (A) (A) (A) (A) (A) (A) (A) (A) (A) (A) (A) (A)
                 (A) (A) (A) (A) (A) (A) (A) (A) (A) (A) (A) (A)
                 (A) (A) (A) (A) (A) (A) (A) (A) (A) (A) (A) (A)
                 (A) (A) (A) (A) (A) (A) (A) (A) (A) (A) (A) (A)
                 (A) (A) (A) (A) (A) (A) (A) (A) (A) (A) (A) (A)
                 (A) (A) (A) (A) (A) (A) (A) (A) (A) (A) (A) (A)
                 (A) (A) (A) (A) (A) (A) (A) (A) (A) (A) (A) (A)
                 (A) (A) (A) (A) (A) (A) (A) (A) (A) (A) (A) (A)
                 (A) (A) (A) (A) (A) (A) (A) (A) (A) (A) (A) (A)
                 (A) (A) (A) (A) (A) (A) (A) (A) (A) (A) (A) (A)
                 (A) (A) (A) (A) (A) (A) (A) (A) (A) (A) (A) (A)
                 (A) (A) (A) (A) (A) (A) (A) (A) (A) (A) (A) (A)
                 (A) (A) (A) (A) (A) (A) (A) (A) (A) (A) (A) (A)
                 (A) (A) (A) (A) (A) (A) (A) (A) (A) (A) (A) (A)
                 (A) (A) (A) (A) (A) (A) (A) (A) (A) (A) (A) (A)
                 (A) (A) (A) (A) (A) (A) (A) (A) (A) (A) (A) (A)
                 (A) (A) (A) (A) (A) (A) (A) (A) (A) (A) (A) (A)
                 (A) (A) (A) (A) (A) (A) (A) (A) (A) (A) (A) (A)
                 (A) (A) (A) (A) (A) (A) (A) (A) (A) (A) (A) (A)
                 (A) (A) (A) (A) (A) (A) (A) (A) (A) (A) (A) (A)
                 (A) (A) (A) (A) (A) (A) (A) (A) (A) (A) (A) (A)
                 (A) (A) (A) (A) (A) (A) (A) (A) (A) (A)
 The electronic state of the initial guess is 1-A.
 Requested convergence on RMS density matrix=1.00D-08 within 128 cycles.
 Requested convergence on MAX density matrix=1.00D-06.
 Requested convergence on             energy=1.00D-06.
 No special actions if energy rises.
 Integral accuracy reduced to 1.0D-05 until final iterations.
 Initial convergence to 1.0D-05 achieved.  Increase integral accuracy.
 SCF Done:  E(RB3LYP) =  -1387.30621049     A.U. after   16 cycles
             Convg  =    0.4316D-08             -V/T =  2.0091

 **********************************************************************

            Population analysis using the SCF density.

 **********************************************************************

 Orbital symmetries:
       Occupied  (A) (A) (A) (A) (A) (A) (A) (A) (A) (A) (A) (A)
                 (A) (A) (A) (A) (A) (A) (A) (A) (A) (A) (A) (A)
                 (A) (A) (A) (A) (A) (A) (A) (A) (A) (A) (A) (A)
                 (A) (A) (A) (A) (A) (A) (A) (A) (A) (A) (A) (A)
                 (A) (A) (A) (A) (A) (A) (A) (A) (A) (A) (A) (A)
                 (A) (A) (A) (A) (A) (A) (A) (A) (A) (A) (A) (A)
                 (A) (A) (A) (A) (A) (A) (A) (A) (A) (A) (A) (A)
                 (A) (A) (A) (A) (A) (A) (A) (A) (A) (A) (A) (A)
                 (A) (A) (A) (A) (A) (A) (A) (A) (A) (A) (A) (A)
                 (A) (A) (A) (A) (A) (A) (A)
       Virtual   (A) (A) (A) (A) (A) (A) (A) (A) (A) (A) (A) (A)
                 (A) (A) (A) (A) (A) (A) (A) (A) (A) (A) (A) (A)
                 (A) (A) (A) (A) (A) (A) (A) (A) (A) (A) (A) (A)
                 (A) (A) (A) (A) (A) (A) (A) (A) (A) (A) (A) (A)
                 (A) (A) (A) (A) (A) (A) (A) (A) (A) (A) (A) (A)
                 (A) (A) (A) (A) (A) (A) (A) (A) (A) (A) (A) (A)
                 (A) (A) (A) (A) (A) (A) (A) (A) (A) (A) (A) (A)
                 (A) (A) (A) (A) (A) (A) (A) (A) (A) (A) (A) (A)
                 (A) (A) (A) (A) (A) (A) (A) (A) (A) (A) (A) (A)
                 (A) (A) (A) (A) (A) (A) (A) (A) (A) (A) (A) (A)
                 (A) (A) (A) (A) (A) (A) (A) (A) (A) (A) (A) (A)
                 (A) (A) (A) (A) (A) (A) (A) (A) (A) (A) (A) (A)
                 (A) (A) (A) (A) (A) (A) (A) (A) (A) (A) (A) (A)
                 (A) (A) (A) (A) (A) (A) (A) (A) (A) (A) (A) (A)
                 (A) (A) (A) (A) (A) (A) (A) (A) (A) (A) (A) (A)
                 (A) (A) (A) (A) (A) (A) (A) (A) (A) (A) (A) (A)
                 (A) (A) (A) (A) (A) (A) (A) (A) (A) (A) (A) (A)
                 (A) (A) (A) (A) (A) (A) (A) (A) (A) (A) (A) (A)
                 (A) (A) (A) (A) (A) (A) (A) (A) (A) (A) (A) (A)
                 (A) (A) (A) (A) (A) (A) (A) (A) (A) (A) (A) (A)
                 (A) (A) (A) (A) (A) (A) (A) (A) (A) (A) (A) (A)
                 (A) (A) (A) (A) (A) (A) (A) (A) (A) (A) (A) (A)
                 (A) (A) (A) (A) (A) (A) (A) (A) (A) (A) (A) (A)
                 (A) (A) (A) (A) (A) (A) (A) (A) (A) (A) (A) (A)
                 (A) (A) (A) (A) (A) (A) (A) (A) (A) (A) (A) (A)
                 (A) (A) (A) (A) (A) (A) (A) (A) (A) (A) (A) (A)
                 (A) (A) (A) (A) (A) (A) (A) (A) (A) (A) (A) (A)
                 (A) (A) (A) (A) (A) (A) (A) (A) (A) (A) (A) (A)
                 (A) (A) (A) (A) (A) (A) (A) (A) (A) (A) (A) (A)
                 (A) (A) (A) (A) (A) (A) (A) (A) (A) (A) (A) (A)
                 (A) (A) (A) (A) (A) (A) (A) (A) (A) (A) (A) (A)
                 (A) (A) (A) (A) (A) (A) (A) (A) (A) (A) (A) (A)
                 (A) (A) (A) (A) (A) (A) (A) (A) (A) (A) (A) (A)
                 (A) (A) (A) (A) (A) (A) (A) (A) (A) (A) (A) (A)
                 (A) (A) (A) (A) (A) (A) (A) (A) (A) (A)
 The electronic state is 1-A.
 Alpha  occ. eigenvalues --  -19.19503 -19.16922 -19.15284 -19.13670 -19.12834
 Alpha  occ. eigenvalues --  -10.28044 -10.27205 -10.26667 -10.26099 -10.25956
 Alpha  occ. eigenvalues --  -10.25591 -10.25333 -10.21821 -10.20814 -10.20538
 Alpha  occ. eigenvalues --  -10.20126 -10.19840 -10.19775 -10.19713 -10.19544
 Alpha  occ. eigenvalues --  -10.19501 -10.19151 -10.18849 -10.18618 -10.18519
 Alpha  occ. eigenvalues --  -10.18374 -10.18307 -10.17512 -10.17425 -10.16583
 Alpha  occ. eigenvalues --  -10.15127  -1.08356  -1.06017  -1.03415  -1.02389
 Alpha  occ. eigenvalues --   -1.01997  -0.87579  -0.84117  -0.82769  -0.81925
 Alpha  occ. eigenvalues --   -0.80570  -0.79807  -0.76992  -0.74676  -0.73834
 Alpha  occ. eigenvalues --   -0.72439  -0.71643  -0.69442  -0.69328  -0.68320
 Alpha  occ. eigenvalues --   -0.65495  -0.64174  -0.63468  -0.61840  -0.61026
 Alpha  occ. eigenvalues --   -0.59508  -0.59014  -0.57425  -0.54857  -0.53902
 Alpha  occ. eigenvalues --   -0.53134  -0.52150  -0.51253  -0.50699  -0.49229
 Alpha  occ. eigenvalues --   -0.48759  -0.48100  -0.46914  -0.46238  -0.45922
 Alpha  occ. eigenvalues --   -0.45049  -0.44657  -0.44004  -0.43965  -0.43140
 Alpha  occ. eigenvalues --   -0.42987  -0.42387  -0.42218  -0.41933  -0.41763
 Alpha  occ. eigenvalues --   -0.41175  -0.41042  -0.40511  -0.40134  -0.39719
 Alpha  occ. eigenvalues --   -0.39224  -0.39061  -0.38704  -0.38326  -0.38118
 Alpha  occ. eigenvalues --   -0.37646  -0.37524  -0.37076  -0.36983  -0.36660
 Alpha  occ. eigenvalues --   -0.36050  -0.35673  -0.34853  -0.34550  -0.34408
 Alpha  occ. eigenvalues --   -0.34039  -0.33505  -0.32813  -0.32515  -0.32036
 Alpha  occ. eigenvalues --   -0.31814  -0.31424  -0.30833  -0.28185  -0.26600
 Alpha  occ. eigenvalues --   -0.25870  -0.25423  -0.24574  -0.23802  -0.23101
 Alpha virt. eigenvalues --   -0.05597  -0.02133   0.00942   0.01682   0.04759
 Alpha virt. eigenvalues --    0.06210   0.07600   0.08144   0.08952   0.09763
 Alpha virt. eigenvalues --    0.10766   0.10871   0.11329   0.11689   0.12555
 Alpha virt. eigenvalues --    0.12627   0.13020   0.13661   0.13686   0.14087
 Alpha virt. eigenvalues --    0.14385   0.14506   0.14828   0.15471   0.15953
 Alpha virt. eigenvalues --    0.16129   0.16352   0.16906   0.17348   0.17514
 Alpha virt. eigenvalues --    0.17767   0.18258   0.18556   0.19078   0.19143
 Alpha virt. eigenvalues --    0.19534   0.19592   0.19753   0.19774   0.20039
 Alpha virt. eigenvalues --    0.20926   0.21071   0.21300   0.21669   0.22455
 Alpha virt. eigenvalues --    0.22716   0.23580   0.23903   0.24217   0.24984
 Alpha virt. eigenvalues --    0.25023   0.25330   0.25704   0.26275   0.26528
 Alpha virt. eigenvalues --    0.27260   0.27533   0.28323   0.28781   0.29746
 Alpha virt. eigenvalues --    0.31308   0.31623   0.32190   0.33428   0.34137
 Alpha virt. eigenvalues --    0.34624   0.36061   0.37012   0.38790   0.39150
 Alpha virt. eigenvalues --    0.42060   0.44807   0.46848   0.47672   0.48426
 Alpha virt. eigenvalues --    0.49556   0.50535   0.51165   0.51407   0.51667
 Alpha virt. eigenvalues --    0.52312   0.52644   0.53169   0.53305   0.53884
 Alpha virt. eigenvalues --    0.54267   0.55032   0.55358   0.55756   0.56171
 Alpha virt. eigenvalues --    0.57214   0.57486   0.58075   0.58127   0.58904
 Alpha virt. eigenvalues --    0.59644   0.59962   0.61216   0.61794   0.61932
 Alpha virt. eigenvalues --    0.62113   0.62534   0.63151   0.64510   0.64746
 Alpha virt. eigenvalues --    0.65183   0.65271   0.66526   0.66682   0.67271
 Alpha virt. eigenvalues --    0.67937   0.68092   0.68387   0.68738   0.69140
 Alpha virt. eigenvalues --    0.69679   0.70318   0.71786   0.72893   0.73361
 Alpha virt. eigenvalues --    0.73931   0.75271   0.75671   0.75915   0.76426
 Alpha virt. eigenvalues --    0.76851   0.77607   0.77821   0.79404   0.79979
 Alpha virt. eigenvalues --    0.80504   0.80531   0.81029   0.81545   0.82263
 Alpha virt. eigenvalues --    0.82479   0.83379   0.83823   0.84198   0.85023
 Alpha virt. eigenvalues --    0.85332   0.85650   0.85859   0.86061   0.87045
 Alpha virt. eigenvalues --    0.87238   0.87828   0.88207   0.88639   0.89003
 Alpha virt. eigenvalues --    0.89351   0.89865   0.90067   0.90426   0.90729
 Alpha virt. eigenvalues --    0.90956   0.91313   0.91651   0.92115   0.92487
 Alpha virt. eigenvalues --    0.92939   0.93322   0.93422   0.94144   0.94685
 Alpha virt. eigenvalues --    0.95321   0.95612   0.95813   0.96448   0.96983
 Alpha virt. eigenvalues --    0.97235   0.97825   0.98006   0.98890   0.99561
 Alpha virt. eigenvalues --    1.00654   1.01761   1.02080   1.03281   1.04693
 Alpha virt. eigenvalues --    1.05370   1.05983   1.07120   1.07897   1.08289
 Alpha virt. eigenvalues --    1.09190   1.09953   1.11457   1.12128   1.13167
 Alpha virt. eigenvalues --    1.13932   1.14162   1.15696   1.16548   1.16735
 Alpha virt. eigenvalues --    1.17520   1.18352   1.19006   1.19499   1.21094
 Alpha virt. eigenvalues --    1.21678   1.22865   1.24027   1.25239   1.25851
 Alpha virt. eigenvalues --    1.28054   1.28771   1.30868   1.32026   1.32948
 Alpha virt. eigenvalues --    1.33726   1.36782   1.37985   1.38476   1.40446
 Alpha virt. eigenvalues --    1.41265   1.41574   1.43059   1.45660   1.46437
 Alpha virt. eigenvalues --    1.46916   1.47613   1.49999   1.51580   1.52203
 Alpha virt. eigenvalues --    1.54152   1.55318   1.56122   1.56559   1.58770
 Alpha virt. eigenvalues --    1.60279   1.60861   1.61470   1.62259   1.63072
 Alpha virt. eigenvalues --    1.64287   1.66210   1.66876   1.67709   1.69354
 Alpha virt. eigenvalues --    1.70286   1.71861   1.73006   1.73324   1.73891
 Alpha virt. eigenvalues --    1.74789   1.75967   1.77139   1.78265   1.78476
 Alpha virt. eigenvalues --    1.79338   1.79941   1.80584   1.81861   1.82181
 Alpha virt. eigenvalues --    1.82348   1.83145   1.83372   1.84450   1.85560
 Alpha virt. eigenvalues --    1.86375   1.86984   1.87290   1.87795   1.88097
 Alpha virt. eigenvalues --    1.89036   1.89415   1.90064   1.90947   1.91195
 Alpha virt. eigenvalues --    1.91923   1.92297   1.93094   1.93605   1.94869
 Alpha virt. eigenvalues --    1.95634   1.95852   1.97285   1.97553   1.98232
 Alpha virt. eigenvalues --    1.98533   1.99225   2.00320   2.01345   2.01845
 Alpha virt. eigenvalues --    2.02342   2.02637   2.04305   2.05067   2.06101
 Alpha virt. eigenvalues --    2.06788   2.07710   2.08645   2.09114   2.09653
 Alpha virt. eigenvalues --    2.10601   2.11484   2.11924   2.12604   2.13738
 Alpha virt. eigenvalues --    2.15084   2.15449   2.16894   2.17498   2.19085
 Alpha virt. eigenvalues --    2.20445   2.20913   2.21488   2.22483   2.23356
 Alpha virt. eigenvalues --    2.23547   2.24438   2.25806   2.26314   2.27171
 Alpha virt. eigenvalues --    2.28184   2.28371   2.29203   2.30959   2.32101
 Alpha virt. eigenvalues --    2.32555   2.33183   2.33443   2.34037   2.35474
 Alpha virt. eigenvalues --    2.35899   2.36835   2.37481   2.38236   2.38776
 Alpha virt. eigenvalues --    2.39465   2.40586   2.41482   2.41552   2.42901
 Alpha virt. eigenvalues --    2.44026   2.44971   2.45242   2.47958   2.48297
 Alpha virt. eigenvalues --    2.50039   2.50456   2.52017   2.52672   2.54180
 Alpha virt. eigenvalues --    2.56476   2.56685   2.57512   2.57902   2.60823
 Alpha virt. eigenvalues --    2.61499   2.64168   2.64244   2.65030   2.65905
 Alpha virt. eigenvalues --    2.66835   2.68099   2.69134   2.70166   2.71095
 Alpha virt. eigenvalues --    2.73093   2.74270   2.75497   2.77516   2.79088
 Alpha virt. eigenvalues --    2.79519   2.80246   2.81720   2.82783   2.84134
 Alpha virt. eigenvalues --    2.85429   2.90346   2.92077   2.95033   2.95986
 Alpha virt. eigenvalues --    2.97502   2.99576   3.00685   3.01655   3.02883
 Alpha virt. eigenvalues --    3.04983   3.06775   3.12138   3.17947   3.20848
 Alpha virt. eigenvalues --    3.24354   3.29517   4.02522   4.09533   4.11421
 Alpha virt. eigenvalues --    4.13854   4.15117   4.16794   4.18361   4.19677
 Alpha virt. eigenvalues --    4.22939   4.24205   4.25409   4.28314   4.31413
 Alpha virt. eigenvalues --    4.33570   4.35707   4.37478   4.38690   4.43680
 Alpha virt. eigenvalues --    4.46682   4.47951   4.52418   4.57223   4.59229
 Alpha virt. eigenvalues --    4.63082   4.64963   4.67343   4.72713   4.81641
 Alpha virt. eigenvalues --    4.91400   4.99114   5.17218
          Condensed to atoms (all electrons):
 Mulliken atomic charges:
              1
     1  C   -0.197125
     2  C    0.185217
     3  C   -0.185042
     4  C    0.319786
     5  C   -0.048247
     6  C   -0.331566
     7  C    0.207367
     8  C    0.404905
     9  C   -0.085117
    10  C    0.423746
    11  C    0.428434
    12  O   -0.458881
    13  C   -0.148672
    14  C   -0.249013
    15  C   -0.457019
    16  O   -0.505149
    17  C   -0.158520
    18  C    0.309802
    19  O   -0.523939
    20  C   -0.324042
    21  O   -0.659175
    22  C   -0.324002
    23  C    0.109714
    24  O   -0.590249
    25  C    0.189075
    26  C   -0.519240
    27  C   -0.404678
    28  C   -0.461033
    29  C   -0.463779
    30  H    0.143619
    31  H    0.167006
    32  C   -0.517131
    33  H    0.123606
    34  H    0.152560
    35  H    0.177708
    36  H    0.142085
    37  H    0.152606
    38  H    0.121221
    39  H    0.148776
    40  H    0.139703
    41  H    0.163100
    42  H    0.164562
    43  H    0.149032
    44  H    0.413845
    45  H    0.178564
    46  H    0.167797
    47  H    0.144992
    48  H    0.156006
    49  H    0.161825
    50  H    0.170459
    51  H    0.140982
    52  H    0.144895
    53  H    0.153074
    54  H    0.137299
    55  H    0.188930
    56  H    0.154343
    57  H    0.161512
    58  H    0.149778
    59  H    0.158480
    60  H    0.157873
    61  H    0.152765
    62  C   -0.445635
    63  H    0.130835
    64  H    0.145562
    65  H    0.163811
 Sum of Mulliken atomic charges =   0.00000
 Mulliken charges with hydrogens summed into heavy atoms:
              1
     1  C   -0.073520
     2  C    0.185217
     3  C   -0.018036
     4  C    0.319786
     5  C   -0.048247
     6  C   -0.001298
     7  C    0.207367
     8  C    0.404905
     9  C   -0.085117
    10  C    0.423746
    11  C    0.428434
    12  O   -0.458881
    13  C   -0.006587
    14  C    0.024813
    15  C   -0.005440
    16  O   -0.505149
    17  C   -0.014902
    18  C    0.309802
    19  O   -0.523939
    20  C   -0.010447
    21  O   -0.245330
    22  C    0.022358
    23  C    0.254706
    24  O   -0.590249
    25  C    0.189075
    26  C   -0.030950
    27  C   -0.118801
    28  C    0.018271
    29  C    0.001854
    32  C   -0.048013
    62  C   -0.005428
 Sum of Mulliken charges with hydrogens summed into heavy atoms =   0.00000
 Electronic spatial extent (au):  <R**2>=          11205.7807
 Charge=              0.0000 electrons
 Dipole moment (field-independent basis, Debye):
    X=             -3.9608    Y=              1.9719    Z=              4.5106  Tot=              6.3184
 Quadrupole moment (field-independent basis, Debye-Ang):
   XX=           -183.8261   YY=           -176.9433   ZZ=           -189.0631
   XY=              5.7631   XZ=             12.1006   YZ=             -0.2431
 Traceless Quadrupole moment (field-independent basis, Debye-Ang):
   XX=             -0.5486   YY=              6.3342   ZZ=             -5.7856
   XY=              5.7631   XZ=             12.1006   YZ=             -0.2431
 Octapole moment (field-independent basis, Debye-Ang**2):
  XXX=            -35.0960  YYY=             56.0847  ZZZ=             16.5002  XYY=            -27.8003
  XXY=            -19.9200  XXZ=              0.3319  XZZ=            -21.2838  YZZ=             -3.2105
  YYZ=              2.0914  XYZ=             -7.7031
 Hexadecapole moment (field-independent basis, Debye-Ang**3):
 XXXX=          -7568.2545 YYYY=          -4382.9890 ZZZZ=          -2944.6617 XXXY=             46.1757
 XXXZ=            194.2143 YYYX=             63.5343 YYYZ=            -58.9323 ZZZX=             36.9778
 ZZZY=             -5.4517 XXYY=          -1949.9875 XXZZ=          -1802.3388 YYZZ=          -1202.3287
 XXYZ=             12.1745 YYXZ=             -2.3586 ZZXY=              0.3299
 N-N= 3.538171775842D+03 E-N=-1.030245691751D+04  KE= 1.374750547692D+03
 Calling FoFJK, ICntrl=      2127 FMM=T ISym2X=0 I1Cent= 0 IOpClX= 0 NMat=1 NMatS=1 NMatT=0.
 ***** Axes restored to original set *****
 -------------------------------------------------------------------
 Center     Atomic                   Forces (Hartrees/Bohr)
 Number     Number              X              Y              Z
 -------------------------------------------------------------------
      1        6           0.009040084   -0.000858090   -0.000478398
      2        6          -0.011854835   -0.001041551    0.006909910
      3        6          -0.001233426   -0.009400040   -0.002018278
      4        6           0.002024853   -0.004203096    0.011061377
      5        6          -0.011499020   -0.001946607    0.000921241
      6        6          -0.005051673   -0.010256975   -0.000652906
      7        6           0.011953503    0.020212201    0.009281587
      8        6           0.018163118   -0.011006659   -0.019558421
      9        6          -0.004729974    0.000622613    0.006111941
     10        6          -0.006420446   -0.003516767   -0.021174163
     11        6          -0.007806266    0.009795392   -0.019742750
     12        8          -0.002325773   -0.013050844    0.014286275
     13        6          -0.003652102   -0.002014376   -0.008571078
     14        6          -0.003940775    0.001924163   -0.001229441
     15        6           0.009120618   -0.002540034    0.002050915
     16        8           0.008731766   -0.001200841    0.010081494
     17        6           0.008433134   -0.011100092   -0.005014435
     18        6           0.031042370    0.007128007    0.000308398
     19        8          -0.030663204    0.005722016    0.027787489
     20        6           0.011910684   -0.003577929    0.000868540
     21        8          -0.006501243    0.006212012   -0.004377838
     22        6          -0.010136591    0.011579048   -0.000054616
     23        6           0.007441142    0.008609496    0.004013161
     24        8          -0.003455374   -0.004165648   -0.009070052
     25        6           0.009567947    0.011833744    0.005640905
     26        6          -0.000286799   -0.000261370   -0.000030550
     27        6          -0.003319624   -0.009256398   -0.003293089
     28        6          -0.003234815    0.007416066   -0.005777260
     29        6          -0.003269462   -0.006545934   -0.008890617
     30        1          -0.001896430    0.000956054   -0.001579754
     31        1          -0.004137521    0.005229121   -0.000215508
     32        6          -0.000952233   -0.000529489   -0.003063849
     33        1           0.001298012   -0.000987735   -0.000046982
     34        1          -0.000218518    0.005556207    0.001728012
     35        1           0.000792657    0.007487826   -0.001864704
     36        1           0.000423993    0.002279135    0.000978231
     37        1           0.003291419   -0.000205742    0.002214322
     38        1           0.002714837   -0.001975035    0.001054828
     39        1          -0.000895112   -0.000234685    0.000135995
     40        1           0.001459734   -0.001262144    0.000564195
     41        1          -0.000896952    0.000495132   -0.000359119
     42        1           0.000437223    0.002658425   -0.000253359
     43        1          -0.001153012   -0.002146405   -0.001597232
     44        1          -0.002090383   -0.002454588   -0.000647274
     45        1           0.002220116   -0.000773638    0.002529001
     46        1           0.001505050   -0.002871366   -0.001359684
     47        1          -0.003632184   -0.001076859    0.002341948
     48        1          -0.004191354   -0.000749033   -0.000548687
     49        1           0.001981622   -0.001438533   -0.000500771
     50        1          -0.003930659   -0.000990526   -0.000220902
     51        1          -0.001147702   -0.000073054   -0.000234000
     52        1           0.000470123   -0.000978364   -0.000123400
     53        1           0.001949445   -0.003819171    0.000789286
     54        1           0.000534229   -0.000902148    0.000445583
     55        1          -0.001240592   -0.002496954    0.005597933
     56        1          -0.000268887    0.000117197    0.003793620
     57        1           0.000402933    0.002909262    0.001344394
     58        1          -0.000826591    0.001149256    0.000565803
     59        1          -0.001083154    0.001636707   -0.000628931
     60        1           0.004884006   -0.002376664    0.000673520
     61        1           0.003709175   -0.000499135    0.000046435
     62        6          -0.004472426    0.001206344   -0.002294138
     63        1          -0.001691430    0.000556098   -0.000673381
     64        1          -0.000856813    0.001483815    0.000913926
     65        1          -0.000540437    0.000009184    0.001105301
 -------------------------------------------------------------------
 Cartesian Forces:  Max     0.031042370 RMS     0.006770246

 GradGradGradGradGradGradGradGradGradGradGradGradGradGradGradGradGradGrad
 Berny optimization.
 Internal  Forces:  Max     0.023928062 RMS     0.003449459
 Search for a local minimum.
 Step number   1 out of a maximum of  390
 All quantities printed in internal units (Hartrees-Bohrs-Radians)
 Mixed Optimization -- RFO/linear search
 Second derivative matrix not updated -- first step.
 ITU=  0
     Eigenvalues ---    0.00274   0.00292   0.00329   0.00385   0.00388
     Eigenvalues ---    0.00420   0.00461   0.00557   0.00587   0.00606
     Eigenvalues ---    0.00624   0.00682   0.00700   0.00718   0.00740
     Eigenvalues ---    0.00928   0.01080   0.01230   0.01234   0.01377
     Eigenvalues ---    0.01483   0.01610   0.01707   0.01792   0.01911
     Eigenvalues ---    0.02502   0.02819   0.02820   0.03039   0.03133
     Eigenvalues ---    0.03551   0.03608   0.03828   0.04042   0.04121
     Eigenvalues ---    0.04129   0.04336   0.04408   0.04652   0.04721
     Eigenvalues ---    0.04829   0.04844   0.04942   0.05088   0.05235
     Eigenvalues ---    0.05299   0.05384   0.05436   0.05488   0.05499
     Eigenvalues ---    0.05504   0.05530   0.05544   0.05549   0.05634
     Eigenvalues ---    0.05642   0.05694   0.05937   0.06283   0.06628
     Eigenvalues ---    0.06714   0.06871   0.07104   0.07143   0.07214
     Eigenvalues ---    0.07253   0.07258   0.07327   0.07644   0.08325
     Eigenvalues ---    0.08378   0.08452   0.08989   0.09150   0.09771
     Eigenvalues ---    0.10093   0.10650   0.10871   0.11618   0.12192
     Eigenvalues ---    0.13103   0.14618   0.15162   0.15968   0.16000
     Eigenvalues ---    0.16000   0.16000   0.16000   0.16000   0.16000
     Eigenvalues ---    0.16000   0.16000   0.16000   0.16000   0.16000
     Eigenvalues ---    0.16000   0.16000   0.16000   0.16000   0.16000
     Eigenvalues ---    0.16000   0.16000   0.16000   0.16000   0.16000
     Eigenvalues ---    0.16197   0.16375   0.17253   0.17727   0.18360
     Eigenvalues ---    0.19683   0.21503   0.21913   0.22777   0.23518
     Eigenvalues ---    0.24468   0.24826   0.24972   0.24975   0.24978
     Eigenvalues ---    0.24986   0.24998   0.25000   0.25930   0.27177
     Eigenvalues ---    0.27406   0.27729   0.27838   0.28240   0.28334
     Eigenvalues ---    0.28710   0.28767   0.28891   0.29146   0.29536
     Eigenvalues ---    0.29553   0.29949   0.30073   0.30470   0.30999
     Eigenvalues ---    0.31722   0.31767   0.31998   0.33117   0.33676
     Eigenvalues ---    0.33695   0.33883   0.33989   0.34018   0.34044
     Eigenvalues ---    0.34044   0.34049   0.34053   0.34061   0.34073
     Eigenvalues ---    0.34117   0.34132   0.34141   0.34156   0.34166
     Eigenvalues ---    0.34171   0.34201   0.34205   0.34241   0.34255
     Eigenvalues ---    0.34255   0.34274   0.34274   0.34275   0.34277
     Eigenvalues ---    0.34302   0.34317   0.34341   0.34348   0.34468
     Eigenvalues ---    0.34964   0.35201   0.35260   0.35394   0.36486
     Eigenvalues ---    0.37277   0.43099   0.43352   0.52002   0.53241
     Eigenvalues ---    0.54312   0.56137   0.89671   0.90903
 RFO step:  Lambda=-2.16220296D-02 EMin= 2.73678342D-03
 Linear search not attempted -- first point.
 Iteration  1 RMS(Cart)=  0.05289527 RMS(Int)=  0.00076304
 Iteration  2 RMS(Cart)=  0.00145372 RMS(Int)=  0.00023182
 Iteration  3 RMS(Cart)=  0.00000085 RMS(Int)=  0.00023182
 Variable       Old X    -DE/DX   Delta X   Delta X   Delta X     New X
                                 (Linear)    (Quad)   (Total)
    R1        2.53510  -0.00197   0.00000  -0.00376  -0.00382   2.53128
    R2        2.82396   0.00827   0.00000   0.02562   0.02552   2.84947
    R3        2.05733   0.00020   0.00000   0.00055   0.00055   2.05788
    R4        2.86466   0.00196   0.00000   0.00286   0.00290   2.86756
    R5        2.84147   0.00463   0.00000   0.01354   0.01354   2.85501
    R6        2.94196   0.00490   0.00000   0.00993   0.01001   2.95196
    R7        2.90912   0.01183   0.00000   0.04078   0.04078   2.94990
    R8        2.07880  -0.00115   0.00000  -0.00320  -0.00320   2.07560
    R9        2.90232   0.00840   0.00000   0.02690   0.02670   2.92902
   R10        2.91198   0.00721   0.00000   0.02307   0.02312   2.93510
   R11        2.76436  -0.00541   0.00000  -0.01440  -0.01440   2.74996
   R12        2.91635  -0.00071   0.00000   0.00014   0.00006   2.91641
   R13        2.90271   0.00641   0.00000   0.01471   0.01461   2.91732
   R14        2.88993   0.01152   0.00000   0.03906   0.03902   2.92895
   R15        2.07248   0.00287   0.00000   0.00792   0.00792   2.08039
   R16        2.07348  -0.00152   0.00000  -0.00419  -0.00419   2.06929
   R17        2.81885   0.01030   0.00000   0.02257   0.02220   2.84105
   R18        2.85948   0.01482   0.00000   0.05411   0.05358   2.91306
   R19        2.67547   0.00401   0.00000   0.00886   0.00886   2.68433
   R20        2.52836   0.01648   0.00000   0.02853   0.02863   2.55699
   R21        2.63362  -0.02393   0.00000  -0.05638  -0.05620   2.57742
   R22        2.79882  -0.00317   0.00000  -0.01225  -0.01217   2.78664
   R23        2.81148   0.01171   0.00000   0.03265   0.03265   2.84413
   R24        2.33085  -0.01122   0.00000  -0.01222  -0.01222   2.31863
   R25        2.32520  -0.01925   0.00000  -0.02068  -0.02068   2.30451
   R26        2.88864   0.00057   0.00000   0.00180   0.00180   2.89044
   R27        2.90231   0.00226   0.00000   0.00727   0.00727   2.90958
   R28        2.88898   0.00883   0.00000   0.02785   0.02785   2.91683
   R29        2.07051   0.00002   0.00000   0.00006   0.00006   2.07057
   R30        2.07257  -0.00048   0.00000  -0.00131  -0.00131   2.07125
   R31        2.07300   0.00117   0.00000   0.00325   0.00325   2.07624
   R32        2.87819   0.00801   0.00000   0.02485   0.02485   2.90304
   R33        2.06901   0.00048   0.00000   0.00131   0.00131   2.07033
   R34        2.07043   0.00123   0.00000   0.00340   0.00340   2.07383
   R35        2.07068  -0.00008   0.00000  -0.00021  -0.00021   2.07046
   R36        2.91531  -0.00108   0.00000   0.00930   0.00958   2.92489
   R37        2.90551   0.00421   0.00000   0.01598   0.01597   2.92148
   R38        2.07094  -0.00164   0.00000  -0.00450  -0.00450   2.06643
[...]
     54          1           0       -0.858842    4.364080   -2.333184
     55          1           0       -0.765907    2.668524   -2.863770
     56          1           0        1.497561    3.932712    0.602895
     57          1           0        1.865318    4.536641   -1.019470
     58          1           0        0.399286    5.084905   -0.185304
     59          1           0        0.215021    0.687916    5.028385
     60          1           0        0.558182    2.010217    3.901499
     61          1           0       -1.062317    1.827620    4.565131
     62          6           0        4.448908   -3.044407   -1.405489
     63          1           0        5.306480   -3.565425   -1.846948
     64          1           0        3.890074   -3.762829   -0.795268
     65          1           0        3.795064   -2.726217   -2.224335
 ---------------------------------------------------------------------
 Rotational constants (GHZ):      0.1915477      0.1315909      0.1169257

 **********************************************************************

            Population analysis using the SCF density.

 **********************************************************************

 Orbital symmetries:
       Occupied  (A) (A) (A) (A) (A) (A) (A) (A) (A) (A) (A) (A)
                 (A) (A) (A) (A) (A) (A) (A) (A) (A) (A) (A) (A)
                 (A) (A) (A) (A) (A) (A) (A) (A) (A) (A) (A) (A)
                 (A) (A) (A) (A) (A) (A) (A) (A) (A) (A) (A) (A)
                 (A) (A) (A) (A) (A) (A) (A) (A) (A) (A) (A) (A)
                 (A) (A) (A) (A) (A) (A) (A) (A) (A) (A) (A) (A)
                 (A) (A) (A) (A) (A) (A) (A) (A) (A) (A) (A) (A)
                 (A) (A) (A) (A) (A) (A) (A) (A) (A) (A) (A) (A)
                 (A) (A) (A) (A) (A) (A) (A) (A) (A) (A) (A) (A)
                 (A) (A) (A) (A) (A) (A) (A)
       Virtual   (A) (A) (A) (A) (A) (A) (A) (A) (A) (A) (A) (A)
                 (A) (A) (A) (A) (A) (A) (A) (A) (A) (A) (A) (A)
                 (A) (A) (A) (A) (A) (A) (A) (A) (A) (A) (A) (A)
                 (A) (A) (A) (A) (A) (A) (A) (A) (A) (A) (A) (A)
                 (A) (A) (A) (A) (A) (A) (A) (A) (A) (A) (A) (A)
                 (A) (A) (A) (A) (A) (A) (A) (A) (A) (A) (A) (A)
                 (A) (A) (A) (A) (A) (A) (A) (A) (A) (A) (A) (A)
                 (A) (A) (A) (A) (A) (A) (A) (A) (A) (A) (A) (A)
                 (A) (A) (A) (A) (A) (A) (A) (A) (A) (A) (A) (A)
                 (A) (A) (A) (A) (A) (A) (A) (A) (A) (A) (A) (A)
                 (A) (A) (A) (A) (A) (A) (A) (A) (A) (A) (A) (A)
                 (A) (A) (A) (A) (A) (A) (A) (A) (A) (A) (A) (A)
                 (A) (A) (A) (A) (A) (A) (A) (A) (A) (A) (A) (A)
                 (A) (A) (A) (A) (A) (A) (A) (A) (A) (A) (A) (A)
                 (A) (A) (A) (A) (A) (A) (A) (A) (A) (A) (A) (A)
                 (A) (A) (A) (A) (A) (A) (A) (A) (A) (A) (A) (A)
                 (A) (A) (A) (A) (A) (A) (A) (A) (A) (A) (A) (A)
                 (A) (A) (A) (A) (A) (A) (A) (A) (A) (A) (A) (A)
                 (A) (A) (A) (A) (A) (A) (A) (A) (A) (A) (A) (A)
                 (A) (A) (A) (A) (A) (A) (A) (A) (A) (A) (A) (A)
                 (A) (A) (A) (A) (A) (A) (A) (A) (A) (A) (A) (A)
                 (A) (A) (A) (A) (A) (A) (A) (A) (A) (A) (A) (A)
                 (A) (A) (A) (A) (A) (A) (A) (A) (A) (A) (A) (A)
                 (A) (A) (A) (A) (A) (A) (A) (A) (A) (A) (A) (A)
                 (A) (A) (A) (A) (A) (A) (A) (A) (A) (A) (A) (A)
                 (A) (A) (A) (A) (A) (A) (A) (A) (A) (A) (A) (A)
                 (A) (A) (A) (A) (A) (A) (A) (A) (A) (A) (A) (A)
                 (A) (A) (A) (A) (A) (A) (A) (A) (A) (A) (A) (A)
                 (A) (A) (A) (A) (A) (A) (A) (A) (A) (A) (A) (A)
                 (A) (A) (A) (A) (A) (A) (A) (A) (A) (A) (A) (A)
                 (A) (A) (A) (A) (A) (A) (A) (A) (A) (A) (A) (A)
                 (A) (A) (A) (A) (A) (A) (A) (A) (A) (A) (A) (A)
                 (A) (A) (A) (A) (A) (A) (A) (A) (A) (A) (A) (A)
                 (A) (A) (A) (A) (A) (A) (A) (A) (A) (A) (A) (A)
                 (A) (A) (A) (A) (A) (A) (A) (A) (A) (A)
 The electronic state is 1-A.
 Alpha  occ. eigenvalues --  -19.19751 -19.16735 -19.15831 -19.12727 -19.12022
 Alpha  occ. eigenvalues --  -10.27553 -10.27201 -10.26702 -10.25973 -10.25879
 Alpha  occ. eigenvalues --  -10.25847 -10.25340 -10.21378 -10.20930 -10.20711
 Alpha  occ. eigenvalues --  -10.20546 -10.20121 -10.19724 -10.19722 -10.19370
 Alpha  occ. eigenvalues --  -10.19142 -10.19090 -10.19084 -10.18838 -10.18450
 Alpha  occ. eigenvalues --  -10.18446 -10.18019 -10.17427 -10.17093 -10.16286
 Alpha  occ. eigenvalues --  -10.15156  -1.09439  -1.06114  -1.02944  -1.02651
 Alpha  occ. eigenvalues --   -1.01914  -0.86892  -0.83705  -0.82495  -0.81470
 Alpha  occ. eigenvalues --   -0.80372  -0.78927  -0.76705  -0.74396  -0.73323
 Alpha  occ. eigenvalues --   -0.71942  -0.71149  -0.69973  -0.69606  -0.68152
 Alpha  occ. eigenvalues --   -0.65316  -0.63620  -0.63309  -0.61577  -0.60774
 Alpha  occ. eigenvalues --   -0.59495  -0.58661  -0.56971  -0.54565  -0.53904
 Alpha  occ. eigenvalues --   -0.52807  -0.51953  -0.50922  -0.50430  -0.49279
 Alpha  occ. eigenvalues --   -0.48192  -0.47706  -0.46935  -0.46426  -0.45891
 Alpha  occ. eigenvalues --   -0.45012  -0.44553  -0.43837  -0.43501  -0.43227
 Alpha  occ. eigenvalues --   -0.42500  -0.42221  -0.41902  -0.41637  -0.41317
 Alpha  occ. eigenvalues --   -0.40880  -0.40719  -0.40670  -0.40034  -0.39632
 Alpha  occ. eigenvalues --   -0.39301  -0.39122  -0.38770  -0.38236  -0.37755
 Alpha  occ. eigenvalues --   -0.37620  -0.37348  -0.37171  -0.37014  -0.36644
 Alpha  occ. eigenvalues --   -0.36148  -0.35532  -0.34929  -0.34756  -0.34226
 Alpha  occ. eigenvalues --   -0.33949  -0.33719  -0.32869  -0.32085  -0.32076
 Alpha  occ. eigenvalues --   -0.31443  -0.30973  -0.30543  -0.28317  -0.26547
 Alpha  occ. eigenvalues --   -0.25979  -0.24689  -0.24318  -0.23493  -0.22380
 Alpha virt. eigenvalues --   -0.05029  -0.01378   0.00871   0.01843   0.06093
 Alpha virt. eigenvalues --    0.07427   0.07856   0.08512   0.09269   0.09856
 Alpha virt. eigenvalues --    0.10515   0.10992   0.11487   0.11967   0.12743
 Alpha virt. eigenvalues --    0.12780   0.13004   0.13906   0.14003   0.14107
 Alpha virt. eigenvalues --    0.14400   0.14859   0.15234   0.15653   0.16126
 Alpha virt. eigenvalues --    0.16369   0.16562   0.16817   0.17175   0.17353
 Alpha virt. eigenvalues --    0.17617   0.18287   0.18329   0.18615   0.18953
 Alpha virt. eigenvalues --    0.19238   0.19564   0.19851   0.19963   0.20264
 Alpha virt. eigenvalues --    0.20772   0.20991   0.21167   0.21751   0.22235
 Alpha virt. eigenvalues --    0.22594   0.23357   0.23481   0.24406   0.24477
 Alpha virt. eigenvalues --    0.25024   0.25083   0.26080   0.26275   0.26766
 Alpha virt. eigenvalues --    0.27180   0.27547   0.27845   0.28633   0.29674
 Alpha virt. eigenvalues --    0.30442   0.31458   0.32183   0.32772   0.33780
 Alpha virt. eigenvalues --    0.34521   0.35810   0.36786   0.39238   0.39717
 Alpha virt. eigenvalues --    0.41793   0.44958   0.46193   0.48067   0.48430
 Alpha virt. eigenvalues --    0.49002   0.50589   0.50894   0.51217   0.51664
 Alpha virt. eigenvalues --    0.52018   0.52369   0.52690   0.53299   0.53728
 Alpha virt. eigenvalues --    0.54128   0.54954   0.55121   0.55698   0.56040
 Alpha virt. eigenvalues --    0.56839   0.57533   0.57711   0.57966   0.59041
 Alpha virt. eigenvalues --    0.59823   0.60416   0.60844   0.61415   0.62153
 Alpha virt. eigenvalues --    0.62409   0.62819   0.63482   0.64357   0.64748
 Alpha virt. eigenvalues --    0.65447   0.65524   0.66343   0.66553   0.67182
 Alpha virt. eigenvalues --    0.67926   0.67984   0.68540   0.68692   0.69462
 Alpha virt. eigenvalues --    0.70172   0.70554   0.71556   0.72731   0.73173
 Alpha virt. eigenvalues --    0.73818   0.74726   0.75587   0.76009   0.76409
 Alpha virt. eigenvalues --    0.76859   0.77072   0.77707   0.78847   0.79942
 Alpha virt. eigenvalues --    0.80537   0.80910   0.81057   0.81591   0.82022
 Alpha virt. eigenvalues --    0.83137   0.83772   0.84047   0.84158   0.84926
 Alpha virt. eigenvalues --    0.85811   0.85969   0.86098   0.86542   0.87126
 Alpha virt. eigenvalues --    0.87623   0.87726   0.88195   0.88674   0.89209
 Alpha virt. eigenvalues --    0.89388   0.89585   0.89941   0.90375   0.90729
 Alpha virt. eigenvalues --    0.91244   0.91340   0.91715   0.92287   0.92590
 Alpha virt. eigenvalues --    0.93083   0.93244   0.93715   0.94529   0.94758
 Alpha virt. eigenvalues --    0.95331   0.95484   0.95809   0.96737   0.97052
 Alpha virt. eigenvalues --    0.97456   0.97531   0.98194   0.99004   0.99356
 Alpha virt. eigenvalues --    1.00341   1.01078   1.01629   1.02072   1.03878
 Alpha virt. eigenvalues --    1.05107   1.05790   1.06661   1.07489   1.08750
 Alpha virt. eigenvalues --    1.09586   1.10560   1.10911   1.11890   1.13312
 Alpha virt. eigenvalues --    1.14166   1.15083   1.15476   1.16602   1.17024
 Alpha virt. eigenvalues --    1.17621   1.18880   1.19434   1.19678   1.20359
 Alpha virt. eigenvalues --    1.21671   1.23159   1.23689   1.25219   1.25954
 Alpha virt. eigenvalues --    1.28634   1.29277   1.31791   1.32252   1.32626
 Alpha virt. eigenvalues --    1.33526   1.37160   1.37675   1.38483   1.39795
 Alpha virt. eigenvalues --    1.41915   1.42244   1.42942   1.44454   1.46050
 Alpha virt. eigenvalues --    1.47033   1.48052   1.49015   1.51468   1.51579
 Alpha virt. eigenvalues --    1.54391   1.55364   1.55758   1.56657   1.58389
 Alpha virt. eigenvalues --    1.59357   1.60285   1.61307   1.62073   1.62707
 Alpha virt. eigenvalues --    1.64037   1.66159   1.66731   1.67671   1.68148
 Alpha virt. eigenvalues --    1.70602   1.71759   1.72839   1.73335   1.73398
 Alpha virt. eigenvalues --    1.74977   1.75400   1.76474   1.77570   1.77872
 Alpha virt. eigenvalues --    1.78912   1.79362   1.80245   1.80785   1.81642
 Alpha virt. eigenvalues --    1.82417   1.82853   1.83802   1.84061   1.85374
 Alpha virt. eigenvalues --    1.86069   1.86495   1.86892   1.87086   1.87851
 Alpha virt. eigenvalues --    1.88462   1.89215   1.89925   1.90336   1.90896
 Alpha virt. eigenvalues --    1.91536   1.92679   1.93170   1.93961   1.95119
 Alpha virt. eigenvalues --    1.95651   1.96176   1.97019   1.97655   1.97888
 Alpha virt. eigenvalues --    1.98418   1.98694   1.99622   2.01082   2.01367
 Alpha virt. eigenvalues --    2.02079   2.03231   2.03605   2.04334   2.05598
 Alpha virt. eigenvalues --    2.06128   2.07243   2.07679   2.09172   2.09626
 Alpha virt. eigenvalues --    2.09965   2.11056   2.11789   2.12547   2.13640
 Alpha virt. eigenvalues --    2.13878   2.14999   2.16248   2.17017   2.18412
 Alpha virt. eigenvalues --    2.19063   2.19512   2.20879   2.21460   2.22429
 Alpha virt. eigenvalues --    2.23480   2.24228   2.25682   2.26203   2.26765
 Alpha virt. eigenvalues --    2.27265   2.28989   2.29519   2.30304   2.31602
 Alpha virt. eigenvalues --    2.32342   2.33270   2.34097   2.34450   2.35123
 Alpha virt. eigenvalues --    2.36177   2.36264   2.38002   2.38363   2.38839
 Alpha virt. eigenvalues --    2.38916   2.40656   2.41313   2.41839   2.43058
 Alpha virt. eigenvalues --    2.43236   2.44880   2.45142   2.48082   2.48399
 Alpha virt. eigenvalues --    2.49032   2.50262   2.51421   2.53227   2.53499
 Alpha virt. eigenvalues --    2.55301   2.55846   2.56864   2.58328   2.59936
 Alpha virt. eigenvalues --    2.60544   2.63105   2.63805   2.65106   2.65881
 Alpha virt. eigenvalues --    2.66975   2.67617   2.67773   2.69640   2.70146
 Alpha virt. eigenvalues --    2.72538   2.73185   2.74476   2.75924   2.76782
 Alpha virt. eigenvalues --    2.78776   2.80133   2.80765   2.82780   2.83755
 Alpha virt. eigenvalues --    2.84601   2.88675   2.91591   2.94722   2.97059
 Alpha virt. eigenvalues --    2.97818   2.99652   3.00878   3.01707   3.02397
 Alpha virt. eigenvalues --    3.05419   3.06865   3.11650   3.18251   3.20744
 Alpha virt. eigenvalues --    3.25892   3.29512   4.04298   4.06776   4.09364
 Alpha virt. eigenvalues --    4.12685   4.14028   4.16714   4.18203   4.18958
 Alpha virt. eigenvalues --    4.23689   4.24020   4.24949   4.27988   4.30659
 Alpha virt. eigenvalues --    4.31820   4.34734   4.37600   4.37925   4.44643
 Alpha virt. eigenvalues --    4.45971   4.49386   4.51912   4.55398   4.58316
 Alpha virt. eigenvalues --    4.63641   4.65537   4.69357   4.72867   4.81571
 Alpha virt. eigenvalues --    4.89400   5.01291   5.16498
          Condensed to atoms (all electrons):
 Mulliken atomic charges:
              1
     1  C   -0.191453
     2  C    0.190558
     3  C   -0.188797
     4  C    0.319504
     5  C   -0.050051
     6  C   -0.332675
     7  C    0.197179
     8  C    0.406492
     9  C   -0.085795
    10  C    0.417785
    11  C    0.424368
    12  O   -0.463781
    13  C   -0.153763
    14  C   -0.246480
    15  C   -0.455739
    16  O   -0.514569
    17  C   -0.163454
    18  C    0.299897
    19  O   -0.504301
    20  C   -0.323365
    21  O   -0.657370
    22  C   -0.324514
    23  C    0.104710
    24  O   -0.589944
    25  C    0.187032
    26  C   -0.519735
    27  C   -0.407954
    28  C   -0.467802
    29  C   -0.459861
    30  H    0.144913
    31  H    0.167991
    32  C   -0.519443
    33  H    0.122960
    34  H    0.147218
    35  H    0.181518
    36  H    0.157145
    37  H    0.149368
    38  H    0.120231
    39  H    0.147108
    40  H    0.137341
    41  H    0.158647
    42  H    0.162424
    43  H    0.152108
    44  H    0.416527
    45  H    0.175780
    46  H    0.166395
    47  H    0.144648
    48  H    0.158475
    49  H    0.162107
    50  H    0.171536
    51  H    0.140132
    52  H    0.152807
    53  H    0.163847
    54  H    0.141447
    55  H    0.194729
    56  H    0.158967
    57  H    0.169160
    58  H    0.150762
    59  H    0.158249
    60  H    0.156123
    61  H    0.152633
    62  C   -0.451005
    63  H    0.132534
    64  H    0.151709
    65  H    0.156785
 Sum of Mulliken atomic charges =   0.00000
 Mulliken charges with hydrogens summed into heavy atoms:
              1
     1  C   -0.068492
     2  C    0.190558
     3  C   -0.020805
     4  C    0.319504
     5  C   -0.050051
     6  C   -0.003939
     7  C    0.197179
     8  C    0.406492
     9  C   -0.085795
    10  C    0.417785
    11  C    0.424368
    12  O   -0.463781
    13  C    0.003382
    14  C    0.023119
    15  C   -0.012642
    16  O   -0.514569
    17  C   -0.018541
    18  C    0.299897
    19  O   -0.504301
    20  C   -0.008833
    21  O   -0.240843
    22  C    0.017661
    23  C    0.249358
    24  O   -0.589944
    25  C    0.187032
    26  C   -0.027617
    27  C   -0.115016
    28  C    0.032220
    29  C    0.019028
    32  C   -0.052438
    62  C   -0.009977
 Sum of Mulliken charges with hydrogens summed into heavy atoms =   0.00000
 Electronic spatial extent (au):  <R**2>=          11392.4830
 Charge=              0.0000 electrons
 Dipole moment (field-independent basis, Debye):
    X=             -4.5961    Y=              2.5853    Z=              3.2087  Tot=              6.1728
 Quadrupole moment (field-independent basis, Debye-Ang):
   XX=           -186.8561   YY=           -173.4908   ZZ=           -186.6570
   XY=              6.1377   XZ=             11.0894   YZ=              1.1256
 Traceless Quadrupole moment (field-independent basis, Debye-Ang):
   XX=             -4.5215   YY=              8.8438   ZZ=             -4.3224
   XY=              6.1377   XZ=             11.0894   YZ=              1.1256
 Octapole moment (field-independent basis, Debye-Ang**2):
  XXX=            -35.3301  YYY=             60.0708  ZZZ=             11.0120  XYY=            -32.0195
  XXY=            -20.8545  XXZ=             -0.2319  XZZ=            -19.5354  YZZ=             -0.8771
  YYZ=            -12.0786  XYZ=             -4.9235
 Hexadecapole moment (field-independent basis, Debye-Ang**3):
 XXXX=          -7671.1268 YYYY=          -4384.9244 ZZZZ=          -3137.8027 XXXY=             46.1147
 XXXZ=            190.5017 YYYX=             87.1690 YYYZ=            -57.1759 ZZZX=             37.5662
 ZZZY=            -15.9363 XXYY=          -1955.5765 XXZZ=          -1817.5903 YYZZ=          -1233.0412
 XXYZ=             20.3664 YYXZ=             -3.2583 ZZXY=              2.3870
 N-N= 3.517964344407D+03 E-N=-1.026214741356D+04  KE= 1.374461563311D+03
 1\1\GINC-B0606\FOpt\RB3LYP\6-31G(d)\C26H34O5\CAOFEI\24-Mar-2021\0\\# o
 pt rb3lyp/6-31g(d) geom=connectivity\\Title Card Required\\0,1\C,0.189
 6978433,-0.0910890898,0.2273774377\C,1.5266239942,-0.029643698,0.21192
 67832\C,2.2505452956,1.2983957244,0.1214797194\C,1.3734450353,2.522957
 0546,-0.2877805458\C,-0.1177366331,2.2911038983,-0.6388187271\C,-0.710
 7159865,1.1122934447,0.1705408578\C,2.1599182313,3.1986654661,-1.44024
 61248\C,1.8181761792,2.6334087729,-2.8067367878\C,0.5950003788,2.15332
 61049,-3.1674068102\C,-0.4494742262,2.0637993713,-2.1391120622\C,0.336
 6104513,1.7139767444,-4.586547593\O,0.8187657049,2.3418761978,-5.51541
 51033\C,-0.4213285388,0.4054298729,-4.8362829788\C,-1.2812823286,0.486
 6720243,-6.1092822829\C,0.6358052093,-0.7165087739,-4.9405872467\O,-1.
 6171837511,1.8090557208,-2.4240022427\C,3.6314891027,2.7415559532,-1.3
 461568212\C,4.1307910216,2.9015464499,-2.8015211393\O,2.8985598572,2.6
 142286931,-3.5866881073\C,3.4742677627,1.292152274,-0.8414778225\O,1.9
 435776371,4.595088436,-1.4980899899\C,-0.7610667538,3.627230094,-0.188
 8347647\C,0.0508681662,3.9891095407,1.0637486992\O,1.3675052637,3.4581
 269459,0.8207758273\C,0.1028947404,5.4639426044,1.4037696393\C,-1.2398
 843879,6.1395557824,1.5346449354\C,1.2559206322,6.1056632876,1.6199969
 263\C,4.5727373821,4.3288718784,-3.132996109\C,5.1743872801,1.89160843
 91,-3.2712105829\H,4.2057248474,3.3579765611,-0.6478417126\H,2.6214044
 871,1.5488342838,1.1254750606\C,2.3818531025,-1.263211525,0.3661157249
 \H,-0.2937910279,-1.0613401917,0.3337208696\H,-0.9272420036,1.44491919
 98,1.197032882\H,-1.676373969,0.8599315974,-0.2772107012\H,-1.06677294
 85,0.1982583898,-3.9795136911\H,-0.6312783605,0.7394231865,-6.95528009
 4\H,-1.6899024543,-0.5136040127,-6.307717391\H,0.146050351,-1.68455662
 83,-5.0961772947\H,1.2395145765,-0.7899530852,-4.0278950206\H,1.312075
 6315,-0.5325052985,-5.7827959377\H,3.2635041321,0.6263949595,-1.685235
 21\H,4.3788531173,0.9149060965,-0.3560595806\H,1.8940934497,4.88848924
 18,-0.5672879983\H,-0.628972288,4.3936769017,-0.9586583898\H,-1.830006
 1337,3.5131843591,0.0082153667\H,-0.3671147562,3.4608122267,1.93668624
 16\H,-1.8762516042,5.6182434348,2.2629420001\H,-1.1294170245,7.1762487
 94,1.8647075252\H,-1.786305927,6.1413667558,0.5830539436\H,1.271773724
 8,7.1617762553,1.8753907177\H,2.2121967375,5.5947155159,1.5744269178\H
 ,4.7254928374,4.426951104,-4.2124106218\H,5.5209030361,4.5515704134,-2
 .6299779496\H,3.8243245254,5.05514345,-2.811925984\H,4.8383517711,0.85
 98597314,-3.1444435031\H,5.394559849,2.0486001354,-4.3316980129\H,6.10
 30370383,2.027442183,-2.7058777252\H,1.7643222311,-2.1582693097,0.4887
 11824\H,3.0382791813,-1.4245204066,-0.4985864648\H,3.0370456322,-1.182
 0848023,1.2452570462\C,-2.4261082426,1.5012172252,-6.0150732337\H,-3.0
 395222835,1.4840585266,-6.9234806029\H,-3.077172227,1.2897814296,-5.15
 93826366\H,-2.0394435719,2.5185640873,-5.8935733473\\Version=EM64L-G09
 RevB.01\State=1-A\HF=-1387.3218742\RMSD=9.491e-09\RMSF=4.311e-06\Dipol
 e=1.2131386,-0.2464278,2.0893616\Quadrupole=5.452728,4.2057916,-9.6585
 195,-2.7011412,-4.8602508,4.5448731\PG=C01 [X(C26H34O5)]\\@


 When cryptography is outlawed, bayl bhgynjf jvyy unir cevinpl.
 Job cpu time:  0 days  5 hours 32 minutes 42.3 seconds.
 File lengths (MBytes):  RWF=    186 Int=      0 D2E=      0 Chk=     20 Scr=      1
 Normal termination of Gaussian 09 at Wed Mar 24 14:56:44 2021.
