 Entering Gaussian System, Link 0=g09
 Initial command:
 /public/software/g09/g09/l1.exe /tmp/Gau-12708.inp -scrdir=/tmp/
 Entering Link 1 = /public/software/g09/g09/l1.exe PID=     12709.
  
 Copyright (c) 1988,1990,1992,1993,1995,1998,2003,2009,2010,
            Gaussian, Inc.  All Rights Reserved.
  
 This is part of the Gaussian(R) 09 program.  It is based on
 the Gaussian(R) 03 system (copyright 2003, Gaussian, Inc.),
 the Gaussian(R) 98 system (copyright 1998, Gaussian, Inc.),
 the Gaussian(R) 94 system (copyright 1995, Gaussian, Inc.),
 the Gaussian 92(TM) system (copyright 1992, Gaussian, Inc.),
 the Gaussian 90(TM) system (copyright 1990, Gaussian, Inc.),
 the Gaussian 88(TM) system (copyright 1988, Gaussian, Inc.),
 the Gaussian 86(TM) system (copyright 1986, Carnegie Mellon
 University), and the Gaussian 82(TM) system (copyright 1983,
 Carnegie Mellon University). Gaussian is a federally registered
 trademark of Gaussian, Inc.
  
 This software contains proprietary and confidential information,
 including trade secrets, belonging to Gaussian, Inc.
  
 This software is provided under written license and may be
 used, copied, transmitted, or stored only in accord with that
 written license.
  
 The following legend is applicable only to US Government
 contracts under FAR:
  
                    RESTRICTED RIGHTS LEGEND
  
 Use, reproduction and disclosure by the US Government is
 subject to restrictions as set forth in subparagraphs (a)
 and (c) of the Commercial Computer Software - Restricted
 Rights clause in FAR 52.227-19.
  
 Gaussian, Inc.
 340 Quinnipiac St., Bldg. 40, Wallingford CT 06492
  
  
 ---------------------------------------------------------------
 Warning -- This program may not be used in any manner that
 competes with the business of Gaussian, Inc. or will provide
 assistance to any competitor of Gaussian, Inc.  The licensee
 of this program is prohibited from giving any competitor of
 Gaussian, Inc. access to this program.  By using this program,
 the user acknowledges that Gaussian, Inc. is engaged in the
 business of creating and licensing software in the field of
 computational chemistry and represents and warrants to the
 licensee that it is not a competitor of Gaussian, Inc. and that
 it will not use this program in any manner prohibited above.
 ---------------------------------------------------------------
  

 Cite this work as:
 Gaussian 09, Revision B.01,
 M. J. Frisch, G. W. Trucks, H. B. Schlegel, G. E. Scuseria, 
 M. A. Robb, J. R. Cheeseman, G. Scalmani, V. Barone, B. Mennucci, 
 G. A. Petersson, H. Nakatsuji, M. Caricato, X. Li, H. P. Hratchian, 
 A. F. Izmaylov, J. Bloino, G. Zheng, J. L. Sonnenberg, M. Hada, 
 M. Ehara, K. Toyota, R. Fukuda, J. Hasegawa, M. Ishida, T. Nakajima, 
 Y. Honda, O. Kitao, H. Nakai, T. Vreven, J. A. Montgomery, Jr., 
 J. E. Peralta, F. Ogliaro, M. Bearpark, J. J. Heyd, E. Brothers, 
 K. N. Kudin, V. N. Staroverov, T. Keith, R. Kobayashi, J. Normand, 
 K. Raghavachari, A. Rendell, J. C. Burant, S. S. Iyengar, J. Tomasi, 
 M. Cossi, N. Rega, J. M. Millam, M. Klene, J. E. Knox, J. B. Cross, 
 V. Bakken, C. Adamo, J. Jaramillo, R. Gomperts, R. E. Stratmann, 
 O. Yazyev, A. J. Austin, R. Cammi, C. Pomelli, J. W. Ochterski, 
 R. L. Martin, K. Morokuma, V. G. Zakrzewski, G. A. Voth, 
 P. Salvador, J. J. Dannenberg, S. Dapprich, A. D. Daniels, 
 O. Farkas, J. B. Foresman, J. V. Ortiz, J. Cioslowski, 
 and D. J. Fox, Gaussian, Inc., Wallingford CT, 2010.
 
 ******************************************
 Gaussian 09:  EM64L-G09RevB.01 12-Aug-2010
                24-Mar-2021 
 ******************************************
 %mem=600MW
 %nprocshared=10
 Will use up to   10 processors via shared memory.
 ---------------------------------------
 # opt rb3lyp/6-31g(d) geom=connectivity
 ---------------------------------------
 1/14=-1,18=20,19=15,26=3,38=1,57=2/1,3;
 2/9=110,12=2,17=6,18=5,40=1/2;
 3/5=1,6=6,7=1,11=2,16=1,25=1,30=1,71=1,74=-5,116=1/1,2,3;
 4//1;
 5/5=2,38=5/2;
 6/7=2,8=2,9=2,10=2,28=1/1;
 7//1,2,3,16;
 1/14=-1,18=20,19=15/3(2);
 2/9=110/2;
 99//99;
 2/9=110/2;
 3/5=1,6=6,7=1,11=2,16=1,25=1,30=1,71=1,74=-5,116=1/1,2,3;
 4/5=5,16=3/1;
 5/5=2,38=5/2;
 7//1,2,3,16;
 1/14=-1,18=20,19=15/3(-5);
 2/9=110/2;
 6/7=2,8=2,9=2,10=2,19=2,28=1/1;
 99/9=1/99;
 -------------------
 Title Card Required
 -------------------
 Symbolic Z-matrix:
 Charge =  0 Multiplicity = 1
 C                     0.        0.        0. 
 C                     1.3405    0.        0. 
 C                     2.1206    1.2877    0. 
 C                     1.3783    2.5424    0.5501 
 C                    -0.1613    2.4552    0.6956 
 C                    -0.8024    1.2588   -0.0405 
 C                     1.8879    3.7012   -0.3333 
 C                     0.9279    4.1934   -1.3595 
 C                    -0.3918    4.2443   -1.1537 
 C                    -0.8804    3.6971    0.1331 
 C                    -1.3165    4.7469   -2.1942 
 O                    -1.4409    4.1277   -3.2512 
 C                    -2.1075    6.0131   -1.8857 
 C                    -1.8142    7.11     -2.92 
 C                    -3.5977    5.6711   -1.8833 
 O                    -1.9066    4.1486    0.6377 
 C                     2.9936    3.1659   -1.2216 
 C                     2.908     4.067    -2.4684 
 O                     1.5281    4.4917   -2.5728 
 C                     2.5879    1.6968   -1.4025 
 O                     2.3215    4.8072    0.4468 
 C                    -0.3853    2.361     2.2175 
 C                     0.9955    2.1424    2.8083 
 O                     1.8921    2.7786    1.8944 
 C                     1.1938    2.7139    4.1894 
 C                     1.2614    4.2106    4.3321 
 C                     1.3234    1.914     5.2619 
 C                     3.7731    5.3297   -2.3308 
 C                     3.2886    3.353    -3.768 
 H                     3.9822    3.2246   -0.7493 
 H                     3.0147    1.129     0.6216 
 C                     2.1354   -1.2747   -0.0185 
 H                    -0.5503   -0.9381   -0.031 
 H                    -1.7936    1.0573    0.3874 
 H                    -0.9879    1.4894   -1.0979 
 H                    -1.8347    6.3812   -0.8895 
 H                    -2.51      7.9447   -2.7696 
 H                    -1.9813    6.7355   -3.9373 
 H                    -3.9341    5.3429   -2.8732 
 H                    -3.8164    4.8618   -1.179 
 H                    -4.1955    6.5415   -1.5936 
 H                     1.7737    1.5788   -2.1282 
 H                     3.4322    1.0902   -1.7471 
 H                     2.5445    4.4361    1.3267 
 H                    -0.83      3.2809    2.612 
 H                    -1.0608    1.5494    2.5118 
 H                     1.2324    1.0706    2.8062 
 H                     0.3473    4.6823    3.9603 
 H                     1.3832    4.5163    5.377 
 H                     2.1127    4.6128    3.7739 
 H                     1.4741    2.3194    6.258 
 H                     1.2838    0.8325    5.1749 
 H                     3.6595    5.973    -3.2114 
 H                     4.8328    5.0768   -2.2227 
 H                     3.4739    5.9435   -1.4762 
 H                     2.5884    2.5467   -4.009 
 H                     3.2416    4.0442   -4.6179 
 H                     4.301     2.9398   -3.7161 
 H                     1.4918   -2.1606   -0.0277 
 H                     2.771    -1.316    -0.9085 
 H                     2.7733   -1.3365    0.8691 
 C                    -0.3952    7.6533   -2.8215 
 H                     0.3434    6.8915   -3.0835 
 H                    -0.2656    8.4915   -3.5137 
 H                    -0.1798    8.013    -1.8104 
 

 GradGradGradGradGradGradGradGradGradGradGradGradGradGradGradGradGradGrad
 Berny optimization.
 Initialization pass.
                           ----------------------------
                           !    Initial Parameters    !
                           ! (Angstroms and Degrees)  !
 --------------------------                            --------------------------
 ! Name  Definition              Value          Derivative Info.                !
 --------------------------------------------------------------------------------
 ! R1    R(1,2)                  1.3405         estimate D2E/DX2                !
 ! R2    R(1,6)                  1.4933         estimate D2E/DX2                !
 ! R3    R(1,33)                 1.088          estimate D2E/DX2                !
 ! R4    R(2,3)                  1.5056         estimate D2E/DX2                !
 ! R5    R(2,32)                 1.5024         estimate D2E/DX2                !
 ! R6    R(3,4)                  1.5582         estimate D2E/DX2                !
 ! R7    R(3,20)                 1.5339         estimate D2E/DX2                !
 ! R8    R(3,31)                 1.1004         estimate D2E/DX2                !
 ! R9    R(4,5)                  1.5489         estimate D2E/DX2                !
 ! R10   R(4,7)                  1.5437         estimate D2E/DX2                !
 ! R11   R(4,24)                 1.4584         estimate D2E/DX2                !
 ! R12   R(5,6)                  1.5441         estimate D2E/DX2                !
 ! R13   R(5,10)                 1.5414         estimate D2E/DX2                !
 ! R14   R(5,22)                 1.5412         estimate D2E/DX2                !
 ! R15   R(6,34)                 1.0983         estimate D2E/DX2                !
 ! R16   R(6,35)                 1.098          estimate D2E/DX2                !
 ! R17   R(7,8)                  1.4889         estimate D2E/DX2                !
 ! R18   R(7,17)                 1.516          estimate D2E/DX2                !
 ! R19   R(7,21)                 1.4212         estimate D2E/DX2                !
 ! R20   R(8,9)                  1.3366         estimate D2E/DX2                !
 ! R21   R(8,19)                 1.3861         estimate D2E/DX2                !
 ! R22   R(9,10)                 1.4812         estimate D2E/DX2                !
 ! R23   R(9,11)                 1.48           estimate D2E/DX2                !
 ! R24   R(10,16)                1.2295         estimate D2E/DX2                !
 ! R25   R(11,12)                1.2313         estimate D2E/DX2                !
 ! R26   R(11,13)                1.5245         estimate D2E/DX2                !
 ! R27   R(13,14)                1.5359         estimate D2E/DX2                !
 ! R28   R(13,15)                1.5289         estimate D2E/DX2                !
 ! R29   R(13,36)                1.0965         estimate D2E/DX2                !
 ! R30   R(14,37)                1.097          estimate D2E/DX2                !
 ! R31   R(14,38)                1.0968         estimate D2E/DX2                !
 ! R32   R(14,62)                1.5226         estimate D2E/DX2                !
 ! R33   R(15,39)                1.0958         estimate D2E/DX2                !
 ! R34   R(15,40)                1.0949         estimate D2E/DX2                !
 ! R35   R(15,41)                1.0949         estimate D2E/DX2                !
 ! R36   R(17,18)                1.5407         estimate D2E/DX2                !
 ! R37   R(17,20)                1.5348         estimate D2E/DX2                !
 ! R38   R(17,30)                1.0972         estimate D2E/DX2                !
 ! R39   R(18,19)                1.4475         estimate D2E/DX2                !
 ! R40   R(18,28)                1.5368         estimate D2E/DX2                !
 ! R41   R(18,29)                1.5309         estimate D2E/DX2                !
 ! R42   R(20,42)                1.097          estimate D2E/DX2                !
 ! R43   R(20,43)                1.0952         estimate D2E/DX2                !
 ! R44   R(21,44)                0.9806         estimate D2E/DX2                !
 ! R45   R(22,23)                1.5177         estimate D2E/DX2                !
 ! R46   R(22,45)                1.0953         estimate D2E/DX2                !
 ! R47   R(22,46)                1.0962         estimate D2E/DX2                !
 ! R48   R(23,24)                1.4296         estimate D2E/DX2                !
 ! R49   R(23,25)                1.5078         estimate D2E/DX2                !
 ! R50   R(23,47)                1.0977         estimate D2E/DX2                !
 ! R51   R(24,44)                1.8695         estimate D2E/DX2                !
 ! R52   R(25,26)                1.505          estimate D2E/DX2                !
 ! R53   R(25,27)                1.3442         estimate D2E/DX2                !
 ! R54   R(26,48)                1.0938         estimate D2E/DX2                !
 ! R55   R(26,49)                1.0955         estimate D2E/DX2                !
 ! R56   R(26,50)                1.0946         estimate D2E/DX2                !
 ! R57   R(27,51)                1.0859         estimate D2E/DX2                !
 ! R58   R(27,52)                1.0857         estimate D2E/DX2                !
 ! R59   R(28,53)                1.0964         estimate D2E/DX2                !
 ! R60   R(28,54)                1.0948         estimate D2E/DX2                !
 ! R61   R(28,55)                1.0939         estimate D2E/DX2                !
 ! R62   R(29,56)                1.0948         estimate D2E/DX2                !
 ! R63   R(29,57)                1.0965         estimate D2E/DX2                !
 ! R64   R(29,58)                1.0947         estimate D2E/DX2                !
 ! R65   R(32,59)                1.095          estimate D2E/DX2                !
 ! R66   R(32,60)                1.0944         estimate D2E/DX2                !
 ! R67   R(32,61)                1.0948         estimate D2E/DX2                !
 ! R68   R(62,63)                1.0929         estimate D2E/DX2                !
 ! R69   R(62,64)                1.0948         estimate D2E/DX2                !
 ! R70   R(62,65)                1.0946         estimate D2E/DX2                !
 ! A1    A(2,1,6)              122.5013         estimate D2E/DX2                !
 ! A2    A(2,1,33)             120.3827         estimate D2E/DX2                !
 ! A3    A(6,1,33)             117.0165         estimate D2E/DX2                !
 ! A4    A(1,2,3)              121.2079         estimate D2E/DX2                !
 ! A5    A(1,2,32)             121.9449         estimate D2E/DX2                !
 ! A6    A(3,2,32)             116.8424         estimate D2E/DX2                !
 ! A7    A(2,3,4)              116.2237         estimate D2E/DX2                !
 ! A8    A(2,3,20)             112.7041         estimate D2E/DX2                !
 ! A9    A(2,3,31)             107.3159         estimate D2E/DX2                !
 ! A10   A(4,3,20)             104.6655         estimate D2E/DX2                !
 ! A11   A(4,3,31)             107.6842         estimate D2E/DX2                !
 ! A12   A(20,3,31)            107.9038         estimate D2E/DX2                !
 ! A13   A(3,4,5)              117.4748         estimate D2E/DX2                !
 ! A14   A(3,4,7)              104.192          estimate D2E/DX2                !
 ! A15   A(3,4,24)             106.7384         estimate D2E/DX2                !
 ! A16   A(5,4,7)              115.0973         estimate D2E/DX2                !
 ! A17   A(5,4,24)             105.8259         estimate D2E/DX2                !
 ! A18   A(7,4,24)             106.8352         estimate D2E/DX2                !
 ! A19   A(4,5,6)              114.3014         estimate D2E/DX2                !
 ! A20   A(4,5,10)             112.587          estimate D2E/DX2                !
 ! A21   A(4,5,22)             103.9262         estimate D2E/DX2                !
 ! A22   A(6,5,10)             104.869          estimate D2E/DX2                !
 ! A23   A(6,5,22)             111.2878         estimate D2E/DX2                !
 ! A24   A(10,5,22)            109.9871         estimate D2E/DX2                !
 ! A25   A(1,6,5)              114.6523         estimate D2E/DX2                !
 ! A26   A(1,6,34)             108.6458         estimate D2E/DX2                !
 ! A27   A(1,6,35)             107.0927         estimate D2E/DX2                !
 ! A28   A(5,6,34)             109.3381         estimate D2E/DX2                !
 ! A29   A(5,6,35)             111.4998         estimate D2E/DX2                !
 ! A30   A(34,6,35)            105.1448         estimate D2E/DX2                !
 ! A31   A(4,7,8)              115.4501         estimate D2E/DX2                !
 ! A32   A(4,7,17)             108.1219         estimate D2E/DX2                !
 ! A33   A(4,7,21)             111.7642         estimate D2E/DX2                !
 ! A34   A(8,7,17)             100.5524         estimate D2E/DX2                !
 ! A35   A(8,7,21)             108.528          estimate D2E/DX2                !
 ! A36   A(17,7,21)            111.9564         estimate D2E/DX2                !
 ! A37   A(7,8,9)              122.8923         estimate D2E/DX2                !
 ! A38   A(7,8,19)             113.2811         estimate D2E/DX2                !
 ! A39   A(9,8,19)             123.6491         estimate D2E/DX2                !
 ! A40   A(8,9,10)             116.4477         estimate D2E/DX2                !
 ! A41   A(8,9,11)             121.4385         estimate D2E/DX2                !
 ! A42   A(10,9,11)            122.0142         estimate D2E/DX2                !
 ! A43   A(5,10,9)             117.4383         estimate D2E/DX2                !
 ! A44   A(5,10,16)            122.3786         estimate D2E/DX2                !
 ! A45   A(9,10,16)            119.7501         estimate D2E/DX2                !
 ! A46   A(9,11,12)            119.7272         estimate D2E/DX2                !
 ! A47   A(9,11,13)            117.644          estimate D2E/DX2                !
 ! A48   A(12,11,13)           122.6132         estimate D2E/DX2                !
 ! A49   A(11,13,14)           110.9659         estimate D2E/DX2                !
 ! A50   A(11,13,15)           108.6776         estimate D2E/DX2                !
 ! A51   A(11,13,36)           109.4865         estimate D2E/DX2                !
 ! A52   A(14,13,15)           110.2997         estimate D2E/DX2                !
 ! A53   A(14,13,36)           108.9385         estimate D2E/DX2                !
 ! A54   A(15,13,36)           108.4303         estimate D2E/DX2                !
 ! A55   A(13,14,37)           109.2658         estimate D2E/DX2                !
 ! A56   A(13,14,38)           110.5878         estimate D2E/DX2                !
 ! A57   A(13,14,62)           112.9065         estimate D2E/DX2                !
 ! A58   A(37,14,38)           106.8768         estimate D2E/DX2                !
 ! A59   A(37,14,62)           108.103          estimate D2E/DX2                !
 ! A60   A(38,14,62)           108.8931         estimate D2E/DX2                !
 ! A61   A(13,15,39)           111.3945         estimate D2E/DX2                !
 ! A62   A(13,15,40)           111.1632         estimate D2E/DX2                !
 ! A63   A(13,15,41)           110.7772         estimate D2E/DX2                !
 ! A64   A(39,15,40)           107.3606         estimate D2E/DX2                !
 ! A65   A(39,15,41)           108.0286         estimate D2E/DX2                !
 ! A66   A(40,15,41)           107.9584         estimate D2E/DX2                !
 ! A67   A(7,17,18)            103.1286         estimate D2E/DX2                !
 ! A68   A(7,17,20)            102.3721         estimate D2E/DX2                !
 ! A69   A(7,17,30)            112.709          estimate D2E/DX2                !
 ! A70   A(18,17,20)           116.7281         estimate D2E/DX2                !
 ! A71   A(18,17,30)           111.5376         estimate D2E/DX2                !
 ! A72   A(20,17,30)           109.8842         estimate D2E/DX2                !
 ! A73   A(17,18,19)           106.4344         estimate D2E/DX2                !
 ! A74   A(17,18,28)           112.1364         estimate D2E/DX2                !
 ! A75   A(17,18,29)           113.6023         estimate D2E/DX2                !
 ! A76   A(19,18,28)           107.5784         estimate D2E/DX2                !
 ! A77   A(19,18,29)           108.2164         estimate D2E/DX2                !
 ! A78   A(28,18,29)           108.6188         estimate D2E/DX2                !
 ! A79   A(8,19,18)            106.6487         estimate D2E/DX2                !
 ! A80   A(3,20,17)            103.1827         estimate D2E/DX2                !
 ! A81   A(3,20,42)            110.4909         estimate D2E/DX2                !
 ! A82   A(3,20,43)            112.0133         estimate D2E/DX2                !
 ! A83   A(17,20,42)           112.1551         estimate D2E/DX2                !
 ! A84   A(17,20,43)           111.3128         estimate D2E/DX2                !
 ! A85   A(42,20,43)           107.7237         estimate D2E/DX2                !
 ! A86   A(7,21,44)            105.5093         estimate D2E/DX2                !
 ! A87   A(5,22,23)            105.1278         estimate D2E/DX2                !
 ! A88   A(5,22,45)            111.3066         estimate D2E/DX2                !
 ! A89   A(5,22,46)            113.5744         estimate D2E/DX2                !
 ! A90   A(23,22,45)           110.4968         estimate D2E/DX2                !
 ! A91   A(23,22,46)           110.4562         estimate D2E/DX2                !
 ! A92   A(45,22,46)           105.9584         estimate D2E/DX2                !
 ! A93   A(22,23,24)           104.9301         estimate D2E/DX2                !
 ! A94   A(22,23,25)           114.9375         estimate D2E/DX2                !
 ! A95   A(22,23,47)           109.6483         estimate D2E/DX2                !
 ! A96   A(24,23,25)           109.5356         estimate D2E/DX2                !
 ! A97   A(24,23,47)           107.3342         estimate D2E/DX2                !
 ! A98   A(25,23,47)           110.0885         estimate D2E/DX2                !
 ! A99   A(4,24,23)            107.2307         estimate D2E/DX2                !
 ! A100  A(23,25,26)           118.015          estimate D2E/DX2                !
 ! A101  A(23,25,27)           121.1958         estimate D2E/DX2                !
 ! A102  A(26,25,27)           120.7842         estimate D2E/DX2                !
 ! A103  A(25,26,48)           111.0458         estimate D2E/DX2                !
 ! A104  A(25,26,49)           111.8973         estimate D2E/DX2                !
 ! A105  A(25,26,50)           110.61           estimate D2E/DX2                !
 ! A106  A(48,26,49)           107.2657         estimate D2E/DX2                !
 ! A107  A(48,26,50)           108.5527         estimate D2E/DX2                !
 ! A108  A(49,26,50)           107.3023         estimate D2E/DX2                !
 ! A109  A(25,27,51)           121.5396         estimate D2E/DX2                !
 ! A110  A(25,27,52)           121.6891         estimate D2E/DX2                !
 ! A111  A(51,27,52)           116.7712         estimate D2E/DX2                !
 ! A112  A(18,28,53)           110.5996         estimate D2E/DX2                !
 ! A113  A(18,28,54)           111.3407         estimate D2E/DX2                !
 ! A114  A(18,28,55)           112.1489         estimate D2E/DX2                !
 ! A115  A(53,28,54)           108.3678         estimate D2E/DX2                !
 ! A116  A(53,28,55)           105.6581         estimate D2E/DX2                !
 ! A117  A(54,28,55)           108.4951         estimate D2E/DX2                !
 ! A118  A(18,29,56)           111.8006         estimate D2E/DX2                !
 ! A119  A(18,29,57)           110.692          estimate D2E/DX2                !
 ! A120  A(18,29,58)           111.4517         estimate D2E/DX2                !
 ! A121  A(56,29,57)           105.4401         estimate D2E/DX2                !
 ! A122  A(56,29,58)           108.9017         estimate D2E/DX2                !
 ! A123  A(57,29,58)           108.3201         estimate D2E/DX2                !
 ! A124  A(2,32,59)            112.0581         estimate D2E/DX2                !
 ! A125  A(2,32,60)            110.4452         estimate D2E/DX2                !
 ! A126  A(2,32,61)            110.2552         estimate D2E/DX2                !
 ! A127  A(59,32,60)           107.6963         estimate D2E/DX2                !
 ! A128  A(59,32,61)           107.6739         estimate D2E/DX2                !
 ! A129  A(60,32,61)           108.5895         estimate D2E/DX2                !
 ! A130  A(14,62,63)           111.4433         estimate D2E/DX2                !
 ! A131  A(14,62,64)           110.0361         estimate D2E/DX2                !
 ! A132  A(14,62,65)           111.1251         estimate D2E/DX2                !
 ! A133  A(63,62,64)           107.5835         estimate D2E/DX2                !
 ! A134  A(63,62,65)           108.5121         estimate D2E/DX2                !
 ! A135  A(64,62,65)           108.0085         estimate D2E/DX2                !
 ! D1    D(6,1,2,3)              1.8428         estimate D2E/DX2                !
 ! D2    D(6,1,2,32)          -177.3257         estimate D2E/DX2                !
 ! D3    D(33,1,2,3)           178.1073         estimate D2E/DX2                !
 ! D4    D(33,1,2,32)           -1.0612         estimate D2E/DX2                !
 ! D5    D(2,1,6,5)            -33.4817         estimate D2E/DX2                !
 ! D6    D(2,1,6,34)          -156.124          estimate D2E/DX2                !
 ! D7    D(2,1,6,35)            90.7826         estimate D2E/DX2                !
 ! D8    D(33,1,6,5)           150.1353         estimate D2E/DX2                !
 ! D9    D(33,1,6,34)           27.493          estimate D2E/DX2                !
 ! D10   D(33,1,6,35)          -85.6004         estimate D2E/DX2                !
 ! D11   D(1,2,3,4)             23.1755         estimate D2E/DX2                !
 ! D12   D(1,2,3,20)           -97.623          estimate D2E/DX2                !
 ! D13   D(1,2,3,31)           143.7239         estimate D2E/DX2                !
 ! D14   D(32,2,3,4)          -157.6153         estimate D2E/DX2                !
 ! D15   D(32,2,3,20)           81.5863         estimate D2E/DX2                !
 ! D16   D(32,2,3,31)          -37.0668         estimate D2E/DX2                !
 ! D17   D(1,2,32,59)           -0.2064         estimate D2E/DX2                !
 ! D18   D(1,2,32,60)          119.8654         estimate D2E/DX2                !
 ! D19   D(1,2,32,61)         -120.1205         estimate D2E/DX2                !
 ! D20   D(3,2,32,59)         -179.4094         estimate D2E/DX2                !
 ! D21   D(3,2,32,60)          -59.3375         estimate D2E/DX2                !
 ! D22   D(3,2,32,61)           60.6765         estimate D2E/DX2                !
 ! D23   D(2,3,4,5)            -15.4759         estimate D2E/DX2                !
 ! D24   D(2,3,4,7)           -144.1311         estimate D2E/DX2                !
 ! D25   D(2,3,4,24)           103.0381         estimate D2E/DX2                !
 ! D26   D(20,3,4,5)           109.5295         estimate D2E/DX2                !
 ! D27   D(20,3,4,7)           -19.1257         estimate D2E/DX2                !
 ! D28   D(20,3,4,24)         -131.9565         estimate D2E/DX2                !
 ! D29   D(31,3,4,5)          -135.8269         estimate D2E/DX2                !
 ! D30   D(31,3,4,7)            95.5179         estimate D2E/DX2                !
 ! D31   D(31,3,4,24)          -17.3128         estimate D2E/DX2                !
 ! D32   D(2,3,20,17)          165.0083         estimate D2E/DX2                !
 ! D33   D(2,3,20,42)           44.9411         estimate D2E/DX2                !
 ! D34   D(2,3,20,43)          -75.167          estimate D2E/DX2                !
 ! D35   D(4,3,20,17)           37.8069         estimate D2E/DX2                !
 ! D36   D(4,3,20,42)          -82.2603         estimate D2E/DX2                !
 ! D37   D(4,3,20,43)          157.6316         estimate D2E/DX2                !
 ! D38   D(31,3,20,17)         -76.6826         estimate D2E/DX2                !
 ! D39   D(31,3,20,42)         163.2502         estimate D2E/DX2                !
 ! D40   D(31,3,20,43)          43.1422         estimate D2E/DX2                !
 ! D41   D(3,4,5,6)            -14.085          estimate D2E/DX2                !
 ! D42   D(3,4,5,10)          -133.6091         estimate D2E/DX2                !
 ! D43   D(3,4,5,22)           107.4069         estimate D2E/DX2                !
 ! D44   D(7,4,5,6)            109.1934         estimate D2E/DX2                !
 ! D45   D(7,4,5,10)           -10.3306         estimate D2E/DX2                !
 ! D46   D(7,4,5,22)          -129.3147         estimate D2E/DX2                !
 ! D47   D(24,4,5,6)          -133.0847         estimate D2E/DX2                !
 ! D48   D(24,4,5,10)          107.3912         estimate D2E/DX2                !
 ! D49   D(24,4,5,22)          -11.5929         estimate D2E/DX2                !
 ! D50   D(3,4,7,8)            104.8709         estimate D2E/DX2                !
 ! D51   D(3,4,7,17)            -6.7924         estimate D2E/DX2                !
 ! D52   D(3,4,7,21)          -130.4532         estimate D2E/DX2                !
 ! D53   D(5,4,7,8)            -25.2155         estimate D2E/DX2                !
 ! D54   D(5,4,7,17)          -136.8788         estimate D2E/DX2                !
 ! D55   D(5,4,7,21)            99.4604         estimate D2E/DX2                !
 ! D56   D(24,4,7,8)          -142.3677         estimate D2E/DX2                !
 ! D57   D(24,4,7,17)          105.9689         estimate D2E/DX2                !
 ! D58   D(24,4,7,21)          -17.6919         estimate D2E/DX2                !
 ! D59   D(3,4,24,23)          -95.0683         estimate D2E/DX2                !
 ! D60   D(5,4,24,23)           30.8054         estimate D2E/DX2                !
 ! D61   D(7,4,24,23)          153.9244         estimate D2E/DX2                !
 ! D62   D(4,5,6,1)             37.6603         estimate D2E/DX2                !
 ! D63   D(4,5,6,34)           159.928          estimate D2E/DX2                !
 ! D64   D(4,5,6,35)           -84.2343         estimate D2E/DX2                !
 ! D65   D(10,5,6,1)           161.434          estimate D2E/DX2                !
 ! D66   D(10,5,6,34)          -76.2984         estimate D2E/DX2                !
 ! D67   D(10,5,6,35)           39.5394         estimate D2E/DX2                !
 ! D68   D(22,5,6,1)           -79.6846         estimate D2E/DX2                !
 ! D69   D(22,5,6,34)           42.583          estimate D2E/DX2                !
 ! D70   D(22,5,6,35)          158.4208         estimate D2E/DX2                !
 ! D71   D(4,5,10,9)            42.1763         estimate D2E/DX2                !
 ! D72   D(4,5,10,16)         -145.4019         estimate D2E/DX2                !
 ! D73   D(6,5,10,9)           -82.6866         estimate D2E/DX2                !
 ! D74   D(6,5,10,16)           89.7353         estimate D2E/DX2                !
 ! D75   D(22,5,10,9)          157.5598         estimate D2E/DX2                !
 ! D76   D(22,5,10,16)         -30.0183         estimate D2E/DX2                !
 ! D77   D(4,5,22,23)          -10.0991         estimate D2E/DX2                !
 ! D78   D(4,5,22,45)          109.5558         estimate D2E/DX2                !
 ! D79   D(4,5,22,46)         -130.9609         estimate D2E/DX2                !
 ! D80   D(6,5,22,23)          113.382          estimate D2E/DX2                !
 ! D81   D(6,5,22,45)         -126.9631         estimate D2E/DX2                !
 ! D82   D(6,5,22,46)           -7.4798         estimate D2E/DX2                !
 ! D83   D(10,5,22,23)        -130.8473         estimate D2E/DX2                !
 ! D84   D(10,5,22,45)         -11.1925         estimate D2E/DX2                !
 ! D85   D(10,5,22,46)         108.2908         estimate D2E/DX2                !
 ! D86   D(4,7,8,9)             35.2955         estimate D2E/DX2                !
 ! D87   D(4,7,8,19)          -140.0204         estimate D2E/DX2                !
 ! D88   D(17,7,8,9)           151.3386         estimate D2E/DX2                !
 ! D89   D(17,7,8,19)          -23.9773         estimate D2E/DX2                !
 ! D90   D(21,7,8,9)           -91.0446         estimate D2E/DX2                !
 ! D91   D(21,7,8,19)           93.6395         estimate D2E/DX2                !
 ! D92   D(4,7,17,18)          151.4686         estimate D2E/DX2                !
 ! D93   D(4,7,17,20)           29.8697         estimate D2E/DX2                !
 ! D94   D(4,7,17,30)          -88.117          estimate D2E/DX2                !
 ! D95   D(8,7,17,18)           30.0762         estimate D2E/DX2                !
 ! D96   D(8,7,17,20)          -91.5227         estimate D2E/DX2                !
 ! D97   D(8,7,17,30)          150.4906         estimate D2E/DX2                !
 ! D98   D(21,7,17,18)         -84.9866         estimate D2E/DX2                !
 ! D99   D(21,7,17,20)         153.4145         estimate D2E/DX2                !
 ! D100  D(21,7,17,30)          35.4278         estimate D2E/DX2                !
 ! D101  D(4,7,21,44)           23.346          estimate D2E/DX2                !
 ! D102  D(8,7,21,44)          151.794          estimate D2E/DX2                !
 ! D103  D(17,7,21,44)         -98.1243         estimate D2E/DX2                !
 ! D104  D(7,8,9,10)            -3.9123         estimate D2E/DX2                !
 ! D105  D(7,8,9,11)           179.6479         estimate D2E/DX2                !
 ! D106  D(19,8,9,10)          170.9177         estimate D2E/DX2                !
 ! D107  D(19,8,9,11)           -5.5222         estimate D2E/DX2                !
 ! D108  D(7,8,19,18)            6.4175         estimate D2E/DX2                !
 ! D109  D(9,8,19,18)         -168.8575         estimate D2E/DX2                !
 ! D110  D(8,9,10,5)           -36.3074         estimate D2E/DX2                !
 ! D111  D(8,9,10,16)          151.063          estimate D2E/DX2                !
 ! D112  D(11,9,10,5)          140.1102         estimate D2E/DX2                !
 ! D113  D(11,9,10,16)         -32.5194         estimate D2E/DX2                !
 ! D114  D(8,9,11,12)           65.2484         estimate D2E/DX2                !
 ! D115  D(8,9,11,13)         -116.1477         estimate D2E/DX2                !
 ! D116  D(10,9,11,12)        -110.992          estimate D2E/DX2                !
 ! D117  D(10,9,11,13)          67.6119         estimate D2E/DX2                !
 ! D118  D(9,11,13,14)         121.3733         estimate D2E/DX2                !
 ! D119  D(9,11,13,15)        -117.1793         estimate D2E/DX2                !
 ! D120  D(9,11,13,36)           1.0903         estimate D2E/DX2                !
 ! D121  D(12,11,13,14)        -60.066          estimate D2E/DX2                !
 ! D122  D(12,11,13,15)         61.3814         estimate D2E/DX2                !
 ! D123  D(12,11,13,36)        179.651          estimate D2E/DX2                !
 ! D124  D(11,13,14,37)        171.0317         estimate D2E/DX2                !
 ! D125  D(11,13,14,38)         53.6567         estimate D2E/DX2                !
 ! D126  D(11,13,14,62)        -68.6349         estimate D2E/DX2                !
 ! D127  D(15,13,14,37)         50.5409         estimate D2E/DX2                !
 ! D128  D(15,13,14,38)        -66.834          estimate D2E/DX2                !
 ! D129  D(15,13,14,62)        170.8743         estimate D2E/DX2                !
 ! D130  D(36,13,14,37)        -68.3604         estimate D2E/DX2                !
 ! D131  D(36,13,14,38)        174.2647         estimate D2E/DX2                !
 ! D132  D(36,13,14,62)         51.973          estimate D2E/DX2                !
 ! D133  D(11,13,15,39)        -63.824          estimate D2E/DX2                !
 ! D134  D(11,13,15,40)         55.8667         estimate D2E/DX2                !
 ! D135  D(11,13,15,41)        175.9            estimate D2E/DX2                !
 ! D136  D(14,13,15,39)         58.0302         estimate D2E/DX2                !
 ! D137  D(14,13,15,40)        177.721          estimate D2E/DX2                !
 ! D138  D(14,13,15,41)        -62.2457         estimate D2E/DX2                !
 ! D139  D(36,13,15,39)        177.2409         estimate D2E/DX2                !
 ! D140  D(36,13,15,40)        -63.0684         estimate D2E/DX2                !
 ! D141  D(36,13,15,41)         56.965          estimate D2E/DX2                !
 ! D142  D(13,14,62,63)         65.9359         estimate D2E/DX2                !
 ! D143  D(13,14,62,64)       -174.8085         estimate D2E/DX2                !
 ! D144  D(13,14,62,65)        -55.2253         estimate D2E/DX2                !
 ! D145  D(37,14,62,63)       -173.0675         estimate D2E/DX2                !
 ! D146  D(37,14,62,64)        -53.8119         estimate D2E/DX2                !
 ! D147  D(37,14,62,65)         65.7713         estimate D2E/DX2                !
 ! D148  D(38,14,62,63)        -57.3008         estimate D2E/DX2                !
 ! D149  D(38,14,62,64)         61.9548         estimate D2E/DX2                !
 ! D150  D(38,14,62,65)       -178.462          estimate D2E/DX2                !
 ! D151  D(7,17,18,19)         -28.5004         estimate D2E/DX2                !
 ! D152  D(7,17,18,28)          88.8818         estimate D2E/DX2                !
 ! D153  D(7,17,18,29)        -147.484          estimate D2E/DX2                !
 ! D154  D(20,17,18,19)         82.832          estimate D2E/DX2                !
 ! D155  D(20,17,18,28)       -159.7857         estimate D2E/DX2                !
 ! D156  D(20,17,18,29)        -36.1516         estimate D2E/DX2                !
 ! D157  D(30,17,18,19)       -149.7132         estimate D2E/DX2                !
 ! D158  D(30,17,18,28)        -32.3309         estimate D2E/DX2                !
 ! D159  D(30,17,18,29)         91.3032         estimate D2E/DX2                !
 ! D160  D(7,17,20,3)          -41.4654         estimate D2E/DX2                !
 ! D161  D(7,17,20,42)          77.4533         estimate D2E/DX2                !
 ! D162  D(7,17,20,43)        -161.7708         estimate D2E/DX2                !
 ! D163  D(18,17,20,3)        -153.2313         estimate D2E/DX2                !
 ! D164  D(18,17,20,42)        -34.3126         estimate D2E/DX2                !
 ! D165  D(18,17,20,43)         86.4633         estimate D2E/DX2                !
 ! D166  D(30,17,20,3)          78.5096         estimate D2E/DX2                !
 ! D167  D(30,17,20,42)       -162.5717         estimate D2E/DX2                !
 ! D168  D(30,17,20,43)        -41.7958         estimate D2E/DX2                !
 ! D169  D(17,18,19,8)          14.1121         estimate D2E/DX2                !
 ! D170  D(28,18,19,8)        -106.2561         estimate D2E/DX2                !
 ! D171  D(29,18,19,8)         136.5605         estimate D2E/DX2                !
 ! D172  D(17,18,28,53)       -177.5156         estimate D2E/DX2                !
 ! D173  D(17,18,28,54)         61.9354         estimate D2E/DX2                !
 ! D174  D(17,18,28,55)        -59.8505         estimate D2E/DX2                !
 ! D175  D(19,18,28,53)        -60.8189         estimate D2E/DX2                !
 ! D176  D(19,18,28,54)        178.6321         estimate D2E/DX2                !
 ! D177  D(19,18,28,55)         56.8462         estimate D2E/DX2                !
 ! D178  D(29,18,28,53)         56.1021         estimate D2E/DX2                !
 ! D179  D(29,18,28,54)        -64.4469         estimate D2E/DX2                !
 ! D180  D(29,18,28,55)        173.7672         estimate D2E/DX2                !
 ! D181  D(17,18,29,56)         64.5384         estimate D2E/DX2                !
 ! D182  D(17,18,29,57)       -178.2301         estimate D2E/DX2                !
 ! D183  D(17,18,29,58)        -57.6047         estimate D2E/DX2                !
 ! D184  D(19,18,29,56)        -53.4201         estimate D2E/DX2                !
 ! D185  D(19,18,29,57)         63.8113         estimate D2E/DX2                !
 ! D186  D(19,18,29,58)       -175.5632         estimate D2E/DX2                !
 ! D187  D(28,18,29,56)       -169.9317         estimate D2E/DX2                !
 ! D188  D(28,18,29,57)        -52.7003         estimate D2E/DX2                !
 ! D189  D(28,18,29,58)         67.9252         estimate D2E/DX2                !
 ! D190  D(5,22,23,24)          28.8679         estimate D2E/DX2                !
 ! D191  D(5,22,23,25)         149.2418         estimate D2E/DX2                !
 ! D192  D(5,22,23,47)         -86.1321         estimate D2E/DX2                !
 ! D193  D(45,22,23,24)        -91.3242         estimate D2E/DX2                !
 ! D194  D(45,22,23,25)         29.0497         estimate D2E/DX2                !
 ! D195  D(45,22,23,47)        153.6757         estimate D2E/DX2                !
 ! D196  D(46,22,23,24)        151.7575         estimate D2E/DX2                !
 ! D197  D(46,22,23,25)        -87.8686         estimate D2E/DX2                !
 ! D198  D(46,22,23,47)         36.7575         estimate D2E/DX2                !
 ! D199  D(22,23,24,4)         -37.4832         estimate D2E/DX2                !
 ! D200  D(25,23,24,4)        -161.3747         estimate D2E/DX2                !
 ! D201  D(47,23,24,4)          79.1178         estimate D2E/DX2                !
 ! D202  D(22,23,25,26)        -70.7818         estimate D2E/DX2                !
 ! D203  D(22,23,25,27)        110.0264         estimate D2E/DX2                !
 ! D204  D(24,23,25,26)         47.0235         estimate D2E/DX2                !
 ! D205  D(24,23,25,27)       -132.1683         estimate D2E/DX2                !
 ! D206  D(47,23,25,26)        164.8235         estimate D2E/DX2                !
 ! D207  D(47,23,25,27)        -14.3682         estimate D2E/DX2                !
 ! D208  D(23,25,26,48)         58.8263         estimate D2E/DX2                !
 ! D209  D(23,25,26,49)        178.6548         estimate D2E/DX2                !
 ! D210  D(23,25,26,50)        -61.7667         estimate D2E/DX2                !
 ! D211  D(27,25,26,48)       -121.9785         estimate D2E/DX2                !
 ! D212  D(27,25,26,49)         -2.15           estimate D2E/DX2                !
 ! D213  D(27,25,26,50)        117.4286         estimate D2E/DX2                !
 ! D214  D(23,25,27,51)        179.5209         estimate D2E/DX2                !
 ! D215  D(23,25,27,52)         -0.4058         estimate D2E/DX2                !
 ! D216  D(26,25,27,51)          0.3514         estimate D2E/DX2                !
 ! D217  D(26,25,27,52)       -179.5753         estimate D2E/DX2                !
 --------------------------------------------------------------------------------
 Trust Radius=3.00D-01 FncErr=1.00D-07 GrdErr=1.00D-06
 Number of steps in this run=    390 maximum allowed number of steps=    390.
 GradGradGradGradGradGradGradGradGradGradGradGradGradGradGradGradGradGrad

 Stoichiometry    C26H34O5
 Framework group  C1[X(C26H34O5)]
 Deg. of freedom   189
 Full point group                 C1      NOp   1
 Largest Abelian subgroup         C1      NOp   1
 Largest concise Abelian subgroup C1      NOp   1
                         Standard orientation:                         
 ---------------------------------------------------------------------
 Center     Atomic      Atomic             Coordinates (Angstroms)
 Number     Number       Type             X           Y           Z
 ---------------------------------------------------------------------
      1          6           0       -2.127673    0.394325    2.754125
      2          6           0       -2.521912    1.409346    1.972302
      3          6           0       -1.957011    1.593459    0.588930
      4          6           0       -1.366338    0.320685   -0.088596
      5          6           0       -1.073558   -0.900760    0.817767
      6          6           0       -1.085620   -0.587542    2.329711
      7          6           0       -0.156458    0.845809   -0.890681
      8          6           0        1.178685    0.550284   -0.301610
      9          6           0        1.447958   -0.582737    0.354369
     10          6           0        0.314664   -1.515733    0.552299
     11          6           0        2.789575   -0.846641    0.920705
     12          8           0        3.215880   -0.140930    1.835238
     13          6           0        3.578047   -2.021773    0.353703
     14          6           0        4.923524   -1.554600   -0.221130
     15          6           0        3.803596   -3.043536    1.468509
     16          8           0        0.526590   -2.723857    0.636461
     17          6           0       -0.163332    2.359992   -0.817203
     18          6           0        1.327937    2.723594   -0.950361
     19          8           0        2.071962    1.604342   -0.412685
     20          6           0       -0.818173    2.620088    0.546287
     21          8           0       -0.171257    0.378856   -2.232895
     22          6           0       -2.176872   -1.910863    0.446795
     23          6           0       -3.149130   -1.134130   -0.422020
     24          8           0       -2.353169   -0.133526   -1.061623
     25          6           0       -3.863206   -1.954146   -1.466550
     26          6           0       -3.064016   -2.457121   -2.638452
     27          6           0       -5.177739   -2.216718   -1.366789
     28          6           0        1.751961    2.901281   -2.416777
     29          6           0        1.724357    3.980341   -0.171226
     30          1           0       -0.762677    2.819958   -1.612854
     31          1           0       -2.771667    1.965140   -0.050738
     32          6           0       -3.528493    2.424291    2.434633
     33          1           0       -2.521872    0.291560    3.763020
     34          1           0       -1.230800   -1.519130    2.892956
     35          1           0       -0.116848   -0.196182    2.667350
     36          1           0        2.997593   -2.501067   -0.443593
     37          1           0        5.533247   -2.431003   -0.473393
     38          1           0        5.484348   -0.981183    0.527029
     39          1           0        4.422768   -2.628599    2.271775
     40          1           0        2.854509   -3.356332    1.915976
     41          1           0        4.304821   -3.936659    1.081222
     42          1           0       -0.121700    2.455797    1.377803
     43          1           0       -1.189086    3.647960    0.620161
     44          1           0       -1.108140    0.161748   -2.424684
     45          1           0       -1.766649   -2.763614   -0.104692
     46          1           0       -2.693707   -2.334379    1.315773
     47          1           0       -3.878416   -0.615142    0.213333
     48          1           0       -2.232771   -3.085610   -2.306264
     49          1           0       -3.674108   -3.058897   -3.320917
     50          1           0       -2.658761   -1.620327   -3.216040
     51          1           0       -5.699201   -2.800186   -2.119727
     52          1           0       -5.769708   -1.855485   -0.531407
     53          1           0        2.825089    3.115683   -2.484779
     54          1           0        1.205382    3.721720   -2.892949
     55          1           0        1.594671    1.992262   -3.004616
     56          1           0        1.608858    3.842537    0.908658
     57          1           0        2.785033    4.212493   -0.324095
     58          1           0        1.133836    4.847712   -0.483209
     59          1           0       -3.878969    2.221932    3.452150
     60          1           0       -3.091142    3.427513    2.426766
     61          1           0       -4.402225    2.419282    1.774983
     62          6           0        4.769425   -0.708002   -1.477301
     63          1           0        4.273558    0.241606   -1.260795
     64          1           0        5.753710   -0.478716   -1.898166
     65          1           0        4.189793   -1.236627   -2.240639
 ---------------------------------------------------------------------
 Rotational constants (GHZ):      0.2061249      0.1291938      0.1106131
 Standard basis: 6-31G(d) (6D, 7F)
 There are   533 symmetry adapted basis functions of A   symmetry.
 Integral buffers will be    131072 words long.
 Raffenetti 2 integral format.
 Two-electron integral symmetry is turned on.
   533 basis functions,  1004 primitive gaussians,   533 cartesian basis functions
   115 alpha electrons      115 beta electrons
       nuclear repulsion energy      3517.0959165225 Hartrees.
 NAtoms=   65 NActive=   65 NUniq=   65 SFac= 1.00D+00 NAtFMM=   50 NAOKFM=T Big=T
 One-electron integrals computed using PRISM.
 NBasis=   533 RedAO= T  NBF=   533
 NBsUse=   533 1.00D-06 NBFU=   533
 Harris functional with IExCor=  402 diagonalized for initial guess.
 ExpMin= 1.61D-01 ExpMax= 5.48D+03 ExpMxC= 8.25D+02 IAcc=1 IRadAn=         1 AccDes= 0.00D+00
 HarFok:  IExCor=  402 AccDes= 0.00D+00 IRadAn=         1 IDoV= 1
 ScaDFX=  1.000000  1.000000  1.000000  1.000000
 FoFCou: FMM=F IPFlag=           0 FMFlag=      100000 FMFlg1=        2001
         NFxFlg=           0 DoJE=T BraDBF=F KetDBF=T FulRan=T
         Omega=  0.000000  0.000000  1.000000  0.000000  0.000000 ICntrl=     500 IOpCl=  0
         NMat0=    1 NMatS0=    1 NMatT0=    0 NMatD0=    1 NMtDS0=    0 NMtDT0=    0
         I1Cent=           4 NGrid=           0.
 Petite list used in FoFCou.
 Initial guess orbital symmetries:
       Occupied  (A) (A) (A) (A) (A) (A) (A) (A) (A) (A) (A) (A)
                 (A) (A) (A) (A) (A) (A) (A) (A) (A) (A) (A) (A)
                 (A) (A) (A) (A) (A) (A) (A) (A) (A) (A) (A) (A)
                 (A) (A) (A) (A) (A) (A) (A) (A) (A) (A) (A) (A)
                 (A) (A) (A) (A) (A) (A) (A) (A) (A) (A) (A) (A)
                 (A) (A) (A) (A) (A) (A) (A) (A) (A) (A) (A) (A)
                 (A) (A) (A) (A) (A) (A) (A) (A) (A) (A) (A) (A)
                 (A) (A) (A) (A) (A) (A) (A) (A) (A) (A) (A) (A)
                 (A) (A) (A) (A) (A) (A) (A) (A) (A) (A) (A) (A)
                 (A) (A) (A) (A) (A) (A) (A)
       Virtual   (A) (A) (A) (A) (A) (A) (A) (A) (A) (A) (A) (A)
                 (A) (A) (A) (A) (A) (A) (A) (A) (A) (A) (A) (A)
                 (A) (A) (A) (A) (A) (A) (A) (A) (A) (A) (A) (A)
                 (A) (A) (A) (A) (A) (A) (A) (A) (A) (A) (A) (A)
                 (A) (A) (A) (A) (A) (A) (A) (A) (A) (A) (A) (A)
                 (A) (A) (A) (A) (A) (A) (A) (A) (A) (A) (A) (A)
                 (A) (A) (A) (A) (A) (A) (A) (A) (A) (A) (A) (A)
                 (A) (A) (A) (A) (A) (A) (A) (A) (A) (A) (A) (A)
                 (A) (A) (A) (A) (A) (A) (A) (A) (A) (A) (A) (A)
                 (A) (A) (A) (A) (A) (A) (A) (A) (A) (A) (A) (A)
                 (A) (A) (A) (A) (A) (A) (A) (A) (A) (A) (A) (A)
                 (A) (A) (A) (A) (A) (A) (A) (A) (A) (A) (A) (A)
                 (A) (A) (A) (A) (A) (A) (A) (A) (A) (A) (A) (A)
                 (A) (A) (A) (A) (A) (A) (A) (A) (A) (A) (A) (A)
                 (A) (A) (A) (A) (A) (A) (A) (A) (A) (A) (A) (A)
                 (A) (A) (A) (A) (A) (A) (A) (A) (A) (A) (A) (A)
                 (A) (A) (A) (A) (A) (A) (A) (A) (A) (A) (A) (A)
                 (A) (A) (A) (A) (A) (A) (A) (A) (A) (A) (A) (A)
                 (A) (A) (A) (A) (A) (A) (A) (A) (A) (A) (A) (A)
                 (A) (A) (A) (A) (A) (A) (A) (A) (A) (A) (A) (A)
                 (A) (A) (A) (A) (A) (A) (A) (A) (A) (A) (A) (A)
                 (A) (A) (A) (A) (A) (A) (A) (A) (A) (A) (A) (A)
                 (A) (A) (A) (A) (A) (A) (A) (A) (A) (A) (A) (A)
                 (A) (A) (A) (A) (A) (A) (A) (A) (A) (A) (A) (A)
                 (A) (A) (A) (A) (A) (A) (A) (A) (A) (A) (A) (A)
                 (A) (A) (A) (A) (A) (A) (A) (A) (A) (A) (A) (A)
                 (A) (A) (A) (A) (A) (A) (A) (A) (A) (A) (A) (A)
                 (A) (A) (A) (A) (A) (A) (A) (A) (A) (A) (A) (A)
                 (A) (A) (A) (A) (A) (A) (A) (A) (A) (A) (A) (A)
                 (A) (A) (A) (A) (A) (A) (A) (A) (A) (A) (A) (A)
                 (A) (A) (A) (A) (A) (A) (A) (A) (A) (A) (A) (A)
                 (A) (A) (A) (A) (A) (A) (A) (A) (A) (A) (A) (A)
                 (A) (A) (A) (A) (A) (A) (A) (A) (A) (A) (A) (A)
                 (A) (A) (A) (A) (A) (A) (A) (A) (A) (A) (A) (A)
                 (A) (A) (A) (A) (A) (A) (A) (A) (A) (A)
 The electronic state of the initial guess is 1-A.
 Requested convergence on RMS density matrix=1.00D-08 within 128 cycles.
 Requested convergence on MAX density matrix=1.00D-06.
 Requested convergence on             energy=1.00D-06.
 No special actions if energy rises.
 Integral accuracy reduced to 1.0D-05 until final iterations.
 Initial convergence to 1.0D-05 achieved.  Increase integral accuracy.
 SCF Done:  E(RB3LYP) =  -1387.30393053     A.U. after   16 cycles
             Convg  =    0.4006D-08             -V/T =  2.0090

 **********************************************************************

            Population analysis using the SCF density.

 **********************************************************************

 Orbital symmetries:
       Occupied  (A) (A) (A) (A) (A) (A) (A) (A) (A) (A) (A) (A)
                 (A) (A) (A) (A) (A) (A) (A) (A) (A) (A) (A) (A)
                 (A) (A) (A) (A) (A) (A) (A) (A) (A) (A) (A) (A)
                 (A) (A) (A) (A) (A) (A) (A) (A) (A) (A) (A) (A)
                 (A) (A) (A) (A) (A) (A) (A) (A) (A) (A) (A) (A)
                 (A) (A) (A) (A) (A) (A) (A) (A) (A) (A) (A) (A)
                 (A) (A) (A) (A) (A) (A) (A) (A) (A) (A) (A) (A)
                 (A) (A) (A) (A) (A) (A) (A) (A) (A) (A) (A) (A)
                 (A) (A) (A) (A) (A) (A) (A) (A) (A) (A) (A) (A)
                 (A) (A) (A) (A) (A) (A) (A)
       Virtual   (A) (A) (A) (A) (A) (A) (A) (A) (A) (A) (A) (A)
                 (A) (A) (A) (A) (A) (A) (A) (A) (A) (A) (A) (A)
                 (A) (A) (A) (A) (A) (A) (A) (A) (A) (A) (A) (A)
                 (A) (A) (A) (A) (A) (A) (A) (A) (A) (A) (A) (A)
                 (A) (A) (A) (A) (A) (A) (A) (A) (A) (A) (A) (A)
                 (A) (A) (A) (A) (A) (A) (A) (A) (A) (A) (A) (A)
                 (A) (A) (A) (A) (A) (A) (A) (A) (A) (A) (A) (A)
                 (A) (A) (A) (A) (A) (A) (A) (A) (A) (A) (A) (A)
                 (A) (A) (A) (A) (A) (A) (A) (A) (A) (A) (A) (A)
                 (A) (A) (A) (A) (A) (A) (A) (A) (A) (A) (A) (A)
                 (A) (A) (A) (A) (A) (A) (A) (A) (A) (A) (A) (A)
                 (A) (A) (A) (A) (A) (A) (A) (A) (A) (A) (A) (A)
                 (A) (A) (A) (A) (A) (A) (A) (A) (A) (A) (A) (A)
                 (A) (A) (A) (A) (A) (A) (A) (A) (A) (A) (A) (A)
                 (A) (A) (A) (A) (A) (A) (A) (A) (A) (A) (A) (A)
                 (A) (A) (A) (A) (A) (A) (A) (A) (A) (A) (A) (A)
                 (A) (A) (A) (A) (A) (A) (A) (A) (A) (A) (A) (A)
                 (A) (A) (A) (A) (A) (A) (A) (A) (A) (A) (A) (A)
                 (A) (A) (A) (A) (A) (A) (A) (A) (A) (A) (A) (A)
                 (A) (A) (A) (A) (A) (A) (A) (A) (A) (A) (A) (A)
                 (A) (A) (A) (A) (A) (A) (A) (A) (A) (A) (A) (A)
                 (A) (A) (A) (A) (A) (A) (A) (A) (A) (A) (A) (A)
                 (A) (A) (A) (A) (A) (A) (A) (A) (A) (A) (A) (A)
                 (A) (A) (A) (A) (A) (A) (A) (A) (A) (A) (A) (A)
                 (A) (A) (A) (A) (A) (A) (A) (A) (A) (A) (A) (A)
                 (A) (A) (A) (A) (A) (A) (A) (A) (A) (A) (A) (A)
                 (A) (A) (A) (A) (A) (A) (A) (A) (A) (A) (A) (A)
                 (A) (A) (A) (A) (A) (A) (A) (A) (A) (A) (A) (A)
                 (A) (A) (A) (A) (A) (A) (A) (A) (A) (A) (A) (A)
                 (A) (A) (A) (A) (A) (A) (A) (A) (A) (A) (A) (A)
                 (A) (A) (A) (A) (A) (A) (A) (A) (A) (A) (A) (A)
                 (A) (A) (A) (A) (A) (A) (A) (A) (A) (A) (A) (A)
                 (A) (A) (A) (A) (A) (A) (A) (A) (A) (A) (A) (A)
                 (A) (A) (A) (A) (A) (A) (A) (A) (A) (A) (A) (A)
                 (A) (A) (A) (A) (A) (A) (A) (A) (A) (A)
 The electronic state is 1-A.
 Alpha  occ. eigenvalues --  -19.19328 -19.16965 -19.14628 -19.13831 -19.13314
 Alpha  occ. eigenvalues --  -10.27981 -10.26960 -10.26590 -10.26297 -10.25829
 Alpha  occ. eigenvalues --  -10.25586 -10.24595 -10.21976 -10.20411 -10.20246
 Alpha  occ. eigenvalues --  -10.19940 -10.19915 -10.19817 -10.19788 -10.19230
 Alpha  occ. eigenvalues --  -10.18945 -10.18917 -10.18769 -10.18440 -10.18410
 Alpha  occ. eigenvalues --  -10.18335 -10.18069 -10.17564 -10.17191 -10.16262
 Alpha  occ. eigenvalues --  -10.16049  -1.08353  -1.06350  -1.03635  -1.02432
 Alpha  occ. eigenvalues --   -1.01915  -0.87695  -0.83979  -0.82664  -0.81638
 Alpha  occ. eigenvalues --   -0.80346  -0.79777  -0.77048  -0.74379  -0.73565
 Alpha  occ. eigenvalues --   -0.72555  -0.71834  -0.69562  -0.69201  -0.68392
 Alpha  occ. eigenvalues --   -0.65365  -0.63821  -0.63435  -0.61838  -0.61125
 Alpha  occ. eigenvalues --   -0.59233  -0.59112  -0.57191  -0.54960  -0.53776
 Alpha  occ. eigenvalues --   -0.52971  -0.51822  -0.51113  -0.50444  -0.49788
 Alpha  occ. eigenvalues --   -0.48576  -0.47854  -0.46763  -0.46289  -0.45661
 Alpha  occ. eigenvalues --   -0.45351  -0.44552  -0.44088  -0.43414  -0.43015
 Alpha  occ. eigenvalues --   -0.42870  -0.42597  -0.42378  -0.41796  -0.41280
 Alpha  occ. eigenvalues --   -0.40931  -0.40582  -0.40520  -0.40233  -0.39826
 Alpha  occ. eigenvalues --   -0.39503  -0.39396  -0.38679  -0.38320  -0.38198
 Alpha  occ. eigenvalues --   -0.37652  -0.37497  -0.36765  -0.36617  -0.36092
 Alpha  occ. eigenvalues --   -0.35675  -0.35372  -0.34817  -0.34717  -0.34333
 Alpha  occ. eigenvalues --   -0.34082  -0.33296  -0.33087  -0.32690  -0.32054
 Alpha  occ. eigenvalues --   -0.32001  -0.31870  -0.30879  -0.28185  -0.27041
 Alpha  occ. eigenvalues --   -0.25347  -0.25242  -0.24211  -0.23736  -0.23227
 Alpha virt. eigenvalues --   -0.04836  -0.01747   0.00594   0.01521   0.03063
 Alpha virt. eigenvalues --    0.06394   0.08253   0.08435   0.09295   0.10169
 Alpha virt. eigenvalues --    0.10507   0.10634   0.11311   0.11776   0.12221
 Alpha virt. eigenvalues --    0.12680   0.13270   0.13480   0.13758   0.14009
 Alpha virt. eigenvalues --    0.14420   0.14684   0.14848   0.15469   0.15791
 Alpha virt. eigenvalues --    0.16166   0.16624   0.16692   0.17101   0.17750
 Alpha virt. eigenvalues --    0.18084   0.18269   0.18553   0.19242   0.19394
 Alpha virt. eigenvalues --    0.19551   0.19777   0.19948   0.20200   0.20673
 Alpha virt. eigenvalues --    0.21219   0.21354   0.21489   0.21661   0.22385
 Alpha virt. eigenvalues --    0.23548   0.23701   0.24321   0.24648   0.25198
 Alpha virt. eigenvalues --    0.25502   0.25813   0.26255   0.26590   0.27012
 Alpha virt. eigenvalues --    0.27161   0.27763   0.28153   0.28294   0.29824
 Alpha virt. eigenvalues --    0.31718   0.32283   0.32843   0.33922   0.34362
 Alpha virt. eigenvalues --    0.35055   0.36017   0.36813   0.37916   0.39738
 Alpha virt. eigenvalues --    0.40905   0.44773   0.46078   0.47950   0.48133
 Alpha virt. eigenvalues --    0.49023   0.49873   0.50179   0.51061   0.51356
 Alpha virt. eigenvalues --    0.52017   0.52351   0.52470   0.53116   0.53758
 Alpha virt. eigenvalues --    0.54013   0.54608   0.55046   0.55629   0.56014
 Alpha virt. eigenvalues --    0.56520   0.57432   0.57765   0.58099   0.58932
 Alpha virt. eigenvalues --    0.60054   0.60267   0.60508   0.61490   0.61714
 Alpha virt. eigenvalues --    0.62594   0.63393   0.63634   0.63845   0.64571
 Alpha virt. eigenvalues --    0.65151   0.65796   0.66059   0.66577   0.67200
 Alpha virt. eigenvalues --    0.67606   0.67889   0.68616   0.69474   0.70086
 Alpha virt. eigenvalues --    0.70365   0.70912   0.71714   0.72155   0.73453
 Alpha virt. eigenvalues --    0.73848   0.74544   0.75210   0.75376   0.76554
 Alpha virt. eigenvalues --    0.76988   0.77157   0.77855   0.78202   0.79051
 Alpha virt. eigenvalues --    0.79429   0.80280   0.80591   0.81904   0.82271
 Alpha virt. eigenvalues --    0.82803   0.83397   0.83750   0.84078   0.84820
 Alpha virt. eigenvalues --    0.85287   0.85639   0.86107   0.86640   0.87255
 Alpha virt. eigenvalues --    0.87514   0.87877   0.88362   0.88578   0.89189
 Alpha virt. eigenvalues --    0.89732   0.90152   0.90456   0.90679   0.90944
 Alpha virt. eigenvalues --    0.91205   0.91412   0.91943   0.92094   0.92203
 Alpha virt. eigenvalues --    0.92670   0.93486   0.94120   0.94614   0.95151
 Alpha virt. eigenvalues --    0.95406   0.95931   0.96287   0.96660   0.96872
 Alpha virt. eigenvalues --    0.97357   0.98249   0.98461   0.98782   0.99577
 Alpha virt. eigenvalues --    1.00404   1.00815   1.02249   1.02910   1.03115
 Alpha virt. eigenvalues --    1.03295   1.04038   1.05837   1.07267   1.07801
 Alpha virt. eigenvalues --    1.09300   1.09430   1.10369   1.11987   1.12069
 Alpha virt. eigenvalues --    1.12811   1.13802   1.15027   1.15880   1.16624
 Alpha virt. eigenvalues --    1.16676   1.18280   1.18935   1.19544   1.21671
 Alpha virt. eigenvalues --    1.21901   1.24165   1.24997   1.26884   1.27758
 Alpha virt. eigenvalues --    1.29370   1.29912   1.30712   1.32203   1.33299
 Alpha virt. eigenvalues --    1.34443   1.37533   1.37915   1.39053   1.40835
 Alpha virt. eigenvalues --    1.42323   1.43869   1.44812   1.45521   1.46752
 Alpha virt. eigenvalues --    1.48922   1.49087   1.51551   1.52262   1.52640
 Alpha virt. eigenvalues --    1.53576   1.54220   1.55968   1.56978   1.57980
 Alpha virt. eigenvalues --    1.58723   1.59824   1.61256   1.62011   1.63571
 Alpha virt. eigenvalues --    1.64426   1.65521   1.67069   1.68126   1.69316
 Alpha virt. eigenvalues --    1.70565   1.71722   1.73174   1.74047   1.74207
 Alpha virt. eigenvalues --    1.75486   1.76206   1.76689   1.77752   1.78001
 Alpha virt. eigenvalues --    1.78858   1.79614   1.80260   1.80982   1.81964
 Alpha virt. eigenvalues --    1.82286   1.83572   1.84023   1.84556   1.85600
 Alpha virt. eigenvalues --    1.86056   1.87441   1.88185   1.88532   1.88997
 Alpha virt. eigenvalues --    1.89895   1.90374   1.91316   1.91491   1.92228
 Alpha virt. eigenvalues --    1.92434   1.93014   1.94136   1.94507   1.95407
 Alpha virt. eigenvalues --    1.95957   1.96803   1.97082   1.97667   1.98487
 Alpha virt. eigenvalues --    1.98595   1.99901   2.00262   2.00507   2.01232
 Alpha virt. eigenvalues --    2.01719   2.02575   2.03795   2.04944   2.05717
 Alpha virt. eigenvalues --    2.06290   2.07308   2.07783   2.09182   2.09954
 Alpha virt. eigenvalues --    2.11001   2.11298   2.12129   2.14458   2.14969
 Alpha virt. eigenvalues --    2.15582   2.16376   2.17126   2.18439   2.18730
 Alpha virt. eigenvalues --    2.19688   2.20474   2.20965   2.21204   2.22834
 Alpha virt. eigenvalues --    2.23525   2.24776   2.25085   2.26130   2.26822
 Alpha virt. eigenvalues --    2.28157   2.28560   2.29237   2.30255   2.30923
 Alpha virt. eigenvalues --    2.32519   2.32828   2.33538   2.34490   2.34890
 Alpha virt. eigenvalues --    2.36286   2.37594   2.39393   2.39596   2.40222
 Alpha virt. eigenvalues --    2.40560   2.41036   2.41917   2.42323   2.44060
 Alpha virt. eigenvalues --    2.44843   2.45640   2.46799   2.47856   2.48684
 Alpha virt. eigenvalues --    2.49224   2.50646   2.52217   2.52923   2.54054
 Alpha virt. eigenvalues --    2.56444   2.57158   2.58937   2.59639   2.60654
 Alpha virt. eigenvalues --    2.61156   2.62732   2.64066   2.65187   2.66811
 Alpha virt. eigenvalues --    2.68255   2.69227   2.70943   2.72147   2.72779
 Alpha virt. eigenvalues --    2.73439   2.73792   2.75565   2.76078   2.78613
 Alpha virt. eigenvalues --    2.78931   2.80346   2.80512   2.81669   2.87159
 Alpha virt. eigenvalues --    2.87641   2.90476   2.93822   2.94749   2.95265
 Alpha virt. eigenvalues --    2.96726   2.97740   3.00764   3.01183   3.02748
 Alpha virt. eigenvalues --    3.06312   3.06839   3.11839   3.16339   3.21710
 Alpha virt. eigenvalues --    3.22295   3.29023   3.99606   4.09599   4.12116
 Alpha virt. eigenvalues --    4.13559   4.15540   4.17125   4.17836   4.19939
 Alpha virt. eigenvalues --    4.23001   4.24445   4.25630   4.29160   4.32424
 Alpha virt. eigenvalues --    4.32738   4.34568   4.37448   4.43958   4.44611
 Alpha virt. eigenvalues --    4.45974   4.50476   4.51635   4.57401   4.62391
 Alpha virt. eigenvalues --    4.65627   4.67631   4.69454   4.74099   4.78322
 Alpha virt. eigenvalues --    4.89217   4.95943   5.26307
          Condensed to atoms (all electrons):
 Mulliken atomic charges:
              1
     1  C   -0.196332
     2  C    0.196372
     3  C   -0.195086
     4  C    0.317995
     5  C   -0.015058
     6  C   -0.332104
     7  C    0.196299
     8  C    0.415576
     9  C   -0.099726
    10  C    0.390501
    11  C    0.414089
    12  O   -0.463534
    13  C   -0.132034
    14  C   -0.251771
    15  C   -0.456710
    16  O   -0.486111
    17  C   -0.155139
    18  C    0.306217
    19  O   -0.527313
    20  C   -0.308017
    21  O   -0.674233
    22  C   -0.326759
    23  C    0.103240
    24  O   -0.589634
    25  C    0.208983
    26  C   -0.517560
    27  C   -0.399793
    28  C   -0.460984
    29  C   -0.462717
    30  H    0.145683
    31  H    0.150693
    32  C   -0.519911
    33  H    0.126199
    34  H    0.162507
    35  H    0.177263
    36  H    0.146322
    37  H    0.131169
    38  H    0.152455
    39  H    0.156702
    40  H    0.163214
    41  H    0.141087
    42  H    0.167323
    43  H    0.149376
    44  H    0.425405
    45  H    0.181819
    46  H    0.153772
    47  H    0.131532
    48  H    0.167377
    49  H    0.155461
    50  H    0.163674
    51  H    0.141255
    52  H    0.136838
    53  H    0.151545
    54  H    0.139396
    55  H    0.183779
    56  H    0.161560
    57  H    0.159732
    58  H    0.147590
    59  H    0.158001
    60  H    0.157655
    61  H    0.155259
    62  C   -0.464578
    63  H    0.163896
    64  H    0.138346
    65  H    0.141948
 Sum of Mulliken atomic charges =   0.00000
 Mulliken charges with hydrogens summed into heavy atoms:
              1
     1  C   -0.070133
     2  C    0.196372
     3  C   -0.044393
     4  C    0.317995
     5  C   -0.015058
     6  C    0.007666
     7  C    0.196299
     8  C    0.415576
     9  C   -0.099726
    10  C    0.390501
    11  C    0.414089
    12  O   -0.463534
    13  C    0.014288
    14  C    0.031853
    15  C    0.004293
    16  O   -0.486111
    17  C   -0.009457
    18  C    0.306217
    19  O   -0.527313
    20  C    0.008682
    21  O   -0.248828
    22  C    0.008832
    23  C    0.234772
    24  O   -0.589634
    25  C    0.208983
    26  C   -0.031048
    27  C   -0.121700
    28  C    0.013736
    29  C    0.006166
    32  C   -0.048997
    62  C   -0.020388
 Sum of Mulliken charges with hydrogens summed into heavy atoms =   0.00000
 Electronic spatial extent (au):  <R**2>=          11519.3008
 Charge=              0.0000 electrons
 Dipole moment (field-independent basis, Debye):
    X=             -4.0321    Y=              2.6646    Z=             -0.6654  Tot=              4.8786
 Quadrupole moment (field-independent basis, Debye-Ang):
   XX=           -183.6262   YY=           -178.7843   ZZ=           -185.3873
   XY=             -0.6314   XZ=             -7.9543   YZ=              0.7014
 Traceless Quadrupole moment (field-independent basis, Debye-Ang):
   XX=             -1.0269   YY=              3.8150   ZZ=             -2.7881
   XY=             -0.6314   XZ=             -7.9543   YZ=              0.7014
 Octapole moment (field-independent basis, Debye-Ang**2):
  XXX=            -15.3153  YYY=             56.1034  ZZZ=             -2.6357  XYY=              1.0015
  XXY=            -20.7825  XXZ=            -21.2317  XZZ=            -29.1177  YZZ=             -8.3404
  YYZ=            -19.9271  XYZ=            -12.2323
 Hexadecapole moment (field-independent basis, Debye-Ang**3):
 XXXX=          -8302.3675 YYYY=          -4459.3942 ZZZZ=          -2599.1132 XXXY=             -1.8752
 XXXZ=            -63.7461 YYYX=             15.0146 YYYZ=              3.4781 ZZZX=              4.6029
 ZZZY=             -5.2657 XXYY=          -2068.8351 XXZZ=          -1851.5304 YYZZ=          -1151.3081
 XXYZ=             31.5428 YYXZ=             24.6564 ZZXY=             30.3079
 N-N= 3.517095916523D+03 E-N=-1.026055314408D+04  KE= 1.374870814459D+03
 Calling FoFJK, ICntrl=      2127 FMM=T ISym2X=0 I1Cent= 0 IOpClX= 0 NMat=1 NMatS=1 NMatT=0.
 ***** Axes restored to original set *****
 -------------------------------------------------------------------
 Center     Atomic                   Forces (Hartrees/Bohr)
 Number     Number              X              Y              Z
 -------------------------------------------------------------------
      1        6           0.009409901   -0.000200957    0.000917461
      2        6          -0.008875790   -0.006236676    0.003697080
      3        6          -0.006761748   -0.009817354   -0.003215978
      4        6           0.010719906   -0.006760868    0.011553129
      5        6          -0.008259292    0.005616279    0.004107687
      6        6          -0.009224414   -0.008016064   -0.005550192
      7        6           0.021173991    0.015387491    0.011963149
      8        6          -0.003998252   -0.004243473   -0.028977531
      9        6           0.007682609   -0.007839665    0.008333070
     10        6          -0.013704329    0.018571678   -0.004145791
     11        6          -0.012157378   -0.005424191   -0.017826271
     12        8           0.001619093    0.012182380    0.014205741
     13        6          -0.006374947    0.002084576   -0.004429235
     14        6           0.004168933    0.004211395   -0.001873310
     15        6          -0.009212718   -0.005622922    0.001262570
     16        8           0.005567939   -0.010130461    0.002928178
     17        6           0.002687728   -0.006325126   -0.011962476
     18        6           0.030190605    0.005146640   -0.013133799
     19        8          -0.012265600   -0.009552160    0.033992300
     20        6           0.009346658   -0.001686703   -0.005800648
     21        8          -0.003190408    0.005186618    0.005241719
     22        6          -0.008156985   -0.000319450    0.007652030
     23        6           0.004522708   -0.004413852    0.009321739
     24        8          -0.004646931    0.004216409   -0.013312619
     25        6           0.006378870   -0.005131948    0.015272015
     26        6           0.000408061    0.001240911    0.001040436
     27        6          -0.001170840    0.002537674   -0.009742323
     28        6          -0.001616544    0.008430155    0.001801775
     29        6          -0.008564582   -0.000666360   -0.007570080
     30        1          -0.003073467    0.001900630    0.000258619
     31        1          -0.001731618    0.005712369    0.000686767
     32        6          -0.002595287   -0.000479936    0.000263174
     33        1           0.000624943   -0.000767062    0.000029426
     34        1           0.000635950    0.004993441   -0.000131158
     35        1          -0.000619436    0.004815959   -0.001344717
     36        1           0.001363962   -0.001919055   -0.000674202
     37        1          -0.003049773   -0.001719078    0.001209007
     38        1          -0.002486716   -0.002778138    0.001503028
     39        1           0.001988780    0.000602453   -0.000629722
     40        1          -0.000105817    0.001108249    0.001256581
     41        1           0.000480863    0.000936717    0.000390488
     42        1           0.000247508    0.000910391    0.000889144
     43        1          -0.002033592   -0.001581092   -0.001410337
     44        1          -0.003157606    0.001217786   -0.004119845
     45        1          -0.000133340    0.000122397   -0.004397633
     46        1           0.000894923    0.000531782   -0.002750248
     47        1          -0.000715064   -0.001280716    0.003146030
     48        1           0.000117491    0.003101108   -0.002818812
     49        1          -0.000375773   -0.002525634   -0.000310103
     50        1          -0.001259483    0.002228506   -0.001991603
     51        1          -0.001718650   -0.000001424    0.000456633
     52        1           0.001008091   -0.001497555    0.000054521
     53        1           0.000478503   -0.003308152   -0.002187869
     54        1           0.000210373   -0.000821815   -0.000433881
     55        1           0.000265333   -0.004514381    0.003237892
     56        1           0.001200331   -0.001621793    0.002549893
     57        1           0.001836739    0.001430836    0.001917325
     58        1           0.000022383    0.000751535    0.001418258
     59        1          -0.000666180    0.000854699   -0.000329263
     60        1           0.003999584   -0.001525389   -0.000123770
     61        1           0.004247208   -0.001154597    0.000057263
     62        6           0.003066540    0.002959308   -0.003099066
     63        1           0.002158996   -0.000976115    0.000768065
     64        1           0.001802630    0.001220185   -0.000132273
     65        1           0.001374424    0.000649607    0.001042566
 -------------------------------------------------------------------
 Cartesian Forces:  Max     0.033992300 RMS     0.006797339

 GradGradGradGradGradGradGradGradGradGradGradGradGradGradGradGradGradGrad
 Berny optimization.
 Internal  Forces:  Max     0.019275849 RMS     0.003404610
 Search for a local minimum.
 Step number   1 out of a maximum of  390
 All quantities printed in internal units (Hartrees-Bohrs-Radians)
 Mixed Optimization -- RFO/linear search
 Second derivative matrix not updated -- first step.
 ITU=  0
     Eigenvalues ---    0.00279   0.00291   0.00357   0.00383   0.00442
     Eigenvalues ---    0.00466   0.00479   0.00553   0.00589   0.00663
     Eigenvalues ---    0.00670   0.00700   0.00720   0.00735   0.00876
     Eigenvalues ---    0.01031   0.01165   0.01242   0.01298   0.01461
     Eigenvalues ---    0.01512   0.01698   0.01734   0.01815   0.02090
     Eigenvalues ---    0.02625   0.02827   0.02827   0.03108   0.03220
     Eigenvalues ---    0.03526   0.03710   0.03888   0.04081   0.04186
     Eigenvalues ---    0.04274   0.04337   0.04465   0.04518   0.04726
     Eigenvalues ---    0.04833   0.04842   0.05008   0.05137   0.05288
     Eigenvalues ---    0.05311   0.05340   0.05342   0.05439   0.05496
     Eigenvalues ---    0.05503   0.05524   0.05532   0.05573   0.05622
     Eigenvalues ---    0.05650   0.05703   0.05876   0.05920   0.06130
     Eigenvalues ---    0.06584   0.06794   0.07123   0.07152   0.07152
     Eigenvalues ---    0.07200   0.07229   0.07315   0.07465   0.07985
     Eigenvalues ---    0.08345   0.08380   0.08641   0.09348   0.09443
     Eigenvalues ---    0.09882   0.10234   0.11441   0.11893   0.12232
     Eigenvalues ---    0.12627   0.13319   0.14547   0.15368   0.15930
     Eigenvalues ---    0.15970   0.16000   0.16000   0.16000   0.16000
     Eigenvalues ---    0.16000   0.16000   0.16000   0.16000   0.16000
     Eigenvalues ---    0.16000   0.16000   0.16000   0.16000   0.16000
     Eigenvalues ---    0.16000   0.16000   0.16000   0.16000   0.16000
     Eigenvalues ---    0.16000   0.16343   0.16556   0.17662   0.18101
     Eigenvalues ---    0.19721   0.20911   0.21926   0.22324   0.22498
     Eigenvalues ---    0.23395   0.24728   0.24948   0.24994   0.24997
     Eigenvalues ---    0.24997   0.24998   0.25000   0.26091   0.26670
     Eigenvalues ---    0.26984   0.27229   0.27303   0.27715   0.28305
     Eigenvalues ---    0.28805   0.28885   0.28990   0.29342   0.29521
     Eigenvalues ---    0.29937   0.30114   0.30253   0.30715   0.31576
     Eigenvalues ---    0.31837   0.31858   0.32132   0.33091   0.33633
     Eigenvalues ---    0.33875   0.33900   0.33941   0.33994   0.34012
     Eigenvalues ---    0.34012   0.34033   0.34071   0.34073   0.34078
     Eigenvalues ---    0.34108   0.34151   0.34186   0.34211   0.34214
     Eigenvalues ---    0.34236   0.34248   0.34251   0.34263   0.34265
     Eigenvalues ---    0.34267   0.34269   0.34274   0.34289   0.34291
     Eigenvalues ---    0.34305   0.34366   0.34382   0.34475   0.34573
     Eigenvalues ---    0.35041   0.35286   0.35312   0.35323   0.36695
     Eigenvalues ---    0.37883   0.40996   0.44594   0.50276   0.53433
     Eigenvalues ---    0.54249   0.56272   0.90541   0.91314
 RFO step:  Lambda=-2.15174161D-02 EMin= 2.79202103D-03
 Linear search not attempted -- first point.
 Iteration  1 RMS(Cart)=  0.03820039 RMS(Int)=  0.00062388
 Iteration  2 RMS(Cart)=  0.00094532 RMS(Int)=  0.00024972
 Iteration  3 RMS(Cart)=  0.00000058 RMS(Int)=  0.00024972
 Variable       Old X    -DE/DX   Delta X   Delta X   Delta X     New X
                                 (Linear)    (Quad)   (Total)
    R1        2.53318  -0.00178   0.00000  -0.00373  -0.00381   2.52936
    R2        2.82200   0.00868   0.00000   0.02526   0.02513   2.84714
    R3        2.05609   0.00034   0.00000   0.00092   0.00092   2.05702
    R4        2.84511   0.00496   0.00000   0.01258   0.01263   2.85774
    R5        2.83904   0.00460   0.00000   0.01342   0.01342   2.85245
    R6        2.94451   0.00673   0.00000   0.01685   0.01680   2.96131
    R7        2.89858   0.01023   0.00000   0.03455   0.03446   2.93304
    R8        2.07955  -0.00184   0.00000  -0.00515  -0.00515   2.07440
    R9        2.92703   0.01155   0.00000   0.03478   0.03465   2.96168
   R10        2.91711   0.00819   0.00000   0.03137   0.03172   2.94882
   R11        2.75597  -0.00561   0.00000  -0.01581  -0.01583   2.74014
   R12        2.91791   0.00544   0.00000   0.01998   0.01994   2.93785
   R13        2.91277   0.00502   0.00000   0.00941   0.00904   2.92181
   R14        2.91240   0.00566   0.00000   0.01899   0.01892   2.93132
   R15        2.07541  -0.00154   0.00000  -0.00428  -0.00428   2.07113
   R16        2.07499   0.00241   0.00000   0.00669   0.00669   2.08168
   R17        2.81369   0.01116   0.00000   0.02598   0.02579   2.83948
   R18        2.86479   0.01464   0.00000   0.05214   0.05171   2.91650
   R19        2.68567   0.00262   0.00000   0.00679   0.00683   2.69250
   R20        2.52585   0.01310   0.00000   0.02346   0.02361   2.54946
   R21        2.61938  -0.01928   0.00000  -0.04441  -0.04413   2.57525
   R22        2.79910   0.00122   0.00000  -0.00022  -0.00008   2.79902
   R23        2.79674   0.01710   0.00000   0.04655   0.04655   2.84330
   R24        2.32333  -0.00717   0.00000  -0.00767  -0.00767   2.31567
   R25        2.32685  -0.01848   0.00000  -0.01994  -0.01994   2.30690
   R26        2.88090   0.00244   0.00000   0.00760   0.00760   2.88850
   R27        2.90243   0.00428   0.00000   0.01378   0.01378   2.91621
   R28        2.88928   0.00735   0.00000   0.02320   0.02320   2.91249
   R29        2.07210  -0.00092   0.00000  -0.00254  -0.00254   2.06957
   R30        2.07309   0.00079   0.00000   0.00219   0.00219   2.07528
   R31        2.07274  -0.00007   0.00000  -0.00018  -0.00018   2.07256
   R32        2.87738   0.00911   0.00000   0.02823   0.02823   2.90561
   R33        2.07077  -0.00022   0.00000  -0.00060  -0.00060   2.07016
   R34        2.06909   0.00001   0.00000   0.00003   0.00003   2.06912
   R35        2.06913   0.00058   0.00000   0.00160   0.00160   2.07073
   R36        2.91154  -0.00016   0.00000   0.01146   0.01159   2.92313
   R37        2.90033   0.00575   0.00000   0.01952   0.01949   2.91982
[...]
     54          1           0        0.210040    4.010160   -3.080924
     55          1           0        0.743306    2.315438   -3.105779
     56          1           0        0.323967    4.335497    0.698319
     57          1           0        1.553021    4.837111   -0.472629
     58          1           0       -0.159323    5.182445   -0.787396
     59          1           0       -4.615765    1.312022    3.290730
     60          1           0       -4.343173    2.622153    2.127760
     61          1           0       -5.149207    1.147333    1.604608
     62          6           0        5.237020   -1.064839   -1.164400
     63          1           0        4.743814   -0.149316   -1.508374
     64          1           0        6.284414   -1.016171   -1.484168
     65          1           0        4.770955   -1.914551   -1.679077
 ---------------------------------------------------------------------
 Rotational constants (GHZ):      0.1873005      0.1393830      0.1122791

 **********************************************************************

            Population analysis using the SCF density.

 **********************************************************************

 Orbital symmetries:
       Occupied  (A) (A) (A) (A) (A) (A) (A) (A) (A) (A) (A) (A)
                 (A) (A) (A) (A) (A) (A) (A) (A) (A) (A) (A) (A)
                 (A) (A) (A) (A) (A) (A) (A) (A) (A) (A) (A) (A)
                 (A) (A) (A) (A) (A) (A) (A) (A) (A) (A) (A) (A)
                 (A) (A) (A) (A) (A) (A) (A) (A) (A) (A) (A) (A)
                 (A) (A) (A) (A) (A) (A) (A) (A) (A) (A) (A) (A)
                 (A) (A) (A) (A) (A) (A) (A) (A) (A) (A) (A) (A)
                 (A) (A) (A) (A) (A) (A) (A) (A) (A) (A) (A) (A)
                 (A) (A) (A) (A) (A) (A) (A) (A) (A) (A) (A) (A)
                 (A) (A) (A) (A) (A) (A) (A)
       Virtual   (A) (A) (A) (A) (A) (A) (A) (A) (A) (A) (A) (A)
                 (A) (A) (A) (A) (A) (A) (A) (A) (A) (A) (A) (A)
                 (A) (A) (A) (A) (A) (A) (A) (A) (A) (A) (A) (A)
                 (A) (A) (A) (A) (A) (A) (A) (A) (A) (A) (A) (A)
                 (A) (A) (A) (A) (A) (A) (A) (A) (A) (A) (A) (A)
                 (A) (A) (A) (A) (A) (A) (A) (A) (A) (A) (A) (A)
                 (A) (A) (A) (A) (A) (A) (A) (A) (A) (A) (A) (A)
                 (A) (A) (A) (A) (A) (A) (A) (A) (A) (A) (A) (A)
                 (A) (A) (A) (A) (A) (A) (A) (A) (A) (A) (A) (A)
                 (A) (A) (A) (A) (A) (A) (A) (A) (A) (A) (A) (A)
                 (A) (A) (A) (A) (A) (A) (A) (A) (A) (A) (A) (A)
                 (A) (A) (A) (A) (A) (A) (A) (A) (A) (A) (A) (A)
                 (A) (A) (A) (A) (A) (A) (A) (A) (A) (A) (A) (A)
                 (A) (A) (A) (A) (A) (A) (A) (A) (A) (A) (A) (A)
                 (A) (A) (A) (A) (A) (A) (A) (A) (A) (A) (A) (A)
                 (A) (A) (A) (A) (A) (A) (A) (A) (A) (A) (A) (A)
                 (A) (A) (A) (A) (A) (A) (A) (A) (A) (A) (A) (A)
                 (A) (A) (A) (A) (A) (A) (A) (A) (A) (A) (A) (A)
                 (A) (A) (A) (A) (A) (A) (A) (A) (A) (A) (A) (A)
                 (A) (A) (A) (A) (A) (A) (A) (A) (A) (A) (A) (A)
                 (A) (A) (A) (A) (A) (A) (A) (A) (A) (A) (A) (A)
                 (A) (A) (A) (A) (A) (A) (A) (A) (A) (A) (A) (A)
                 (A) (A) (A) (A) (A) (A) (A) (A) (A) (A) (A) (A)
                 (A) (A) (A) (A) (A) (A) (A) (A) (A) (A) (A) (A)
                 (A) (A) (A) (A) (A) (A) (A) (A) (A) (A) (A) (A)
                 (A) (A) (A) (A) (A) (A) (A) (A) (A) (A) (A) (A)
                 (A) (A) (A) (A) (A) (A) (A) (A) (A) (A) (A) (A)
                 (A) (A) (A) (A) (A) (A) (A) (A) (A) (A) (A) (A)
                 (A) (A) (A) (A) (A) (A) (A) (A) (A) (A) (A) (A)
                 (A) (A) (A) (A) (A) (A) (A) (A) (A) (A) (A) (A)
                 (A) (A) (A) (A) (A) (A) (A) (A) (A) (A) (A) (A)
                 (A) (A) (A) (A) (A) (A) (A) (A) (A) (A) (A) (A)
                 (A) (A) (A) (A) (A) (A) (A) (A) (A) (A) (A) (A)
                 (A) (A) (A) (A) (A) (A) (A) (A) (A) (A) (A) (A)
                 (A) (A) (A) (A) (A) (A) (A) (A) (A) (A)
 The electronic state is 1-A.
 Alpha  occ. eigenvalues --  -19.20162 -19.16946 -19.15471 -19.13451 -19.11510
 Alpha  occ. eigenvalues --  -10.27678 -10.27535 -10.26772 -10.26263 -10.26103
 Alpha  occ. eigenvalues --  -10.25816 -10.24743 -10.21631 -10.20656 -10.20614
 Alpha  occ. eigenvalues --  -10.20438 -10.20138 -10.20108 -10.19802 -10.19265
 Alpha  occ. eigenvalues --  -10.19201 -10.19090 -10.19000 -10.18657 -10.18302
 Alpha  occ. eigenvalues --  -10.18078 -10.17611 -10.17092 -10.16458 -10.16203
 Alpha  occ. eigenvalues --  -10.15592  -1.09797  -1.06280  -1.03459  -1.02390
 Alpha  occ. eigenvalues --   -1.01559  -0.87209  -0.83910  -0.82118  -0.81321
 Alpha  occ. eigenvalues --   -0.80038  -0.78674  -0.76865  -0.73990  -0.73213
 Alpha  occ. eigenvalues --   -0.72278  -0.71144  -0.70195  -0.68879  -0.68262
 Alpha  occ. eigenvalues --   -0.65086  -0.63686  -0.63238  -0.61679  -0.60819
 Alpha  occ. eigenvalues --   -0.59128  -0.58670  -0.56789  -0.54494  -0.53702
 Alpha  occ. eigenvalues --   -0.52795  -0.51820  -0.51232  -0.50085  -0.49207
 Alpha  occ. eigenvalues --   -0.47788  -0.47503  -0.47113  -0.46684  -0.46115
 Alpha  occ. eigenvalues --   -0.45072  -0.44610  -0.44158  -0.43567  -0.42666
 Alpha  occ. eigenvalues --   -0.42573  -0.41987  -0.41591  -0.41354  -0.41042
 Alpha  occ. eigenvalues --   -0.40796  -0.40656  -0.40301  -0.39833  -0.39685
 Alpha  occ. eigenvalues --   -0.39484  -0.39351  -0.38809  -0.38500  -0.37931
 Alpha  occ. eigenvalues --   -0.37627  -0.37255  -0.36933  -0.36534  -0.36058
 Alpha  occ. eigenvalues --   -0.35869  -0.35406  -0.34883  -0.34492  -0.34391
 Alpha  occ. eigenvalues --   -0.33925  -0.33560  -0.33026  -0.32410  -0.32032
 Alpha  occ. eigenvalues --   -0.31591  -0.31058  -0.30563  -0.27793  -0.27638
 Alpha  occ. eigenvalues --   -0.25352  -0.24768  -0.24353  -0.23604  -0.22162
 Alpha virt. eigenvalues --   -0.05232  -0.01338   0.00742   0.01333   0.05741
 Alpha virt. eigenvalues --    0.07268   0.08270   0.08528   0.09712   0.09896
 Alpha virt. eigenvalues --    0.10465   0.10913   0.11593   0.12052   0.12744
 Alpha virt. eigenvalues --    0.13034   0.13120   0.13598   0.13822   0.14311
 Alpha virt. eigenvalues --    0.14433   0.14736   0.15196   0.15432   0.15875
 Alpha virt. eigenvalues --    0.16257   0.16507   0.16694   0.17094   0.17587
 Alpha virt. eigenvalues --    0.17917   0.18137   0.18401   0.18886   0.19390
 Alpha virt. eigenvalues --    0.19483   0.19887   0.20165   0.20312   0.20728
 Alpha virt. eigenvalues --    0.21160   0.21302   0.21439   0.22117   0.22707
 Alpha virt. eigenvalues --    0.23073   0.23557   0.23930   0.23959   0.24942
 Alpha virt. eigenvalues --    0.25072   0.25607   0.26012   0.26420   0.26459
 Alpha virt. eigenvalues --    0.27219   0.27471   0.27636   0.28627   0.29665
 Alpha virt. eigenvalues --    0.31117   0.31862   0.32510   0.33299   0.34314
 Alpha virt. eigenvalues --    0.35197   0.35886   0.37359   0.38336   0.39989
 Alpha virt. eigenvalues --    0.40455   0.43246   0.45273   0.47264   0.47834
 Alpha virt. eigenvalues --    0.48279   0.49513   0.50438   0.50904   0.51014
 Alpha virt. eigenvalues --    0.51474   0.52016   0.52510   0.52797   0.53418
 Alpha virt. eigenvalues --    0.53439   0.54181   0.54883   0.55090   0.56402
 Alpha virt. eigenvalues --    0.56746   0.57162   0.57762   0.58129   0.59316
 Alpha virt. eigenvalues --    0.59458   0.59780   0.60751   0.61017   0.61400
 Alpha virt. eigenvalues --    0.62114   0.63042   0.63350   0.64204   0.64314
 Alpha virt. eigenvalues --    0.65186   0.66051   0.66404   0.67122   0.67475
 Alpha virt. eigenvalues --    0.67603   0.68209   0.69218   0.69792   0.70009
 Alpha virt. eigenvalues --    0.70549   0.70897   0.71666   0.72607   0.72636
 Alpha virt. eigenvalues --    0.73773   0.75020   0.75541   0.76033   0.76480
 Alpha virt. eigenvalues --    0.76864   0.77561   0.77768   0.78450   0.78800
 Alpha virt. eigenvalues --    0.79446   0.80140   0.80911   0.81276   0.81936
 Alpha virt. eigenvalues --    0.82647   0.83022   0.83796   0.84603   0.84845
 Alpha virt. eigenvalues --    0.85466   0.85583   0.85817   0.86867   0.87841
 Alpha virt. eigenvalues --    0.87950   0.88233   0.88425   0.88819   0.88859
 Alpha virt. eigenvalues --    0.89255   0.89772   0.90089   0.90334   0.90525
 Alpha virt. eigenvalues --    0.91354   0.91641   0.91921   0.92182   0.92574
 Alpha virt. eigenvalues --    0.93159   0.93350   0.93680   0.94490   0.94635
 Alpha virt. eigenvalues --    0.94711   0.95722   0.96159   0.96393   0.96829
 Alpha virt. eigenvalues --    0.97150   0.97565   0.98617   0.99475   0.99871
 Alpha virt. eigenvalues --    1.00310   1.00545   1.01666   1.02275   1.03628
 Alpha virt. eigenvalues --    1.04177   1.04986   1.06905   1.08042   1.08442
 Alpha virt. eigenvalues --    1.09747   1.10739   1.11551   1.12146   1.13096
 Alpha virt. eigenvalues --    1.13943   1.14403   1.16180   1.16813   1.17305
 Alpha virt. eigenvalues --    1.18848   1.19737   1.20242   1.21052   1.22074
 Alpha virt. eigenvalues --    1.22609   1.22911   1.24578   1.25279   1.28620
 Alpha virt. eigenvalues --    1.30015   1.31544   1.31853   1.32003   1.34165
 Alpha virt. eigenvalues --    1.36470   1.37021   1.38529   1.39066   1.40279
 Alpha virt. eigenvalues --    1.41949   1.42149   1.43806   1.45365   1.47094
 Alpha virt. eigenvalues --    1.48566   1.49770   1.51605   1.52433   1.53153
 Alpha virt. eigenvalues --    1.54017   1.55079   1.55427   1.56699   1.57417
 Alpha virt. eigenvalues --    1.58519   1.59178   1.60865   1.61695   1.63664
 Alpha virt. eigenvalues --    1.64085   1.65544   1.67047   1.68501   1.69068
 Alpha virt. eigenvalues --    1.69838   1.71690   1.72017   1.72927   1.73559
 Alpha virt. eigenvalues --    1.74569   1.75123   1.76484   1.77386   1.78146
 Alpha virt. eigenvalues --    1.78623   1.79411   1.79740   1.80682   1.81106
 Alpha virt. eigenvalues --    1.82023   1.82660   1.82873   1.84040   1.84750
 Alpha virt. eigenvalues --    1.85448   1.86153   1.86565   1.87319   1.87783
 Alpha virt. eigenvalues --    1.88544   1.88970   1.89925   1.90776   1.91290
 Alpha virt. eigenvalues --    1.92209   1.92535   1.93001   1.94008   1.94833
 Alpha virt. eigenvalues --    1.95377   1.96391   1.96887   1.97109   1.97769
 Alpha virt. eigenvalues --    1.97936   1.99036   2.00106   2.00188   2.01485
 Alpha virt. eigenvalues --    2.02899   2.03103   2.03531   2.04668   2.04947
 Alpha virt. eigenvalues --    2.06117   2.06441   2.06803   2.07727   2.08501
 Alpha virt. eigenvalues --    2.10314   2.11032   2.11912   2.12524   2.12951
 Alpha virt. eigenvalues --    2.14642   2.15454   2.16689   2.17852   2.18951
 Alpha virt. eigenvalues --    2.19371   2.20261   2.21139   2.21823   2.22658
 Alpha virt. eigenvalues --    2.23622   2.24352   2.25073   2.25754   2.26831
 Alpha virt. eigenvalues --    2.27391   2.28690   2.29222   2.30053   2.30997
 Alpha virt. eigenvalues --    2.31494   2.32422   2.32896   2.35059   2.35767
 Alpha virt. eigenvalues --    2.36567   2.36732   2.37772   2.38399   2.40197
 Alpha virt. eigenvalues --    2.41016   2.41203   2.42284   2.42513   2.43101
 Alpha virt. eigenvalues --    2.44592   2.44810   2.46887   2.47908   2.48801
 Alpha virt. eigenvalues --    2.50032   2.50716   2.51276   2.52049   2.54009
 Alpha virt. eigenvalues --    2.55109   2.56010   2.56903   2.58905   2.60500
 Alpha virt. eigenvalues --    2.61125   2.62311   2.63069   2.64458   2.65560
 Alpha virt. eigenvalues --    2.67497   2.68065   2.69006   2.70612   2.71322
 Alpha virt. eigenvalues --    2.72184   2.74198   2.74561   2.76569   2.77604
 Alpha virt. eigenvalues --    2.78395   2.79225   2.80030   2.80715   2.81976
 Alpha virt. eigenvalues --    2.86741   2.87996   2.90360   2.94227   2.94779
 Alpha virt. eigenvalues --    2.95924   2.97276   2.99108   3.01378   3.03071
 Alpha virt. eigenvalues --    3.04280   3.06428   3.09891   3.13801   3.17167
 Alpha virt. eigenvalues --    3.23011   3.29478   3.98178   4.08545   4.09321
 Alpha virt. eigenvalues --    4.12256   4.15083   4.15671   4.17472   4.18686
 Alpha virt. eigenvalues --    4.22872   4.25862   4.26772   4.28045   4.29407
 Alpha virt. eigenvalues --    4.32125   4.33538   4.36573   4.40295   4.43605
 Alpha virt. eigenvalues --    4.47008   4.49949   4.54651   4.56702   4.61086
 Alpha virt. eigenvalues --    4.65566   4.67804   4.70004   4.73981   4.76722
 Alpha virt. eigenvalues --    4.88388   4.93957   5.22358
          Condensed to atoms (all electrons):
 Mulliken atomic charges:
              1
     1  C   -0.198135
     2  C    0.204083
     3  C   -0.203224
     4  C    0.329059
     5  C   -0.036174
     6  C   -0.327414
     7  C    0.186911
     8  C    0.399748
     9  C   -0.070040
    10  C    0.397670
    11  C    0.410181
    12  O   -0.477671
    13  C   -0.148069
    14  C   -0.242939
    15  C   -0.458498
    16  O   -0.502240
    17  C   -0.152298
    18  C    0.290381
    19  O   -0.481642
    20  C   -0.309417
    21  O   -0.663689
    22  C   -0.350530
    23  C    0.094035
    24  O   -0.589281
    25  C    0.224759
    26  C   -0.541392
    27  C   -0.403396
    28  C   -0.467855
    29  C   -0.460072
    30  H    0.148349
    31  H    0.148859
    32  C   -0.521023
    33  H    0.126107
    34  H    0.162851
    35  H    0.164332
    36  H    0.159807
    37  H    0.121116
    38  H    0.150421
    39  H    0.151418
    40  H    0.149838
    41  H    0.146339
    42  H    0.161649
    43  H    0.152695
    44  H    0.430475
    45  H    0.194994
    46  H    0.152649
    47  H    0.130867
    48  H    0.187885
    49  H    0.152524
    50  H    0.161217
    51  H    0.140553
    52  H    0.137510
    53  H    0.164559
    54  H    0.145093
    55  H    0.193352
    56  H    0.161990
    57  H    0.171771
    58  H    0.150138
    59  H    0.158223
    60  H    0.155883
    61  H    0.157420
    62  C   -0.453752
    63  H    0.156909
    64  H    0.137200
    65  H    0.136929
 Sum of Mulliken atomic charges =   0.00000
 Mulliken charges with hydrogens summed into heavy atoms:
              1
     1  C   -0.072028
     2  C    0.204083
     3  C   -0.054365
     4  C    0.329059
     5  C   -0.036174
     6  C   -0.000231
     7  C    0.186911
     8  C    0.399748
     9  C   -0.070040
    10  C    0.397670
    11  C    0.410181
    12  O   -0.477671
    13  C    0.011738
    14  C    0.028598
    15  C   -0.010903
    16  O   -0.502240
    17  C   -0.003949
    18  C    0.290381
    19  O   -0.481642
    20  C    0.004927
    21  O   -0.233214
    22  C   -0.002886
    23  C    0.224902
    24  O   -0.589281
    25  C    0.224759
    26  C   -0.039765
    27  C   -0.125332
    28  C    0.035149
    29  C    0.023828
    32  C   -0.049498
    62  C   -0.022715
 Sum of Mulliken charges with hydrogens summed into heavy atoms =   0.00000
 Electronic spatial extent (au):  <R**2>=          11409.4001
 Charge=              0.0000 electrons
 Dipole moment (field-independent basis, Debye):
    X=             -5.3800    Y=              2.1583    Z=              0.2447  Tot=              5.8019
 Quadrupole moment (field-independent basis, Debye-Ang):
   XX=           -189.0282   YY=           -176.5832   ZZ=           -182.0834
   XY=             -5.3408   XZ=             -4.5193   YZ=             -2.1117
 Traceless Quadrupole moment (field-independent basis, Debye-Ang):
   XX=             -6.4633   YY=              5.9817   ZZ=              0.4815
   XY=             -5.3408   XZ=             -4.5193   YZ=             -2.1117
 Octapole moment (field-independent basis, Debye-Ang**2):
  XXX=            -50.2334  YYY=             58.9889  ZZZ=              3.8902  XYY=            -19.4175
  XXY=            -18.8940  XXZ=             -0.3738  XZZ=             -5.0417  YZZ=             -1.2899
  YYZ=            -35.6899  XYZ=             -9.0245
 Hexadecapole moment (field-independent basis, Debye-Ang**3):
 XXXX=          -7604.1864 YYYY=          -4932.3938 ZZZZ=          -2682.4052 XXXY=            -62.2951
 XXXZ=            -33.6565 YYYX=             37.6427 YYYZ=             -3.5702 ZZZX=             -5.2158
 ZZZY=            -11.2057 XXYY=          -2089.3221 XXZZ=          -1711.8506 YYZZ=          -1240.9149
 XXYZ=            -22.4204 YYXZ=             16.8251 ZZXY=             20.4650
 N-N= 3.517593074728D+03 E-N=-1.026149890663D+04  KE= 1.374456355474D+03
 1\1\GINC-B0803\FOpt\RB3LYP\6-31G(d)\C26H34O5\CAOFEI\24-Mar-2021\0\\# o
 pt rb3lyp/6-31g(d) geom=connectivity\\Title Card Required\\0,1\C,-0.11
 19066689,-0.0166836094,-0.2503384799\C,1.2064417904,-0.2063892169,-0.1
 160261552\C,2.1360217047,0.9860304449,-0.104396655\C,1.5435046333,2.31
 01161594,0.4826167911\C,-0.0069339923,2.3900561369,0.5762513446\C,-0.7
 186893695,1.3584596965,-0.3520662033\C,2.1893609154,3.4393096994,-0.38
 97664374\C,1.2228297197,4.0372830962,-1.4023240904\C,-0.0681724457,4.3
 725593076,-1.0884651612\C,-0.5829740595,3.7875757802,0.168501612\C,-0.
 8740256175,5.2461912187,-2.005647035\O,-0.533627292,5.3744157895,-3.17
 4232464\C,-2.1188856645,5.978356867,-1.4860411775\C,-2.2573233562,7.35
 51947273,-2.160552977\C,-3.3547424172,5.0961711249,-1.765530909\O,-1.5
 314522325,4.2416594251,0.799212053\C,3.2295535086,2.7931681756,-1.3282
 438327\C,3.2243916788,3.7333729026,-2.5532559052\O,1.8303120198,4.2579
 454819,-2.55929191\C,2.6704694403,1.3704806789,-1.5108145653\O,2.68341
 2159,4.500725383,0.4028124386\C,-0.3041372037,2.0733789411,2.058670973
 3\C,1.0210085576,2.250289283,2.8288258816\O,2.0296317331,2.5112419806,
 1.8157413082\C,1.0472181876,3.3520069899,3.8689037555\C,0.6897289761,4
 .7538882706,3.4389384579\C,1.3673138923,3.0493428731,5.1312899948\C,4.
 1602820988,4.9309798114,-2.3757422782\C,3.4220648775,3.0723003066,-3.9
 132931411\H,4.2147211899,2.7678828351,-0.8530962504\H,3.0055215314,0.7
 637616285,0.5281314673\C,1.8362627599,-1.5711009854,-0.0209296996\H,-0
 .7830235641,-0.8729204406,-0.2966011347\H,-1.7797676761,1.3343160844,-
 0.0789293819\H,-0.685384331,1.7119309358,-1.3920042387\H,-2.0330734879
 ,6.1029360894,-0.4040277842\H,-3.2289713037,7.776344736,-1.8687947203\
 H,-2.2808944576,7.2167536732,-3.2471834864\H,-3.4559361329,4.904505005
 4,-2.8401072789\H,-3.29227355,4.136289687,-1.2433386771\H,-4.263329653
 8,5.6025032348,-1.4202972979\H,1.8417600589,1.3658149118,-2.2289609481
 \H,3.4175584043,0.6600180696,-1.8778159163\H,2.7694448539,4.1095417938
 ,1.2976455605\H,-1.0981081902,2.7299050686,2.4192063081\H,-0.647714303
 6,1.0410650201,2.160594524\H,1.3006061015,1.3100401447,3.3180489753\H,
 -0.3529764338,4.8209489954,3.1065828105\H,0.8328523702,5.4617571998,4.
 2604768669\H,1.2993003028,5.0857069758,2.5908992917\H,1.3789172147,3.8
 027648964,5.9148630597\H,1.623117325,2.0355988071,5.430686726\H,3.9736
 110134,5.6695675431,-3.1615916113\H,5.2035398767,4.6035017041,-2.45055
 55064\H,4.0121953931,5.4008044609,-1.4007567765\H,2.6927261253,2.27808
 67625,-4.0906045086\H,3.3150663717,3.8152672224,-4.7095386404\H,4.4281
 676364,2.6432865256,-3.9761067264\H,1.0859206921,-2.3661318277,-0.0765
 846417\H,2.5619746306,-1.7354923028,-0.8294505048\H,2.388949625,-1.687
 6067238,0.9216177717\C,-1.1439818432,8.3417773242,-1.7921760277\H,-0.1
 666595832,7.977740031,-2.1269468064\H,-1.3123655693,9.3172554689,-2.26
 30716596\H,-1.0931289697,8.5000517194,-0.7075183706\\Version=EM64L-G09
 RevB.01\State=1-A\HF=-1387.3224124\RMSD=9.588e-09\RMSF=2.243e-06\Dipol
 e=1.282527,-1.8437796,0.4075149\Quadrupole=2.1971664,1.6735571,-3.8707
 234,0.1768709,-5.2194237,3.5271368\PG=C01 [X(C26H34O5)]\\@


 IT IS NOT EASY TO DESCRIBE
     THE SEA WITH THE MOUTH

                   -- KOKYU
 Job cpu time:  1 days  2 hours 59 minutes 41.9 seconds.
 File lengths (MBytes):  RWF=    186 Int=      0 D2E=      0 Chk=     20 Scr=      1
 Normal termination of Gaussian 09 at Wed Mar 24 17:30:19 2021.
