 Entering Gaussian System, Link 0=g09
 Initial command:
 /public/software/g09/g09/l1.exe /tmp/Gau-14246.inp -scrdir=/tmp/
 Entering Link 1 = /public/software/g09/g09/l1.exe PID=     14247.
  
 Copyright (c) 1988,1990,1992,1993,1995,1998,2003,2009,2010,
            Gaussian, Inc.  All Rights Reserved.
  
 This is part of the Gaussian(R) 09 program.  It is based on
 the Gaussian(R) 03 system (copyright 2003, Gaussian, Inc.),
 the Gaussian(R) 98 system (copyright 1998, Gaussian, Inc.),
 the Gaussian(R) 94 system (copyright 1995, Gaussian, Inc.),
 the Gaussian 92(TM) system (copyright 1992, Gaussian, Inc.),
 the Gaussian 90(TM) system (copyright 1990, Gaussian, Inc.),
 the Gaussian 88(TM) system (copyright 1988, Gaussian, Inc.),
 the Gaussian 86(TM) system (copyright 1986, Carnegie Mellon
 University), and the Gaussian 82(TM) system (copyright 1983,
 Carnegie Mellon University). Gaussian is a federally registered
 trademark of Gaussian, Inc.
  
 This software contains proprietary and confidential information,
 including trade secrets, belonging to Gaussian, Inc.
  
 This software is provided under written license and may be
 used, copied, transmitted, or stored only in accord with that
 written license.
  
 The following legend is applicable only to US Government
 contracts under FAR:
  
                    RESTRICTED RIGHTS LEGEND
  
 Use, reproduction and disclosure by the US Government is
 subject to restrictions as set forth in subparagraphs (a)
 and (c) of the Commercial Computer Software - Restricted
 Rights clause in FAR 52.227-19.
  
 Gaussian, Inc.
 340 Quinnipiac St., Bldg. 40, Wallingford CT 06492
  
  
 ---------------------------------------------------------------
 Warning -- This program may not be used in any manner that
 competes with the business of Gaussian, Inc. or will provide
 assistance to any competitor of Gaussian, Inc.  The licensee
 of this program is prohibited from giving any competitor of
 Gaussian, Inc. access to this program.  By using this program,
 the user acknowledges that Gaussian, Inc. is engaged in the
 business of creating and licensing software in the field of
 computational chemistry and represents and warrants to the
 licensee that it is not a competitor of Gaussian, Inc. and that
 it will not use this program in any manner prohibited above.
 ---------------------------------------------------------------
  

 Cite this work as:
 Gaussian 09, Revision B.01,
 M. J. Frisch, G. W. Trucks, H. B. Schlegel, G. E. Scuseria, 
 M. A. Robb, J. R. Cheeseman, G. Scalmani, V. Barone, B. Mennucci, 
 G. A. Petersson, H. Nakatsuji, M. Caricato, X. Li, H. P. Hratchian, 
 A. F. Izmaylov, J. Bloino, G. Zheng, J. L. Sonnenberg, M. Hada, 
 M. Ehara, K. Toyota, R. Fukuda, J. Hasegawa, M. Ishida, T. Nakajima, 
 Y. Honda, O. Kitao, H. Nakai, T. Vreven, J. A. Montgomery, Jr., 
 J. E. Peralta, F. Ogliaro, M. Bearpark, J. J. Heyd, E. Brothers, 
 K. N. Kudin, V. N. Staroverov, T. Keith, R. Kobayashi, J. Normand, 
 K. Raghavachari, A. Rendell, J. C. Burant, S. S. Iyengar, J. Tomasi, 
 M. Cossi, N. Rega, J. M. Millam, M. Klene, J. E. Knox, J. B. Cross, 
 V. Bakken, C. Adamo, J. Jaramillo, R. Gomperts, R. E. Stratmann, 
 O. Yazyev, A. J. Austin, R. Cammi, C. Pomelli, J. W. Ochterski, 
 R. L. Martin, K. Morokuma, V. G. Zakrzewski, G. A. Voth, 
 P. Salvador, J. J. Dannenberg, S. Dapprich, A. D. Daniels, 
 O. Farkas, J. B. Foresman, J. V. Ortiz, J. Cioslowski, 
 and D. J. Fox, Gaussian, Inc., Wallingford CT, 2010.
 
 ******************************************
 Gaussian 09:  EM64L-G09RevB.01 12-Aug-2010
                24-Mar-2021 
 ******************************************
 %mem=600MW
 %nprocshared=10
 Will use up to   10 processors via shared memory.
 ---------------------------------------
 # opt rb3lyp/6-31g(d) geom=connectivity
 ---------------------------------------
 1/14=-1,18=20,19=15,26=3,38=1,57=2/1,3;
 2/9=110,12=2,17=6,18=5,40=1/2;
 3/5=1,6=6,7=1,11=2,16=1,25=1,30=1,71=1,74=-5,116=1/1,2,3;
 4//1;
 5/5=2,38=5/2;
 6/7=2,8=2,9=2,10=2,28=1/1;
 7//1,2,3,16;
 1/14=-1,18=20,19=15/3(2);
 2/9=110/2;
 99//99;
 2/9=110/2;
 3/5=1,6=6,7=1,11=2,16=1,25=1,30=1,71=1,74=-5,116=1/1,2,3;
 4/5=5,16=3/1;
 5/5=2,38=5/2;
 7//1,2,3,16;
 1/14=-1,18=20,19=15/3(-5);
 2/9=110/2;
 6/7=2,8=2,9=2,10=2,19=2,28=1/1;
 99/9=1/99;
 -------------------
 Title Card Required
 -------------------
 Symbolic Z-matrix:
 Charge =  0 Multiplicity = 1
 C                     0.        0.        0. 
 C                     1.34      0.        0. 
 C                     2.1232    1.2839    0. 
 C                     1.3727    2.5519    0.5048 
 C                    -0.1733    2.4921    0.6019 
 C                    -0.8128    1.2505   -0.0561 
 C                     1.9308    3.6948   -0.3703 
 C                     1.0251    4.1732   -1.4509 
 C                    -0.3027    4.2169   -1.3186 
 C                    -0.8752    3.6904   -0.0629 
 C                    -1.1675    4.6747   -2.425 
 O                    -1.4432    3.891    -3.3332 
 C                    -1.6893    6.1076   -2.3604 
 C                    -0.6411    7.1117   -2.8651 
 C                    -3.0255    6.2276   -3.0917 
 O                    -1.9513    4.1281    0.3424 
 C                     3.0694    3.1359   -1.202 
 C                     3.0524    4.0213   -2.4628 
 O                     1.682     4.4527   -2.6399 
 C                     2.6514    1.6695   -1.3862 
 O                     2.335     4.8104    0.4102 
 C                    -0.4358    2.5381    2.1204 
 C                     0.8958    2.1787    2.7535 
 O                     1.8442    2.789     1.8678 
 C                     1.1734    2.6446    4.1632 
 C                     2.5827    2.4159    4.6463 
 C                     0.2613    3.1932    4.9844 
 C                     3.9186    5.28     -2.3002 
 C                     3.4903    3.2871   -3.7328 
 H                     4.0362    3.1877   -0.686 
 H                     2.9929    1.1293    0.657 
 C                     2.1322   -1.277    -0.0081 
 H                    -0.5472   -0.9404   -0.0255 
 H                    -1.7874    1.0528    0.4097 
 H                    -1.0363    1.4348   -1.1158 
 H                    -1.8862    6.3358   -1.3047 
 H                     0.2789    7.0098   -2.2774 
 H                    -1.0084    8.1297   -2.685 
 H                    -3.4095    7.2514   -3.0366 
 H                    -3.7698    5.5634   -2.638 
 H                    -2.9455    5.947    -4.1468 
 H                     1.8653    1.553    -2.1424 
 H                     3.5014    1.049    -1.6896 
 H                     2.4772    4.463     1.3166 
 H                    -1.235     1.8677    2.454 
 H                    -0.7232    3.5551    2.4149 
 H                     1.0444    1.0918    2.7213 
 H                     3.2916    3.0144    4.0652 
 H                     2.708     2.6874    5.7001 
 H                     2.8517    1.3594    4.5445 
 H                     0.5223    3.4978    5.9941 
 H                    -0.77      3.3546    4.6899 
 H                     3.8537    5.911    -3.1945 
 H                     4.9698    5.0217   -2.1358 
 H                     3.5818    5.9085   -1.4707 
 H                     2.7974    2.4815   -3.9961 
 H                     3.4885    3.9667   -4.5932 
 H                     4.4963    2.8689   -3.6266 
 H                     1.4869   -2.1617   -0.0095 
 H                     2.7673   -1.3275   -0.8981 
 H                     2.7705   -1.333     0.8796 
 C                    -0.2856    6.9824   -4.3407 
 H                    -1.1477    7.191    -4.9809 
 H                     0.4974    7.7031   -4.5986 
 H                     0.0906    5.9835   -4.5792 
 

 GradGradGradGradGradGradGradGradGradGradGradGradGradGradGradGradGradGrad
 Berny optimization.
 Initialization pass.
                           ----------------------------
                           !    Initial Parameters    !
                           ! (Angstroms and Degrees)  !
 --------------------------                            --------------------------
 ! Name  Definition              Value          Derivative Info.                !
 --------------------------------------------------------------------------------
 ! R1    R(1,2)                  1.34           estimate D2E/DX2                !
 ! R2    R(1,6)                  1.4925         estimate D2E/DX2                !
 ! R3    R(1,33)                 1.0883         estimate D2E/DX2                !
 ! R4    R(2,3)                  1.5039         estimate D2E/DX2                !
 ! R5    R(2,32)                 1.5028         estimate D2E/DX2                !
 ! R6    R(3,4)                  1.5575         estimate D2E/DX2                !
 ! R7    R(3,20)                 1.5327         estimate D2E/DX2                !
 ! R8    R(3,31)                 1.1009         estimate D2E/DX2                !
 ! R9    R(4,5)                  1.5502         estimate D2E/DX2                !
 ! R10   R(4,7)                  1.5439         estimate D2E/DX2                !
 ! R11   R(4,24)                 1.4616         estimate D2E/DX2                !
 ! R12   R(5,6)                  1.5439         estimate D2E/DX2                !
 ! R13   R(5,10)                 1.5397         estimate D2E/DX2                !
 ! R14   R(5,22)                 1.5417         estimate D2E/DX2                !
 ! R15   R(6,34)                 1.0981         estimate D2E/DX2                !
 ! R16   R(6,35)                 1.0986         estimate D2E/DX2                !
 ! R17   R(7,8)                  1.4889         estimate D2E/DX2                !
 ! R18   R(7,17)                 1.5167         estimate D2E/DX2                !
 ! R19   R(7,21)                 1.4203         estimate D2E/DX2                !
 ! R20   R(8,9)                  1.3351         estimate D2E/DX2                !
 ! R21   R(8,19)                 1.3869         estimate D2E/DX2                !
 ! R22   R(9,10)                 1.4771         estimate D2E/DX2                !
 ! R23   R(9,11)                 1.477          estimate D2E/DX2                !
 ! R24   R(10,16)                1.2304         estimate D2E/DX2                !
 ! R25   R(11,12)                1.2309         estimate D2E/DX2                !
 ! R26   R(11,13)                1.5263         estimate D2E/DX2                !
 ! R27   R(13,14)                1.5368         estimate D2E/DX2                !
 ! R28   R(13,15)                1.5279         estimate D2E/DX2                !
 ! R29   R(13,36)                1.0979         estimate D2E/DX2                !
 ! R30   R(14,37)                1.0964         estimate D2E/DX2                !
 ! R31   R(14,38)                1.0971         estimate D2E/DX2                !
 ! R32   R(14,62)                1.5233         estimate D2E/DX2                !
 ! R33   R(15,39)                1.0948         estimate D2E/DX2                !
 ! R34   R(15,40)                1.0959         estimate D2E/DX2                !
 ! R35   R(15,41)                1.0947         estimate D2E/DX2                !
 ! R36   R(17,18)                1.5407         estimate D2E/DX2                !
 ! R37   R(17,20)                1.5359         estimate D2E/DX2                !
 ! R38   R(17,30)                1.0971         estimate D2E/DX2                !
 ! R39   R(18,19)                1.4476         estimate D2E/DX2                !
 ! R40   R(18,28)                1.5366         estimate D2E/DX2                !
 ! R41   R(18,29)                1.5309         estimate D2E/DX2                !
 ! R42   R(20,42)                1.097          estimate D2E/DX2                !
 ! R43   R(20,43)                1.0952         estimate D2E/DX2                !
 ! R44   R(21,44)                0.9811         estimate D2E/DX2                !
 ! R45   R(22,23)                1.5176         estimate D2E/DX2                !
 ! R46   R(22,45)                1.0952         estimate D2E/DX2                !
 ! R47   R(22,46)                1.0971         estimate D2E/DX2                !
 ! R48   R(23,24)                1.434          estimate D2E/DX2                !
 ! R49   R(23,25)                1.5104         estimate D2E/DX2                !
 ! R50   R(23,47)                1.0975         estimate D2E/DX2                !
 ! R51   R(24,44)                1.8726         estimate D2E/DX2                !
 ! R52   R(25,26)                1.5073         estimate D2E/DX2                !
 ! R53   R(25,27)                1.3443         estimate D2E/DX2                !
 ! R54   R(26,48)                1.0947         estimate D2E/DX2                !
 ! R55   R(26,49)                1.0954         estimate D2E/DX2                !
 ! R56   R(26,50)                1.095          estimate D2E/DX2                !
 ! R57   R(27,51)                1.0865         estimate D2E/DX2                !
 ! R58   R(27,52)                1.0846         estimate D2E/DX2                !
 ! R59   R(28,53)                1.0964         estimate D2E/DX2                !
 ! R60   R(28,54)                1.0949         estimate D2E/DX2                !
 ! R61   R(28,55)                1.0939         estimate D2E/DX2                !
 ! R62   R(29,56)                1.0947         estimate D2E/DX2                !
 ! R63   R(29,57)                1.0964         estimate D2E/DX2                !
 ! R64   R(29,58)                1.0946         estimate D2E/DX2                !
 ! R65   R(32,59)                1.095          estimate D2E/DX2                !
 ! R66   R(32,60)                1.0945         estimate D2E/DX2                !
 ! R67   R(32,61)                1.0948         estimate D2E/DX2                !
 ! R68   R(62,63)                1.0939         estimate D2E/DX2                !
 ! R69   R(62,64)                1.095          estimate D2E/DX2                !
 ! R70   R(62,65)                1.0937         estimate D2E/DX2                !
 ! A1    A(2,1,6)              122.9967         estimate D2E/DX2                !
 ! A2    A(2,1,33)             120.1851         estimate D2E/DX2                !
 ! A3    A(6,1,33)             116.6978         estimate D2E/DX2                !
 ! A4    A(1,2,3)              121.3839         estimate D2E/DX2                !
 ! A5    A(1,2,32)             121.8133         estimate D2E/DX2                !
 ! A6    A(3,2,32)             116.8019         estimate D2E/DX2                !
 ! A7    A(2,3,4)              116.3638         estimate D2E/DX2                !
 ! A8    A(2,3,20)             113.2184         estimate D2E/DX2                !
 ! A9    A(2,3,31)             106.9492         estimate D2E/DX2                !
 ! A10   A(4,3,20)             104.7358         estimate D2E/DX2                !
 ! A11   A(4,3,31)             107.552          estimate D2E/DX2                !
 ! A12   A(20,3,31)            107.6275         estimate D2E/DX2                !
 ! A13   A(3,4,5)              117.9982         estimate D2E/DX2                !
 ! A14   A(3,4,7)              104.1687         estimate D2E/DX2                !
 ! A15   A(3,4,24)             106.1922         estimate D2E/DX2                !
 ! A16   A(5,4,7)              115.124          estimate D2E/DX2                !
 ! A17   A(5,4,24)             105.6382         estimate D2E/DX2                !
 ! A18   A(7,4,24)             106.9707         estimate D2E/DX2                !
 ! A19   A(4,5,6)              114.6723         estimate D2E/DX2                !
 ! A20   A(4,5,10)             113.4268         estimate D2E/DX2                !
 ! A21   A(4,5,22)             103.3175         estimate D2E/DX2                !
 ! A22   A(6,5,10)             104.6581         estimate D2E/DX2                !
 ! A23   A(6,5,22)             111.9166         estimate D2E/DX2                !
 ! A24   A(10,5,22)            108.9318         estimate D2E/DX2                !
 ! A25   A(1,6,5)              115.6085         estimate D2E/DX2                !
 ! A26   A(1,6,34)             108.4539         estimate D2E/DX2                !
 ! A27   A(1,6,35)             106.7151         estimate D2E/DX2                !
 ! A28   A(5,6,34)             109.3674         estimate D2E/DX2                !
 ! A29   A(5,6,35)             111.1293         estimate D2E/DX2                !
 ! A30   A(34,6,35)            104.9992         estimate D2E/DX2                !
 ! A31   A(4,7,8)              115.4261         estimate D2E/DX2                !
 ! A32   A(4,7,17)             108.0232         estimate D2E/DX2                !
 ! A33   A(4,7,21)             111.8929         estimate D2E/DX2                !
 ! A34   A(8,7,17)             100.1991         estimate D2E/DX2                !
 ! A35   A(8,7,21)             108.6374         estimate D2E/DX2                !
 ! A36   A(17,7,21)            112.1569         estimate D2E/DX2                !
 ! A37   A(7,8,9)              122.9272         estimate D2E/DX2                !
 ! A38   A(7,8,19)             113.5065         estimate D2E/DX2                !
 ! A39   A(9,8,19)             123.3284         estimate D2E/DX2                !
 ! A40   A(8,9,10)             117.2614         estimate D2E/DX2                !
 ! A41   A(8,9,11)             121.2131         estimate D2E/DX2                !
 ! A42   A(10,9,11)            121.3561         estimate D2E/DX2                !
 ! A43   A(5,10,9)             117.8914         estimate D2E/DX2                !
 ! A44   A(5,10,16)            122.2323         estimate D2E/DX2                !
 ! A45   A(9,10,16)            119.487          estimate D2E/DX2                !
 ! A46   A(9,11,12)            119.1115         estimate D2E/DX2                !
 ! A47   A(9,11,13)            117.351          estimate D2E/DX2                !
 ! A48   A(12,11,13)           123.5313         estimate D2E/DX2                !
 ! A49   A(11,13,14)           111.4883         estimate D2E/DX2                !
 ! A50   A(11,13,15)           110.6365         estimate D2E/DX2                !
 ! A51   A(11,13,36)           107.2861         estimate D2E/DX2                !
 ! A52   A(14,13,15)           112.8291         estimate D2E/DX2                !
 ! A53   A(14,13,36)           107.5968         estimate D2E/DX2                !
 ! A54   A(15,13,36)           106.6822         estimate D2E/DX2                !
 ! A55   A(13,14,37)           109.6068         estimate D2E/DX2                !
 ! A56   A(13,14,38)           108.9051         estimate D2E/DX2                !
 ! A57   A(13,14,62)           114.9513         estimate D2E/DX2                !
 ! A58   A(37,14,38)           106.21           estimate D2E/DX2                !
 ! A59   A(37,14,62)           108.3917         estimate D2E/DX2                !
 ! A60   A(38,14,62)           108.4154         estimate D2E/DX2                !
 ! A61   A(13,15,39)           110.8594         estimate D2E/DX2                !
 ! A62   A(13,15,40)           110.3768         estimate D2E/DX2                !
 ! A63   A(13,15,41)           112.1642         estimate D2E/DX2                !
 ! A64   A(39,15,40)           107.9213         estimate D2E/DX2                !
 ! A65   A(39,15,41)           108.2904         estimate D2E/DX2                !
 ! A66   A(40,15,41)           107.0557         estimate D2E/DX2                !
 ! A67   A(7,17,18)            103.2194         estimate D2E/DX2                !
 ! A68   A(7,17,20)            102.3143         estimate D2E/DX2                !
 ! A69   A(7,17,30)            112.7199         estimate D2E/DX2                !
 ! A70   A(18,17,20)           116.5845         estimate D2E/DX2                !
 ! A71   A(18,17,30)           111.5595         estimate D2E/DX2                !
 ! A72   A(20,17,30)           109.957          estimate D2E/DX2                !
 ! A73   A(17,18,19)           106.3688         estimate D2E/DX2                !
 ! A74   A(17,18,28)           112.2053         estimate D2E/DX2                !
 ! A75   A(17,18,29)           113.584          estimate D2E/DX2                !
 ! A76   A(19,18,28)           107.6073         estimate D2E/DX2                !
 ! A77   A(19,18,29)           108.1931         estimate D2E/DX2                !
 ! A78   A(28,18,29)           108.6262         estimate D2E/DX2                !
 ! A79   A(8,19,18)            106.4669         estimate D2E/DX2                !
 ! A80   A(3,20,17)            103.0334         estimate D2E/DX2                !
 ! A81   A(3,20,42)            110.4737         estimate D2E/DX2                !
 ! A82   A(3,20,43)            112.0523         estimate D2E/DX2                !
 ! A83   A(17,20,42)           112.2776         estimate D2E/DX2                !
 ! A84   A(17,20,43)           111.2791         estimate D2E/DX2                !
 ! A85   A(42,20,43)           107.7591         estimate D2E/DX2                !
 ! A86   A(7,21,44)            105.7138         estimate D2E/DX2                !
 ! A87   A(5,22,23)            104.7396         estimate D2E/DX2                !
 ! A88   A(5,22,45)            113.954          estimate D2E/DX2                !
 ! A89   A(5,22,46)            109.6734         estimate D2E/DX2                !
 ! A90   A(23,22,45)           111.6082         estimate D2E/DX2                !
 ! A91   A(23,22,46)           109.7187         estimate D2E/DX2                !
 ! A92   A(45,22,46)           107.1281         estimate D2E/DX2                !
 ! A93   A(22,23,24)           102.8178         estimate D2E/DX2                !
 ! A94   A(22,23,25)           118.5264         estimate D2E/DX2                !
 ! A95   A(22,23,47)           109.944          estimate D2E/DX2                !
 ! A96   A(24,23,25)           108.8822         estimate D2E/DX2                !
 ! A97   A(24,23,47)           108.2893         estimate D2E/DX2                !
 ! A98   A(25,23,47)           107.9375         estimate D2E/DX2                !
 ! A99   A(4,24,23)            107.0725         estimate D2E/DX2                !
 ! A100  A(23,25,26)           115.0991         estimate D2E/DX2                !
 ! A101  A(23,25,27)           124.8409         estimate D2E/DX2                !
 ! A102  A(26,25,27)           120.0337         estimate D2E/DX2                !
 ! A103  A(25,26,48)           110.6333         estimate D2E/DX2                !
 ! A104  A(25,26,49)           112.1906         estimate D2E/DX2                !
 ! A105  A(25,26,50)           110.2619         estimate D2E/DX2                !
 ! A106  A(48,26,49)           107.5226         estimate D2E/DX2                !
 ! A107  A(48,26,50)           108.607          estimate D2E/DX2                !
 ! A108  A(49,26,50)           107.487          estimate D2E/DX2                !
 ! A109  A(25,27,51)           121.2731         estimate D2E/DX2                !
 ! A110  A(25,27,52)           122.6831         estimate D2E/DX2                !
 ! A111  A(51,27,52)           116.0431         estimate D2E/DX2                !
 ! A112  A(18,28,53)           110.5945         estimate D2E/DX2                !
 ! A113  A(18,28,54)           111.3379         estimate D2E/DX2                !
 ! A114  A(18,28,55)           112.1692         estimate D2E/DX2                !
 ! A115  A(53,28,54)           108.3653         estimate D2E/DX2                !
 ! A116  A(53,28,55)           105.6425         estimate D2E/DX2                !
 ! A117  A(54,28,55)           108.4999         estimate D2E/DX2                !
 ! A118  A(18,29,56)           111.8019         estimate D2E/DX2                !
 ! A119  A(18,29,57)           110.6868         estimate D2E/DX2                !
 ! A120  A(18,29,58)           111.4456         estimate D2E/DX2                !
 ! A121  A(56,29,57)           105.4471         estimate D2E/DX2                !
 ! A122  A(56,29,58)           108.8981         estimate D2E/DX2                !
 ! A123  A(57,29,58)           108.3276         estimate D2E/DX2                !
 ! A124  A(2,32,59)            112.0792         estimate D2E/DX2                !
 ! A125  A(2,32,60)            110.4548         estimate D2E/DX2                !
 ! A126  A(2,32,61)            110.2699         estimate D2E/DX2                !
 ! A127  A(59,32,60)           107.6752         estimate D2E/DX2                !
 ! A128  A(59,32,61)           107.6552         estimate D2E/DX2                !
 ! A129  A(60,32,61)           108.5816         estimate D2E/DX2                !
 ! A130  A(14,62,63)           111.5191         estimate D2E/DX2                !
 ! A131  A(14,62,64)           109.8257         estimate D2E/DX2                !
 ! A132  A(14,62,65)           111.6557         estimate D2E/DX2                !
 ! A133  A(63,62,64)           107.4696         estimate D2E/DX2                !
 ! A134  A(63,62,65)           108.5193         estimate D2E/DX2                !
 ! A135  A(64,62,65)           107.686          estimate D2E/DX2                !
 ! D1    D(6,1,2,3)              2.5687         estimate D2E/DX2                !
 ! D2    D(6,1,2,32)          -177.0679         estimate D2E/DX2                !
 ! D3    D(33,1,2,3)           178.4467         estimate D2E/DX2                !
 ! D4    D(33,1,2,32)           -1.1898         estimate D2E/DX2                !
 ! D5    D(2,1,6,5)            -30.8056         estimate D2E/DX2                !
 ! D6    D(2,1,6,34)          -154.0101         estimate D2E/DX2                !
 ! D7    D(2,1,6,35)            93.341          estimate D2E/DX2                !
 ! D8    D(33,1,6,5)           153.1824         estimate D2E/DX2                !
 ! D9    D(33,1,6,34)           29.9779         estimate D2E/DX2                !
 ! D10   D(33,1,6,35)          -82.671          estimate D2E/DX2                !
 ! D11   D(1,2,3,4)             21.2062         estimate D2E/DX2                !
 ! D12   D(1,2,3,20)          -100.2279         estimate D2E/DX2                !
 ! D13   D(1,2,3,31)           141.3987         estimate D2E/DX2                !
 ! D14   D(32,2,3,4)          -159.1398         estimate D2E/DX2                !
 ! D15   D(32,2,3,20)           79.4261         estimate D2E/DX2                !
 ! D16   D(32,2,3,31)          -38.9473         estimate D2E/DX2                !
 ! D17   D(1,2,32,59)           -0.2378         estimate D2E/DX2                !
 ! D18   D(1,2,32,60)          119.828          estimate D2E/DX2                !
 ! D19   D(1,2,32,61)         -120.1521         estimate D2E/DX2                !
 ! D20   D(3,2,32,59)         -179.8902         estimate D2E/DX2                !
 ! D21   D(3,2,32,60)          -59.8244         estimate D2E/DX2                !
 ! D22   D(3,2,32,61)           60.1955         estimate D2E/DX2                !
 ! D23   D(2,3,4,5)            -15.9276         estimate D2E/DX2                !
 ! D24   D(2,3,4,7)           -144.9901         estimate D2E/DX2                !
 ! D25   D(2,3,4,24)           102.2554         estimate D2E/DX2                !
 ! D26   D(20,3,4,5)           109.8979         estimate D2E/DX2                !
 ! D27   D(20,3,4,7)           -19.1646         estimate D2E/DX2                !
 ! D28   D(20,3,4,24)         -131.9191         estimate D2E/DX2                !
 ! D29   D(31,3,4,5)          -135.7963         estimate D2E/DX2                !
 ! D30   D(31,3,4,7)            95.1412         estimate D2E/DX2                !
 ! D31   D(31,3,4,24)          -17.6133         estimate D2E/DX2                !
 ! D32   D(2,3,20,17)          165.7772         estimate D2E/DX2                !
 ! D33   D(2,3,20,42)           45.6592         estimate D2E/DX2                !
 ! D34   D(2,3,20,43)          -74.5081         estimate D2E/DX2                !
 ! D35   D(4,3,20,17)           38.0092         estimate D2E/DX2                !
 ! D36   D(4,3,20,42)          -82.1088         estimate D2E/DX2                !
 ! D37   D(4,3,20,43)          157.7239         estimate D2E/DX2                !
 ! D38   D(31,3,20,17)         -76.2436         estimate D2E/DX2                !
 ! D39   D(31,3,20,42)         163.6384         estimate D2E/DX2                !
 ! D40   D(31,3,20,43)          43.4712         estimate D2E/DX2                !
 ! D41   D(3,4,5,6)            -10.3818         estimate D2E/DX2                !
 ! D42   D(3,4,5,10)          -130.5493         estimate D2E/DX2                !
 ! D43   D(3,4,5,22)           111.6806         estimate D2E/DX2                !
 ! D44   D(7,4,5,6)            113.3644         estimate D2E/DX2                !
 ! D45   D(7,4,5,10)            -6.803          estimate D2E/DX2                !
 ! D46   D(7,4,5,22)          -124.5732         estimate D2E/DX2                !
 ! D47   D(24,4,5,6)          -128.8578         estimate D2E/DX2                !
 ! D48   D(24,4,5,10)          110.9747         estimate D2E/DX2                !
 ! D49   D(24,4,5,22)           -6.7954         estimate D2E/DX2                !
 ! D50   D(3,4,7,8)            104.1707         estimate D2E/DX2                !
 ! D51   D(3,4,7,17)            -6.9819         estimate D2E/DX2                !
 ! D52   D(3,4,7,21)          -130.912          estimate D2E/DX2                !
 ! D53   D(5,4,7,8)            -26.6092         estimate D2E/DX2                !
 ! D54   D(5,4,7,17)          -137.7618         estimate D2E/DX2                !
 ! D55   D(5,4,7,21)            98.3081         estimate D2E/DX2                !
 ! D56   D(24,4,7,8)          -143.6351         estimate D2E/DX2                !
 ! D57   D(24,4,7,17)          105.2122         estimate D2E/DX2                !
 ! D58   D(24,4,7,21)          -18.7179         estimate D2E/DX2                !
 ! D59   D(3,4,24,23)          -95.6583         estimate D2E/DX2                !
 ! D60   D(5,4,24,23)           30.4213         estimate D2E/DX2                !
 ! D61   D(7,4,24,23)          153.5416         estimate D2E/DX2                !
 ! D62   D(4,5,6,1)             32.792          estimate D2E/DX2                !
 ! D63   D(4,5,6,34)           155.5139         estimate D2E/DX2                !
 ! D64   D(4,5,6,35)           -89.0218         estimate D2E/DX2                !
 ! D65   D(10,5,6,1)           157.709          estimate D2E/DX2                !
 ! D66   D(10,5,6,34)          -79.5691         estimate D2E/DX2                !
 ! D67   D(10,5,6,35)           35.8952         estimate D2E/DX2                !
 ! D68   D(22,5,6,1)           -84.4695         estimate D2E/DX2                !
 ! D69   D(22,5,6,34)           38.2524         estimate D2E/DX2                !
 ! D70   D(22,5,6,35)          153.7167         estimate D2E/DX2                !
 ! D71   D(4,5,10,9)            37.9467         estimate D2E/DX2                !
 ! D72   D(4,5,10,16)         -149.2582         estimate D2E/DX2                !
 ! D73   D(6,5,10,9)           -87.7551         estimate D2E/DX2                !
 ! D74   D(6,5,10,16)           85.04           estimate D2E/DX2                !
 ! D75   D(22,5,10,9)          152.404          estimate D2E/DX2                !
 ! D76   D(22,5,10,16)         -34.8009         estimate D2E/DX2                !
 ! D77   D(4,5,22,23)          -17.3238         estimate D2E/DX2                !
 ! D78   D(4,5,22,45)         -139.5698         estimate D2E/DX2                !
 ! D79   D(4,5,22,46)          100.3587         estimate D2E/DX2                !
 ! D80   D(6,5,22,23)          106.5674         estimate D2E/DX2                !
 ! D81   D(6,5,22,45)          -15.6786         estimate D2E/DX2                !
 ! D82   D(6,5,22,46)         -135.7501         estimate D2E/DX2                !
 ! D83   D(10,5,22,23)        -138.1957         estimate D2E/DX2                !
 ! D84   D(10,5,22,45)          99.5584         estimate D2E/DX2                !
 ! D85   D(10,5,22,46)         -20.5132         estimate D2E/DX2                !
 ! D86   D(4,7,8,9)             34.486          estimate D2E/DX2                !
 ! D87   D(4,7,8,19)          -140.076          estimate D2E/DX2                !
 ! D88   D(17,7,8,9)           150.1831         estimate D2E/DX2                !
 ! D89   D(17,7,8,19)          -24.3788         estimate D2E/DX2                !
 ! D90   D(21,7,8,9)           -92.1012         estimate D2E/DX2                !
 ! D91   D(21,7,8,19)           93.3369         estimate D2E/DX2                !
 ! D92   D(4,7,17,18)          151.6257         estimate D2E/DX2                !
 ! D93   D(4,7,17,20)           30.1724         estimate D2E/DX2                !
 ! D94   D(4,7,17,30)          -87.8714         estimate D2E/DX2                !
 ! D95   D(8,7,17,18)           30.4752         estimate D2E/DX2                !
 ! D96   D(8,7,17,20)          -90.9781         estimate D2E/DX2                !
 ! D97   D(8,7,17,30)          150.9781         estimate D2E/DX2                !
 ! D98   D(21,7,17,18)         -84.6034         estimate D2E/DX2                !
 ! D99   D(21,7,17,20)         153.9432         estimate D2E/DX2                !
 ! D100  D(21,7,17,30)          35.8995         estimate D2E/DX2                !
 ! D101  D(4,7,21,44)           20.902          estimate D2E/DX2                !
 ! D102  D(8,7,21,44)          149.5002         estimate D2E/DX2                !
 ! D103  D(17,7,21,44)        -100.6773         estimate D2E/DX2                !
 ! D104  D(7,8,9,10)            -3.5027         estimate D2E/DX2                !
 ! D105  D(7,8,9,11)          -178.8344         estimate D2E/DX2                !
 ! D106  D(19,8,9,10)          170.5271         estimate D2E/DX2                !
 ! D107  D(19,8,9,11)           -4.8047         estimate D2E/DX2                !
 ! D108  D(7,8,19,18)            6.6564         estimate D2E/DX2                !
 ! D109  D(9,8,19,18)         -167.8805         estimate D2E/DX2                !
 ! D110  D(8,9,10,5)           -34.1292         estimate D2E/DX2                !
 ! D111  D(8,9,10,16)          152.8712         estimate D2E/DX2                !
 ! D112  D(11,9,10,5)          141.1955         estimate D2E/DX2                !
 ! D113  D(11,9,10,16)         -31.8041         estimate D2E/DX2                !
 ! D114  D(8,9,11,12)           80.5009         estimate D2E/DX2                !
 ! D115  D(8,9,11,13)         -100.3772         estimate D2E/DX2                !
 ! D116  D(10,9,11,12)         -94.6392         estimate D2E/DX2                !
 ! D117  D(10,9,11,13)          84.4827         estimate D2E/DX2                !
 ! D118  D(9,11,13,14)          81.7121         estimate D2E/DX2                !
 ! D119  D(9,11,13,15)        -151.8599         estimate D2E/DX2                !
 ! D120  D(9,11,13,36)         -35.8546         estimate D2E/DX2                !
 ! D121  D(12,11,13,14)        -99.2083         estimate D2E/DX2                !
 ! D122  D(12,11,13,15)         27.2198         estimate D2E/DX2                !
 ! D123  D(12,11,13,36)        143.2251         estimate D2E/DX2                !
 ! D124  D(11,13,14,37)        -57.2381         estimate D2E/DX2                !
 ! D125  D(11,13,14,38)       -173.0383         estimate D2E/DX2                !
 ! D126  D(11,13,14,62)         65.1158         estimate D2E/DX2                !
 ! D127  D(15,13,14,37)        177.5447         estimate D2E/DX2                !
 ! D128  D(15,13,14,38)         61.7445         estimate D2E/DX2                !
 ! D129  D(15,13,14,62)        -60.1014         estimate D2E/DX2                !
 ! D130  D(36,13,14,37)         60.1407         estimate D2E/DX2                !
 ! D131  D(36,13,14,38)        -55.6594         estimate D2E/DX2                !
 ! D132  D(36,13,14,62)       -177.5053         estimate D2E/DX2                !
 ! D133  D(11,13,15,39)        179.2722         estimate D2E/DX2                !
 ! D134  D(11,13,15,40)         59.7467         estimate D2E/DX2                !
 ! D135  D(11,13,15,41)        -59.5384         estimate D2E/DX2                !
 ! D136  D(14,13,15,39)        -55.0498         estimate D2E/DX2                !
 ! D137  D(14,13,15,40)       -174.5753         estimate D2E/DX2                !
 ! D138  D(14,13,15,41)         66.1396         estimate D2E/DX2                !
 ! D139  D(36,13,15,39)         62.892          estimate D2E/DX2                !
 ! D140  D(36,13,15,40)        -56.6336         estimate D2E/DX2                !
 ! D141  D(36,13,15,41)       -175.9186         estimate D2E/DX2                !
 ! D142  D(13,14,62,63)         63.5658         estimate D2E/DX2                !
 ! D143  D(13,14,62,64)       -177.41           estimate D2E/DX2                !
 ! D144  D(13,14,62,65)        -58.0289         estimate D2E/DX2                !
 ! D145  D(37,14,62,63)       -173.4281         estimate D2E/DX2                !
 ! D146  D(37,14,62,64)        -54.4038         estimate D2E/DX2                !
 ! D147  D(37,14,62,65)         64.9772         estimate D2E/DX2                !
 ! D148  D(38,14,62,63)        -58.545          estimate D2E/DX2                !
 ! D149  D(38,14,62,64)         60.4793         estimate D2E/DX2                !
 ! D150  D(38,14,62,65)        179.8603         estimate D2E/DX2                !
 ! D151  D(7,17,18,19)         -28.8845         estimate D2E/DX2                !
 ! D152  D(7,17,18,28)          88.53           estimate D2E/DX2                !
 ! D153  D(7,17,18,29)        -147.7853         estimate D2E/DX2                !
 ! D154  D(20,17,18,19)         82.3713         estimate D2E/DX2                !
 ! D155  D(20,17,18,28)       -160.2142         estimate D2E/DX2                !
 ! D156  D(20,17,18,29)        -36.5295         estimate D2E/DX2                !
 ! D157  D(30,17,18,19)       -150.1764         estimate D2E/DX2                !
 ! D158  D(30,17,18,28)        -32.7619         estimate D2E/DX2                !
 ! D159  D(30,17,18,29)         90.9228         estimate D2E/DX2                !
 ! D160  D(7,17,20,3)          -41.7586         estimate D2E/DX2                !
 ! D161  D(7,17,20,42)          77.1111         estimate D2E/DX2                !
 ! D162  D(7,17,20,43)        -162.0058         estimate D2E/DX2                !
 ! D163  D(18,17,20,3)        -153.5347         estimate D2E/DX2                !
 ! D164  D(18,17,20,42)        -34.665          estimate D2E/DX2                !
 ! D165  D(18,17,20,43)         86.2182         estimate D2E/DX2                !
 ! D166  D(30,17,20,3)          78.2312         estimate D2E/DX2                !
 ! D167  D(30,17,20,42)       -162.8991         estimate D2E/DX2                !
 ! D168  D(30,17,20,43)        -42.016          estimate D2E/DX2                !
 ! D169  D(17,18,19,8)          14.1883         estimate D2E/DX2                !
 ! D170  D(28,18,19,8)        -106.2406         estimate D2E/DX2                !
 ! D171  D(29,18,19,8)         136.5642         estimate D2E/DX2                !
 ! D172  D(17,18,28,53)       -177.5872         estimate D2E/DX2                !
 ! D173  D(17,18,28,54)         61.8724         estimate D2E/DX2                !
 ! D174  D(17,18,28,55)        -59.9321         estimate D2E/DX2                !
 ! D175  D(19,18,28,53)        -60.9139         estimate D2E/DX2                !
 ! D176  D(19,18,28,54)        178.5457         estimate D2E/DX2                !
 ! D177  D(19,18,28,55)         56.7411         estimate D2E/DX2                !
 ! D178  D(29,18,28,53)         55.999          estimate D2E/DX2                !
 ! D179  D(29,18,28,54)        -64.5414         estimate D2E/DX2                !
 ! D180  D(29,18,28,55)        173.6541         estimate D2E/DX2                !
 ! D181  D(17,18,29,56)         64.3992         estimate D2E/DX2                !
 ! D182  D(17,18,29,57)       -178.3631         estimate D2E/DX2                !
 ! D183  D(17,18,29,58)        -57.7358         estimate D2E/DX2                !
 ! D184  D(19,18,29,56)        -53.4509         estimate D2E/DX2                !
 ! D185  D(19,18,29,57)         63.7868         estimate D2E/DX2                !
 ! D186  D(19,18,29,58)       -175.5859         estimate D2E/DX2                !
 ! D187  D(28,18,29,56)       -169.9881         estimate D2E/DX2                !
 ! D188  D(28,18,29,57)        -52.7503         estimate D2E/DX2                !
 ! D189  D(28,18,29,58)         67.877          estimate D2E/DX2                !
 ! D190  D(5,22,23,24)          35.8139         estimate D2E/DX2                !
 ! D191  D(5,22,23,25)         155.9082         estimate D2E/DX2                !
 ! D192  D(5,22,23,47)         -79.3322         estimate D2E/DX2                !
 ! D193  D(45,22,23,24)        159.5768         estimate D2E/DX2                !
 ! D194  D(45,22,23,25)        -80.3289         estimate D2E/DX2                !
 ! D195  D(45,22,23,47)         44.4308         estimate D2E/DX2                !
 ! D196  D(46,22,23,24)        -81.8376         estimate D2E/DX2                !
 ! D197  D(46,22,23,25)         38.2566         estimate D2E/DX2                !
 ! D198  D(46,22,23,47)        163.0163         estimate D2E/DX2                !
 ! D199  D(22,23,24,4)         -41.4369         estimate D2E/DX2                !
 ! D200  D(25,23,24,4)        -167.9812         estimate D2E/DX2                !
 ! D201  D(47,23,24,4)          74.8987         estimate D2E/DX2                !
 ! D202  D(22,23,25,26)       -171.7872         estimate D2E/DX2                !
 ! D203  D(22,23,25,27)         10.086          estimate D2E/DX2                !
 ! D204  D(24,23,25,26)        -54.865          estimate D2E/DX2                !
 ! D205  D(24,23,25,27)        127.0082         estimate D2E/DX2                !
 ! D206  D(47,23,25,26)         62.4787         estimate D2E/DX2                !
 ! D207  D(47,23,25,27)       -115.6481         estimate D2E/DX2                !
 ! D208  D(23,25,26,48)         65.0684         estimate D2E/DX2                !
 ! D209  D(23,25,26,49)       -174.8625         estimate D2E/DX2                !
 ! D210  D(23,25,26,50)        -55.0929         estimate D2E/DX2                !
 ! D211  D(27,25,26,48)       -116.7074         estimate D2E/DX2                !
 ! D212  D(27,25,26,49)          3.3617         estimate D2E/DX2                !
 ! D213  D(27,25,26,50)        123.1313         estimate D2E/DX2                !
 ! D214  D(23,25,27,51)        179.2684         estimate D2E/DX2                !
 ! D215  D(23,25,27,52)         -0.4264         estimate D2E/DX2                !
 ! D216  D(26,25,27,51)          1.2279         estimate D2E/DX2                !
 ! D217  D(26,25,27,52)       -178.4669         estimate D2E/DX2                !
 --------------------------------------------------------------------------------
 Trust Radius=3.00D-01 FncErr=1.00D-07 GrdErr=1.00D-06
 Number of steps in this run=    390 maximum allowed number of steps=    390.
 GradGradGradGradGradGradGradGradGradGradGradGradGradGradGradGradGradGrad

 Stoichiometry    C26H34O5
 Framework group  C1[X(C26H34O5)]
 Deg. of freedom   189
 Full point group                 C1      NOp   1
 Largest Abelian subgroup         C1      NOp   1
 Largest concise Abelian subgroup C1      NOp   1
                         Standard orientation:                         
 ---------------------------------------------------------------------
 Center     Atomic      Atomic             Coordinates (Angstroms)
 Number     Number       Type             X           Y           Z
 ---------------------------------------------------------------------
      1          6           0       -2.082666    0.182442    2.814045
      2          6           0       -2.400118    1.286058    2.123497
      3          6           0       -1.858815    1.527892    0.741357
      4          6           0       -1.361734    0.273156   -0.036104
      5          6           0       -1.105999   -1.027200    0.768131
      6          6           0       -1.137878   -0.853194    2.301819
      7          6           0       -0.155997    0.787190   -0.851864
      8          6           0        1.182582    0.401390   -0.326298
      9          6           0        1.417427   -0.768387    0.272814
     10          6           0        0.263560   -1.667617    0.477062
     11          6           0        2.755025   -1.101847    0.803113
     12          8           0        3.093732   -0.653850    1.898375
     13          6           0        3.638837   -2.012106   -0.045390
     14          6           0        4.357441   -1.225780   -1.153072
     15          6           0        4.600717   -2.804884    0.838307
     16          8           0        0.446283   -2.882768    0.539200
     17          6           0       -0.085480    2.293267   -0.686749
     18          6           0        1.415251    2.596686   -0.858745
     19          8           0        2.123959    1.416199   -0.411926
     20          6           0       -0.671184    2.496521    0.718463
     21          8           0       -0.236425    0.401105   -2.216265
     22          6           0       -2.216692   -1.975029    0.273312
     23          6           0       -3.235479   -1.064477   -0.387074
     24          8           0       -2.415355   -0.056727   -0.993892
     25          6           0       -4.150507   -1.647965   -1.437620
     26          6           0       -4.995278   -0.643621   -2.178883
     27          6           0       -4.272224   -2.959304   -1.707493
     28          6           0        1.794245    2.837996   -2.328167
     29          6           0        1.898583    3.787734   -0.027179
     30          1           0       -0.692599    2.829543   -1.426652
     31          1           0       -2.671104    1.982421    0.153550
     32          6           0       -3.304339    2.343372    2.691693
     33          1           0       -2.465281    0.039145    3.822758
     34          1           0       -1.386683   -1.813779    2.772215
     35          1           0       -0.143913   -0.594648    2.691783
     36          1           0        2.981151   -2.744546   -0.531527
     37          1           0        3.617786   -0.713644   -1.779811
     38          1           0        4.878574   -1.933047   -1.810235
     39          1           0        5.227782   -3.468689    0.234312
     40          1           0        4.042809   -3.423578    1.550308
     41          1           0        5.255958   -2.152550    1.424389
     42          1           0        0.046146    2.242835    1.508681
     43          1           0       -0.984285    3.534738    0.872235
     44          1           0       -1.182427    0.199226   -2.379953
     45          1           0       -2.670279   -2.580268    1.065392
     46          1           0       -1.805378   -2.670208   -0.469093
     47          1           0       -3.860580   -0.585546    0.377349
     48          1           0       -4.365590    0.026722   -2.772644
     49          1           0       -5.703281   -1.123399   -2.863318
     50          1           0       -5.576740   -0.042203   -1.472401
     51          1           0       -4.958817   -3.316887   -2.469806
     52          1           0       -3.704011   -3.720271   -1.183638
     53          1           0        2.872933    3.008761   -2.425203
     54          1           0        1.269180    3.707230   -2.737444
     55          1           0        1.574917    1.971458   -2.958661
     56          1           0        1.814551    3.594418    1.047064
     57          1           0        2.963071    3.979193   -0.207057
     58          1           0        1.339654    4.697445   -0.268488
     59          1           0       -3.651209    2.090405    3.699064
     60          1           0       -2.780692    3.302643    2.751645
     61          1           0       -4.188136    2.467397    2.057583
     62          6           0        5.365073   -0.195458   -0.659502
     63          1           0        6.192868   -0.668621   -0.123351
     64          1           0        5.791206    0.344888   -1.511234
     65          1           0        4.898754    0.540723    0.001402
 ---------------------------------------------------------------------
 Rotational constants (GHZ):      0.2195683      0.1228358      0.1075930
 Standard basis: 6-31G(d) (6D, 7F)
 There are   533 symmetry adapted basis functions of A   symmetry.
 Integral buffers will be    131072 words long.
 Raffenetti 2 integral format.
 Two-electron integral symmetry is turned on.
   533 basis functions,  1004 primitive gaussians,   533 cartesian basis functions
   115 alpha electrons      115 beta electrons
       nuclear repulsion energy      3509.1382793824 Hartrees.
 NAtoms=   65 NActive=   65 NUniq=   65 SFac= 1.00D+00 NAtFMM=   50 NAOKFM=T Big=T
 One-electron integrals computed using PRISM.
 NBasis=   533 RedAO= T  NBF=   533
 NBsUse=   533 1.00D-06 NBFU=   533
 Harris functional with IExCor=  402 diagonalized for initial guess.
 ExpMin= 1.61D-01 ExpMax= 5.48D+03 ExpMxC= 8.25D+02 IAcc=1 IRadAn=         1 AccDes= 0.00D+00
 HarFok:  IExCor=  402 AccDes= 0.00D+00 IRadAn=         1 IDoV= 1
 ScaDFX=  1.000000  1.000000  1.000000  1.000000
 FoFCou: FMM=F IPFlag=           0 FMFlag=      100000 FMFlg1=        2001
         NFxFlg=           0 DoJE=T BraDBF=F KetDBF=T FulRan=T
         Omega=  0.000000  0.000000  1.000000  0.000000  0.000000 ICntrl=     500 IOpCl=  0
         NMat0=    1 NMatS0=    1 NMatT0=    0 NMatD0=    1 NMtDS0=    0 NMtDT0=    0
         I1Cent=           4 NGrid=           0.
 Petite list used in FoFCou.
 Initial guess orbital symmetries:
       Occupied  (A) (A) (A) (A) (A) (A) (A) (A) (A) (A) (A) (A)
                 (A) (A) (A) (A) (A) (A) (A) (A) (A) (A) (A) (A)
                 (A) (A) (A) (A) (A) (A) (A) (A) (A) (A) (A) (A)
                 (A) (A) (A) (A) (A) (A) (A) (A) (A) (A) (A) (A)
                 (A) (A) (A) (A) (A) (A) (A) (A) (A) (A) (A) (A)
                 (A) (A) (A) (A) (A) (A) (A) (A) (A) (A) (A) (A)
                 (A) (A) (A) (A) (A) (A) (A) (A) (A) (A) (A) (A)
                 (A) (A) (A) (A) (A) (A) (A) (A) (A) (A) (A) (A)
                 (A) (A) (A) (A) (A) (A) (A) (A) (A) (A) (A) (A)
                 (A) (A) (A) (A) (A) (A) (A)
       Virtual   (A) (A) (A) (A) (A) (A) (A) (A) (A) (A) (A) (A)
                 (A) (A) (A) (A) (A) (A) (A) (A) (A) (A) (A) (A)
                 (A) (A) (A) (A) (A) (A) (A) (A) (A) (A) (A) (A)
                 (A) (A) (A) (A) (A) (A) (A) (A) (A) (A) (A) (A)
                 (A) (A) (A) (A) (A) (A) (A) (A) (A) (A) (A) (A)
                 (A) (A) (A) (A) (A) (A) (A) (A) (A) (A) (A) (A)
                 (A) (A) (A) (A) (A) (A) (A) (A) (A) (A) (A) (A)
                 (A) (A) (A) (A) (A) (A) (A) (A) (A) (A) (A) (A)
                 (A) (A) (A) (A) (A) (A) (A) (A) (A) (A) (A) (A)
                 (A) (A) (A) (A) (A) (A) (A) (A) (A) (A) (A) (A)
                 (A) (A) (A) (A) (A) (A) (A) (A) (A) (A) (A) (A)
                 (A) (A) (A) (A) (A) (A) (A) (A) (A) (A) (A) (A)
                 (A) (A) (A) (A) (A) (A) (A) (A) (A) (A) (A) (A)
                 (A) (A) (A) (A) (A) (A) (A) (A) (A) (A) (A) (A)
                 (A) (A) (A) (A) (A) (A) (A) (A) (A) (A) (A) (A)
                 (A) (A) (A) (A) (A) (A) (A) (A) (A) (A) (A) (A)
                 (A) (A) (A) (A) (A) (A) (A) (A) (A) (A) (A) (A)
                 (A) (A) (A) (A) (A) (A) (A) (A) (A) (A) (A) (A)
                 (A) (A) (A) (A) (A) (A) (A) (A) (A) (A) (A) (A)
                 (A) (A) (A) (A) (A) (A) (A) (A) (A) (A) (A) (A)
                 (A) (A) (A) (A) (A) (A) (A) (A) (A) (A) (A) (A)
                 (A) (A) (A) (A) (A) (A) (A) (A) (A) (A) (A) (A)
                 (A) (A) (A) (A) (A) (A) (A) (A) (A) (A) (A) (A)
                 (A) (A) (A) (A) (A) (A) (A) (A) (A) (A) (A) (A)
                 (A) (A) (A) (A) (A) (A) (A) (A) (A) (A) (A) (A)
                 (A) (A) (A) (A) (A) (A) (A) (A) (A) (A) (A) (A)
                 (A) (A) (A) (A) (A) (A) (A) (A) (A) (A) (A) (A)
                 (A) (A) (A) (A) (A) (A) (A) (A) (A) (A) (A) (A)
                 (A) (A) (A) (A) (A) (A) (A) (A) (A) (A) (A) (A)
                 (A) (A) (A) (A) (A) (A) (A) (A) (A) (A) (A) (A)
                 (A) (A) (A) (A) (A) (A) (A) (A) (A) (A) (A) (A)
                 (A) (A) (A) (A) (A) (A) (A) (A) (A) (A) (A) (A)
                 (A) (A) (A) (A) (A) (A) (A) (A) (A) (A) (A) (A)
                 (A) (A) (A) (A) (A) (A) (A) (A) (A) (A) (A) (A)
                 (A) (A) (A) (A) (A) (A) (A) (A) (A) (A)
 The electronic state of the initial guess is 1-A.
 Requested convergence on RMS density matrix=1.00D-08 within 128 cycles.
 Requested convergence on MAX density matrix=1.00D-06.
 Requested convergence on             energy=1.00D-06.
 No special actions if energy rises.
 Integral accuracy reduced to 1.0D-05 until final iterations.
 Initial convergence to 1.0D-05 achieved.  Increase integral accuracy.
 SCF Done:  E(RB3LYP) =  -1387.30071958     A.U. after   16 cycles
             Convg  =    0.3567D-08             -V/T =  2.0091

 **********************************************************************

            Population analysis using the SCF density.

 **********************************************************************

 Orbital symmetries:
       Occupied  (A) (A) (A) (A) (A) (A) (A) (A) (A) (A) (A) (A)
                 (A) (A) (A) (A) (A) (A) (A) (A) (A) (A) (A) (A)
                 (A) (A) (A) (A) (A) (A) (A) (A) (A) (A) (A) (A)
                 (A) (A) (A) (A) (A) (A) (A) (A) (A) (A) (A) (A)
                 (A) (A) (A) (A) (A) (A) (A) (A) (A) (A) (A) (A)
                 (A) (A) (A) (A) (A) (A) (A) (A) (A) (A) (A) (A)
                 (A) (A) (A) (A) (A) (A) (A) (A) (A) (A) (A) (A)
                 (A) (A) (A) (A) (A) (A) (A) (A) (A) (A) (A) (A)
                 (A) (A) (A) (A) (A) (A) (A) (A) (A) (A) (A) (A)
                 (A) (A) (A) (A) (A) (A) (A)
       Virtual   (A) (A) (A) (A) (A) (A) (A) (A) (A) (A) (A) (A)
                 (A) (A) (A) (A) (A) (A) (A) (A) (A) (A) (A) (A)
                 (A) (A) (A) (A) (A) (A) (A) (A) (A) (A) (A) (A)
                 (A) (A) (A) (A) (A) (A) (A) (A) (A) (A) (A) (A)
                 (A) (A) (A) (A) (A) (A) (A) (A) (A) (A) (A) (A)
                 (A) (A) (A) (A) (A) (A) (A) (A) (A) (A) (A) (A)
                 (A) (A) (A) (A) (A) (A) (A) (A) (A) (A) (A) (A)
                 (A) (A) (A) (A) (A) (A) (A) (A) (A) (A) (A) (A)
                 (A) (A) (A) (A) (A) (A) (A) (A) (A) (A) (A) (A)
                 (A) (A) (A) (A) (A) (A) (A) (A) (A) (A) (A) (A)
                 (A) (A) (A) (A) (A) (A) (A) (A) (A) (A) (A) (A)
                 (A) (A) (A) (A) (A) (A) (A) (A) (A) (A) (A) (A)
                 (A) (A) (A) (A) (A) (A) (A) (A) (A) (A) (A) (A)
                 (A) (A) (A) (A) (A) (A) (A) (A) (A) (A) (A) (A)
                 (A) (A) (A) (A) (A) (A) (A) (A) (A) (A) (A) (A)
                 (A) (A) (A) (A) (A) (A) (A) (A) (A) (A) (A) (A)
                 (A) (A) (A) (A) (A) (A) (A) (A) (A) (A) (A) (A)
                 (A) (A) (A) (A) (A) (A) (A) (A) (A) (A) (A) (A)
                 (A) (A) (A) (A) (A) (A) (A) (A) (A) (A) (A) (A)
                 (A) (A) (A) (A) (A) (A) (A) (A) (A) (A) (A) (A)
                 (A) (A) (A) (A) (A) (A) (A) (A) (A) (A) (A) (A)
                 (A) (A) (A) (A) (A) (A) (A) (A) (A) (A) (A) (A)
                 (A) (A) (A) (A) (A) (A) (A) (A) (A) (A) (A) (A)
                 (A) (A) (A) (A) (A) (A) (A) (A) (A) (A) (A) (A)
                 (A) (A) (A) (A) (A) (A) (A) (A) (A) (A) (A) (A)
                 (A) (A) (A) (A) (A) (A) (A) (A) (A) (A) (A) (A)
                 (A) (A) (A) (A) (A) (A) (A) (A) (A) (A) (A) (A)
                 (A) (A) (A) (A) (A) (A) (A) (A) (A) (A) (A) (A)
                 (A) (A) (A) (A) (A) (A) (A) (A) (A) (A) (A) (A)
                 (A) (A) (A) (A) (A) (A) (A) (A) (A) (A) (A) (A)
                 (A) (A) (A) (A) (A) (A) (A) (A) (A) (A) (A) (A)
                 (A) (A) (A) (A) (A) (A) (A) (A) (A) (A) (A) (A)
                 (A) (A) (A) (A) (A) (A) (A) (A) (A) (A) (A) (A)
                 (A) (A) (A) (A) (A) (A) (A) (A) (A) (A) (A) (A)
                 (A) (A) (A) (A) (A) (A) (A) (A) (A) (A)
 The electronic state is 1-A.
 Alpha  occ. eigenvalues --  -19.19345 -19.16955 -19.14524 -19.13553 -19.13524
 Alpha  occ. eigenvalues --  -10.27775 -10.27033 -10.26421 -10.26290 -10.25871
 Alpha  occ. eigenvalues --  -10.25548 -10.24756 -10.21856 -10.20395 -10.20365
 Alpha  occ. eigenvalues --  -10.19903 -10.19777 -10.19765 -10.19670 -10.19083
 Alpha  occ. eigenvalues --  -10.18900 -10.18855 -10.18699 -10.18481 -10.18476
 Alpha  occ. eigenvalues --  -10.18411 -10.18318 -10.17765 -10.17629 -10.16102
 Alpha  occ. eigenvalues --  -10.16088  -1.08360  -1.06243  -1.03419  -1.02513
 Alpha  occ. eigenvalues --   -1.01832  -0.87588  -0.83927  -0.82620  -0.81574
 Alpha  occ. eigenvalues --   -0.80439  -0.79882  -0.77032  -0.74370  -0.73548
 Alpha  occ. eigenvalues --   -0.72443  -0.71588  -0.69575  -0.69063  -0.68239
 Alpha  occ. eigenvalues --   -0.65779  -0.63985  -0.63823  -0.62100  -0.61134
 Alpha  occ. eigenvalues --   -0.59252  -0.58894  -0.57181  -0.54891  -0.53587
 Alpha  occ. eigenvalues --   -0.52881  -0.51779  -0.50936  -0.50571  -0.49430
 Alpha  occ. eigenvalues --   -0.48129  -0.47582  -0.46642  -0.46393  -0.45640
 Alpha  occ. eigenvalues --   -0.45190  -0.45056  -0.44468  -0.44062  -0.43401
 Alpha  occ. eigenvalues --   -0.43263  -0.42684  -0.42489  -0.41929  -0.41580
 Alpha  occ. eigenvalues --   -0.41140  -0.40615  -0.40254  -0.39870  -0.39676
 Alpha  occ. eigenvalues --   -0.39184  -0.38677  -0.38340  -0.38298  -0.37727
 Alpha  occ. eigenvalues --   -0.37496  -0.37087  -0.36847  -0.36695  -0.36480
 Alpha  occ. eigenvalues --   -0.35937  -0.35537  -0.34996  -0.34911  -0.34036
 Alpha  occ. eigenvalues --   -0.33835  -0.33551  -0.33024  -0.32768  -0.32203
 Alpha  occ. eigenvalues --   -0.31831  -0.31479  -0.31413  -0.27887  -0.26967
 Alpha  occ. eigenvalues --   -0.25779  -0.25020  -0.24245  -0.23721  -0.23114
 Alpha virt. eigenvalues --   -0.04490  -0.01690   0.00687   0.01519   0.02956
 Alpha virt. eigenvalues --    0.06428   0.08236   0.08931   0.09299   0.10159
 Alpha virt. eigenvalues --    0.10412   0.11329   0.11537   0.11953   0.12377
 Alpha virt. eigenvalues --    0.12853   0.13056   0.13475   0.13648   0.13861
 Alpha virt. eigenvalues --    0.14631   0.14845   0.14985   0.15414   0.15657
 Alpha virt. eigenvalues --    0.15927   0.16270   0.16714   0.16816   0.17269
 Alpha virt. eigenvalues --    0.17548   0.17984   0.18336   0.18723   0.19198
 Alpha virt. eigenvalues --    0.19298   0.19353   0.20034   0.20474   0.20543
 Alpha virt. eigenvalues --    0.20849   0.21355   0.21462   0.21635   0.22262
 Alpha virt. eigenvalues --    0.22721   0.23497   0.23662   0.24129   0.24248
 Alpha virt. eigenvalues --    0.24776   0.25290   0.25481   0.26106   0.26720
 Alpha virt. eigenvalues --    0.27358   0.27631   0.28472   0.29498   0.30425
 Alpha virt. eigenvalues --    0.31397   0.32651   0.32823   0.34125   0.34419
 Alpha virt. eigenvalues --    0.34876   0.36254   0.36673   0.38726   0.40218
 Alpha virt. eigenvalues --    0.40821   0.44737   0.46685   0.47503   0.48574
 Alpha virt. eigenvalues --    0.49693   0.50326   0.50482   0.51629   0.52072
 Alpha virt. eigenvalues --    0.52260   0.52515   0.53281   0.53382   0.53558
 Alpha virt. eigenvalues --    0.54119   0.54880   0.55139   0.55692   0.56134
 Alpha virt. eigenvalues --    0.56951   0.57438   0.57898   0.58473   0.58930
 Alpha virt. eigenvalues --    0.59224   0.59962   0.60619   0.61204   0.61507
 Alpha virt. eigenvalues --    0.62549   0.62874   0.63467   0.63991   0.64315
 Alpha virt. eigenvalues --    0.65270   0.65410   0.66053   0.66490   0.67197
 Alpha virt. eigenvalues --    0.67942   0.68267   0.68732   0.69222   0.69728
 Alpha virt. eigenvalues --    0.70284   0.71481   0.71888   0.72416   0.72887
 Alpha virt. eigenvalues --    0.73668   0.74287   0.74859   0.75311   0.76339
 Alpha virt. eigenvalues --    0.76774   0.77365   0.77985   0.79081   0.79172
 Alpha virt. eigenvalues --    0.79888   0.80953   0.81157   0.81935   0.82751
 Alpha virt. eigenvalues --    0.83335   0.83607   0.83983   0.84357   0.84570
 Alpha virt. eigenvalues --    0.85546   0.85931   0.86227   0.86347   0.86940
 Alpha virt. eigenvalues --    0.87405   0.87771   0.87877   0.88554   0.88841
 Alpha virt. eigenvalues --    0.89698   0.89876   0.90134   0.90242   0.90431
 Alpha virt. eigenvalues --    0.90855   0.91064   0.91410   0.91610   0.92343
 Alpha virt. eigenvalues --    0.92842   0.93265   0.93643   0.94242   0.94534
 Alpha virt. eigenvalues --    0.95106   0.95554   0.95913   0.96607   0.97005
 Alpha virt. eigenvalues --    0.97567   0.97711   0.98789   0.99317   0.99478
 Alpha virt. eigenvalues --    1.00065   1.01703   1.01961   1.02336   1.03448
 Alpha virt. eigenvalues --    1.03506   1.03870   1.05289   1.05946   1.06877
 Alpha virt. eigenvalues --    1.08085   1.09474   1.10988   1.11363   1.12000
 Alpha virt. eigenvalues --    1.12254   1.13516   1.15018   1.15289   1.16439
 Alpha virt. eigenvalues --    1.16685   1.17039   1.17321   1.19026   1.20531
 Alpha virt. eigenvalues --    1.20869   1.23301   1.23754   1.25228   1.26749
 Alpha virt. eigenvalues --    1.28426   1.29559   1.30902   1.31268   1.33091
 Alpha virt. eigenvalues --    1.33587   1.35474   1.37931   1.38386   1.40062
 Alpha virt. eigenvalues --    1.41406   1.42236   1.44600   1.45233   1.46875
 Alpha virt. eigenvalues --    1.48138   1.48574   1.50317   1.51495   1.52570
 Alpha virt. eigenvalues --    1.54082   1.54797   1.56374   1.57068   1.58029
 Alpha virt. eigenvalues --    1.59663   1.60319   1.62514   1.63729   1.64451
 Alpha virt. eigenvalues --    1.65219   1.66035   1.66401   1.67580   1.70113
 Alpha virt. eigenvalues --    1.71449   1.72003   1.73018   1.73838   1.74562
 Alpha virt. eigenvalues --    1.75279   1.75671   1.76201   1.77453   1.78567
 Alpha virt. eigenvalues --    1.79236   1.79972   1.80276   1.81478   1.81640
 Alpha virt. eigenvalues --    1.83012   1.83573   1.84347   1.84954   1.86173
 Alpha virt. eigenvalues --    1.86428   1.86995   1.87341   1.88006   1.88989
 Alpha virt. eigenvalues --    1.89376   1.89810   1.90712   1.90868   1.92063
 Alpha virt. eigenvalues --    1.92895   1.93791   1.94625   1.95867   1.96444
 Alpha virt. eigenvalues --    1.96539   1.97292   1.97557   1.98591   1.98853
 Alpha virt. eigenvalues --    1.99378   1.99793   2.00261   2.00929   2.01443
 Alpha virt. eigenvalues --    2.02610   2.03627   2.04274   2.04873   2.06051
 Alpha virt. eigenvalues --    2.07739   2.08077   2.09146   2.09715   2.10572
 Alpha virt. eigenvalues --    2.10866   2.11394   2.12662   2.14075   2.14479
 Alpha virt. eigenvalues --    2.14794   2.15189   2.16018   2.16480   2.17233
 Alpha virt. eigenvalues --    2.18376   2.18701   2.19440   2.21291   2.22490
 Alpha virt. eigenvalues --    2.23486   2.24657   2.25870   2.26293   2.27813
 Alpha virt. eigenvalues --    2.28132   2.28981   2.29378   2.30031   2.30931
 Alpha virt. eigenvalues --    2.32263   2.32873   2.33567   2.33614   2.34341
 Alpha virt. eigenvalues --    2.35591   2.36520   2.37670   2.38685   2.40181
 Alpha virt. eigenvalues --    2.41563   2.41966   2.42437   2.42766   2.43425
 Alpha virt. eigenvalues --    2.45744   2.46373   2.47539   2.48511   2.49044
 Alpha virt. eigenvalues --    2.49673   2.50896   2.52535   2.53356   2.55342
 Alpha virt. eigenvalues --    2.56874   2.58280   2.58927   2.59814   2.61895
 Alpha virt. eigenvalues --    2.63254   2.63364   2.63727   2.64736   2.65808
 Alpha virt. eigenvalues --    2.67132   2.67537   2.69392   2.69533   2.70906
 Alpha virt. eigenvalues --    2.72490   2.73848   2.76025   2.76321   2.78734
 Alpha virt. eigenvalues --    2.79382   2.80152   2.81283   2.81688   2.86813
 Alpha virt. eigenvalues --    2.89355   2.90349   2.93075   2.94067   2.95461
 Alpha virt. eigenvalues --    2.97363   2.99735   3.00791   3.01320   3.02288
 Alpha virt. eigenvalues --    3.06267   3.07690   3.12849   3.16484   3.20980
 Alpha virt. eigenvalues --    3.23863   3.29018   3.99865   4.07818   4.10382
 Alpha virt. eigenvalues --    4.13264   4.15054   4.17115   4.18346   4.19250
 Alpha virt. eigenvalues --    4.22435   4.22969   4.25916   4.27389   4.31777
 Alpha virt. eigenvalues --    4.33113   4.33459   4.36318   4.41711   4.42820
 Alpha virt. eigenvalues --    4.45581   4.49997   4.51876   4.57976   4.63452
 Alpha virt. eigenvalues --    4.65263   4.66172   4.69950   4.76109   4.77738
 Alpha virt. eigenvalues --    4.89916   4.97476   5.27284
          Condensed to atoms (all electrons):
 Mulliken atomic charges:
              1
     1  C   -0.194811
     2  C    0.195046
     3  C   -0.190997
     4  C    0.320601
     5  C   -0.031695
     6  C   -0.330342
     7  C    0.201751
     8  C    0.418959
     9  C   -0.100803
    10  C    0.398283
    11  C    0.419120
    12  O   -0.458294
    13  C   -0.156780
    14  C   -0.265883
    15  C   -0.451225
    16  O   -0.492603
    17  C   -0.155027
    18  C    0.307032
    19  O   -0.536966
    20  C   -0.308273
    21  O   -0.672134
    22  C   -0.310829
    23  C    0.098418
    24  O   -0.584796
    25  C    0.189109
    26  C   -0.504685
    27  C   -0.395167
    28  C   -0.460958
    29  C   -0.463084
    30  H    0.145197
    31  H    0.149043
    32  C   -0.519424
    33  H    0.125759
    34  H    0.163260
    35  H    0.180212
    36  H    0.161998
    37  H    0.148557
    38  H    0.139018
    39  H    0.135489
    40  H    0.154141
    41  H    0.164375
    42  H    0.167406
    43  H    0.148795
    44  H    0.417961
    45  H    0.152204
    46  H    0.175929
    47  H    0.137110
    48  H    0.166705
    49  H    0.153256
    50  H    0.150218
    51  H    0.141247
    52  H    0.149039
    53  H    0.150191
    54  H    0.139856
    55  H    0.183752
    56  H    0.161188
    57  H    0.158736
    58  H    0.148127
    59  H    0.158163
    60  H    0.157525
    61  H    0.153112
    62  C   -0.450501
    63  H    0.145963
    64  H    0.136550
    65  H    0.166875
 Sum of Mulliken atomic charges =   0.00000
 Mulliken charges with hydrogens summed into heavy atoms:
              1
     1  C   -0.069052
     2  C    0.195046
     3  C   -0.041954
     4  C    0.320601
     5  C   -0.031695
     6  C    0.013130
     7  C    0.201751
     8  C    0.418959
     9  C   -0.100803
    10  C    0.398283
    11  C    0.419120
    12  O   -0.458294
    13  C    0.005219
    14  C    0.021692
    15  C    0.002779
    16  O   -0.492603
    17  C   -0.009830
    18  C    0.307032
    19  O   -0.536966
    20  C    0.007928
    21  O   -0.254173
    22  C    0.017305
    23  C    0.235528
    24  O   -0.584796
    25  C    0.189109
    26  C   -0.034506
    27  C   -0.104880
    28  C    0.012840
    29  C    0.004967
    32  C   -0.050624
    62  C   -0.001113
 Sum of Mulliken charges with hydrogens summed into heavy atoms =   0.00000
 Electronic spatial extent (au):  <R**2>=          11719.6911
 Charge=              0.0000 electrons
 Dipole moment (field-independent basis, Debye):
    X=             -3.9920    Y=              3.4158    Z=             -0.7940  Tot=              5.3136
 Quadrupole moment (field-independent basis, Debye-Ang):
   XX=           -180.2785   YY=           -180.0902   ZZ=           -186.7494
   XY=              1.0616   XZ=             -7.8727   YZ=              1.2530
 Traceless Quadrupole moment (field-independent basis, Debye-Ang):
   XX=              2.0942   YY=              2.2825   ZZ=             -4.3766
   XY=              1.0616   XZ=             -7.8727   YZ=              1.2530
 Octapole moment (field-independent basis, Debye-Ang**2):
  XXX=            -22.3793  YYY=             48.5669  ZZZ=             -1.7639  XYY=             -0.9086
  XXY=            -12.8177  XXZ=            -39.0398  XZZ=            -30.4535  YZZ=             -1.7326
  YYZ=            -13.2135  XYZ=             -2.8271
 Hexadecapole moment (field-independent basis, Debye-Ang**3):
 XXXX=          -9054.4049 YYYY=          -4126.2877 ZZZZ=          -2494.8161 XXXY=            -32.6937
 XXXZ=             10.0214 YYYX=             43.8136 YYYZ=             -2.3395 ZZZX=            -13.0753
 ZZZY=            -18.8016 XXYY=          -2141.7713 XXZZ=          -1914.6855 YYZZ=          -1090.8885
 XXYZ=             49.5828 YYXZ=              8.8162 ZZXY=             27.4248
 N-N= 3.509138279382D+03 E-N=-1.024462229178D+04  KE= 1.374841535710D+03
 Calling FoFJK, ICntrl=      2127 FMM=T ISym2X=0 I1Cent= 0 IOpClX= 0 NMat=1 NMatS=1 NMatT=0.
 ***** Axes restored to original set *****
 -------------------------------------------------------------------
 Center     Atomic                   Forces (Hartrees/Bohr)
 Number     Number              X              Y              Z
 -------------------------------------------------------------------
      1        6           0.009765689   -0.000217516    0.000737394
      2        6          -0.009264639   -0.006373648    0.003253859
      3        6          -0.006570624   -0.009808654   -0.003166844
      4        6           0.010648569   -0.007485318    0.012765941
      5        6          -0.008540815    0.005703537    0.005036241
      6        6          -0.009230386   -0.008545758   -0.005435574
      7        6           0.020494829    0.014887744    0.012314371
      8        6          -0.004364401   -0.004473392   -0.024975127
      9        6           0.010697110   -0.005864367    0.009242702
     10        6          -0.014767914    0.017101199   -0.006094881
     11        6          -0.018462824   -0.004681797   -0.019150756
     12        8           0.003215599    0.013173220    0.011917614
     13        6          -0.010622372   -0.001506440    0.001464206
     14        6           0.008008111    0.002958304   -0.000295321
     15        6          -0.005004956   -0.002332615   -0.005060313
     16        8           0.007157301   -0.009865905    0.002843737
     17        6           0.003488472   -0.006638857   -0.011767317
     18        6           0.030769727    0.004409132   -0.011939792
     19        8          -0.013413294   -0.008534434    0.032654322
     20        6           0.009650547   -0.001751026   -0.005577274
     21        8          -0.003198489    0.005146021    0.005050323
     22        6          -0.006016793    0.000438133    0.011423309
     23        6          -0.004619570    0.003977072    0.007614454
     24        8           0.000611736    0.002258561   -0.011830057
     25        6          -0.002380504    0.006583100    0.013235792
     26        6           0.001201328    0.001475575    0.001256819
     27        6           0.001476528   -0.004368212   -0.010469111
     28        6          -0.001612416    0.008442401    0.001567513
     29        6          -0.008090618   -0.000729106   -0.007805388
     30        1          -0.002913070    0.001794859    0.000005747
     31        1          -0.001751648    0.006084113    0.000545615
     32        6          -0.002425820   -0.000364329    0.000072661
     33        1           0.000524471   -0.000630045    0.000035081
     34        1           0.000415940    0.005193414   -0.000513301
     35        1          -0.000815147    0.004638036   -0.001563308
     36        1           0.003921874   -0.002583993    0.001609529
     37        1          -0.000089137   -0.000075292    0.002087838
     38        1          -0.001973673   -0.000504688    0.002697067
     39        1           0.000402214    0.001176289    0.000516102
     40        1           0.000118708    0.000544635   -0.000075422
     41        1           0.000604060   -0.000017312    0.001002851
     42        1           0.000360422    0.001158858    0.000689561
     43        1          -0.001985094   -0.001551834   -0.001454370
     44        1          -0.003018923    0.000860822   -0.003906473
     45        1          -0.000067994    0.000591248   -0.003029609
     46        1           0.000298735   -0.002321796   -0.001169474
     47        1           0.001136698   -0.003242377   -0.000645843
     48        1           0.002261547   -0.002431524   -0.001702656
     49        1          -0.002065784    0.000272553   -0.000709353
     50        1           0.003353687   -0.001324393   -0.001945277
     51        1           0.000527097   -0.001285469    0.000032524
     52        1          -0.000984303    0.000854718   -0.000800175
     53        1           0.000572107   -0.003340643   -0.002174475
     54        1           0.000160119   -0.000754535   -0.000384625
     55        1           0.000121549   -0.004479220    0.003439773
     56        1           0.001078360   -0.001666941    0.002712030
     57        1           0.001832643    0.001521245    0.001872348
     58        1          -0.000025880    0.000747208    0.001343497
     59        1          -0.000704930    0.000899578   -0.000318923
     60        1           0.003963479   -0.001583207   -0.000054713
     61        1           0.004247055   -0.001155500    0.000125376
     62        6           0.001720712    0.000392679   -0.004159762
     63        1          -0.000088005   -0.000723294   -0.001430204
     64        1           0.000554855    0.000542063   -0.000814084
     65        1          -0.000291857   -0.000612883   -0.000746393
 -------------------------------------------------------------------
 Cartesian Forces:  Max     0.032654322 RMS     0.006758716

 GradGradGradGradGradGradGradGradGradGradGradGradGradGradGradGradGradGrad
 Berny optimization.
 Internal  Forces:  Max     0.020124082 RMS     0.003396941
 Search for a local minimum.
 Step number   1 out of a maximum of  390
 All quantities printed in internal units (Hartrees-Bohrs-Radians)
 Mixed Optimization -- RFO/linear search
 Second derivative matrix not updated -- first step.
 ITU=  0
     Eigenvalues ---    0.00280   0.00282   0.00357   0.00396   0.00418
     Eigenvalues ---    0.00458   0.00470   0.00575   0.00587   0.00628
     Eigenvalues ---    0.00665   0.00670   0.00725   0.00729   0.00888
     Eigenvalues ---    0.01070   0.01168   0.01254   0.01307   0.01454
     Eigenvalues ---    0.01506   0.01712   0.01742   0.01847   0.02092
     Eigenvalues ---    0.02623   0.02825   0.02825   0.03091   0.03197
     Eigenvalues ---    0.03321   0.03614   0.03702   0.03793   0.04068
     Eigenvalues ---    0.04245   0.04276   0.04367   0.04494   0.04654
     Eigenvalues ---    0.04775   0.04781   0.04972   0.05147   0.05288
     Eigenvalues ---    0.05315   0.05341   0.05408   0.05420   0.05457
     Eigenvalues ---    0.05471   0.05505   0.05573   0.05615   0.05639
     Eigenvalues ---    0.05707   0.05852   0.05865   0.05946   0.06136
     Eigenvalues ---    0.06548   0.06772   0.07090   0.07094   0.07146
     Eigenvalues ---    0.07184   0.07255   0.07309   0.07433   0.08057
     Eigenvalues ---    0.08332   0.08727   0.08951   0.09420   0.09485
     Eigenvalues ---    0.10027   0.10229   0.11416   0.11942   0.12483
     Eigenvalues ---    0.12592   0.13322   0.14576   0.15409   0.15880
     Eigenvalues ---    0.15964   0.16000   0.16000   0.16000   0.16000
     Eigenvalues ---    0.16000   0.16000   0.16000   0.16000   0.16000
     Eigenvalues ---    0.16000   0.16000   0.16000   0.16000   0.16000
     Eigenvalues ---    0.16000   0.16000   0.16000   0.16000   0.16000
     Eigenvalues ---    0.16000   0.16613   0.17293   0.18127   0.18264
     Eigenvalues ---    0.19820   0.21010   0.21947   0.22375   0.22536
     Eigenvalues ---    0.23512   0.24750   0.24917   0.24985   0.24992
     Eigenvalues ---    0.24997   0.24999   0.25000   0.26090   0.26688
     Eigenvalues ---    0.26994   0.27107   0.27375   0.27691   0.28356
     Eigenvalues ---    0.28807   0.28824   0.28926   0.29339   0.29614
     Eigenvalues ---    0.29766   0.30049   0.30320   0.30920   0.31308
     Eigenvalues ---    0.31628   0.31920   0.32086   0.33476   0.33585
     Eigenvalues ---    0.33839   0.33889   0.33917   0.33962   0.34003
     Eigenvalues ---    0.34004   0.34005   0.34018   0.34079   0.34081
     Eigenvalues ---    0.34081   0.34140   0.34196   0.34213   0.34219
     Eigenvalues ---    0.34237   0.34242   0.34247   0.34254   0.34260
     Eigenvalues ---    0.34264   0.34272   0.34272   0.34275   0.34283
     Eigenvalues ---    0.34294   0.34367   0.34371   0.34387   0.34913
     Eigenvalues ---    0.34918   0.35008   0.35225   0.35444   0.36697
     Eigenvalues ---    0.37164   0.41099   0.44472   0.50174   0.53598
     Eigenvalues ---    0.54599   0.56243   0.90728   0.90927
 RFO step:  Lambda=-2.12844243D-02 EMin= 2.79550368D-03
 Linear search not attempted -- first point.
 Iteration  1 RMS(Cart)=  0.04013911 RMS(Int)=  0.00061668
 Iteration  2 RMS(Cart)=  0.00111639 RMS(Int)=  0.00023291
 Iteration  3 RMS(Cart)=  0.00000058 RMS(Int)=  0.00023291
 Variable       Old X    -DE/DX   Delta X   Delta X   Delta X     New X
                                 (Linear)    (Quad)   (Total)
    R1        2.53223  -0.00162   0.00000  -0.00370  -0.00379   2.52844
    R2        2.82041   0.00881   0.00000   0.02537   0.02524   2.84565
    R3        2.05662   0.00028   0.00000   0.00075   0.00075   2.05737
    R4        2.84201   0.00527   0.00000   0.01319   0.01322   2.85524
    R5        2.83986   0.00455   0.00000   0.01330   0.01330   2.85316
    R6        2.94330   0.00679   0.00000   0.01744   0.01741   2.96071
    R7        2.89642   0.01049   0.00000   0.03549   0.03545   2.93187
    R8        2.08035  -0.00191   0.00000  -0.00536  -0.00536   2.07500
    R9        2.92945   0.01312   0.00000   0.04202   0.04196   2.97141
   R10        2.91747   0.00763   0.00000   0.03030   0.03056   2.94803
   R11        2.76204  -0.00632   0.00000  -0.01788  -0.01791   2.74413
   R12        2.91747   0.00581   0.00000   0.02165   0.02162   2.93908
   R13        2.90953   0.00472   0.00000   0.00846   0.00815   2.91769
   R14        2.91341   0.00717   0.00000   0.02434   0.02433   2.93774
   R15        2.07517  -0.00152   0.00000  -0.00422  -0.00422   2.07095
   R16        2.07602   0.00245   0.00000   0.00681   0.00681   2.08283
   R17        2.81363   0.01124   0.00000   0.02598   0.02576   2.83939
   R18        2.86623   0.01506   0.00000   0.05349   0.05299   2.91921
   R19        2.68389   0.00291   0.00000   0.00734   0.00738   2.69127
   R20        2.52295   0.01257   0.00000   0.02200   0.02213   2.54509
   R21        2.62077  -0.01804   0.00000  -0.04199  -0.04173   2.57904
   R22        2.79126   0.00128   0.00000  -0.00051  -0.00037   2.79089
   R23        2.79116   0.02012   0.00000   0.05433   0.05433   2.84549
   R24        2.32509  -0.00883   0.00000  -0.00949  -0.00949   2.31559
   R25        2.32599  -0.01790   0.00000  -0.01928  -0.01928   2.30671
   R26        2.88433  -0.00175   0.00000  -0.00550  -0.00550   2.87883
   R27        2.90407   0.00750   0.00000   0.02423   0.02423   2.92831
   R28        2.88741   0.00507   0.00000   0.01599   0.01599   2.90339
   R29        2.07470   0.00031   0.00000   0.00086   0.00086   2.07556
   R30        2.07197   0.00105   0.00000   0.00290   0.00290   2.07487
   R31        2.07325   0.00064   0.00000   0.00176   0.00176   2.07502
   R32        2.87865   0.00739   0.00000   0.02297   0.02297   2.90163
   R33        2.06893   0.00099   0.00000   0.00271   0.00271   2.07165
   R34        2.07094  -0.00044   0.00000  -0.00121  -0.00121   2.06973
   R35        2.06869  -0.00092   0.00000  -0.00254  -0.00254   2.06615
   R36        2.91155  -0.00033   0.00000   0.01076   0.01095   2.92250
   R37        2.90243   0.00549   0.00000   0.01792   0.01790   2.92033
[...]
     56          1           0        0.995509    4.222603    0.757658
     57          1           0        2.245089    4.584973   -0.441659
     58          1           0        0.575562    5.119743   -0.718254
     59          1           0       -4.145097    1.713557    3.496797
     60          1           0       -3.674689    3.032758    2.410427
     61          1           0       -4.728723    1.752495    1.819933
     62          6           0        4.774008   -1.590637   -1.535963
     63          1           0        5.797582   -1.503143   -1.155457
     64          1           0        4.826792   -2.080382   -2.515267
     65          1           0        4.393597   -0.574598   -1.691761
 ---------------------------------------------------------------------
 Rotational constants (GHZ):      0.1970846      0.1311326      0.1078129

 **********************************************************************

            Population analysis using the SCF density.

 **********************************************************************

 Orbital symmetries:
       Occupied  (A) (A) (A) (A) (A) (A) (A) (A) (A) (A) (A) (A)
                 (A) (A) (A) (A) (A) (A) (A) (A) (A) (A) (A) (A)
                 (A) (A) (A) (A) (A) (A) (A) (A) (A) (A) (A) (A)
                 (A) (A) (A) (A) (A) (A) (A) (A) (A) (A) (A) (A)
                 (A) (A) (A) (A) (A) (A) (A) (A) (A) (A) (A) (A)
                 (A) (A) (A) (A) (A) (A) (A) (A) (A) (A) (A) (A)
                 (A) (A) (A) (A) (A) (A) (A) (A) (A) (A) (A) (A)
                 (A) (A) (A) (A) (A) (A) (A) (A) (A) (A) (A) (A)
                 (A) (A) (A) (A) (A) (A) (A) (A) (A) (A) (A) (A)
                 (A) (A) (A) (A) (A) (A) (A)
       Virtual   (A) (A) (A) (A) (A) (A) (A) (A) (A) (A) (A) (A)
                 (A) (A) (A) (A) (A) (A) (A) (A) (A) (A) (A) (A)
                 (A) (A) (A) (A) (A) (A) (A) (A) (A) (A) (A) (A)
                 (A) (A) (A) (A) (A) (A) (A) (A) (A) (A) (A) (A)
                 (A) (A) (A) (A) (A) (A) (A) (A) (A) (A) (A) (A)
                 (A) (A) (A) (A) (A) (A) (A) (A) (A) (A) (A) (A)
                 (A) (A) (A) (A) (A) (A) (A) (A) (A) (A) (A) (A)
                 (A) (A) (A) (A) (A) (A) (A) (A) (A) (A) (A) (A)
                 (A) (A) (A) (A) (A) (A) (A) (A) (A) (A) (A) (A)
                 (A) (A) (A) (A) (A) (A) (A) (A) (A) (A) (A) (A)
                 (A) (A) (A) (A) (A) (A) (A) (A) (A) (A) (A) (A)
                 (A) (A) (A) (A) (A) (A) (A) (A) (A) (A) (A) (A)
                 (A) (A) (A) (A) (A) (A) (A) (A) (A) (A) (A) (A)
                 (A) (A) (A) (A) (A) (A) (A) (A) (A) (A) (A) (A)
                 (A) (A) (A) (A) (A) (A) (A) (A) (A) (A) (A) (A)
                 (A) (A) (A) (A) (A) (A) (A) (A) (A) (A) (A) (A)
                 (A) (A) (A) (A) (A) (A) (A) (A) (A) (A) (A) (A)
                 (A) (A) (A) (A) (A) (A) (A) (A) (A) (A) (A) (A)
                 (A) (A) (A) (A) (A) (A) (A) (A) (A) (A) (A) (A)
                 (A) (A) (A) (A) (A) (A) (A) (A) (A) (A) (A) (A)
                 (A) (A) (A) (A) (A) (A) (A) (A) (A) (A) (A) (A)
                 (A) (A) (A) (A) (A) (A) (A) (A) (A) (A) (A) (A)
                 (A) (A) (A) (A) (A) (A) (A) (A) (A) (A) (A) (A)
                 (A) (A) (A) (A) (A) (A) (A) (A) (A) (A) (A) (A)
                 (A) (A) (A) (A) (A) (A) (A) (A) (A) (A) (A) (A)
                 (A) (A) (A) (A) (A) (A) (A) (A) (A) (A) (A) (A)
                 (A) (A) (A) (A) (A) (A) (A) (A) (A) (A) (A) (A)
                 (A) (A) (A) (A) (A) (A) (A) (A) (A) (A) (A) (A)
                 (A) (A) (A) (A) (A) (A) (A) (A) (A) (A) (A) (A)
                 (A) (A) (A) (A) (A) (A) (A) (A) (A) (A) (A) (A)
                 (A) (A) (A) (A) (A) (A) (A) (A) (A) (A) (A) (A)
                 (A) (A) (A) (A) (A) (A) (A) (A) (A) (A) (A) (A)
                 (A) (A) (A) (A) (A) (A) (A) (A) (A) (A) (A) (A)
                 (A) (A) (A) (A) (A) (A) (A) (A) (A) (A) (A) (A)
                 (A) (A) (A) (A) (A) (A) (A) (A) (A) (A)
 The electronic state is 1-A.
 Alpha  occ. eigenvalues --  -19.19850 -19.17174 -19.15184 -19.13281 -19.11363
 Alpha  occ. eigenvalues --  -10.27341 -10.27279 -10.26610 -10.26214 -10.26049
 Alpha  occ. eigenvalues --  -10.25623 -10.24994 -10.21537 -10.20680 -10.20588
 Alpha  occ. eigenvalues --  -10.20411 -10.20391 -10.20133 -10.19963 -10.19295
 Alpha  occ. eigenvalues --  -10.19028 -10.18952 -10.18949 -10.18649 -10.18582
 Alpha  occ. eigenvalues --  -10.18331 -10.18182 -10.17093 -10.16683 -10.15679
 Alpha  occ. eigenvalues --  -10.15368  -1.09505  -1.06607  -1.03303  -1.02387
 Alpha  occ. eigenvalues --   -1.01374  -0.87101  -0.83752  -0.82188  -0.81381
 Alpha  occ. eigenvalues --   -0.80158  -0.78679  -0.76687  -0.74140  -0.73117
 Alpha  occ. eigenvalues --   -0.72135  -0.70619  -0.70096  -0.69199  -0.68299
 Alpha  occ. eigenvalues --   -0.65310  -0.64003  -0.63696  -0.61486  -0.60710
 Alpha  occ. eigenvalues --   -0.59179  -0.58222  -0.56847  -0.54684  -0.53414
 Alpha  occ. eigenvalues --   -0.52622  -0.51626  -0.51171  -0.49891  -0.49444
 Alpha  occ. eigenvalues --   -0.48062  -0.47024  -0.46853  -0.46415  -0.45969
 Alpha  occ. eigenvalues --   -0.45240  -0.44413  -0.44233  -0.43572  -0.43181
 Alpha  occ. eigenvalues --   -0.42698  -0.42587  -0.42386  -0.41586  -0.41385
 Alpha  occ. eigenvalues --   -0.40841  -0.40412  -0.40214  -0.39988  -0.39584
 Alpha  occ. eigenvalues --   -0.39340  -0.38953  -0.38491  -0.38182  -0.37574
 Alpha  occ. eigenvalues --   -0.37237  -0.37077  -0.36745  -0.36595  -0.36306
 Alpha  occ. eigenvalues --   -0.35810  -0.35487  -0.35164  -0.34444  -0.34115
 Alpha  occ. eigenvalues --   -0.33756  -0.33262  -0.32924  -0.32773  -0.32516
 Alpha  occ. eigenvalues --   -0.31424  -0.30606  -0.30262  -0.28268  -0.27364
 Alpha  occ. eigenvalues --   -0.25924  -0.24570  -0.24281  -0.23403  -0.21957
 Alpha virt. eigenvalues --   -0.04843  -0.00790   0.00926   0.00954   0.05582
 Alpha virt. eigenvalues --    0.07192   0.08189   0.08722   0.09519   0.10255
 Alpha virt. eigenvalues --    0.10401   0.11192   0.11441   0.11915   0.12168
 Alpha virt. eigenvalues --    0.12840   0.12919   0.13417   0.13723   0.14109
 Alpha virt. eigenvalues --    0.14874   0.14942   0.15183   0.15478   0.15846
 Alpha virt. eigenvalues --    0.16035   0.16363   0.16578   0.17110   0.17346
 Alpha virt. eigenvalues --    0.17824   0.18213   0.18461   0.18573   0.19161
 Alpha virt. eigenvalues --    0.19514   0.19577   0.20052   0.20298   0.20822
 Alpha virt. eigenvalues --    0.21006   0.21303   0.21592   0.21811   0.22277
 Alpha virt. eigenvalues --    0.22904   0.23571   0.23928   0.24188   0.24644
 Alpha virt. eigenvalues --    0.24916   0.25098   0.25557   0.26321   0.26421
 Alpha virt. eigenvalues --    0.27059   0.27202   0.28300   0.29335   0.30433
 Alpha virt. eigenvalues --    0.30889   0.32313   0.32525   0.33641   0.34446
 Alpha virt. eigenvalues --    0.35038   0.35260   0.37239   0.38043   0.39672
 Alpha virt. eigenvalues --    0.41517   0.44299   0.46291   0.47862   0.48056
 Alpha virt. eigenvalues --    0.49527   0.50086   0.50670   0.50753   0.51591
 Alpha virt. eigenvalues --    0.51681   0.52192   0.53135   0.53405   0.53492
 Alpha virt. eigenvalues --    0.53776   0.54399   0.54590   0.55155   0.55422
 Alpha virt. eigenvalues --    0.56401   0.57180   0.57733   0.58345   0.59126
 Alpha virt. eigenvalues --    0.59410   0.59977   0.60496   0.61192   0.62046
 Alpha virt. eigenvalues --    0.62435   0.63168   0.63378   0.64185   0.64548
 Alpha virt. eigenvalues --    0.65224   0.65558   0.66106   0.66992   0.67332
 Alpha virt. eigenvalues --    0.67866   0.68222   0.69169   0.69547   0.69902
 Alpha virt. eigenvalues --    0.70648   0.71125   0.71730   0.72014   0.72847
 Alpha virt. eigenvalues --    0.73322   0.74191   0.74754   0.75659   0.76349
 Alpha virt. eigenvalues --    0.76909   0.77010   0.78198   0.78528   0.79099
 Alpha virt. eigenvalues --    0.79961   0.80464   0.80625   0.81240   0.81863
 Alpha virt. eigenvalues --    0.83240   0.83410   0.84223   0.84755   0.84970
 Alpha virt. eigenvalues --    0.85332   0.85827   0.86192   0.86474   0.87033
 Alpha virt. eigenvalues --    0.87493   0.88299   0.88600   0.88957   0.89273
 Alpha virt. eigenvalues --    0.89552   0.89942   0.90171   0.90396   0.90617
 Alpha virt. eigenvalues --    0.91183   0.91284   0.91485   0.91813   0.92535
 Alpha virt. eigenvalues --    0.92801   0.93494   0.93524   0.94163   0.94748
 Alpha virt. eigenvalues --    0.95077   0.95532   0.96234   0.96768   0.97031
 Alpha virt. eigenvalues --    0.97759   0.98234   0.98572   0.99457   1.00137
 Alpha virt. eigenvalues --    1.00487   1.00999   1.02098   1.02762   1.03470
 Alpha virt. eigenvalues --    1.03981   1.04415   1.05857   1.06111   1.08548
 Alpha virt. eigenvalues --    1.09206   1.09498   1.10163   1.12647   1.12884
 Alpha virt. eigenvalues --    1.13325   1.14229   1.15163   1.16351   1.16406
 Alpha virt. eigenvalues --    1.17059   1.18351   1.18904   1.19791   1.20746
 Alpha virt. eigenvalues --    1.22685   1.23671   1.24660   1.25402   1.28692
 Alpha virt. eigenvalues --    1.29307   1.30777   1.31061   1.31723   1.33294
 Alpha virt. eigenvalues --    1.34680   1.35320   1.37305   1.38474   1.39920
 Alpha virt. eigenvalues --    1.40354   1.42468   1.44478   1.44805   1.45960
 Alpha virt. eigenvalues --    1.47807   1.48397   1.51031   1.51967   1.53004
 Alpha virt. eigenvalues --    1.54408   1.54986   1.56133   1.56776   1.57464
 Alpha virt. eigenvalues --    1.59353   1.61331   1.62564   1.63796   1.64436
 Alpha virt. eigenvalues --    1.64650   1.65415   1.66414   1.68439   1.68665
 Alpha virt. eigenvalues --    1.70577   1.70916   1.72634   1.73267   1.74202
 Alpha virt. eigenvalues --    1.75049   1.75186   1.76735   1.77008   1.77478
 Alpha virt. eigenvalues --    1.78821   1.79160   1.79699   1.80348   1.80781
 Alpha virt. eigenvalues --    1.82217   1.82655   1.83487   1.83913   1.84882
 Alpha virt. eigenvalues --    1.85579   1.86256   1.86754   1.87119   1.87737
 Alpha virt. eigenvalues --    1.87944   1.89132   1.89601   1.90293   1.92120
 Alpha virt. eigenvalues --    1.92611   1.92810   1.93871   1.94298   1.94779
 Alpha virt. eigenvalues --    1.95670   1.96642   1.96713   1.97618   1.98172
 Alpha virt. eigenvalues --    1.98761   1.99013   1.99701   2.00251   2.01546
 Alpha virt. eigenvalues --    2.01822   2.02584   2.03233   2.03885   2.05630
 Alpha virt. eigenvalues --    2.06164   2.07412   2.08146   2.08611   2.09580
 Alpha virt. eigenvalues --    2.09858   2.11260   2.11376   2.12672   2.13025
 Alpha virt. eigenvalues --    2.13967   2.15039   2.15769   2.16696   2.17639
 Alpha virt. eigenvalues --    2.18508   2.18632   2.20032   2.20847   2.22842
 Alpha virt. eigenvalues --    2.23184   2.24134   2.24514   2.25668   2.26506
 Alpha virt. eigenvalues --    2.27643   2.29041   2.29521   2.30304   2.31726
 Alpha virt. eigenvalues --    2.32541   2.32767   2.33122   2.34091   2.34746
 Alpha virt. eigenvalues --    2.35620   2.36941   2.38196   2.38751   2.40485
 Alpha virt. eigenvalues --    2.41026   2.41644   2.42096   2.43808   2.44715
 Alpha virt. eigenvalues --    2.45101   2.46059   2.46604   2.47767   2.49523
 Alpha virt. eigenvalues --    2.49726   2.50545   2.51932   2.53806   2.55172
 Alpha virt. eigenvalues --    2.56112   2.57284   2.58101   2.58289   2.60210
 Alpha virt. eigenvalues --    2.61183   2.62889   2.63187   2.64933   2.65471
 Alpha virt. eigenvalues --    2.66799   2.67454   2.68573   2.69829   2.71518
 Alpha virt. eigenvalues --    2.72604   2.73279   2.75771   2.76122   2.76770
 Alpha virt. eigenvalues --    2.77650   2.79169   2.79590   2.81784   2.84109
 Alpha virt. eigenvalues --    2.87504   2.89281   2.93447   2.95077   2.95285
 Alpha virt. eigenvalues --    2.97454   2.98560   2.99651   3.01179   3.03608
 Alpha virt. eigenvalues --    3.04295   3.06490   3.10937   3.13660   3.21434
 Alpha virt. eigenvalues --    3.23991   3.29812   3.99354   4.06591   4.09932
 Alpha virt. eigenvalues --    4.11543   4.14756   4.15439   4.17510   4.18982
 Alpha virt. eigenvalues --    4.21383   4.23880   4.24714   4.26776   4.30814
 Alpha virt. eigenvalues --    4.31642   4.34020   4.35385   4.39762   4.43158
 Alpha virt. eigenvalues --    4.46053   4.48195   4.52114   4.56554   4.60780
 Alpha virt. eigenvalues --    4.65259   4.65873   4.69229   4.74001   4.77114
 Alpha virt. eigenvalues --    4.88455   4.94889   5.24936
          Condensed to atoms (all electrons):
 Mulliken atomic charges:
              1
     1  C   -0.193990
     2  C    0.199003
     3  C   -0.198039
     4  C    0.314786
     5  C   -0.020988
     6  C   -0.330046
     7  C    0.193695
     8  C    0.403207
     9  C   -0.071039
    10  C    0.375547
    11  C    0.406620
    12  O   -0.473526
    13  C   -0.159149
    14  C   -0.263498
    15  C   -0.442278
    16  O   -0.488699
    17  C   -0.152740
    18  C    0.291570
    19  O   -0.488251
    20  C   -0.310973
    21  O   -0.667550
    22  C   -0.334998
    23  C    0.104059
    24  O   -0.584334
    25  C    0.188140
    26  C   -0.506369
    27  C   -0.393714
    28  C   -0.468541
    29  C   -0.459770
    30  H    0.148120
    31  H    0.147130
    32  C   -0.521367
    33  H    0.125594
    34  H    0.161549
    35  H    0.165334
    36  H    0.161036
    37  H    0.155835
    38  H    0.133090
    39  H    0.130065
    40  H    0.141133
    41  H    0.161885
    42  H    0.163968
    43  H    0.152116
    44  H    0.422638
    45  H    0.148415
    46  H    0.189177
    47  H    0.135570
    48  H    0.169042
    49  H    0.154275
    50  H    0.151109
    51  H    0.139466
    52  H    0.152432
    53  H    0.163190
    54  H    0.144399
    55  H    0.194552
    56  H    0.162628
    57  H    0.170983
    58  H    0.149055
    59  H    0.158776
    60  H    0.156785
    61  H    0.154908
    62  C   -0.448591
    63  H    0.145481
    64  H    0.137766
    65  H    0.154322
 Sum of Mulliken atomic charges =   0.00000
 Mulliken charges with hydrogens summed into heavy atoms:
              1
     1  C   -0.068396
     2  C    0.199003
     3  C   -0.050910
     4  C    0.314786
     5  C   -0.020988
     6  C   -0.003162
     7  C    0.193695
     8  C    0.403207
     9  C   -0.071039
    10  C    0.375547
    11  C    0.406620
    12  O   -0.473526
    13  C    0.001887
    14  C    0.025426
    15  C   -0.009195
    16  O   -0.488699
    17  C   -0.004620
    18  C    0.291570
    19  O   -0.488251
    20  C    0.005111
    21  O   -0.244911
    22  C    0.002594
    23  C    0.239629
    24  O   -0.584334
    25  C    0.188140
    26  C   -0.031943
    27  C   -0.101816
    28  C    0.033599
    29  C    0.022896
    32  C   -0.050897
    62  C   -0.011022
 Sum of Mulliken charges with hydrogens summed into heavy atoms =   0.00000
 Electronic spatial extent (au):  <R**2>=          11708.8628
 Charge=              0.0000 electrons
 Dipole moment (field-independent basis, Debye):
    X=             -5.7726    Y=              2.6412    Z=              0.0008  Tot=              6.3481
 Quadrupole moment (field-independent basis, Debye-Ang):
   XX=           -189.7050   YY=           -176.3007   ZZ=           -181.5506
   XY=             -2.4606   XZ=             -4.1990   YZ=             -2.3022
 Traceless Quadrupole moment (field-independent basis, Debye-Ang):
   XX=             -7.1862   YY=              6.2180   ZZ=              0.9682
   XY=             -2.4606   XZ=             -4.1990   YZ=             -2.3022
 Octapole moment (field-independent basis, Debye-Ang**2):
  XXX=            -62.2045  YYY=             57.0752  ZZZ=              3.2784  XYY=            -10.9625
  XXY=            -19.5193  XXZ=            -24.8391  XZZ=            -13.8209  YZZ=             -2.3941
  YYZ=            -24.8024  XYZ=            -15.9907
 Hexadecapole moment (field-independent basis, Debye-Ang**3):
 XXXX=          -8493.3720 YYYY=          -4685.3733 ZZZZ=          -2530.2295 XXXY=            -69.1847
 XXXZ=            -20.0592 YYYX=             86.2265 YYYZ=            -21.7051 ZZZX=             13.6501
 ZZZY=            -15.6153 XXYY=          -2153.3494 XXZZ=          -1792.9434 YYZZ=          -1205.3501
 XXYZ=             16.5423 YYXZ=             12.9993 ZZXY=             30.2949
 N-N= 3.498863162141D+03 E-N=-1.022409092474D+04  KE= 1.374458631271D+03
 1\1\GINC-B0606\FOpt\RB3LYP\6-31G(d)\C26H34O5\CAOFEI\24-Mar-2021\0\\# o
 pt rb3lyp/6-31g(d) geom=connectivity\\Title Card Required\\0,1\C,-0.11
 19881532,0.0898491888,-0.0480935957\C,1.2090556325,-0.0710175998,0.096
 2596631\C,2.1333341638,1.1183501768,-0.0275387686\C,1.523278311,2.5067
 213478,0.3546554828\C,-0.0371377564,2.6025421184,0.4098446405\C,-0.739
 1258531,1.4283594042,-0.3362551503\C,2.1872913161,3.5126695909,-0.6320
 693547\C,1.2623680488,3.9202136358,-1.7747082815\C,-0.0494232064,4.255
 627934,-1.582970164\C,-0.5950684975,3.9038161081,-0.2536695405\C,-0.85
 79986582,4.8828174411,-2.68568995\O,-0.5091290727,4.7277936027,-3.8481
 813549\C,-2.0772015464,5.7386420054,-2.3391417686\C,-1.6199226281,7.07
 0557703,-1.6807430275\C,-2.9590525182,5.9539144007,-3.5739577009\O,-1.
 5431871919,4.4751065736,0.2713159427\C,3.2846321331,2.7627010272,-1.41
 69624981\C,3.3340527116,3.5222154569,-2.7596974073\O,1.9313732327,3.99
 27271722,-2.9186687731\C,2.7384776544,1.3211396975,-1.4420571135\O,2.6
 107379296,4.6938387738,0.0173141882\C,-0.3551734381,2.5939597475,1.929
 0345623\C,0.9928977546,2.4010811132,2.6281522052\O,1.9659705612,2.8800
 73812,1.6666629497\C,1.2466951899,3.0847183822,3.9536909961\C,2.665052
 1022,2.9870769906,4.4617838885\C,0.2770420741,3.6739788089,4.658700472
 8\C,4.2293355971,4.7622971563,-2.7001643073\C,3.6339713873,2.684063947
 3,-3.9982878618\H,4.2430642276,2.8129841176,-0.8920774677\H,2.97562787
 16,0.9880702711,0.6657893127\C,1.8489964686,-1.4113444435,0.3491751496
 \H,-0.7721985819,-0.7739664181,0.0138820811\H,-1.7973224449,1.43078930
 55,-0.0524174746\H,-0.7218908322,1.6179721426,-1.4189579702\H,-2.64838
 27916,5.2100800448,-1.5692521002\H,-1.0950382015,6.8332549772,-0.74924
 20211\H,-2.5256419784,7.6186344793,-1.3879746965\H,-3.8179367606,6.585
 0427122,-3.3172259706\H,-3.3387915333,5.0003078593,-3.9561176041\H,-2.
 4061094568,6.428224663,-4.3885877339\H,1.9485684735,1.2179778384,-2.19
 56177972\H,3.5060395336,0.577122475,-1.6759623162\H,2.5313789516,4.498
 003542,0.9733316238\H,-1.0571620121,1.7993494507,2.1953104872\H,-0.817
 092864,3.5476340528,2.1910945184\H,1.1846442786,1.3237733297,2.7653178
 309\H,3.367745676,3.4650866827,3.769784129\H,2.7693029134,3.4585272949
 ,5.4433492326\H,2.9795370248,1.9378965473,4.5509915959\H,0.4824693468,
 4.1143373233,5.6311164648\H,-0.7487313704,3.7369982475,4.3106545392\H,
 4.0745703067,5.3759578938,-3.5932881648\H,5.2827383678,4.4612481806,-2
 .6676638013\H,4.0114752667,5.3615594869,-1.8131772314\H,2.934939785,1.
 8512235767,-4.1068159082\H,3.5625314308,3.3051769297,-4.8962921246\H,4
 .6512945456,2.2817829611,-3.9386566569\H,1.1021987961,-2.2094176949,0.
 4071935658\H,2.5599524873,-1.6731106571,-0.446682033\H,2.4201371661,-1
 .4087039633,1.2880474144\C,-0.7419031224,7.9684828773,-2.5603730307\H,
 -1.2654738461,8.2895406704,-3.4675330383\H,-0.4488790975,8.8710714057,
 -2.0116089652\H,0.1752846955,7.4569961205,-2.8741722122\\Version=EM64L
 -G09RevB.01\State=1-A\HF=-1387.3193791\RMSD=5.397e-09\RMSF=2.376e-06\D
 ipole=1.445667,-1.7742541,0.999898\Quadrupole=2.8875658,1.641261,-4.52
 88268,0.1088103,-4.7087465,1.8124037\PG=C01 [X(C26H34O5)]\\@


 READER, WHETHER YOU BE DILETTANTE OR PROFESSOR ... SHOW YOURSELF TO BE
 MORE HUMAN THAN CRITICAL, AND THEN YOUR PLEASURE WILL INCREASE.
                                           -- DOMENICO SCARLATTI (1738)
 Job cpu time:  0 days  7 hours 37 minutes 31.2 seconds.
 File lengths (MBytes):  RWF=    186 Int=      0 D2E=      0 Chk=     20 Scr=      1
 Normal termination of Gaussian 09 at Wed Mar 24 15:16:17 2021.
