 Entering Gaussian System, Link 0=g09
 Initial command:
 /public/software/g09/g09/l1.exe /tmp/Gau-21238.inp -scrdir=/tmp/
 Entering Link 1 = /public/software/g09/g09/l1.exe PID=     21239.
  
 Copyright (c) 1988,1990,1992,1993,1995,1998,2003,2009,2010,
            Gaussian, Inc.  All Rights Reserved.
  
 This is part of the Gaussian(R) 09 program.  It is based on
 the Gaussian(R) 03 system (copyright 2003, Gaussian, Inc.),
 the Gaussian(R) 98 system (copyright 1998, Gaussian, Inc.),
 the Gaussian(R) 94 system (copyright 1995, Gaussian, Inc.),
 the Gaussian 92(TM) system (copyright 1992, Gaussian, Inc.),
 the Gaussian 90(TM) system (copyright 1990, Gaussian, Inc.),
 the Gaussian 88(TM) system (copyright 1988, Gaussian, Inc.),
 the Gaussian 86(TM) system (copyright 1986, Carnegie Mellon
 University), and the Gaussian 82(TM) system (copyright 1983,
 Carnegie Mellon University). Gaussian is a federally registered
 trademark of Gaussian, Inc.
  
 This software contains proprietary and confidential information,
 including trade secrets, belonging to Gaussian, Inc.
  
 This software is provided under written license and may be
 used, copied, transmitted, or stored only in accord with that
 written license.
  
 The following legend is applicable only to US Government
 contracts under FAR:
  
                    RESTRICTED RIGHTS LEGEND
  
 Use, reproduction and disclosure by the US Government is
 subject to restrictions as set forth in subparagraphs (a)
 and (c) of the Commercial Computer Software - Restricted
 Rights clause in FAR 52.227-19.
  
 Gaussian, Inc.
 340 Quinnipiac St., Bldg. 40, Wallingford CT 06492
  
  
 ---------------------------------------------------------------
 Warning -- This program may not be used in any manner that
 competes with the business of Gaussian, Inc. or will provide
 assistance to any competitor of Gaussian, Inc.  The licensee
 of this program is prohibited from giving any competitor of
 Gaussian, Inc. access to this program.  By using this program,
 the user acknowledges that Gaussian, Inc. is engaged in the
 business of creating and licensing software in the field of
 computational chemistry and represents and warrants to the
 licensee that it is not a competitor of Gaussian, Inc. and that
 it will not use this program in any manner prohibited above.
 ---------------------------------------------------------------
  

 Cite this work as:
 Gaussian 09, Revision B.01,
 M. J. Frisch, G. W. Trucks, H. B. Schlegel, G. E. Scuseria, 
 M. A. Robb, J. R. Cheeseman, G. Scalmani, V. Barone, B. Mennucci, 
 G. A. Petersson, H. Nakatsuji, M. Caricato, X. Li, H. P. Hratchian, 
 A. F. Izmaylov, J. Bloino, G. Zheng, J. L. Sonnenberg, M. Hada, 
 M. Ehara, K. Toyota, R. Fukuda, J. Hasegawa, M. Ishida, T. Nakajima, 
 Y. Honda, O. Kitao, H. Nakai, T. Vreven, J. A. Montgomery, Jr., 
 J. E. Peralta, F. Ogliaro, M. Bearpark, J. J. Heyd, E. Brothers, 
 K. N. Kudin, V. N. Staroverov, T. Keith, R. Kobayashi, J. Normand, 
 K. Raghavachari, A. Rendell, J. C. Burant, S. S. Iyengar, J. Tomasi, 
 M. Cossi, N. Rega, J. M. Millam, M. Klene, J. E. Knox, J. B. Cross, 
 V. Bakken, C. Adamo, J. Jaramillo, R. Gomperts, R. E. Stratmann, 
 O. Yazyev, A. J. Austin, R. Cammi, C. Pomelli, J. W. Ochterski, 
 R. L. Martin, K. Morokuma, V. G. Zakrzewski, G. A. Voth, 
 P. Salvador, J. J. Dannenberg, S. Dapprich, A. D. Daniels, 
 O. Farkas, J. B. Foresman, J. V. Ortiz, J. Cioslowski, 
 and D. J. Fox, Gaussian, Inc., Wallingford CT, 2010.
 
 ******************************************
 Gaussian 09:  EM64L-G09RevB.01 12-Aug-2010
                24-Mar-2021 
 ******************************************
 %mem=600MW
 %nprocshared=10
 Will use up to   10 processors via shared memory.
 ---------------------------------------
 # opt rb3lyp/6-31g(d) geom=connectivity
 ---------------------------------------
 1/14=-1,18=20,19=15,26=3,38=1,57=2/1,3;
 2/9=110,12=2,17=6,18=5,40=1/2;
 3/5=1,6=6,7=1,11=2,16=1,25=1,30=1,71=1,74=-5,116=1/1,2,3;
 4//1;
 5/5=2,38=5/2;
 6/7=2,8=2,9=2,10=2,28=1/1;
 7//1,2,3,16;
 1/14=-1,18=20,19=15/3(2);
 2/9=110/2;
 99//99;
 2/9=110/2;
 3/5=1,6=6,7=1,11=2,16=1,25=1,30=1,71=1,74=-5,116=1/1,2,3;
 4/5=5,16=3/1;
 5/5=2,38=5/2;
 7//1,2,3,16;
 1/14=-1,18=20,19=15/3(-5);
 2/9=110/2;
 6/7=2,8=2,9=2,10=2,19=2,28=1/1;
 99/9=1/99;
 -------------------
 Title Card Required
 -------------------
 Symbolic Z-matrix:
 Charge =  0 Multiplicity = 1
 C                     0.        0.        0. 
 C                     1.3406    0.        0. 
 C                     2.1168    1.2916    0. 
 C                     1.3923    2.5337    0.6011 
 C                    -0.1337    2.426     0.7871 
 C                    -0.7948    1.2655    0.0057 
 C                     1.851     3.7052   -0.3028 
 C                     0.8283    4.2238   -1.2547 
 C                    -0.4737    4.3092   -0.9572 
 C                    -0.8958    3.6786    0.3193 
 C                    -1.4481    4.9003   -1.9141 
 O                    -1.2117    5.9726   -2.4709 
 C                    -2.71      4.0972   -2.2278 
 C                    -3.9388    5.009    -2.3623 
 C                    -2.4666    3.3278   -3.5263 
 O                    -1.933     4.0519    0.8651 
 C                     2.9021    3.1829   -1.2625 
 C                     2.7316    4.0896   -2.4959 
 O                     1.3409    4.4886   -2.5171 
 C                     2.5018    1.7142   -1.4246 
 O                     2.3565    4.7984    0.4501 
 C                    -0.2873    2.1978    2.2943 
 C                     0.9634    2.7793    2.9312 
 O                     1.9782    2.757     1.9171 
 C                     0.9417    4.17      3.5305 
 C                     2.2209    4.5815    4.2199 
 C                    -0.1064    5.0103    3.5337 
 C                     3.5847    5.3647   -2.4048 
 C                     3.0466    3.3865   -3.8191 
 H                     3.9185    3.248    -0.8542 
 H                     3.0407    1.1277    0.5741 
 C                     2.138    -1.2723   -0.0364 
 H                    -0.5527   -0.9361   -0.0382 
 H                    -1.7817    1.0565    0.4405 
 H                    -0.9855    1.5356   -1.0408 
 H                    -2.9025    3.3687   -1.4336 
 H                    -3.7581    5.7955   -3.105 
 H                    -4.7906    4.4208   -2.7251 
 H                    -3.3299    2.7027   -3.7771 
 H                    -1.592     2.6742   -3.4356 
 H                    -2.2827    4.0085   -4.365 
 H                     3.3306    1.1165   -1.8192 
 H                     1.6505    1.5936   -2.1061 
 H                     2.6069    4.4296    1.3207 
 H                    -0.2879    1.1203    2.5078 
 H                    -1.2184    2.5747    2.7263 
 H                     1.2867    2.0971    3.7279 
 H                     2.4638    3.8731    5.0189 
 H                     3.0561    4.6064    3.5138 
 H                     2.1461    5.5756    4.674 
 H                    -1.0637    4.7697    3.0885 
 H                    -0.0417    5.9903    3.999 
 H                     3.3247    5.9752   -1.5351 
 H                     3.4139    6.0062   -3.2774 
 H                     4.6523    5.1269   -2.3556 
 H                     4.0665    2.9887   -3.8282 
 H                     2.9399    4.0801   -4.6616 
 H                     2.3459    2.5705   -4.0233 
 H                     1.496    -2.1593   -0.0533 
 H                     2.7704   -1.302    -0.9294 
 H                     2.7796   -1.3428    0.8478 
 C                    -4.3336    5.656    -1.0414 
 H                    -3.5402    6.3057   -0.6598 
 H                    -4.5526    4.897    -0.2838 
 H                    -5.2316    6.2674   -1.1759 
 

 GradGradGradGradGradGradGradGradGradGradGradGradGradGradGradGradGradGrad
 Berny optimization.
 Initialization pass.
                           ----------------------------
                           !    Initial Parameters    !
                           ! (Angstroms and Degrees)  !
 --------------------------                            --------------------------
 ! Name  Definition              Value          Derivative Info.                !
 --------------------------------------------------------------------------------
 ! R1    R(1,2)                  1.3406         estimate D2E/DX2                !
 ! R2    R(1,6)                  1.4944         estimate D2E/DX2                !
 ! R3    R(1,33)                 1.0878         estimate D2E/DX2                !
 ! R4    R(2,3)                  1.5069         estimate D2E/DX2                !
 ! R5    R(2,32)                 1.502          estimate D2E/DX2                !
 ! R6    R(3,4)                  1.5585         estimate D2E/DX2                !
 ! R7    R(3,20)                 1.535          estimate D2E/DX2                !
 ! R8    R(3,31)                 1.1            estimate D2E/DX2                !
 ! R9    R(4,5)                  1.5411         estimate D2E/DX2                !
 ! R10   R(4,7)                  1.5491         estimate D2E/DX2                !
 ! R11   R(4,24)                 1.4577         estimate D2E/DX2                !
 ! R12   R(5,6)                  1.5474         estimate D2E/DX2                !
 ! R13   R(5,10)                 1.539          estimate D2E/DX2                !
 ! R14   R(5,22)                 1.5321         estimate D2E/DX2                !
 ! R15   R(6,34)                 1.0985         estimate D2E/DX2                !
 ! R16   R(6,35)                 1.0975         estimate D2E/DX2                !
 ! R17   R(7,8)                  1.4903         estimate D2E/DX2                !
 ! R18   R(7,17)                 1.5161         estimate D2E/DX2                !
 ! R19   R(7,21)                 1.4204         estimate D2E/DX2                !
 ! R20   R(8,9)                  1.3383         estimate D2E/DX2                !
 ! R21   R(8,19)                 1.388          estimate D2E/DX2                !
 ! R22   R(9,10)                 1.485          estimate D2E/DX2                !
 ! R23   R(9,11)                 1.4881         estimate D2E/DX2                !
 ! R24   R(10,16)                1.2301         estimate D2E/DX2                !
 ! R25   R(11,12)                1.2312         estimate D2E/DX2                !
 ! R26   R(11,13)                1.5283         estimate D2E/DX2                !
 ! R27   R(13,14)                1.536          estimate D2E/DX2                !
 ! R28   R(13,15)                1.5288         estimate D2E/DX2                !
 ! R29   R(13,36)                1.0948         estimate D2E/DX2                !
 ! R30   R(14,37)                1.0967         estimate D2E/DX2                !
 ! R31   R(14,38)                1.0969         estimate D2E/DX2                !
 ! R32   R(14,62)                1.5229         estimate D2E/DX2                !
 ! R33   R(15,39)                1.095          estimate D2E/DX2                !
 ! R34   R(15,40)                1.0956         estimate D2E/DX2                !
 ! R35   R(15,41)                1.0957         estimate D2E/DX2                !
 ! R36   R(17,18)                1.5403         estimate D2E/DX2                !
 ! R37   R(17,20)                1.5309         estimate D2E/DX2                !
 ! R38   R(17,30)                1.0973         estimate D2E/DX2                !
 ! R39   R(18,19)                1.447          estimate D2E/DX2                !
 ! R40   R(18,28)                1.5369         estimate D2E/DX2                !
 ! R41   R(18,29)                1.5312         estimate D2E/DX2                !
 ! R42   R(20,42)                1.0954         estimate D2E/DX2                !
 ! R43   R(20,43)                1.0971         estimate D2E/DX2                !
 ! R44   R(21,44)                0.9781         estimate D2E/DX2                !
 ! R45   R(22,23)                1.5192         estimate D2E/DX2                !
 ! R46   R(22,45)                1.0984         estimate D2E/DX2                !
 ! R47   R(22,46)                1.0934         estimate D2E/DX2                !
 ! R48   R(23,24)                1.4348         estimate D2E/DX2                !
 ! R49   R(23,25)                1.5145         estimate D2E/DX2                !
 ! R50   R(23,47)                1.0976         estimate D2E/DX2                !
 ! R51   R(24,44)                1.8838         estimate D2E/DX2                !
 ! R52   R(25,26)                1.5103         estimate D2E/DX2                !
 ! R53   R(25,27)                1.3434         estimate D2E/DX2                !
 ! R54   R(26,48)                1.0951         estimate D2E/DX2                !
 ! R55   R(26,49)                1.094          estimate D2E/DX2                !
 ! R56   R(26,50)                1.0955         estimate D2E/DX2                !
 ! R57   R(27,51)                1.0828         estimate D2E/DX2                !
 ! R58   R(27,52)                1.0868         estimate D2E/DX2                !
 ! R59   R(28,53)                1.0939         estimate D2E/DX2                !
 ! R60   R(28,54)                1.0964         estimate D2E/DX2                !
 ! R61   R(28,55)                1.0949         estimate D2E/DX2                !
 ! R62   R(29,56)                1.0948         estimate D2E/DX2                !
 ! R63   R(29,57)                1.0965         estimate D2E/DX2                !
 ! R64   R(29,58)                1.0948         estimate D2E/DX2                !
 ! R65   R(32,59)                1.0951         estimate D2E/DX2                !
 ! R66   R(32,60)                1.0947         estimate D2E/DX2                !
 ! R67   R(32,61)                1.0947         estimate D2E/DX2                !
 ! R68   R(62,63)                1.0942         estimate D2E/DX2                !
 ! R69   R(62,64)                1.0945         estimate D2E/DX2                !
 ! R70   R(62,65)                1.0947         estimate D2E/DX2                !
 ! A1    A(2,1,6)              122.1307         estimate D2E/DX2                !
 ! A2    A(2,1,33)             120.5379         estimate D2E/DX2                !
 ! A3    A(6,1,33)             117.3004         estimate D2E/DX2                !
 ! A4    A(1,2,3)              121.0042         estimate D2E/DX2                !
 ! A5    A(1,2,32)             122.0664         estimate D2E/DX2                !
 ! A6    A(3,2,32)             116.9103         estimate D2E/DX2                !
 ! A7    A(2,3,4)              116.3372         estimate D2E/DX2                !
 ! A8    A(2,3,20)             111.4177         estimate D2E/DX2                !
 ! A9    A(2,3,31)             107.7533         estimate D2E/DX2                !
 ! A10   A(4,3,20)             104.7807         estimate D2E/DX2                !
 ! A11   A(4,3,31)             107.9322         estimate D2E/DX2                !
 ! A12   A(20,3,31)            108.344          estimate D2E/DX2                !
 ! A13   A(3,4,5)              116.8187         estimate D2E/DX2                !
 ! A14   A(3,4,7)              103.8866         estimate D2E/DX2                !
 ! A15   A(3,4,24)             106.4647         estimate D2E/DX2                !
 ! A16   A(5,4,7)              114.6125         estimate D2E/DX2                !
 ! A17   A(5,4,24)             107.442          estimate D2E/DX2                !
 ! A18   A(7,4,24)             106.9718         estimate D2E/DX2                !
 ! A19   A(4,5,6)              114.4894         estimate D2E/DX2                !
 ! A20   A(4,5,10)             113.3766         estimate D2E/DX2                !
 ! A21   A(4,5,22)             103.204          estimate D2E/DX2                !
 ! A22   A(6,5,10)             104.2021         estimate D2E/DX2                !
 ! A23   A(6,5,22)             110.0132         estimate D2E/DX2                !
 ! A24   A(10,5,22)            111.7525         estimate D2E/DX2                !
 ! A25   A(1,6,5)              114.1922         estimate D2E/DX2                !
 ! A26   A(1,6,34)             108.5548         estimate D2E/DX2                !
 ! A27   A(1,6,35)             107.2888         estimate D2E/DX2                !
 ! A28   A(5,6,34)             109.0652         estimate D2E/DX2                !
 ! A29   A(5,6,35)             111.7885         estimate D2E/DX2                !
 ! A30   A(34,6,35)            105.5536         estimate D2E/DX2                !
 ! A31   A(4,7,8)              115.6358         estimate D2E/DX2                !
 ! A32   A(4,7,17)             108.3068         estimate D2E/DX2                !
 ! A33   A(4,7,21)             112.2174         estimate D2E/DX2                !
 ! A34   A(8,7,17)             101.0299         estimate D2E/DX2                !
 ! A35   A(8,7,21)             108.3591         estimate D2E/DX2                !
 ! A36   A(17,7,21)            110.7287         estimate D2E/DX2                !
 ! A37   A(7,8,9)              123.2197         estimate D2E/DX2                !
 ! A38   A(7,8,19)             113.1967         estimate D2E/DX2                !
 ! A39   A(9,8,19)             123.3195         estimate D2E/DX2                !
 ! A40   A(8,9,10)             116.1371         estimate D2E/DX2                !
 ! A41   A(8,9,11)             121.2943         estimate D2E/DX2                !
 ! A42   A(10,9,11)            122.3637         estimate D2E/DX2                !
 ! A43   A(5,10,9)             117.7838         estimate D2E/DX2                !
 ! A44   A(5,10,16)            121.9832         estimate D2E/DX2                !
 ! A45   A(9,10,16)            119.4865         estimate D2E/DX2                !
 ! A46   A(9,11,12)            120.7335         estimate D2E/DX2                !
 ! A47   A(9,11,13)            117.639          estimate D2E/DX2                !
 ! A48   A(12,11,13)           121.5599         estimate D2E/DX2                !
 ! A49   A(11,13,14)           111.5043         estimate D2E/DX2                !
 ! A50   A(11,13,15)           107.8986         estimate D2E/DX2                !
 ! A51   A(11,13,36)           110.2399         estimate D2E/DX2                !
 ! A52   A(14,13,15)           110.5931         estimate D2E/DX2                !
 ! A53   A(14,13,36)           108.5337         estimate D2E/DX2                !
 ! A54   A(15,13,36)           108.0147         estimate D2E/DX2                !
 ! A55   A(13,14,37)           110.6819         estimate D2E/DX2                !
 ! A56   A(13,14,38)           109.3827         estimate D2E/DX2                !
 ! A57   A(13,14,62)           112.5586         estimate D2E/DX2                !
 ! A58   A(37,14,38)           106.7693         estimate D2E/DX2                !
 ! A59   A(37,14,62)           108.9903         estimate D2E/DX2                !
 ! A60   A(38,14,62)           108.2633         estimate D2E/DX2                !
 ! A61   A(13,15,39)           110.8746         estimate D2E/DX2                !
 ! A62   A(13,15,40)           110.9165         estimate D2E/DX2                !
 ! A63   A(13,15,41)           111.358          estimate D2E/DX2                !
 ! A64   A(39,15,40)           107.9254         estimate D2E/DX2                !
 ! A65   A(39,15,41)           108.1594         estimate D2E/DX2                !
 ! A66   A(40,15,41)           107.4574         estimate D2E/DX2                !
 ! A67   A(7,17,18)            103.1409         estimate D2E/DX2                !
 ! A68   A(7,17,20)            102.4888         estimate D2E/DX2                !
 ! A69   A(7,17,30)            112.7185         estimate D2E/DX2                !
 ! A70   A(18,17,20)           116.8089         estimate D2E/DX2                !
 ! A71   A(18,17,30)           111.4432         estimate D2E/DX2                !
 ! A72   A(20,17,30)           109.7873         estimate D2E/DX2                !
 ! A73   A(17,18,19)           106.2868         estimate D2E/DX2                !
 ! A74   A(17,18,28)           112.3018         estimate D2E/DX2                !
 ! A75   A(17,18,29)           113.511          estimate D2E/DX2                !
 ! A76   A(19,18,28)           107.7938         estimate D2E/DX2                !
 ! A77   A(19,18,29)           108.1611         estimate D2E/DX2                !
 ! A78   A(28,18,29)           108.5428         estimate D2E/DX2                !
 ! A79   A(8,19,18)            106.7991         estimate D2E/DX2                !
 ! A80   A(3,20,17)            103.3816         estimate D2E/DX2                !
 ! A81   A(3,20,42)            111.9548         estimate D2E/DX2                !
 ! A82   A(3,20,43)            110.5856         estimate D2E/DX2                !
 ! A83   A(17,20,42)           111.3331         estimate D2E/DX2                !
 ! A84   A(17,20,43)           111.9702         estimate D2E/DX2                !
 ! A85   A(42,20,43)           107.6587         estimate D2E/DX2                !
 ! A86   A(7,21,44)            105.8263         estimate D2E/DX2                !
 ! A87   A(5,22,23)            105.8351         estimate D2E/DX2                !
 ! A88   A(5,22,45)            109.7165         estimate D2E/DX2                !
 ! A89   A(5,22,46)            115.0046         estimate D2E/DX2                !
 ! A90   A(23,22,45)           107.1233         estimate D2E/DX2                !
 ! A91   A(23,22,46)           113.7945         estimate D2E/DX2                !
 ! A92   A(45,22,46)           105.1212         estimate D2E/DX2                !
 ! A93   A(22,23,24)           106.2606         estimate D2E/DX2                !
 ! A94   A(22,23,25)           120.3694         estimate D2E/DX2                !
 ! A95   A(22,23,47)           107.9928         estimate D2E/DX2                !
 ! A96   A(24,23,25)           107.7031         estimate D2E/DX2                !
 ! A97   A(24,23,47)           107.1601         estimate D2E/DX2                !
 ! A98   A(25,23,47)           106.7224         estimate D2E/DX2                !
 ! A99   A(4,24,23)            110.8652         estimate D2E/DX2                !
 ! A100  A(23,25,26)           114.7519         estimate D2E/DX2                !
 ! A101  A(23,25,27)           125.9099         estimate D2E/DX2                !
 ! A102  A(26,25,27)           119.2952         estimate D2E/DX2                !
 ! A103  A(25,26,48)           110.1613         estimate D2E/DX2                !
 ! A104  A(25,26,49)           110.9909         estimate D2E/DX2                !
 ! A105  A(25,26,50)           112.2495         estimate D2E/DX2                !
 ! A106  A(48,26,49)           108.4402         estimate D2E/DX2                !
 ! A107  A(48,26,50)           107.4412         estimate D2E/DX2                !
 ! A108  A(49,26,50)           107.3995         estimate D2E/DX2                !
 ! A109  A(25,27,51)           123.3528         estimate D2E/DX2                !
 ! A110  A(25,27,52)           121.2405         estimate D2E/DX2                !
 ! A111  A(51,27,52)           115.4058         estimate D2E/DX2                !
 ! A112  A(18,28,53)           112.2234         estimate D2E/DX2                !
 ! A113  A(18,28,54)           110.5965         estimate D2E/DX2                !
 ! A114  A(18,28,55)           111.3293         estimate D2E/DX2                !
 ! A115  A(53,28,54)           105.6155         estimate D2E/DX2                !
 ! A116  A(53,28,55)           108.4961         estimate D2E/DX2                !
 ! A117  A(54,28,55)           108.3453         estimate D2E/DX2                !
 ! A118  A(18,29,56)           111.4504         estimate D2E/DX2                !
 ! A119  A(18,29,57)           110.7026         estimate D2E/DX2                !
 ! A120  A(18,29,58)           111.8255         estimate D2E/DX2                !
 ! A121  A(56,29,57)           108.3078         estimate D2E/DX2                !
 ! A122  A(56,29,58)           108.8978         estimate D2E/DX2                !
 ! A123  A(57,29,58)           105.4198         estimate D2E/DX2                !
 ! A124  A(2,32,59)            112.04           estimate D2E/DX2                !
 ! A125  A(2,32,60)            110.4546         estimate D2E/DX2                !
 ! A126  A(2,32,61)            110.2508         estimate D2E/DX2                !
 ! A127  A(59,32,60)           107.7055         estimate D2E/DX2                !
 ! A128  A(59,32,61)           107.6917         estimate D2E/DX2                !
 ! A129  A(60,32,61)           108.5761         estimate D2E/DX2                !
 ! A130  A(14,62,63)           111.5173         estimate D2E/DX2                !
 ! A131  A(14,62,64)           110.9539         estimate D2E/DX2                !
 ! A132  A(14,62,65)           110.083          estimate D2E/DX2                !
 ! A133  A(63,62,64)           108.3876         estimate D2E/DX2                !
 ! A134  A(63,62,65)           107.8212         estimate D2E/DX2                !
 ! A135  A(64,62,65)           107.9517         estimate D2E/DX2                !
 ! D1    D(6,1,2,3)             -0.2581         estimate D2E/DX2                !
 ! D2    D(6,1,2,32)          -178.6193         estimate D2E/DX2                !
 ! D3    D(33,1,2,3)           177.6632         estimate D2E/DX2                !
 ! D4    D(33,1,2,32)           -0.698          estimate D2E/DX2                !
 ! D5    D(2,1,6,5)            -33.3596         estimate D2E/DX2                !
 ! D6    D(2,1,6,34)          -155.2655         estimate D2E/DX2                !
 ! D7    D(2,1,6,35)            91.1126         estimate D2E/DX2                !
 ! D8    D(33,1,6,5)           148.6552         estimate D2E/DX2                !
 ! D9    D(33,1,6,34)           26.7493         estimate D2E/DX2                !
 ! D10   D(33,1,6,35)          -86.8726         estimate D2E/DX2                !
 ! D11   D(1,2,3,4)             25.49           estimate D2E/DX2                !
 ! D12   D(1,2,3,20)           -94.5078         estimate D2E/DX2                !
 ! D13   D(1,2,3,31)           146.7704         estimate D2E/DX2                !
 ! D14   D(32,2,3,4)          -156.0673         estimate D2E/DX2                !
 ! D15   D(32,2,3,20)           83.9348         estimate D2E/DX2                !
 ! D16   D(32,2,3,31)          -34.787          estimate D2E/DX2                !
 ! D17   D(1,2,32,59)           -0.4783         estimate D2E/DX2                !
 ! D18   D(1,2,32,60)          119.5996         estimate D2E/DX2                !
 ! D19   D(1,2,32,61)         -120.3998         estimate D2E/DX2                !
 ! D20   D(3,2,32,59)         -178.9031         estimate D2E/DX2                !
 ! D21   D(3,2,32,60)          -58.8252         estimate D2E/DX2                !
 ! D22   D(3,2,32,61)           61.1753         estimate D2E/DX2                !
 ! D23   D(2,3,4,5)            -15.6553         estimate D2E/DX2                !
 ! D24   D(2,3,4,7)           -142.9353         estimate D2E/DX2                !
 ! D25   D(2,3,4,24)           104.3209         estimate D2E/DX2                !
 ! D26   D(20,3,4,5)           107.8505         estimate D2E/DX2                !
 ! D27   D(20,3,4,7)           -19.4295         estimate D2E/DX2                !
 ! D28   D(20,3,4,24)         -132.1734         estimate D2E/DX2                !
 ! D29   D(31,3,4,5)          -136.8407         estimate D2E/DX2                !
 ! D30   D(31,3,4,7)            95.8793         estimate D2E/DX2                !
 ! D31   D(31,3,4,24)          -16.8646         estimate D2E/DX2                !
 ! D32   D(2,3,20,17)          164.4442         estimate D2E/DX2                !
 ! D33   D(2,3,20,42)          -75.6168         estimate D2E/DX2                !
 ! D34   D(2,3,20,43)           44.4345         estimate D2E/DX2                !
 ! D35   D(4,3,20,17)           37.8339         estimate D2E/DX2                !
 ! D36   D(4,3,20,42)          157.7728         estimate D2E/DX2                !
 ! D37   D(4,3,20,43)          -82.1758         estimate D2E/DX2                !
 ! D38   D(31,3,20,17)         -77.1878         estimate D2E/DX2                !
 ! D39   D(31,3,20,42)          42.7512         estimate D2E/DX2                !
 ! D40   D(31,3,20,43)         162.8025         estimate D2E/DX2                !
 ! D41   D(3,4,5,6)            -15.9509         estimate D2E/DX2                !
 ! D42   D(3,4,5,10)          -135.3307         estimate D2E/DX2                !
 ! D43   D(3,4,5,22)           103.5971         estimate D2E/DX2                !
 ! D44   D(7,4,5,6)            105.8785         estimate D2E/DX2                !
 ! D45   D(7,4,5,10)           -13.5013         estimate D2E/DX2                !
 ! D46   D(7,4,5,22)          -134.5735         estimate D2E/DX2                !
 ! D47   D(24,4,5,6)          -135.4051         estimate D2E/DX2                !
 ! D48   D(24,4,5,10)          105.2151         estimate D2E/DX2                !
 ! D49   D(24,4,5,22)          -15.8571         estimate D2E/DX2                !
 ! D50   D(3,4,7,8)            106.3348         estimate D2E/DX2                !
 ! D51   D(3,4,7,17)            -6.1411         estimate D2E/DX2                !
 ! D52   D(3,4,7,21)          -128.6782         estimate D2E/DX2                !
 ! D53   D(5,4,7,8)            -22.3071         estimate D2E/DX2                !
 ! D54   D(5,4,7,17)          -134.7831         estimate D2E/DX2                !
 ! D55   D(5,4,7,21)           102.6799         estimate D2E/DX2                !
 ! D56   D(24,4,7,8)          -141.2879         estimate D2E/DX2                !
 ! D57   D(24,4,7,17)          106.2362         estimate D2E/DX2                !
 ! D58   D(24,4,7,21)          -16.3009         estimate D2E/DX2                !
 ! D59   D(3,4,24,23)         -124.9083         estimate D2E/DX2                !
 ! D60   D(5,4,24,23)            0.9647         estimate D2E/DX2                !
 ! D61   D(7,4,24,23)          124.4908         estimate D2E/DX2                !
 ! D62   D(4,5,6,1)             39.7955         estimate D2E/DX2                !
 ! D63   D(4,5,6,34)           161.4206         estimate D2E/DX2                !
 ! D64   D(4,5,6,35)           -82.2405         estimate D2E/DX2                !
 ! D65   D(10,5,6,1)           164.1992         estimate D2E/DX2                !
 ! D66   D(10,5,6,34)          -74.1757         estimate D2E/DX2                !
 ! D67   D(10,5,6,35)           42.1631         estimate D2E/DX2                !
 ! D68   D(22,5,6,1)           -75.8651         estimate D2E/DX2                !
 ! D69   D(22,5,6,34)           45.76           estimate D2E/DX2                !
 ! D70   D(22,5,6,35)          162.0989         estimate D2E/DX2                !
 ! D71   D(4,5,10,9)            42.3851         estimate D2E/DX2                !
 ! D72   D(4,5,10,16)         -147.5702         estimate D2E/DX2                !
 ! D73   D(6,5,10,9)           -82.7303         estimate D2E/DX2                !
 ! D74   D(6,5,10,16)           87.3144         estimate D2E/DX2                !
 ! D75   D(22,5,10,9)          158.5143         estimate D2E/DX2                !
 ! D76   D(22,5,10,16)         -31.441          estimate D2E/DX2                !
 ! D77   D(4,5,22,23)           24.2929         estimate D2E/DX2                !
 ! D78   D(4,5,22,45)          -90.9686         estimate D2E/DX2                !
 ! D79   D(4,5,22,46)          150.8077         estimate D2E/DX2                !
 ! D80   D(6,5,22,23)          146.8814         estimate D2E/DX2                !
 ! D81   D(6,5,22,45)           31.6199         estimate D2E/DX2                !
 ! D82   D(6,5,22,46)          -86.6037         estimate D2E/DX2                !
 ! D83   D(10,5,22,23)         -97.8755         estimate D2E/DX2                !
 ! D84   D(10,5,22,45)         146.863          estimate D2E/DX2                !
 ! D85   D(10,5,22,46)          28.6394         estimate D2E/DX2                !
 ! D86   D(4,7,8,9)             36.4668         estimate D2E/DX2                !
 ! D87   D(4,7,8,19)          -137.8004         estimate D2E/DX2                !
 ! D88   D(17,7,8,9)           153.1142         estimate D2E/DX2                !
 ! D89   D(17,7,8,19)          -21.153          estimate D2E/DX2                !
 ! D90   D(21,7,8,9)           -90.4861         estimate D2E/DX2                !
 ! D91   D(21,7,8,19)           95.2467         estimate D2E/DX2                !
 ! D92   D(4,7,17,18)          150.9482         estimate D2E/DX2                !
 ! D93   D(4,7,17,20)           29.2075         estimate D2E/DX2                !
 ! D94   D(4,7,17,30)          -88.7382         estimate D2E/DX2                !
 ! D95   D(8,7,17,18)           29.0251         estimate D2E/DX2                !
 ! D96   D(8,7,17,20)          -92.7157         estimate D2E/DX2                !
 ! D97   D(8,7,17,30)          149.3387         estimate D2E/DX2                !
 ! D98   D(21,7,17,18)         -85.6125         estimate D2E/DX2                !
 ! D99   D(21,7,17,20)         152.6468         estimate D2E/DX2                !
 ! D100  D(21,7,17,30)          34.7011         estimate D2E/DX2                !
 ! D101  D(4,7,21,44)           20.9434         estimate D2E/DX2                !
 ! D102  D(8,7,21,44)          149.8431         estimate D2E/DX2                !
 ! D103  D(17,7,21,44)        -100.2115         estimate D2E/DX2                !
 ! D104  D(7,8,9,10)            -8.3343         estimate D2E/DX2                !
 ! D105  D(7,8,9,11)           176.7482         estimate D2E/DX2                !
 ! D106  D(19,8,9,10)          165.3576         estimate D2E/DX2                !
 ! D107  D(19,8,9,11)           -9.56           estimate D2E/DX2                !
 ! D108  D(7,8,19,18)            3.015          estimate D2E/DX2                !
 ! D109  D(9,8,19,18)         -171.2457         estimate D2E/DX2                !
 ! D110  D(8,9,10,5)           -32.2839         estimate D2E/DX2                !
 ! D111  D(8,9,10,16)          157.4142         estimate D2E/DX2                !
 ! D112  D(11,9,10,5)          142.5742         estimate D2E/DX2                !
 ! D113  D(11,9,10,16)         -27.7277         estimate D2E/DX2                !
 ! D114  D(8,9,11,12)          -47.3939         estimate D2E/DX2                !
 ! D115  D(8,9,11,13)          129.6623         estimate D2E/DX2                !
 ! D116  D(10,9,11,12)         138.0089         estimate D2E/DX2                !
 ! D117  D(10,9,11,13)         -44.9349         estimate D2E/DX2                !
 ! D118  D(9,11,13,14)         141.5906         estimate D2E/DX2                !
 ! D119  D(9,11,13,15)         -96.7735         estimate D2E/DX2                !
 ! D120  D(9,11,13,36)          20.9665         estimate D2E/DX2                !
 ! D121  D(12,11,13,14)        -41.379          estimate D2E/DX2                !
 ! D122  D(12,11,13,15)         80.2569         estimate D2E/DX2                !
 ! D123  D(12,11,13,36)       -162.0031         estimate D2E/DX2                !
 ! D124  D(11,13,14,37)         54.6714         estimate D2E/DX2                !
 ! D125  D(11,13,14,38)        172.0414         estimate D2E/DX2                !
 ! D126  D(11,13,14,62)        -67.5683         estimate D2E/DX2                !
 ! D127  D(15,13,14,37)        -65.3892         estimate D2E/DX2                !
 ! D128  D(15,13,14,38)         51.9808         estimate D2E/DX2                !
 ! D129  D(15,13,14,62)        172.3711         estimate D2E/DX2                !
 ! D130  D(36,13,14,37)        176.29           estimate D2E/DX2                !
 ! D131  D(36,13,14,38)        -66.34           estimate D2E/DX2                !
 ! D132  D(36,13,14,62)         54.0503         estimate D2E/DX2                !
 ! D133  D(11,13,15,39)        177.7938         estimate D2E/DX2                !
 ! D134  D(11,13,15,40)         57.9003         estimate D2E/DX2                !
 ! D135  D(11,13,15,41)        -61.7233         estimate D2E/DX2                !
 ! D136  D(14,13,15,39)        -60.0074         estimate D2E/DX2                !
 ! D137  D(14,13,15,40)       -179.9009         estimate D2E/DX2                !
 ! D138  D(14,13,15,41)         60.4755         estimate D2E/DX2                !
 ! D139  D(36,13,15,39)         58.6294         estimate D2E/DX2                !
 ! D140  D(36,13,15,40)        -61.2641         estimate D2E/DX2                !
 ! D141  D(36,13,15,41)        179.1123         estimate D2E/DX2                !
 ! D142  D(13,14,62,63)         62.3382         estimate D2E/DX2                !
 ! D143  D(13,14,62,64)        -58.5967         estimate D2E/DX2                !
 ! D144  D(13,14,62,65)       -178.0303         estimate D2E/DX2                !
 ! D145  D(37,14,62,63)        -60.8516         estimate D2E/DX2                !
 ! D146  D(37,14,62,64)        178.2135         estimate D2E/DX2                !
 ! D147  D(37,14,62,65)         58.7799         estimate D2E/DX2                !
 ! D148  D(38,14,62,63)       -176.6291         estimate D2E/DX2                !
 ! D149  D(38,14,62,64)         62.436          estimate D2E/DX2                !
 ! D150  D(38,14,62,65)        -56.9977         estimate D2E/DX2                !
 ! D151  D(7,17,18,19)         -29.2184         estimate D2E/DX2                !
 ! D152  D(7,17,18,28)          88.4237         estimate D2E/DX2                !
 ! D153  D(7,17,18,29)        -147.9839         estimate D2E/DX2                !
 ! D154  D(20,17,18,19)         82.2988         estimate D2E/DX2                !
 ! D155  D(20,17,18,28)       -160.059          estimate D2E/DX2                !
 ! D156  D(20,17,18,29)        -36.4666         estimate D2E/DX2                !
 ! D157  D(30,17,18,19)       -150.4016         estimate D2E/DX2                !
 ! D158  D(30,17,18,28)        -32.7595         estimate D2E/DX2                !
 ! D159  D(30,17,18,29)         90.8329         estimate D2E/DX2                !
 ! D160  D(7,17,20,3)          -41.0274         estimate D2E/DX2                !
 ! D161  D(7,17,20,42)        -161.3911         estimate D2E/DX2                !
 ! D162  D(7,17,20,43)          78.0304         estimate D2E/DX2                !
 ! D163  D(18,17,20,3)        -152.9174         estimate D2E/DX2                !
 ! D164  D(18,17,20,42)         86.719          estimate D2E/DX2                !
 ! D165  D(18,17,20,43)        -33.8595         estimate D2E/DX2                !
 ! D166  D(30,17,20,3)          78.9772         estimate D2E/DX2                !
 ! D167  D(30,17,20,42)        -41.3865         estimate D2E/DX2                !
 ! D168  D(30,17,20,43)       -161.9649         estimate D2E/DX2                !
 ! D169  D(17,18,19,8)          16.5618         estimate D2E/DX2                !
 ! D170  D(28,18,19,8)        -104.0345         estimate D2E/DX2                !
 ! D171  D(29,18,19,8)         138.786          estimate D2E/DX2                !
 ! D172  D(17,18,28,53)        -60.2245         estimate D2E/DX2                !
 ! D173  D(17,18,28,54)       -177.8816         estimate D2E/DX2                !
 ! D174  D(17,18,28,55)         61.6076         estimate D2E/DX2                !
 ! D175  D(19,18,28,53)         56.5186         estimate D2E/DX2                !
 ! D176  D(19,18,28,54)        -61.1385         estimate D2E/DX2                !
 ! D177  D(19,18,28,55)        178.3507         estimate D2E/DX2                !
 ! D178  D(29,18,28,53)        173.4503         estimate D2E/DX2                !
 ! D179  D(29,18,28,54)         55.7931         estimate D2E/DX2                !
 ! D180  D(29,18,28,55)        -64.7176         estimate D2E/DX2                !
 ! D181  D(17,18,29,56)        -57.6842         estimate D2E/DX2                !
 ! D182  D(17,18,29,57)       -178.3005         estimate D2E/DX2                !
 ! D183  D(17,18,29,58)         64.4707         estimate D2E/DX2                !
 ! D184  D(19,18,29,56)       -175.3671         estimate D2E/DX2                !
 ! D185  D(19,18,29,57)         64.0167         estimate D2E/DX2                !
 ! D186  D(19,18,29,58)        -53.2121         estimate D2E/DX2                !
 ! D187  D(28,18,29,56)         67.9371         estimate D2E/DX2                !
 ! D188  D(28,18,29,57)        -52.6792         estimate D2E/DX2                !
 ! D189  D(28,18,29,58)       -169.908          estimate D2E/DX2                !
 ! D190  D(5,22,23,24)         -24.5181         estimate D2E/DX2                !
 ! D191  D(5,22,23,25)          98.0328         estimate D2E/DX2                !
 ! D192  D(5,22,23,47)        -139.2182         estimate D2E/DX2                !
 ! D193  D(45,22,23,24)         92.5033         estimate D2E/DX2                !
 ! D194  D(45,22,23,25)       -144.9458         estimate D2E/DX2                !
 ! D195  D(45,22,23,47)        -22.1968         estimate D2E/DX2                !
 ! D196  D(46,22,23,24)       -151.7645         estimate D2E/DX2                !
 ! D197  D(46,22,23,25)        -29.2137         estimate D2E/DX2                !
 ! D198  D(46,22,23,47)         93.5353         estimate D2E/DX2                !
 ! D199  D(22,23,24,4)          14.6917         estimate D2E/DX2                !
 ! D200  D(25,23,24,4)        -115.5431         estimate D2E/DX2                !
 ! D201  D(47,23,24,4)         129.958          estimate D2E/DX2                !
 ! D202  D(22,23,25,26)        175.6515         estimate D2E/DX2                !
 ! D203  D(22,23,25,27)         -1.9306         estimate D2E/DX2                !
 ! D204  D(24,23,25,26)        -62.4972         estimate D2E/DX2                !
 ! D205  D(24,23,25,27)        119.9207         estimate D2E/DX2                !
 ! D206  D(47,23,25,26)         52.2923         estimate D2E/DX2                !
 ! D207  D(47,23,25,27)       -125.2898         estimate D2E/DX2                !
 ! D208  D(23,25,26,48)        -57.9183         estimate D2E/DX2                !
 ! D209  D(23,25,26,49)         62.1999         estimate D2E/DX2                !
 ! D210  D(23,25,26,50)       -177.6002         estimate D2E/DX2                !
 ! D211  D(27,25,26,48)        119.8363         estimate D2E/DX2                !
 ! D212  D(27,25,26,49)       -120.0455         estimate D2E/DX2                !
 ! D213  D(27,25,26,50)          0.1544         estimate D2E/DX2                !
 ! D214  D(23,25,27,51)         -0.4561         estimate D2E/DX2                !
 ! D215  D(23,25,27,52)        179.1789         estimate D2E/DX2                !
 ! D216  D(26,25,27,51)       -177.9383         estimate D2E/DX2                !
 ! D217  D(26,25,27,52)          1.6967         estimate D2E/DX2                !
 --------------------------------------------------------------------------------
 Trust Radius=3.00D-01 FncErr=1.00D-07 GrdErr=1.00D-06
 Number of steps in this run=    390 maximum allowed number of steps=    390.
 GradGradGradGradGradGradGradGradGradGradGradGradGradGradGradGradGradGrad

 Stoichiometry    C26H34O5
 Framework group  C1[X(C26H34O5)]
 Deg. of freedom   189
 Full point group                 C1      NOp   1
 Largest Abelian subgroup         C1      NOp   1
 Largest concise Abelian subgroup C1      NOp   1
                         Standard orientation:                         
 ---------------------------------------------------------------------
 Center     Atomic      Atomic             Coordinates (Angstroms)
 Number     Number       Type             X           Y           Z
 ---------------------------------------------------------------------
      1          6           0       -1.245837    0.062141    3.162866
      2          6           0       -2.196103    0.814869    2.590500
      3          6           0       -2.216424    1.038600    1.100450
      4          6           0       -1.538213   -0.059672    0.227030
      5          6           0       -0.607440   -1.049666    0.953972
      6          6           0       -0.166554   -0.596559    2.366316
      7          6           0       -0.864092    0.738598   -0.916726
      8          6           0        0.619790    0.851226   -0.836836
      9          6           0        1.407025   -0.135134   -0.391460
     10          6           0        0.715066   -1.303865    0.208988
     11          6           0        2.889283   -0.003236   -0.396659
     12          8           0        3.481116    0.404997   -1.396068
     13          6           0        3.634294   -0.325478    0.898288
     14          6           0        4.956553   -1.056075    0.620302
     15          6           0        3.891197    0.990653    1.632537
     16          8           0        1.290237   -2.390197    0.254749
     17          6           0       -1.272747    2.192888   -0.787594
     18          6           0       -0.072193    2.948588   -1.387625
     19          8           0        1.089440    2.119404   -1.149382
     20          6           0       -1.498519    2.340769    0.719308
     21          8           0       -1.205939    0.232290   -2.199016
     22          6           0       -1.457013   -2.320820    1.052516
     23          6           0       -2.470448   -2.230603   -0.075688
     24          8           0       -2.617033   -0.834681   -0.373393
     25          6           0       -2.228412   -2.957205   -1.382266
     26          6           0       -3.361916   -2.865649   -2.376118
     27          6           0       -1.142584   -3.686280   -1.688952
     28          6           0       -0.206066    3.144322   -2.906086
     29          6           0        0.175330    4.314067   -0.740606
     30          1           0       -2.200784    2.421748   -1.326469
     31          1           0       -3.267977    1.118659    0.787603
     32          6           0       -3.262403    1.501044    3.395539
     33          1           0       -1.216178   -0.063493    4.242939
     34          1           0        0.197766   -1.469005    2.925612
     35          1           0        0.679911    0.100755    2.324686
     36          1           0        3.016167   -0.958056    1.543490
     37          1           0        5.577289   -0.481415   -0.077761
     38          1           0        5.527207   -1.143519    1.552972
     39          1           0        4.390598    0.811977    2.590458
     40          1           0        2.951066    1.515496    1.835117
     41          1           0        4.521345    1.662343    1.038958
     42          1           0       -2.104787    3.224309    0.946596
     43          1           0       -0.553518    2.435296    1.268612
     44          1           0       -2.034282   -0.272635   -2.074291
     45          1           0       -2.021137   -2.317375    1.995035
     46          1           0       -0.890274   -3.255875    1.062716
     47          1           0       -3.436633   -2.583198    0.307475
     48          1           0       -4.283179   -3.260950   -1.935388
     49          1           0       -3.538560   -1.828117   -2.674582
     50          1           0       -3.161629   -3.439178   -3.287703
     51          1           0       -0.307265   -3.823211   -1.013670
     52          1           0       -1.053391   -4.188250   -2.648723
     53          1           0       -0.270345    2.192733   -3.441842
     54          1           0        0.678876    3.650783   -3.309199
     55          1           0       -1.088608    3.742911   -3.154179
     56          1           0       -0.705587    4.959429   -0.818159
     57          1           0        1.018939    4.823552   -1.221253
     58          1           0        0.454419    4.220242    0.313833
     59          1           0       -3.161523    1.299932    4.467264
     60          1           0       -3.210452    2.585254    3.253937
     61          1           0       -4.253469    1.155758    3.084097
     62          6           0        4.743900   -2.455283    0.057941
     63          1           0        4.229086   -2.425976   -0.907108
     64          1           0        4.153046   -3.068048    0.745988
     65          1           0        5.708438   -2.950812   -0.091801
 ---------------------------------------------------------------------
 Rotational constants (GHZ):      0.1822709      0.1453265      0.1239407
 Standard basis: 6-31G(d) (6D, 7F)
 There are   533 symmetry adapted basis functions of A   symmetry.
 Integral buffers will be    131072 words long.
 Raffenetti 2 integral format.
 Two-electron integral symmetry is turned on.
   533 basis functions,  1004 primitive gaussians,   533 cartesian basis functions
   115 alpha electrons      115 beta electrons
       nuclear repulsion energy      3552.5626426130 Hartrees.
 NAtoms=   65 NActive=   65 NUniq=   65 SFac= 1.00D+00 NAtFMM=   50 NAOKFM=T Big=T
 One-electron integrals computed using PRISM.
 NBasis=   533 RedAO= T  NBF=   533
 NBsUse=   533 1.00D-06 NBFU=   533
 Harris functional with IExCor=  402 diagonalized for initial guess.
 ExpMin= 1.61D-01 ExpMax= 5.48D+03 ExpMxC= 8.25D+02 IAcc=1 IRadAn=         1 AccDes= 0.00D+00
 HarFok:  IExCor=  402 AccDes= 0.00D+00 IRadAn=         1 IDoV= 1
 ScaDFX=  1.000000  1.000000  1.000000  1.000000
 FoFCou: FMM=F IPFlag=           0 FMFlag=      100000 FMFlg1=        2001
         NFxFlg=           0 DoJE=T BraDBF=F KetDBF=T FulRan=T
         Omega=  0.000000  0.000000  1.000000  0.000000  0.000000 ICntrl=     500 IOpCl=  0
         NMat0=    1 NMatS0=    1 NMatT0=    0 NMatD0=    1 NMtDS0=    0 NMtDT0=    0
         I1Cent=           4 NGrid=           0.
 Petite list used in FoFCou.
 Initial guess orbital symmetries:
       Occupied  (A) (A) (A) (A) (A) (A) (A) (A) (A) (A) (A) (A)
                 (A) (A) (A) (A) (A) (A) (A) (A) (A) (A) (A) (A)
                 (A) (A) (A) (A) (A) (A) (A) (A) (A) (A) (A) (A)
                 (A) (A) (A) (A) (A) (A) (A) (A) (A) (A) (A) (A)
                 (A) (A) (A) (A) (A) (A) (A) (A) (A) (A) (A) (A)
                 (A) (A) (A) (A) (A) (A) (A) (A) (A) (A) (A) (A)
                 (A) (A) (A) (A) (A) (A) (A) (A) (A) (A) (A) (A)
                 (A) (A) (A) (A) (A) (A) (A) (A) (A) (A) (A) (A)
                 (A) (A) (A) (A) (A) (A) (A) (A) (A) (A) (A) (A)
                 (A) (A) (A) (A) (A) (A) (A)
       Virtual   (A) (A) (A) (A) (A) (A) (A) (A) (A) (A) (A) (A)
                 (A) (A) (A) (A) (A) (A) (A) (A) (A) (A) (A) (A)
                 (A) (A) (A) (A) (A) (A) (A) (A) (A) (A) (A) (A)
                 (A) (A) (A) (A) (A) (A) (A) (A) (A) (A) (A) (A)
                 (A) (A) (A) (A) (A) (A) (A) (A) (A) (A) (A) (A)
                 (A) (A) (A) (A) (A) (A) (A) (A) (A) (A) (A) (A)
                 (A) (A) (A) (A) (A) (A) (A) (A) (A) (A) (A) (A)
                 (A) (A) (A) (A) (A) (A) (A) (A) (A) (A) (A) (A)
                 (A) (A) (A) (A) (A) (A) (A) (A) (A) (A) (A) (A)
                 (A) (A) (A) (A) (A) (A) (A) (A) (A) (A) (A) (A)
                 (A) (A) (A) (A) (A) (A) (A) (A) (A) (A) (A) (A)
                 (A) (A) (A) (A) (A) (A) (A) (A) (A) (A) (A) (A)
                 (A) (A) (A) (A) (A) (A) (A) (A) (A) (A) (A) (A)
                 (A) (A) (A) (A) (A) (A) (A) (A) (A) (A) (A) (A)
                 (A) (A) (A) (A) (A) (A) (A) (A) (A) (A) (A) (A)
                 (A) (A) (A) (A) (A) (A) (A) (A) (A) (A) (A) (A)
                 (A) (A) (A) (A) (A) (A) (A) (A) (A) (A) (A) (A)
                 (A) (A) (A) (A) (A) (A) (A) (A) (A) (A) (A) (A)
                 (A) (A) (A) (A) (A) (A) (A) (A) (A) (A) (A) (A)
                 (A) (A) (A) (A) (A) (A) (A) (A) (A) (A) (A) (A)
                 (A) (A) (A) (A) (A) (A) (A) (A) (A) (A) (A) (A)
                 (A) (A) (A) (A) (A) (A) (A) (A) (A) (A) (A) (A)
                 (A) (A) (A) (A) (A) (A) (A) (A) (A) (A) (A) (A)
                 (A) (A) (A) (A) (A) (A) (A) (A) (A) (A) (A) (A)
                 (A) (A) (A) (A) (A) (A) (A) (A) (A) (A) (A) (A)
                 (A) (A) (A) (A) (A) (A) (A) (A) (A) (A) (A) (A)
                 (A) (A) (A) (A) (A) (A) (A) (A) (A) (A) (A) (A)
                 (A) (A) (A) (A) (A) (A) (A) (A) (A) (A) (A) (A)
                 (A) (A) (A) (A) (A) (A) (A) (A) (A) (A) (A) (A)
                 (A) (A) (A) (A) (A) (A) (A) (A) (A) (A) (A) (A)
                 (A) (A) (A) (A) (A) (A) (A) (A) (A) (A) (A) (A)
                 (A) (A) (A) (A) (A) (A) (A) (A) (A) (A) (A) (A)
                 (A) (A) (A) (A) (A) (A) (A) (A) (A) (A) (A) (A)
                 (A) (A) (A) (A) (A) (A) (A) (A) (A) (A) (A) (A)
                 (A) (A) (A) (A) (A) (A) (A) (A) (A) (A)
 The electronic state of the initial guess is 1-A.
 Requested convergence on RMS density matrix=1.00D-08 within 128 cycles.
 Requested convergence on MAX density matrix=1.00D-06.
 Requested convergence on             energy=1.00D-06.
 No special actions if energy rises.
 Integral accuracy reduced to 1.0D-05 until final iterations.
 Initial convergence to 1.0D-05 achieved.  Increase integral accuracy.
 SCF Done:  E(RB3LYP) =  -1387.30187885     A.U. after   16 cycles
             Convg  =    0.3625D-08             -V/T =  2.0091

 **********************************************************************

            Population analysis using the SCF density.

 **********************************************************************

 Orbital symmetries:
       Occupied  (A) (A) (A) (A) (A) (A) (A) (A) (A) (A) (A) (A)
                 (A) (A) (A) (A) (A) (A) (A) (A) (A) (A) (A) (A)
                 (A) (A) (A) (A) (A) (A) (A) (A) (A) (A) (A) (A)
                 (A) (A) (A) (A) (A) (A) (A) (A) (A) (A) (A) (A)
                 (A) (A) (A) (A) (A) (A) (A) (A) (A) (A) (A) (A)
                 (A) (A) (A) (A) (A) (A) (A) (A) (A) (A) (A) (A)
                 (A) (A) (A) (A) (A) (A) (A) (A) (A) (A) (A) (A)
                 (A) (A) (A) (A) (A) (A) (A) (A) (A) (A) (A) (A)
                 (A) (A) (A) (A) (A) (A) (A) (A) (A) (A) (A) (A)
                 (A) (A) (A) (A) (A) (A) (A)
       Virtual   (A) (A) (A) (A) (A) (A) (A) (A) (A) (A) (A) (A)
                 (A) (A) (A) (A) (A) (A) (A) (A) (A) (A) (A) (A)
                 (A) (A) (A) (A) (A) (A) (A) (A) (A) (A) (A) (A)
                 (A) (A) (A) (A) (A) (A) (A) (A) (A) (A) (A) (A)
                 (A) (A) (A) (A) (A) (A) (A) (A) (A) (A) (A) (A)
                 (A) (A) (A) (A) (A) (A) (A) (A) (A) (A) (A) (A)
                 (A) (A) (A) (A) (A) (A) (A) (A) (A) (A) (A) (A)
                 (A) (A) (A) (A) (A) (A) (A) (A) (A) (A) (A) (A)
                 (A) (A) (A) (A) (A) (A) (A) (A) (A) (A) (A) (A)
                 (A) (A) (A) (A) (A) (A) (A) (A) (A) (A) (A) (A)
                 (A) (A) (A) (A) (A) (A) (A) (A) (A) (A) (A) (A)
                 (A) (A) (A) (A) (A) (A) (A) (A) (A) (A) (A) (A)
                 (A) (A) (A) (A) (A) (A) (A) (A) (A) (A) (A) (A)
                 (A) (A) (A) (A) (A) (A) (A) (A) (A) (A) (A) (A)
                 (A) (A) (A) (A) (A) (A) (A) (A) (A) (A) (A) (A)
                 (A) (A) (A) (A) (A) (A) (A) (A) (A) (A) (A) (A)
                 (A) (A) (A) (A) (A) (A) (A) (A) (A) (A) (A) (A)
                 (A) (A) (A) (A) (A) (A) (A) (A) (A) (A) (A) (A)
                 (A) (A) (A) (A) (A) (A) (A) (A) (A) (A) (A) (A)
                 (A) (A) (A) (A) (A) (A) (A) (A) (A) (A) (A) (A)
                 (A) (A) (A) (A) (A) (A) (A) (A) (A) (A) (A) (A)
                 (A) (A) (A) (A) (A) (A) (A) (A) (A) (A) (A) (A)
                 (A) (A) (A) (A) (A) (A) (A) (A) (A) (A) (A) (A)
                 (A) (A) (A) (A) (A) (A) (A) (A) (A) (A) (A) (A)
                 (A) (A) (A) (A) (A) (A) (A) (A) (A) (A) (A) (A)
                 (A) (A) (A) (A) (A) (A) (A) (A) (A) (A) (A) (A)
                 (A) (A) (A) (A) (A) (A) (A) (A) (A) (A) (A) (A)
                 (A) (A) (A) (A) (A) (A) (A) (A) (A) (A) (A) (A)
                 (A) (A) (A) (A) (A) (A) (A) (A) (A) (A) (A) (A)
                 (A) (A) (A) (A) (A) (A) (A) (A) (A) (A) (A) (A)
                 (A) (A) (A) (A) (A) (A) (A) (A) (A) (A) (A) (A)
                 (A) (A) (A) (A) (A) (A) (A) (A) (A) (A) (A) (A)
                 (A) (A) (A) (A) (A) (A) (A) (A) (A) (A) (A) (A)
                 (A) (A) (A) (A) (A) (A) (A) (A) (A) (A) (A) (A)
                 (A) (A) (A) (A) (A) (A) (A) (A) (A) (A)
 The electronic state is 1-A.
 Alpha  occ. eigenvalues --  -19.19479 -19.17099 -19.14387 -19.13918 -19.12604
 Alpha  occ. eigenvalues --  -10.27961 -10.26982 -10.26573 -10.26535 -10.25793
 Alpha  occ. eigenvalues --  -10.25470 -10.24734 -10.22217 -10.20578 -10.20500
 Alpha  occ. eigenvalues --  -10.20073 -10.19963 -10.19808 -10.19462 -10.19306
 Alpha  occ. eigenvalues --  -10.19181 -10.19152 -10.18995 -10.18589 -10.18350
 Alpha  occ. eigenvalues --  -10.18263 -10.17538 -10.17388 -10.17356 -10.16667
 Alpha  occ. eigenvalues --  -10.15217  -1.08369  -1.06238  -1.03652  -1.01865
 Alpha  occ. eigenvalues --   -1.01712  -0.87950  -0.84149  -0.82676  -0.81424
 Alpha  occ. eigenvalues --   -0.80189  -0.79834  -0.77102  -0.74649  -0.73784
 Alpha  occ. eigenvalues --   -0.72701  -0.71780  -0.69463  -0.68861  -0.68006
 Alpha  occ. eigenvalues --   -0.65518  -0.64123  -0.63688  -0.61860  -0.61321
 Alpha  occ. eigenvalues --   -0.59246  -0.59004  -0.57027  -0.54482  -0.53755
 Alpha  occ. eigenvalues --   -0.53127  -0.51883  -0.51198  -0.50390  -0.49571
 Alpha  occ. eigenvalues --   -0.48727  -0.47344  -0.47257  -0.46652  -0.45881
 Alpha  occ. eigenvalues --   -0.44809  -0.44759  -0.44278  -0.43524  -0.43095
 Alpha  occ. eigenvalues --   -0.42749  -0.42456  -0.42078  -0.41695  -0.41437
 Alpha  occ. eigenvalues --   -0.41144  -0.40766  -0.40335  -0.40252  -0.39825
 Alpha  occ. eigenvalues --   -0.39725  -0.38916  -0.38711  -0.38496  -0.38155
 Alpha  occ. eigenvalues --   -0.37670  -0.37540  -0.37062  -0.36388  -0.36102
 Alpha  occ. eigenvalues --   -0.35656  -0.35163  -0.35071  -0.34753  -0.34380
 Alpha  occ. eigenvalues --   -0.34110  -0.33228  -0.32832  -0.32596  -0.32130
 Alpha  occ. eigenvalues --   -0.31804  -0.31669  -0.30887  -0.27541  -0.26828
 Alpha  occ. eigenvalues --   -0.25629  -0.24955  -0.24387  -0.23764  -0.23060
 Alpha virt. eigenvalues --   -0.05377  -0.02442   0.00956   0.01531   0.04634
 Alpha virt. eigenvalues --    0.06475   0.07518   0.08663   0.09075   0.09979
 Alpha virt. eigenvalues --    0.10349   0.10398   0.11076   0.11999   0.12620
 Alpha virt. eigenvalues --    0.12841   0.13064   0.13562   0.13915   0.13989
 Alpha virt. eigenvalues --    0.14192   0.14989   0.15080   0.15489   0.15675
 Alpha virt. eigenvalues --    0.16186   0.16500   0.16949   0.17343   0.17863
 Alpha virt. eigenvalues --    0.18175   0.18479   0.18642   0.18861   0.19331
 Alpha virt. eigenvalues --    0.19475   0.19696   0.19936   0.20205   0.20492
 Alpha virt. eigenvalues --    0.20861   0.21268   0.21686   0.22077   0.22231
 Alpha virt. eigenvalues --    0.23643   0.24159   0.24294   0.24518   0.24989
 Alpha virt. eigenvalues --    0.25412   0.25499   0.25890   0.26542   0.26793
 Alpha virt. eigenvalues --    0.27063   0.27265   0.27844   0.28684   0.30464
 Alpha virt. eigenvalues --    0.31851   0.32066   0.32875   0.33649   0.34480
 Alpha virt. eigenvalues --    0.35070   0.36155   0.37721   0.38502   0.40244
 Alpha virt. eigenvalues --    0.40517   0.43655   0.46994   0.47570   0.48492
 Alpha virt. eigenvalues --    0.48609   0.49767   0.50811   0.51165   0.51350
 Alpha virt. eigenvalues --    0.52094   0.52447   0.52739   0.53008   0.54043
 Alpha virt. eigenvalues --    0.54262   0.54926   0.55068   0.55800   0.56225
 Alpha virt. eigenvalues --    0.56857   0.57302   0.58622   0.58996   0.59176
 Alpha virt. eigenvalues --    0.59658   0.59818   0.60580   0.60868   0.62357
 Alpha virt. eigenvalues --    0.62555   0.62826   0.64177   0.64717   0.64902
 Alpha virt. eigenvalues --    0.65312   0.66046   0.66666   0.67106   0.67606
 Alpha virt. eigenvalues --    0.67892   0.68420   0.68523   0.69641   0.69964
 Alpha virt. eigenvalues --    0.70531   0.71258   0.72818   0.73334   0.73634
 Alpha virt. eigenvalues --    0.74077   0.75039   0.75420   0.76077   0.76418
 Alpha virt. eigenvalues --    0.76524   0.77527   0.77922   0.78689   0.79405
 Alpha virt. eigenvalues --    0.79832   0.80235   0.80579   0.81653   0.82140
 Alpha virt. eigenvalues --    0.82702   0.83176   0.83556   0.84455   0.84617
 Alpha virt. eigenvalues --    0.85348   0.85475   0.86179   0.86660   0.86754
 Alpha virt. eigenvalues --    0.87417   0.88214   0.88534   0.88984   0.89486
 Alpha virt. eigenvalues --    0.89686   0.89855   0.90335   0.90598   0.90864
 Alpha virt. eigenvalues --    0.91173   0.91505   0.91648   0.91949   0.92416
 Alpha virt. eigenvalues --    0.92674   0.93510   0.93741   0.94513   0.95005
 Alpha virt. eigenvalues --    0.95358   0.95718   0.96361   0.96993   0.97454
 Alpha virt. eigenvalues --    0.97473   0.98070   0.98359   0.98820   1.00061
 Alpha virt. eigenvalues --    1.01759   1.01807   1.02448   1.02932   1.04188
 Alpha virt. eigenvalues --    1.04771   1.06008   1.06606   1.08362   1.08595
 Alpha virt. eigenvalues --    1.10246   1.11050   1.11961   1.12450   1.13099
 Alpha virt. eigenvalues --    1.13808   1.14708   1.15628   1.16160   1.16900
 Alpha virt. eigenvalues --    1.17200   1.18134   1.19546   1.19848   1.20880
 Alpha virt. eigenvalues --    1.22185   1.23606   1.25236   1.26164   1.27651
 Alpha virt. eigenvalues --    1.29362   1.29735   1.30400   1.32351   1.33847
 Alpha virt. eigenvalues --    1.34955   1.36648   1.38740   1.39745   1.39980
 Alpha virt. eigenvalues --    1.42145   1.42759   1.43681   1.45224   1.46420
 Alpha virt. eigenvalues --    1.47600   1.49057   1.49309   1.51788   1.53421
 Alpha virt. eigenvalues --    1.54053   1.54879   1.56997   1.57703   1.58224
 Alpha virt. eigenvalues --    1.58369   1.60529   1.60877   1.63400   1.64140
 Alpha virt. eigenvalues --    1.65000   1.66639   1.67676   1.68817   1.69152
 Alpha virt. eigenvalues --    1.69917   1.72460   1.72855   1.73924   1.74927
 Alpha virt. eigenvalues --    1.76046   1.76487   1.77507   1.77546   1.78520
 Alpha virt. eigenvalues --    1.79924   1.80307   1.80506   1.80641   1.81747
 Alpha virt. eigenvalues --    1.81967   1.83744   1.84884   1.85012   1.86561
 Alpha virt. eigenvalues --    1.86886   1.87704   1.87754   1.88862   1.89045
 Alpha virt. eigenvalues --    1.89677   1.90121   1.91076   1.91166   1.91842
 Alpha virt. eigenvalues --    1.92597   1.93059   1.93868   1.94236   1.95006
 Alpha virt. eigenvalues --    1.95769   1.96497   1.96997   1.98025   1.98573
 Alpha virt. eigenvalues --    1.99321   1.99827   2.00606   2.01196   2.01729
 Alpha virt. eigenvalues --    2.02367   2.03853   2.04381   2.04900   2.06008
 Alpha virt. eigenvalues --    2.06474   2.06989   2.08105   2.08980   2.09604
 Alpha virt. eigenvalues --    2.10630   2.11587   2.12099   2.13103   2.13358
 Alpha virt. eigenvalues --    2.14200   2.15665   2.16265   2.18409   2.18626
 Alpha virt. eigenvalues --    2.20063   2.20906   2.21261   2.22339   2.22675
 Alpha virt. eigenvalues --    2.22898   2.24195   2.25902   2.26684   2.27338
 Alpha virt. eigenvalues --    2.28170   2.28561   2.29282   2.30028   2.31006
 Alpha virt. eigenvalues --    2.32248   2.33150   2.33977   2.34026   2.34647
 Alpha virt. eigenvalues --    2.36067   2.36660   2.37737   2.38201   2.39142
 Alpha virt. eigenvalues --    2.39710   2.41059   2.41455   2.41657   2.43671
 Alpha virt. eigenvalues --    2.44264   2.44972   2.46318   2.47132   2.48124
 Alpha virt. eigenvalues --    2.49713   2.50927   2.51680   2.52796   2.54773
 Alpha virt. eigenvalues --    2.55881   2.56652   2.57418   2.60298   2.61142
 Alpha virt. eigenvalues --    2.62026   2.63419   2.63799   2.66378   2.66584
 Alpha virt. eigenvalues --    2.66783   2.68148   2.69346   2.69697   2.72257
 Alpha virt. eigenvalues --    2.72859   2.74972   2.76301   2.77175   2.77879
 Alpha virt. eigenvalues --    2.78694   2.79739   2.80828   2.81700   2.83897
 Alpha virt. eigenvalues --    2.88306   2.89216   2.92724   2.93254   2.95878
 Alpha virt. eigenvalues --    2.96397   2.98636   3.00607   3.01688   3.03462
 Alpha virt. eigenvalues --    3.05830   3.06479   3.12102   3.17831   3.20256
 Alpha virt. eigenvalues --    3.23610   3.29215   4.00779   4.10280   4.13097
 Alpha virt. eigenvalues --    4.13907   4.16082   4.18326   4.19128   4.20507
 Alpha virt. eigenvalues --    4.22605   4.25811   4.26140   4.27386   4.29969
 Alpha virt. eigenvalues --    4.31717   4.32949   4.37044   4.39823   4.43405
 Alpha virt. eigenvalues --    4.46536   4.48218   4.55258   4.57733   4.61631
 Alpha virt. eigenvalues --    4.66830   4.68587   4.70181   4.71707   4.77785
 Alpha virt. eigenvalues --    4.89839   4.93143   5.25137
          Condensed to atoms (all electrons):
 Mulliken atomic charges:
              1
     1  C   -0.200966
     2  C    0.204321
     3  C   -0.201231
     4  C    0.320652
     5  C   -0.039630
     6  C   -0.332367
     7  C    0.205384
     8  C    0.417063
     9  C   -0.090293
    10  C    0.412526
    11  C    0.432505
    12  O   -0.465669
    13  C   -0.151858
    14  C   -0.249664
    15  C   -0.456123
    16  O   -0.500417
    17  C   -0.149500
    18  C    0.302602
    19  O   -0.516029
    20  C   -0.305517
    21  O   -0.671862
    22  C   -0.327721
    23  C    0.089476
    24  O   -0.581125
    25  C    0.185797
    26  C   -0.509951
    27  C   -0.402905
    28  C   -0.458092
    29  C   -0.464077
    30  H    0.145406
    31  H    0.152139
    32  C   -0.519694
    33  H    0.126151
    34  H    0.165396
    35  H    0.166147
    36  H    0.138275
    37  H    0.154005
    38  H    0.121640
    39  H    0.147758
    40  H    0.137980
    41  H    0.165599
    42  H    0.150279
    43  H    0.156230
    44  H    0.431640
    45  H    0.152190
    46  H    0.186707
    47  H    0.135238
    48  H    0.151477
    49  H    0.155474
    50  H    0.159261
    51  H    0.173782
    52  H    0.139143
    53  H    0.188477
    54  H    0.154875
    55  H    0.137676
    56  H    0.149399
    57  H    0.161931
    58  H    0.152825
    59  H    0.157577
    60  H    0.156985
    61  H    0.157986
    62  C   -0.446252
    63  H    0.162184
    64  H    0.147242
    65  H    0.131550
 Sum of Mulliken atomic charges =   0.00000
 Mulliken charges with hydrogens summed into heavy atoms:
              1
     1  C   -0.074815
     2  C    0.204321
     3  C   -0.049092
     4  C    0.320652
     5  C   -0.039630
     6  C   -0.000825
     7  C    0.205384
     8  C    0.417063
     9  C   -0.090293
    10  C    0.412526
    11  C    0.432505
    12  O   -0.465669
    13  C   -0.013582
    14  C    0.025980
    15  C   -0.004786
    16  O   -0.500417
    17  C   -0.004094
    18  C    0.302602
    19  O   -0.516029
    20  C    0.000992
    21  O   -0.240222
    22  C    0.011175
    23  C    0.224714
    24  O   -0.581125
    25  C    0.185797
    26  C   -0.043739
    27  C   -0.089981
    28  C    0.022936
    29  C    0.000078
    32  C   -0.047147
    62  C   -0.005278
 Sum of Mulliken charges with hydrogens summed into heavy atoms =   0.00000
 Electronic spatial extent (au):  <R**2>=          10919.7347
 Charge=              0.0000 electrons
 Dipole moment (field-independent basis, Debye):
    X=             -5.1366    Y=              2.1579    Z=              3.7644  Tot=              6.7240
 Quadrupole moment (field-independent basis, Debye-Ang):
   XX=           -187.8371   YY=           -178.3114   ZZ=           -182.9478
   XY=             -0.0565   XZ=              7.5319   YZ=              0.3111
 Traceless Quadrupole moment (field-independent basis, Debye-Ang):
   XX=             -4.8050   YY=              4.7207   ZZ=              0.0843
   XY=             -0.0565   XZ=              7.5319   YZ=              0.3111
 Octapole moment (field-independent basis, Debye-Ang**2):
  XXX=            -36.8802  YYY=             41.5890  ZZZ=              3.6723  XYY=            -28.1618
  XXY=             -3.8889  XXZ=             22.8170  XZZ=            -17.7639  YZZ=             -8.9786
  YYZ=            -23.1569  XYZ=             -0.2111
 Hexadecapole moment (field-independent basis, Debye-Ang**3):
 XXXX=          -6680.0481 YYYY=          -4781.2839 ZZZZ=          -3111.5154 XXXY=             -4.5879
 XXXZ=             94.4364 YYYX=             30.2855 YYYZ=            -33.6685 ZZZX=              3.7319
 ZZZY=             -4.1587 XXYY=          -1892.8591 XXZZ=          -1642.9559 YYZZ=          -1278.7398
 XXYZ=             22.9394 YYXZ=              2.9753 ZZXY=              5.6523
 N-N= 3.552562642613D+03 E-N=-1.033149186966D+04  KE= 1.374841178761D+03
 Calling FoFJK, ICntrl=      2127 FMM=T ISym2X=0 I1Cent= 0 IOpClX= 0 NMat=1 NMatS=1 NMatT=0.
 ***** Axes restored to original set *****
 -------------------------------------------------------------------
 Center     Atomic                   Forces (Hartrees/Bohr)
 Number     Number              X              Y              Z
 -------------------------------------------------------------------
      1        6           0.010109868   -0.000022061    0.001698797
      2        6          -0.008981298   -0.005590766    0.004711699
      3        6          -0.005812442   -0.009469069   -0.002878368
      4        6           0.011910575   -0.006780707    0.007838285
      5        6          -0.007476182    0.003248813    0.006460315
      6        6          -0.007472542   -0.008779740   -0.003967750
      7        6           0.024181376    0.015815161    0.007883925
      8        6           0.001593252    0.003216290   -0.033827380
      9        6          -0.003669118   -0.005988334    0.006159383
     10        6          -0.015846507    0.016408630   -0.006804089
     11        6          -0.004300039    0.019401080   -0.003077679
     12        8          -0.003644114   -0.017335597    0.005581414
     13        6          -0.006854173    0.005005346   -0.004229182
     14        6          -0.002511632    0.002732181    0.002762162
     15        6           0.004962356   -0.004499354   -0.006114855
     16        8           0.006889730   -0.008297147    0.001900186
     17        6           0.002087897   -0.006275322   -0.011877492
     18        6           0.028861209    0.004126956   -0.014879480
     19        8          -0.010787231   -0.009535558    0.039528839
     20        6           0.009537405   -0.001818291   -0.006470354
     21        8          -0.006176464    0.006840146    0.002355320
     22        6          -0.002886377   -0.007715890    0.008284549
     23        6          -0.001394757    0.006502635    0.015785119
     24        8          -0.003864370   -0.009015086   -0.013861330
     25        6          -0.011707229    0.015903250    0.007607167
     26        6          -0.000277708    0.001030264   -0.001036430
     27        6           0.001520694   -0.008685740   -0.001258919
     28        6          -0.001962779    0.008835550    0.001896535
     29        6          -0.008920305   -0.000313164   -0.007052571
     30        1          -0.003454715    0.002036114    0.000784939
     31        1          -0.001939092    0.005617563    0.000631485
     32        6          -0.002677087   -0.000565637    0.000096820
     33        1           0.000463359   -0.000829669   -0.000053058
     34        1           0.000426357    0.004938158    0.000068246
     35        1          -0.000970980    0.005216555   -0.000563253
     36        1           0.001442203    0.001170662    0.001719428
     37        1           0.003360430   -0.002484096   -0.001110080
     38        1           0.001007210   -0.002575497   -0.002056186
     39        1          -0.000629880   -0.000230956    0.000518155
     40        1           0.000847412   -0.001756192   -0.001574620
     41        1          -0.000213307    0.000818117    0.000899529
     42        1          -0.002337587   -0.001750728   -0.001353290
     43        1           0.000165868    0.000292867    0.001077146
     44        1          -0.003411274   -0.001823596   -0.002407669
     45        1           0.000934415    0.000794426   -0.004224524
     46        1           0.000650954    0.004632804   -0.005942314
     47        1           0.004704306   -0.000267457    0.000278616
     48        1           0.003790878   -0.002125983    0.000322142
     49        1           0.004217821   -0.001961870    0.001475789
     50        1          -0.001789098   -0.000885098   -0.001575928
     51        1          -0.000856181   -0.000875369   -0.002367485
     52        1           0.001622786   -0.000213511    0.000334930
     53        1           0.000391268   -0.004636153    0.003002238
     54        1           0.000164145   -0.003344593   -0.002038536
     55        1           0.000107807   -0.001079473   -0.000393842
     56        1          -0.000090087    0.000720261    0.001356748
     57        1           0.001951092    0.001494905    0.001798236
     58        1           0.001469619   -0.002016625    0.002421672
     59        1          -0.000637633    0.000813161   -0.000324382
     60        1           0.003991302   -0.001471432   -0.000058371
     61        1           0.004038932   -0.001006978    0.000030384
     62        6          -0.003592997    0.002985758    0.002154676
     63        1           0.000083331   -0.000481198    0.001189587
     64        1           0.000735121    0.000662005    0.001803200
     65        1          -0.001075790    0.001244280    0.000961755
 -------------------------------------------------------------------
 Cartesian Forces:  Max     0.039528839 RMS     0.007109635

 GradGradGradGradGradGradGradGradGradGradGradGradGradGradGradGradGradGrad
 Berny optimization.
 Internal  Forces:  Max     0.023954294 RMS     0.003549318
 Search for a local minimum.
 Step number   1 out of a maximum of  390
 All quantities printed in internal units (Hartrees-Bohrs-Radians)
 Mixed Optimization -- RFO/linear search
 Second derivative matrix not updated -- first step.
 ITU=  0
     Eigenvalues ---    0.00278   0.00289   0.00354   0.00385   0.00391
     Eigenvalues ---    0.00463   0.00530   0.00567   0.00574   0.00598
     Eigenvalues ---    0.00609   0.00630   0.00702   0.00740   0.00808
     Eigenvalues ---    0.00923   0.01122   0.01228   0.01278   0.01411
     Eigenvalues ---    0.01473   0.01669   0.01721   0.01778   0.02062
     Eigenvalues ---    0.02564   0.02838   0.02838   0.03126   0.03156
     Eigenvalues ---    0.03550   0.03658   0.03897   0.04086   0.04163
     Eigenvalues ---    0.04282   0.04343   0.04455   0.04464   0.04604
     Eigenvalues ---    0.04724   0.04843   0.04942   0.05128   0.05281
     Eigenvalues ---    0.05305   0.05336   0.05411   0.05499   0.05501
     Eigenvalues ---    0.05532   0.05553   0.05568   0.05576   0.05611
     Eigenvalues ---    0.05614   0.05696   0.05849   0.05926   0.06149
     Eigenvalues ---    0.06590   0.06835   0.07043   0.07075   0.07157
     Eigenvalues ---    0.07218   0.07318   0.07332   0.07567   0.08097
     Eigenvalues ---    0.08327   0.08335   0.08716   0.09120   0.09613
     Eigenvalues ---    0.09806   0.10337   0.11500   0.11901   0.12193
     Eigenvalues ---    0.12583   0.13282   0.14497   0.15349   0.15990
     Eigenvalues ---    0.16000   0.16000   0.16000   0.16000   0.16000
     Eigenvalues ---    0.16000   0.16000   0.16000   0.16000   0.16000
     Eigenvalues ---    0.16000   0.16000   0.16000   0.16000   0.16000
     Eigenvalues ---    0.16000   0.16000   0.16000   0.16000   0.16000
     Eigenvalues ---    0.16342   0.16416   0.16935   0.17675   0.18148
     Eigenvalues ---    0.19423   0.20861   0.21913   0.22191   0.22757
     Eigenvalues ---    0.23361   0.24539   0.24893   0.24972   0.24975
     Eigenvalues ---    0.24987   0.24987   0.25000   0.26121   0.26636
     Eigenvalues ---    0.26862   0.27431   0.27854   0.28243   0.28284
     Eigenvalues ---    0.28798   0.28873   0.28894   0.29317   0.29532
     Eigenvalues ---    0.29579   0.30088   0.30200   0.30561   0.30904
     Eigenvalues ---    0.31322   0.31767   0.32171   0.32759   0.33656
     Eigenvalues ---    0.33680   0.33848   0.33854   0.33953   0.33961
     Eigenvalues ---    0.33985   0.34001   0.34028   0.34045   0.34074
     Eigenvalues ---    0.34082   0.34161   0.34173   0.34189   0.34198
     Eigenvalues ---    0.34230   0.34231   0.34246   0.34256   0.34267
     Eigenvalues ---    0.34267   0.34267   0.34272   0.34278   0.34281
     Eigenvalues ---    0.34294   0.34335   0.34359   0.34362   0.34417
     Eigenvalues ---    0.35073   0.35187   0.35655   0.35874   0.36722
     Eigenvalues ---    0.37880   0.41066   0.44329   0.50743   0.53456
     Eigenvalues ---    0.53927   0.56458   0.90608   0.91064
 RFO step:  Lambda=-2.31426607D-02 EMin= 2.78273496D-03
 Linear search not attempted -- first point.
 Iteration  1 RMS(Cart)=  0.06571415 RMS(Int)=  0.00097960
 Iteration  2 RMS(Cart)=  0.00183601 RMS(Int)=  0.00023037
 Iteration  3 RMS(Cart)=  0.00000175 RMS(Int)=  0.00023037
 Iteration  4 RMS(Cart)=  0.00000000 RMS(Int)=  0.00023037
 Variable       Old X    -DE/DX   Delta X   Delta X   Delta X     New X
                                 (Linear)    (Quad)   (Total)
    R1        2.53337  -0.00252   0.00000  -0.00483  -0.00493   2.52844
    R2        2.82401   0.00820   0.00000   0.02399   0.02387   2.84787
    R3        2.05557   0.00048   0.00000   0.00129   0.00129   2.05686
    R4        2.84761   0.00438   0.00000   0.01102   0.01103   2.85864
    R5        2.83832   0.00440   0.00000   0.01275   0.01275   2.85106
    R6        2.94521   0.00579   0.00000   0.01310   0.01315   2.95836
    R7        2.90078   0.01055   0.00000   0.03538   0.03535   2.93612
    R8        2.07874  -0.00214   0.00000  -0.00594  -0.00594   2.07280
    R9        2.91218   0.01099   0.00000   0.03151   0.03138   2.94356
   R10        2.92746   0.01122   0.00000   0.03920   0.03947   2.96693
   R11        2.75472  -0.00369   0.00000  -0.00892  -0.00886   2.74587
   R12        2.92413   0.00387   0.00000   0.01433   0.01434   2.93847
   R13        2.90836   0.00803   0.00000   0.01967   0.01941   2.92777
   R14        2.89524   0.00396   0.00000   0.01192   0.01173   2.90698
   R15        2.07587  -0.00129   0.00000  -0.00358  -0.00358   2.07229
   R16        2.07395   0.00199   0.00000   0.00549   0.00549   2.07944
   R17        2.81625   0.01104   0.00000   0.02550   0.02527   2.84152
   R18        2.86506   0.01367   0.00000   0.04966   0.04918   2.91424
   R19        2.68413  -0.00002   0.00000   0.00027   0.00036   2.68449
   R20        2.52899   0.01852   0.00000   0.03251   0.03273   2.56172
   R21        2.62293  -0.02395   0.00000  -0.05465  -0.05447   2.56846
   R22        2.80628  -0.00038   0.00000  -0.00495  -0.00492   2.80136
   R23        2.81215   0.00903   0.00000   0.02510   0.02510   2.83725
   R24        2.32447  -0.00748   0.00000  -0.00802  -0.00802   2.31645
   R25        2.32654  -0.01832   0.00000  -0.01972  -0.01972   2.30683
   R26        2.88811   0.00124   0.00000   0.00389   0.00389   2.89200
   R27        2.90269   0.00234   0.00000   0.00750   0.00750   2.91020
   R28        2.88907   0.00897   0.00000   0.02816   0.02816   2.91723
   R29        2.06882   0.00021   0.00000   0.00058   0.00058   2.06940
   R30        2.07254  -0.00047   0.00000  -0.00130  -0.00130   2.07124
   R31        2.07282   0.00128   0.00000   0.00351   0.00351   2.07633
   R32        2.87788   0.00817   0.00000   0.02522   0.02522   2.90311
   R33        2.06917   0.00051   0.00000   0.00139   0.00139   2.07056
   R34        2.07039   0.00159   0.00000   0.00436   0.00436   2.07475
   R35        2.07060  -0.00021   0.00000  -0.00059  -0.00059   2.07001
   R36        2.91070  -0.00028   0.00000   0.01161   0.01185   2.92255
[...]
     63          1           0        4.212599   -1.658520   -1.465378
     64          1           0        4.161202   -2.885365   -0.195261
     65          1           0        5.697101   -2.500441   -1.000425
 ---------------------------------------------------------------------
 Rotational constants (GHZ):      0.1813914      0.1424870      0.1187355

 **********************************************************************

            Population analysis using the SCF density.

 **********************************************************************

 Orbital symmetries:
       Occupied  (A) (A) (A) (A) (A) (A) (A) (A) (A) (A) (A) (A)
                 (A) (A) (A) (A) (A) (A) (A) (A) (A) (A) (A) (A)
                 (A) (A) (A) (A) (A) (A) (A) (A) (A) (A) (A) (A)
                 (A) (A) (A) (A) (A) (A) (A) (A) (A) (A) (A) (A)
                 (A) (A) (A) (A) (A) (A) (A) (A) (A) (A) (A) (A)
                 (A) (A) (A) (A) (A) (A) (A) (A) (A) (A) (A) (A)
                 (A) (A) (A) (A) (A) (A) (A) (A) (A) (A) (A) (A)
                 (A) (A) (A) (A) (A) (A) (A) (A) (A) (A) (A) (A)
                 (A) (A) (A) (A) (A) (A) (A) (A) (A) (A) (A) (A)
                 (A) (A) (A) (A) (A) (A) (A)
       Virtual   (A) (A) (A) (A) (A) (A) (A) (A) (A) (A) (A) (A)
                 (A) (A) (A) (A) (A) (A) (A) (A) (A) (A) (A) (A)
                 (A) (A) (A) (A) (A) (A) (A) (A) (A) (A) (A) (A)
                 (A) (A) (A) (A) (A) (A) (A) (A) (A) (A) (A) (A)
                 (A) (A) (A) (A) (A) (A) (A) (A) (A) (A) (A) (A)
                 (A) (A) (A) (A) (A) (A) (A) (A) (A) (A) (A) (A)
                 (A) (A) (A) (A) (A) (A) (A) (A) (A) (A) (A) (A)
                 (A) (A) (A) (A) (A) (A) (A) (A) (A) (A) (A) (A)
                 (A) (A) (A) (A) (A) (A) (A) (A) (A) (A) (A) (A)
                 (A) (A) (A) (A) (A) (A) (A) (A) (A) (A) (A) (A)
                 (A) (A) (A) (A) (A) (A) (A) (A) (A) (A) (A) (A)
                 (A) (A) (A) (A) (A) (A) (A) (A) (A) (A) (A) (A)
                 (A) (A) (A) (A) (A) (A) (A) (A) (A) (A) (A) (A)
                 (A) (A) (A) (A) (A) (A) (A) (A) (A) (A) (A) (A)
                 (A) (A) (A) (A) (A) (A) (A) (A) (A) (A) (A) (A)
                 (A) (A) (A) (A) (A) (A) (A) (A) (A) (A) (A) (A)
                 (A) (A) (A) (A) (A) (A) (A) (A) (A) (A) (A) (A)
                 (A) (A) (A) (A) (A) (A) (A) (A) (A) (A) (A) (A)
                 (A) (A) (A) (A) (A) (A) (A) (A) (A) (A) (A) (A)
                 (A) (A) (A) (A) (A) (A) (A) (A) (A) (A) (A) (A)
                 (A) (A) (A) (A) (A) (A) (A) (A) (A) (A) (A) (A)
                 (A) (A) (A) (A) (A) (A) (A) (A) (A) (A) (A) (A)
                 (A) (A) (A) (A) (A) (A) (A) (A) (A) (A) (A) (A)
                 (A) (A) (A) (A) (A) (A) (A) (A) (A) (A) (A) (A)
                 (A) (A) (A) (A) (A) (A) (A) (A) (A) (A) (A) (A)
                 (A) (A) (A) (A) (A) (A) (A) (A) (A) (A) (A) (A)
                 (A) (A) (A) (A) (A) (A) (A) (A) (A) (A) (A) (A)
                 (A) (A) (A) (A) (A) (A) (A) (A) (A) (A) (A) (A)
                 (A) (A) (A) (A) (A) (A) (A) (A) (A) (A) (A) (A)
                 (A) (A) (A) (A) (A) (A) (A) (A) (A) (A) (A) (A)
                 (A) (A) (A) (A) (A) (A) (A) (A) (A) (A) (A) (A)
                 (A) (A) (A) (A) (A) (A) (A) (A) (A) (A) (A) (A)
                 (A) (A) (A) (A) (A) (A) (A) (A) (A) (A) (A) (A)
                 (A) (A) (A) (A) (A) (A) (A) (A) (A) (A) (A) (A)
                 (A) (A) (A) (A) (A) (A) (A) (A) (A) (A)
 The electronic state is 1-A.
 Alpha  occ. eigenvalues --  -19.19985 -19.16873 -19.14996 -19.13414 -19.11397
 Alpha  occ. eigenvalues --  -10.27509 -10.27405 -10.26634 -10.26250 -10.25836
 Alpha  occ. eigenvalues --  -10.25658 -10.24853 -10.21670 -10.20531 -10.20501
 Alpha  occ. eigenvalues --  -10.20372 -10.20186 -10.20113 -10.19676 -10.19227
 Alpha  occ. eigenvalues --  -10.19078 -10.19006 -10.18904 -10.18797 -10.18458
 Alpha  occ. eigenvalues --  -10.18060 -10.17583 -10.17258 -10.16695 -10.16335
 Alpha  occ. eigenvalues --  -10.15189  -1.09634  -1.05942  -1.03395  -1.02091
 Alpha  occ. eigenvalues --   -1.01409  -0.87104  -0.83838  -0.82033  -0.81278
 Alpha  occ. eigenvalues --   -0.80008  -0.78730  -0.76810  -0.74196  -0.73199
 Alpha  occ. eigenvalues --   -0.72145  -0.71063  -0.70047  -0.68812  -0.68173
 Alpha  occ. eigenvalues --   -0.65133  -0.63921  -0.63310  -0.61605  -0.60793
 Alpha  occ. eigenvalues --   -0.59210  -0.58557  -0.56672  -0.54147  -0.53448
 Alpha  occ. eigenvalues --   -0.52670  -0.51754  -0.51004  -0.50041  -0.49180
 Alpha  occ. eigenvalues --   -0.47887  -0.47562  -0.47232  -0.46545  -0.46075
 Alpha  occ. eigenvalues --   -0.44945  -0.44381  -0.44174  -0.43267  -0.42519
 Alpha  occ. eigenvalues --   -0.42438  -0.42239  -0.41780  -0.41441  -0.41166
 Alpha  occ. eigenvalues --   -0.40852  -0.40594  -0.40192  -0.40062  -0.39665
 Alpha  occ. eigenvalues --   -0.39467  -0.39103  -0.38790  -0.38399  -0.38159
 Alpha  occ. eigenvalues --   -0.37601  -0.37238  -0.36891  -0.36564  -0.36024
 Alpha  occ. eigenvalues --   -0.35693  -0.35275  -0.34765  -0.34666  -0.34274
 Alpha  occ. eigenvalues --   -0.33823  -0.33395  -0.32911  -0.32437  -0.32057
 Alpha  occ. eigenvalues --   -0.31368  -0.30981  -0.30367  -0.27552  -0.27234
 Alpha  occ. eigenvalues --   -0.25431  -0.24816  -0.24406  -0.23381  -0.22097
 Alpha virt. eigenvalues --   -0.05093  -0.01720   0.00751   0.01260   0.05905
 Alpha virt. eigenvalues --    0.07822   0.08350   0.08684   0.09522   0.09785
 Alpha virt. eigenvalues --    0.10482   0.10901   0.11557   0.11826   0.12662
 Alpha virt. eigenvalues --    0.12751   0.13147   0.13708   0.13877   0.13966
 Alpha virt. eigenvalues --    0.14623   0.15099   0.15276   0.15703   0.16087
 Alpha virt. eigenvalues --    0.16170   0.16505   0.16902   0.17147   0.17749
 Alpha virt. eigenvalues --    0.17860   0.18267   0.18751   0.19025   0.19421
 Alpha virt. eigenvalues --    0.19608   0.19738   0.19890   0.20268   0.20383
 Alpha virt. eigenvalues --    0.21103   0.21378   0.21631   0.22096   0.22392
 Alpha virt. eigenvalues --    0.22930   0.23207   0.24253   0.24403   0.24536
 Alpha virt. eigenvalues --    0.25098   0.25358   0.26055   0.26394   0.26523
 Alpha virt. eigenvalues --    0.27282   0.27358   0.27604   0.28517   0.30305
 Alpha virt. eigenvalues --    0.30532   0.31629   0.32427   0.33508   0.34432
 Alpha virt. eigenvalues --    0.34975   0.35850   0.37295   0.38686   0.39769
 Alpha virt. eigenvalues --    0.41548   0.43446   0.45966   0.47645   0.48430
 Alpha virt. eigenvalues --    0.48853   0.49745   0.50544   0.50730   0.51037
 Alpha virt. eigenvalues --    0.51674   0.52286   0.52637   0.52752   0.53788
 Alpha virt. eigenvalues --    0.54071   0.54537   0.54898   0.55366   0.55759
 Alpha virt. eigenvalues --    0.56746   0.57097   0.58357   0.58806   0.59413
 Alpha virt. eigenvalues --    0.59678   0.60152   0.60302   0.61217   0.61947
 Alpha virt. eigenvalues --    0.62159   0.62753   0.63938   0.64302   0.64867
 Alpha virt. eigenvalues --    0.65617   0.65739   0.66537   0.67012   0.67264
 Alpha virt. eigenvalues --    0.67784   0.68175   0.69083   0.69512   0.70470
 Alpha virt. eigenvalues --    0.70729   0.71225   0.72306   0.72757   0.73483
 Alpha virt. eigenvalues --    0.74075   0.74784   0.75082   0.75855   0.76103
 Alpha virt. eigenvalues --    0.77369   0.77497   0.77643   0.78410   0.78702
 Alpha virt. eigenvalues --    0.79889   0.80493   0.80773   0.81544   0.82197
 Alpha virt. eigenvalues --    0.82507   0.83419   0.83860   0.84303   0.84730
 Alpha virt. eigenvalues --    0.85405   0.85523   0.85873   0.86481   0.87031
 Alpha virt. eigenvalues --    0.87845   0.88195   0.88578   0.88665   0.89329
 Alpha virt. eigenvalues --    0.89610   0.89860   0.90307   0.90646   0.90849
 Alpha virt. eigenvalues --    0.91024   0.91616   0.91905   0.92110   0.92714
 Alpha virt. eigenvalues --    0.92945   0.93281   0.94013   0.94159   0.94723
 Alpha virt. eigenvalues --    0.95018   0.95461   0.96297   0.96462   0.96846
 Alpha virt. eigenvalues --    0.97060   0.98077   0.98414   0.98887   1.00125
 Alpha virt. eigenvalues --    1.00991   1.01525   1.02869   1.03008   1.03402
 Alpha virt. eigenvalues --    1.03895   1.06104   1.06545   1.08059   1.08855
 Alpha virt. eigenvalues --    1.10121   1.10826   1.11674   1.13151   1.13747
 Alpha virt. eigenvalues --    1.14216   1.14383   1.14669   1.15434   1.15812
 Alpha virt. eigenvalues --    1.17022   1.18390   1.19878   1.20248   1.22089
 Alpha virt. eigenvalues --    1.23892   1.24163   1.26253   1.27470   1.28065
 Alpha virt. eigenvalues --    1.29536   1.30178   1.31523   1.32848   1.34850
 Alpha virt. eigenvalues --    1.35936   1.37308   1.38841   1.39197   1.40301
 Alpha virt. eigenvalues --    1.41664   1.42269   1.43272   1.44604   1.45462
 Alpha virt. eigenvalues --    1.47790   1.49885   1.50294   1.51188   1.54033
 Alpha virt. eigenvalues --    1.54637   1.55489   1.56684   1.57671   1.57810
 Alpha virt. eigenvalues --    1.58827   1.59320   1.61406   1.62562   1.64342
 Alpha virt. eigenvalues --    1.65195   1.66274   1.67239   1.67724   1.68544
 Alpha virt. eigenvalues --    1.68735   1.71195   1.72212   1.73115   1.74520
 Alpha virt. eigenvalues --    1.75395   1.75829   1.76055   1.77194   1.77466
 Alpha virt. eigenvalues --    1.78763   1.79763   1.80350   1.80681   1.81811
 Alpha virt. eigenvalues --    1.82452   1.83509   1.84165   1.84374   1.85547
 Alpha virt. eigenvalues --    1.85978   1.86411   1.86916   1.87518   1.88303
 Alpha virt. eigenvalues --    1.88857   1.89689   1.90131   1.90786   1.91770
 Alpha virt. eigenvalues --    1.91927   1.92646   1.93156   1.93628   1.94850
 Alpha virt. eigenvalues --    1.95150   1.96231   1.96934   1.97526   1.98328
 Alpha virt. eigenvalues --    1.98610   1.98963   1.99907   2.00978   2.01741
 Alpha virt. eigenvalues --    2.02369   2.02963   2.03523   2.03846   2.04958
 Alpha virt. eigenvalues --    2.05973   2.06295   2.07206   2.08419   2.09680
 Alpha virt. eigenvalues --    2.10983   2.11731   2.11880   2.12625   2.12881
 Alpha virt. eigenvalues --    2.13673   2.14613   2.15968   2.17474   2.18046
 Alpha virt. eigenvalues --    2.18626   2.20429   2.21033   2.21590   2.22475
 Alpha virt. eigenvalues --    2.22791   2.23268   2.25003   2.26211   2.26847
 Alpha virt. eigenvalues --    2.27251   2.28160   2.28380   2.29991   2.30699
 Alpha virt. eigenvalues --    2.31381   2.32524   2.33588   2.33821   2.35715
 Alpha virt. eigenvalues --    2.36560   2.36907   2.37924   2.38806   2.39380
 Alpha virt. eigenvalues --    2.40034   2.40983   2.41763   2.42524   2.43621
 Alpha virt. eigenvalues --    2.44120   2.45907   2.46774   2.47646   2.47805
 Alpha virt. eigenvalues --    2.48657   2.50265   2.50782   2.51748   2.54650
 Alpha virt. eigenvalues --    2.55831   2.56613   2.56790   2.59024   2.59870
 Alpha virt. eigenvalues --    2.61877   2.62044   2.63845   2.65314   2.65850
 Alpha virt. eigenvalues --    2.66770   2.67283   2.68354   2.69747   2.71060
 Alpha virt. eigenvalues --    2.72531   2.73648   2.74933   2.76609   2.77023
 Alpha virt. eigenvalues --    2.77601   2.78880   2.79478   2.80834   2.82761
 Alpha virt. eigenvalues --    2.87775   2.87926   2.91337   2.94612   2.96020
 Alpha virt. eigenvalues --    2.96424   2.98214   3.00030   3.01279   3.03241
 Alpha virt. eigenvalues --    3.05638   3.06855   3.11418   3.14963   3.17039
 Alpha virt. eigenvalues --    3.23008   3.30266   4.01582   4.09252   4.10380
 Alpha virt. eigenvalues --    4.12272   4.14792   4.17721   4.19050   4.19747
 Alpha virt. eigenvalues --    4.23312   4.25437   4.25878   4.27281   4.29798
 Alpha virt. eigenvalues --    4.32220   4.32574   4.35608   4.39443   4.42710
 Alpha virt. eigenvalues --    4.45728   4.48435   4.55340   4.57648   4.60966
 Alpha virt. eigenvalues --    4.67275   4.69166   4.69991   4.75521   4.77162
 Alpha virt. eigenvalues --    4.88667   4.93359   5.23845
          Condensed to atoms (all electrons):
 Mulliken atomic charges:
              1
     1  C   -0.198209
     2  C    0.206565
     3  C   -0.201617
     4  C    0.323682
     5  C   -0.045694
     6  C   -0.327529
     7  C    0.196989
     8  C    0.412918
     9  C   -0.080167
    10  C    0.396577
    11  C    0.429126
    12  O   -0.482951
    13  C   -0.152176
    14  C   -0.248055
    15  C   -0.453321
    16  O   -0.503647
    17  C   -0.155088
    18  C    0.290667
    19  O   -0.486679
    20  C   -0.308570
    21  O   -0.665434
    22  C   -0.332224
    23  C    0.094471
    24  O   -0.589333
    25  C    0.181310
    26  C   -0.513837
    27  C   -0.404041
    28  C   -0.466256
    29  C   -0.460980
    30  H    0.147481
    31  H    0.150882
    32  C   -0.521305
    33  H    0.125455
    34  H    0.163328
    35  H    0.160938
    36  H    0.149561
    37  H    0.150148
    38  H    0.121813
    39  H    0.142457
    40  H    0.133099
    41  H    0.163842
    42  H    0.151976
    43  H    0.157983
    44  H    0.430140
    45  H    0.150858
    46  H    0.189288
    47  H    0.135230
    48  H    0.153661
    49  H    0.160718
    50  H    0.158152
    51  H    0.184090
    52  H    0.138057
    53  H    0.195530
    54  H    0.166200
    55  H    0.142899
    56  H    0.150750
    57  H    0.170920
    58  H    0.159135
    59  H    0.157700
    60  H    0.155519
    61  H    0.158084
    62  C   -0.452773
    63  H    0.153285
    64  H    0.155674
    65  H    0.132724
 Sum of Mulliken atomic charges =   0.00000
 Mulliken charges with hydrogens summed into heavy atoms:
              1
     1  C   -0.072755
     2  C    0.206565
     3  C   -0.050736
     4  C    0.323682
     5  C   -0.045694
     6  C   -0.003263
     7  C    0.196989
     8  C    0.412918
     9  C   -0.080167
    10  C    0.396577
    11  C    0.429126
    12  O   -0.482951
    13  C   -0.002615
    14  C    0.023905
    15  C   -0.013922
    16  O   -0.503647
    17  C   -0.007607
    18  C    0.290667
    19  O   -0.486679
    20  C    0.001389
    21  O   -0.235294
    22  C    0.007923
    23  C    0.229702
    24  O   -0.589333
    25  C    0.181310
    26  C   -0.041307
    27  C   -0.081893
    28  C    0.038373
    29  C    0.019825
    32  C   -0.050002
    62  C   -0.011091
 Sum of Mulliken charges with hydrogens summed into heavy atoms =   0.00000
 Electronic spatial extent (au):  <R**2>=          11184.7247
 Charge=              0.0000 electrons
 Dipole moment (field-independent basis, Debye):
    X=             -5.9599    Y=              1.6300    Z=              1.9641  Tot=              6.4834
 Quadrupole moment (field-independent basis, Debye-Ang):
   XX=           -189.3431   YY=           -176.9008   ZZ=           -180.1504
   XY=             -4.3377   XZ=              3.8611   YZ=              0.2230
 Traceless Quadrupole moment (field-independent basis, Debye-Ang):
   XX=             -7.2117   YY=              5.2306   ZZ=              1.9810
   XY=             -4.3377   XZ=              3.8611   YZ=              0.2230
 Octapole moment (field-independent basis, Debye-Ang**2):
  XXX=            -46.7629  YYY=             46.0562  ZZZ=             -5.1121  XYY=            -34.3160
  XXY=            -14.7697  XXZ=             14.5936  XZZ=            -10.6187  YZZ=             -3.9543
  YYZ=            -31.5043  XYZ=              3.1808
 Hexadecapole moment (field-independent basis, Debye-Ang**3):
 XXXX=          -7060.3321 YYYY=          -4856.5506 ZZZZ=          -3011.0261 XXXY=            -53.6849
 XXXZ=             48.0728 YYYX=             25.4769 YYYZ=            -36.5798 ZZZX=            -11.8341
 ZZZY=            -22.1343 XXYY=          -1994.2858 XXZZ=          -1655.1176 YYZZ=          -1273.6719
 XXYZ=             21.0261 YYXZ=             18.8924 ZZXY=             10.5679
 N-N= 3.526813358757D+03 E-N=-1.028007657335D+04  KE= 1.374462813386D+03
 1\1\GINC-B0803\FOpt\RB3LYP\6-31G(d)\C26H34O5\CAOFEI\24-Mar-2021\0\\# o
 pt rb3lyp/6-31g(d) geom=connectivity\\Title Card Required\\0,1\C,0.307
 9041131,-0.1795305098,0.0227650661\C,1.6399722177,-0.0766517735,0.1005
 566997\C,2.2967322215,1.2810601355,0.0158860044\C,1.450693732,2.482571
 5671,0.5467733417\C,-0.087588128,2.2653920179,0.6661486581\C,-0.588061
 3723,1.0201178741,-0.1323390041\C,1.8515505512,3.6750591681,-0.3899395
 651\C,0.797773177,4.0090888021,-1.4368899533\C,-0.5457634117,4.0285351
 731,-1.1773599926\C,-0.9465441647,3.4477600213,0.1183112698\C,-1.51926
 99748,4.6064646887,-2.1592049752\O,-1.1290729806,5.3602033832,-3.04075
 362\C,-2.9953376302,4.1840681351,-2.1329365061\C,-3.9136591028,5.42144
 86873,-2.1782825398\C,-3.2386501235,3.2699452403,-3.3516224093\O,-1.99
 04515087,3.7434500251,0.6908934542\C,3.009043486,3.2034514349,-1.29760
 05029\C,2.8326733887,4.0654725779,-2.5655718433\O,1.3634479217,4.30495
 34801,-2.5985872566\C,2.737844907,1.6917640669,-1.4137067557\O,2.10011
 18519,4.8544661199,0.3403778105\C,-0.3086908181,2.0554680642,2.1774086
 551\C,0.8756706854,2.7190170777,2.8859445694\O,1.9211571457,2.80592128
 28,1.8673742275\C,0.7015601712,4.0858189695,3.5297674016\C,1.895016934
 7,4.5339108601,4.3426963783\C,-0.3963475846,4.8378790269,3.4112866526\
 C,3.509116689,5.4326597653,-2.4436284161\C,3.174546897,3.394778772,-3.
 8920680712\H,3.9765043043,3.3910343419,-0.8222203757\H,3.1971463464,1.
 2816904337,0.6442145\C,2.5480253713,-1.2703545466,0.2385133448\H,-0.16
 36906144,-1.1605800613,0.0552208061\H,-1.6046432116,0.7914334451,0.207
 347488\H,-0.6821207614,1.2807248771,-1.196195793\H,-3.2069477087,3.624
 7611926,-1.219961166\H,-3.6819912228,5.9893239881,-3.0875377389\H,-4.9
 501231036,5.070528446,-2.2761499305\H,-4.2857224027,2.947173091,-3.382
 7191136\H,-2.6123061278,2.3698313174,-3.3156432474\H,-3.0103683568,3.8
 029626772,-4.2804054153\H,3.6080251581,1.1246797241,-1.7583490534\H,1.
 9235957677,1.4937912726,-2.1212144346\H,2.2186527601,4.5461413329,1.26
 29483373\H,-0.2935783503,0.9840663005,2.3967916645\H,-1.2798599787,2.4
 489403287,2.4780260788\H,1.2821620527,2.045235955,3.6519264568\H,2.073
 224805,3.8516642032,5.1860021929\H,2.8147330872,4.5301033184,3.7437254
 296\H,1.7526784524,5.5413244331,4.744127424\H,-1.2591911103,4.53932612
 64,2.8263459209\H,-0.4537847837,5.8103374013,3.894829812\H,3.256416602
 6,5.9089452958,-1.4936631148\H,3.187377528,6.0809610671,-3.26461948\H,
 4.5976878212,5.3172424679,-2.4994795579\H,4.2462998741,3.1710721039,-3
 .9307755027\H,2.9340981764,4.0650888797,-4.7229298719\H,2.6196179743,2
 .4638963285,-4.0338515065\H,1.9823400835,-2.2072381193,0.258869673\H,3
 .2649355456,-1.3277857998,-0.5922398529\H,3.1434697263,-1.209894663,1.
 1600423192\C,-3.7925361429,6.3321415576,-0.9515165387\H,-2.7890527466,
 6.7668117758,-0.8795324001\H,-3.978458997,5.7794220212,-0.0243375783\H
 ,-4.5087951086,7.1601533531,-1.0080885536\\Version=EM64L-G09RevB.01\St
 ate=1-A\HF=-1387.3194569\RMSD=4.384e-09\RMSF=8.163e-06\Dipole=1.664185
 5,-1.8561446,0.5400544\Quadrupole=2.8601247,-1.9712305,-0.8888942,2.19
 40864,-3.6078843,4.1748588\PG=C01 [X(C26H34O5)]\\@


 10 WHATSOEVER THY HAND FINDETH TO DO, DO IT WITH THY  
 MIGHT. FOR THERE IS NO WORK, NOR DEVICE, NOR KNOWLEDGE, NOR  
 WISDOM, IN THE GRAVE, WHITHER THOU GOEST.                    
 11 I RETURNED AND SAW UNDER THE SUN, THAT THE RACE IS NOT TO 
 THE SWIFT, NOR THE BATTLE TO THE STRONG, NEITHER YET BREAD TO
 THE WISE, NOR YET RICHES TO MEN OF UNDERSTANDING, NOR YET    
 FAVOR TO MEN OF SKILL. BUT TIME AND CHANCE HAPPEN TO THEM ALL.
 12 FOR MAN ALSO KNOWETH NOT HIS TIME. AS THE FISHES   
 THAT ARE TAKEN IN AN EVIL NET, AND AS THE BIRDS THAT ARE     
 CAUGHT IN THE SNARE. SO ARE THE SONS OF MEN SNARED IN AN EVIL
 TIME, WHEN IT FALLETH SUDDENLY UPON THEM.
                                         ECCLESIASTES 9
 Job cpu time:  0 days  5 hours 23 minutes 29.8 seconds.
 File lengths (MBytes):  RWF=    186 Int=      0 D2E=      0 Chk=     20 Scr=      1
 Normal termination of Gaussian 09 at Wed Mar 24 17:08:26 2021.
