 Entering Gaussian System, Link 0=g09
 Initial command:
 /public/software/g09/g09/l1.exe /tmp/Gau-13181.inp -scrdir=/tmp/
 Entering Link 1 = /public/software/g09/g09/l1.exe PID=     13191.
  
 Copyright (c) 1988,1990,1992,1993,1995,1998,2003,2009,2010,
            Gaussian, Inc.  All Rights Reserved.
  
 This is part of the Gaussian(R) 09 program.  It is based on
 the Gaussian(R) 03 system (copyright 2003, Gaussian, Inc.),
 the Gaussian(R) 98 system (copyright 1998, Gaussian, Inc.),
 the Gaussian(R) 94 system (copyright 1995, Gaussian, Inc.),
 the Gaussian 92(TM) system (copyright 1992, Gaussian, Inc.),
 the Gaussian 90(TM) system (copyright 1990, Gaussian, Inc.),
 the Gaussian 88(TM) system (copyright 1988, Gaussian, Inc.),
 the Gaussian 86(TM) system (copyright 1986, Carnegie Mellon
 University), and the Gaussian 82(TM) system (copyright 1983,
 Carnegie Mellon University). Gaussian is a federally registered
 trademark of Gaussian, Inc.
  
 This software contains proprietary and confidential information,
 including trade secrets, belonging to Gaussian, Inc.
  
 This software is provided under written license and may be
 used, copied, transmitted, or stored only in accord with that
 written license.
  
 The following legend is applicable only to US Government
 contracts under FAR:
  
                    RESTRICTED RIGHTS LEGEND
  
 Use, reproduction and disclosure by the US Government is
 subject to restrictions as set forth in subparagraphs (a)
 and (c) of the Commercial Computer Software - Restricted
 Rights clause in FAR 52.227-19.
  
 Gaussian, Inc.
 340 Quinnipiac St., Bldg. 40, Wallingford CT 06492
  
  
 ---------------------------------------------------------------
 Warning -- This program may not be used in any manner that
 competes with the business of Gaussian, Inc. or will provide
 assistance to any competitor of Gaussian, Inc.  The licensee
 of this program is prohibited from giving any competitor of
 Gaussian, Inc. access to this program.  By using this program,
 the user acknowledges that Gaussian, Inc. is engaged in the
 business of creating and licensing software in the field of
 computational chemistry and represents and warrants to the
 licensee that it is not a competitor of Gaussian, Inc. and that
 it will not use this program in any manner prohibited above.
 ---------------------------------------------------------------
  

 Cite this work as:
 Gaussian 09, Revision B.01,
 M. J. Frisch, G. W. Trucks, H. B. Schlegel, G. E. Scuseria, 
 M. A. Robb, J. R. Cheeseman, G. Scalmani, V. Barone, B. Mennucci, 
 G. A. Petersson, H. Nakatsuji, M. Caricato, X. Li, H. P. Hratchian, 
 A. F. Izmaylov, J. Bloino, G. Zheng, J. L. Sonnenberg, M. Hada, 
 M. Ehara, K. Toyota, R. Fukuda, J. Hasegawa, M. Ishida, T. Nakajima, 
 Y. Honda, O. Kitao, H. Nakai, T. Vreven, J. A. Montgomery, Jr., 
 J. E. Peralta, F. Ogliaro, M. Bearpark, J. J. Heyd, E. Brothers, 
 K. N. Kudin, V. N. Staroverov, T. Keith, R. Kobayashi, J. Normand, 
 K. Raghavachari, A. Rendell, J. C. Burant, S. S. Iyengar, J. Tomasi, 
 M. Cossi, N. Rega, J. M. Millam, M. Klene, J. E. Knox, J. B. Cross, 
 V. Bakken, C. Adamo, J. Jaramillo, R. Gomperts, R. E. Stratmann, 
 O. Yazyev, A. J. Austin, R. Cammi, C. Pomelli, J. W. Ochterski, 
 R. L. Martin, K. Morokuma, V. G. Zakrzewski, G. A. Voth, 
 P. Salvador, J. J. Dannenberg, S. Dapprich, A. D. Daniels, 
 O. Farkas, J. B. Foresman, J. V. Ortiz, J. Cioslowski, 
 and D. J. Fox, Gaussian, Inc., Wallingford CT, 2010.
 
 ******************************************
 Gaussian 09:  EM64L-G09RevB.01 12-Aug-2010
                24-Mar-2021 
 ******************************************
 %mem=600MW
 %nprocshared=10
 Will use up to   10 processors via shared memory.
 ---------------------------------------
 # opt rb3lyp/6-31g(d) geom=connectivity
 ---------------------------------------
 1/14=-1,18=20,19=15,26=3,38=1,57=2/1,3;
 2/9=110,12=2,17=6,18=5,40=1/2;
 3/5=1,6=6,7=1,11=2,16=1,25=1,30=1,71=1,74=-5,116=1/1,2,3;
 4//1;
 5/5=2,38=5/2;
 6/7=2,8=2,9=2,10=2,28=1/1;
 7//1,2,3,16;
 1/14=-1,18=20,19=15/3(2);
 2/9=110/2;
 99//99;
 2/9=110/2;
 3/5=1,6=6,7=1,11=2,16=1,25=1,30=1,71=1,74=-5,116=1/1,2,3;
 4/5=5,16=3/1;
 5/5=2,38=5/2;
 7//1,2,3,16;
 1/14=-1,18=20,19=15/3(-5);
 2/9=110/2;
 6/7=2,8=2,9=2,10=2,19=2,28=1/1;
 99/9=1/99;
 -------------------
 Title Card Required
 -------------------
 Symbolic Z-matrix:
 Charge =  0 Multiplicity = 1
 C                     0.        0.        0. 
 C                     1.34      0.        0. 
 C                     2.1403    1.2789    0. 
 C                     1.3486    2.5937   -0.2586 
 C                    -0.1705    2.5058   -0.5249 
 C                    -0.8425    1.2305    0.0323 
 C                     2.1104    3.2892   -1.4026 
 C                     1.6669    2.9316   -2.7771 
 C                     0.4067    2.5994   -3.0763 
 C                    -0.6009    2.6538   -1.9947 
 C                     0.0575    2.2102   -4.4664 
 O                     0.5236    1.1651   -4.9247 
 C                    -0.9241    3.0893   -5.251 
 C                    -0.5429    4.5803   -5.2382 
 C                    -1.1077    2.5591   -6.6754 
 O                    -1.7908    2.794    -2.2854 
 C                     3.5135    2.7257   -1.4298 
 C                     3.9385    2.9527   -2.896 
 O                     2.7227    2.8401   -3.6779 
 C                     3.2737    1.2594   -1.0432 
 O                     2.09      4.6995   -1.2641 
 C                    -0.6958    3.7302    0.2371 
 C                     0.2274    3.7808    1.4409 
 O                     1.5248    3.4472    0.9263 
 C                     0.2532    5.0994    2.1728 
 C                     0.8997    6.2838    1.5123 
 C                    -0.2885    5.2182    3.398 
 C                     4.5282    4.3523   -3.1336 
 C                     4.9428    1.9165   -3.4119 
 H                     4.1918    3.212    -0.7195 
 H                     2.6143    1.3508    0.9899 
 C                     2.1069   -1.2945    0.0848 
 H                    -0.5393   -0.9454    0.0418 
 H                    -1.7655    1.0129   -0.5204 
 H                    -1.1623    1.3667    1.0728 
 H                    -1.8983    2.9879   -4.7577 
 H                    -1.3719    5.1602   -5.6632 
 H                    -0.4271    4.9322   -4.2067 
 H                    -1.5299    1.5479   -6.6574 
 H                    -1.7923    3.1956   -7.2455 
 H                    -0.1567    2.5015   -7.2154 
 H                     2.9742    0.6571   -1.9097 
 H                     4.1868    0.8082   -0.6385 
 H                     2.2805    4.86     -0.319 
 H                    -1.75      3.6498    0.5257 
 H                    -0.5991    4.632    -0.3803 
 H                    -0.0351    2.9816    2.1457 
 H                     1.978     6.1256    1.4158 
 H                     0.4761    6.4611    0.5198 
 H                     0.758     7.2032    2.0912 
 H                    -0.7599    4.3777    3.8986 
 H                    -0.2739    6.1606    3.9376 
 H                     4.8075    4.4785   -4.1865 
 H                     5.4195    4.5174   -2.5196 
 H                     3.8101    5.1504   -2.9274 
 H                     5.24      2.145    -4.4423 
 H                     5.8445    1.8918   -2.7918 
 H                     4.5131    0.9109   -3.4528 
 H                     1.4462   -2.1555    0.2328 
 H                     2.676    -1.4717   -0.8327 
 H                     2.8032   -1.2672    0.9293 
 C                     0.7233    4.9226   -6.0131 
 H                     0.596     4.7447   -7.085 
 H                     0.9635    5.983    -5.8837 
 H                     1.5808    4.3404   -5.6668 
 

 GradGradGradGradGradGradGradGradGradGradGradGradGradGradGradGradGradGrad
 Berny optimization.
 Initialization pass.
                           ----------------------------
                           !    Initial Parameters    !
                           ! (Angstroms and Degrees)  !
 --------------------------                            --------------------------
 ! Name  Definition              Value          Derivative Info.                !
 --------------------------------------------------------------------------------
 ! R1    R(1,2)                  1.34           estimate D2E/DX2                !
 ! R2    R(1,6)                  1.4916         estimate D2E/DX2                !
 ! R3    R(1,33)                 1.0892         estimate D2E/DX2                !
 ! R4    R(2,3)                  1.5087         estimate D2E/DX2                !
 ! R5    R(2,32)                 1.507          estimate D2E/DX2                !
 ! R6    R(3,4)                  1.5564         estimate D2E/DX2                !
 ! R7    R(3,20)                 1.5405         estimate D2E/DX2                !
 ! R8    R(3,31)                 1.0999         estimate D2E/DX2                !
 ! R9    R(4,5)                  1.5448         estimate D2E/DX2                !
 ! R10   R(4,7)                  1.5404         estimate D2E/DX2                !
 ! R11   R(4,24)                 1.4709         estimate D2E/DX2                !
 ! R12   R(5,6)                  1.5455         estimate D2E/DX2                !
 ! R13   R(5,10)                 1.5387         estimate D2E/DX2                !
 ! R14   R(5,22)                 1.5348         estimate D2E/DX2                !
 ! R15   R(6,34)                 1.0976         estimate D2E/DX2                !
 ! R16   R(6,35)                 1.097          estimate D2E/DX2                !
 ! R17   R(7,8)                  1.4879         estimate D2E/DX2                !
 ! R18   R(7,17)                 1.5123         estimate D2E/DX2                !
 ! R19   R(7,21)                 1.4172         estimate D2E/DX2                !
 ! R20   R(8,9)                  1.3372         estimate D2E/DX2                !
 ! R21   R(8,19)                 1.3909         estimate D2E/DX2                !
 ! R22   R(9,10)                 1.4792         estimate D2E/DX2                !
 ! R23   R(9,11)                 1.4852         estimate D2E/DX2                !
 ! R24   R(10,16)                1.2329         estimate D2E/DX2                !
 ! R25   R(11,12)                1.2327         estimate D2E/DX2                !
 ! R26   R(11,13)                1.5336         estimate D2E/DX2                !
 ! R27   R(13,14)                1.539          estimate D2E/DX2                !
 ! R28   R(13,15)                1.5309         estimate D2E/DX2                !
 ! R29   R(13,36)                1.0967         estimate D2E/DX2                !
 ! R30   R(14,37)                1.0973         estimate D2E/DX2                !
 ! R31   R(14,38)                1.096          estimate D2E/DX2                !
 ! R32   R(14,62)                1.5235         estimate D2E/DX2                !
 ! R33   R(15,39)                1.0959         estimate D2E/DX2                !
 ! R34   R(15,40)                1.0949         estimate D2E/DX2                !
 ! R35   R(15,41)                1.0951         estimate D2E/DX2                !
 ! R36   R(17,18)                1.5433         estimate D2E/DX2                !
 ! R37   R(17,20)                1.5353         estimate D2E/DX2                !
 ! R38   R(17,30)                1.0959         estimate D2E/DX2                !
 ! R39   R(18,19)                1.4499         estimate D2E/DX2                !
 ! R40   R(18,28)                1.5372         estimate D2E/DX2                !
 ! R41   R(18,29)                1.5325         estimate D2E/DX2                !
 ! R42   R(20,42)                1.0969         estimate D2E/DX2                !
 ! R43   R(20,43)                1.096          estimate D2E/DX2                !
 ! R44   R(21,44)                0.9774         estimate D2E/DX2                !
 ! R45   R(22,23)                1.5179         estimate D2E/DX2                !
 ! R46   R(22,45)                1.0959         estimate D2E/DX2                !
 ! R47   R(22,46)                1.0972         estimate D2E/DX2                !
 ! R48   R(23,24)                1.435          estimate D2E/DX2                !
 ! R49   R(23,25)                1.5083         estimate D2E/DX2                !
 ! R50   R(23,47)                1.0974         estimate D2E/DX2                !
 ! R51   R(25,26)                1.5023         estimate D2E/DX2                !
 ! R52   R(25,27)                1.3449         estimate D2E/DX2                !
 ! R53   R(26,48)                1.0941         estimate D2E/DX2                !
 ! R54   R(26,49)                1.0936         estimate D2E/DX2                !
 ! R55   R(26,50)                1.0957         estimate D2E/DX2                !
 ! R56   R(27,51)                1.0859         estimate D2E/DX2                !
 ! R57   R(27,52)                1.086          estimate D2E/DX2                !
 ! R58   R(28,53)                1.0966         estimate D2E/DX2                !
 ! R59   R(28,54)                1.0948         estimate D2E/DX2                !
 ! R60   R(28,55)                1.0932         estimate D2E/DX2                !
 ! R61   R(29,56)                1.0965         estimate D2E/DX2                !
 ! R62   R(29,57)                1.0946         estimate D2E/DX2                !
 ! R63   R(29,58)                1.0943         estimate D2E/DX2                !
 ! R64   R(32,59)                1.0953         estimate D2E/DX2                !
 ! R65   R(32,60)                1.0941         estimate D2E/DX2                !
 ! R66   R(32,61)                1.0949         estimate D2E/DX2                !
 ! R67   R(62,63)                1.094          estimate D2E/DX2                !
 ! R68   R(62,64)                1.0949         estimate D2E/DX2                !
 ! R69   R(62,65)                1.0928         estimate D2E/DX2                !
 ! A1    A(2,1,6)              124.3895         estimate D2E/DX2                !
 ! A2    A(2,1,33)             119.6784         estimate D2E/DX2                !
 ! A3    A(6,1,33)             115.8189         estimate D2E/DX2                !
 ! A4    A(1,2,3)              122.0372         estimate D2E/DX2                !
 ! A5    A(1,2,32)             120.59           estimate D2E/DX2                !
 ! A6    A(3,2,32)             117.2722         estimate D2E/DX2                !
 ! A7    A(2,3,4)              116.5053         estimate D2E/DX2                !
 ! A8    A(2,3,20)             112.3056         estimate D2E/DX2                !
 ! A9    A(2,3,31)             106.5004         estimate D2E/DX2                !
 ! A10   A(4,3,20)             105.8084         estimate D2E/DX2                !
 ! A11   A(4,3,31)             108.2722         estimate D2E/DX2                !
 ! A12   A(20,3,31)            107.0508         estimate D2E/DX2                !
 ! A13   A(3,4,5)              118.7375         estimate D2E/DX2                !
 ! A14   A(3,4,7)              104.6702         estimate D2E/DX2                !
 ! A15   A(3,4,24)             107.182          estimate D2E/DX2                !
 ! A16   A(5,4,7)              112.5815         estimate D2E/DX2                !
 ! A17   A(5,4,24)             106.8394         estimate D2E/DX2                !
 ! A18   A(7,4,24)             106.0833         estimate D2E/DX2                !
 ! A19   A(4,5,6)              114.3556         estimate D2E/DX2                !
 ! A20   A(4,5,10)             115.7393         estimate D2E/DX2                !
 ! A21   A(4,5,22)             101.8638         estimate D2E/DX2                !
 ! A22   A(6,5,10)             107.5867         estimate D2E/DX2                !
 ! A23   A(6,5,22)             109.2974         estimate D2E/DX2                !
 ! A24   A(10,5,22)            107.5647         estimate D2E/DX2                !
 ! A25   A(1,6,5)              115.298          estimate D2E/DX2                !
 ! A26   A(1,6,34)             107.4886         estimate D2E/DX2                !
 ! A27   A(1,6,35)             106.7149         estimate D2E/DX2                !
 ! A28   A(5,6,34)             110.3462         estimate D2E/DX2                !
 ! A29   A(5,6,35)             111.4857         estimate D2E/DX2                !
 ! A30   A(34,6,35)            104.8966         estimate D2E/DX2                !
 ! A31   A(4,7,8)              115.4767         estimate D2E/DX2                !
 ! A32   A(4,7,17)             107.696          estimate D2E/DX2                !
 ! A33   A(4,7,21)             111.6912         estimate D2E/DX2                !
 ! A34   A(8,7,17)              99.8102         estimate D2E/DX2                !
 ! A35   A(8,7,21)             108.9748         estimate D2E/DX2                !
 ! A36   A(17,7,21)            112.7002         estimate D2E/DX2                !
 ! A37   A(7,8,9)              123.1843         estimate D2E/DX2                !
 ! A38   A(7,8,19)             112.8202         estimate D2E/DX2                !
 ! A39   A(9,8,19)             123.6518         estimate D2E/DX2                !
 ! A40   A(8,9,10)             117.9838         estimate D2E/DX2                !
 ! A41   A(8,9,11)             119.744          estimate D2E/DX2                !
 ! A42   A(10,9,11)            122.2668         estimate D2E/DX2                !
 ! A43   A(5,10,9)             120.2915         estimate D2E/DX2                !
 ! A44   A(5,10,16)            120.4073         estimate D2E/DX2                !
 ! A45   A(9,10,16)            119.2876         estimate D2E/DX2                !
 ! A46   A(9,11,12)            118.7675         estimate D2E/DX2                !
 ! A47   A(9,11,13)            118.6282         estimate D2E/DX2                !
 ! A48   A(12,11,13)           122.534          estimate D2E/DX2                !
 ! A49   A(11,13,14)           113.1132         estimate D2E/DX2                !
 ! A50   A(11,13,15)           110.7471         estimate D2E/DX2                !
 ! A51   A(11,13,36)           106.5858         estimate D2E/DX2                !
 ! A52   A(14,13,15)           111.8986         estimate D2E/DX2                !
 ! A53   A(14,13,36)           107.8103         estimate D2E/DX2                !
 ! A54   A(15,13,36)           106.2578         estimate D2E/DX2                !
 ! A55   A(13,14,37)           108.7616         estimate D2E/DX2                !
 ! A56   A(13,14,38)           110.1852         estimate D2E/DX2                !
 ! A57   A(13,14,62)           114.7912         estimate D2E/DX2                !
 ! A58   A(37,14,38)           105.9411         estimate D2E/DX2                !
 ! A59   A(37,14,62)           108.1894         estimate D2E/DX2                !
 ! A60   A(38,14,62)           108.5876         estimate D2E/DX2                !
 ! A61   A(13,15,39)           110.5157         estimate D2E/DX2                !
 ! A62   A(13,15,40)           110.9841         estimate D2E/DX2                !
 ! A63   A(13,15,41)           111.8916         estimate D2E/DX2                !
 ! A64   A(39,15,40)           107.7012         estimate D2E/DX2                !
 ! A65   A(39,15,41)           107.1038         estimate D2E/DX2                !
 ! A66   A(40,15,41)           108.4694         estimate D2E/DX2                !
 ! A67   A(7,17,18)            102.5786         estimate D2E/DX2                !
 ! A68   A(7,17,20)            101.9135         estimate D2E/DX2                !
 ! A69   A(7,17,30)            113.4057         estimate D2E/DX2                !
 ! A70   A(18,17,20)           115.0064         estimate D2E/DX2                !
 ! A71   A(18,17,30)           112.3349         estimate D2E/DX2                !
 ! A72   A(20,17,30)           110.9322         estimate D2E/DX2                !
 ! A73   A(17,18,19)           105.6635         estimate D2E/DX2                !
 ! A74   A(17,18,28)           112.7301         estimate D2E/DX2                !
 ! A75   A(17,18,29)           113.6303         estimate D2E/DX2                !
 ! A76   A(19,18,28)           108.0007         estimate D2E/DX2                !
 ! A77   A(19,18,29)           108.3896         estimate D2E/DX2                !
 ! A78   A(28,18,29)           108.1914         estimate D2E/DX2                !
 ! A79   A(8,19,18)            106.3889         estimate D2E/DX2                !
 ! A80   A(3,20,17)            105.8636         estimate D2E/DX2                !
 ! A81   A(3,20,42)            109.9369         estimate D2E/DX2                !
 ! A82   A(3,20,43)            111.5999         estimate D2E/DX2                !
 ! A83   A(17,20,42)           111.6011         estimate D2E/DX2                !
 ! A84   A(17,20,43)           110.8583         estimate D2E/DX2                !
 ! A85   A(42,20,43)           107.0448         estimate D2E/DX2                !
 ! A86   A(7,21,44)            104.7798         estimate D2E/DX2                !
 ! A87   A(5,22,23)            102.2495         estimate D2E/DX2                !
 ! A88   A(5,22,45)            113.6675         estimate D2E/DX2                !
 ! A89   A(5,22,46)            110.252          estimate D2E/DX2                !
 ! A90   A(23,22,45)           112.2499         estimate D2E/DX2                !
 ! A91   A(23,22,46)           111.4245         estimate D2E/DX2                !
 ! A92   A(45,22,46)           107.0533         estimate D2E/DX2                !
 ! A93   A(22,23,24)           104.9356         estimate D2E/DX2                !
 ! A94   A(22,23,25)           115.1112         estimate D2E/DX2                !
 ! A95   A(22,23,47)           109.8509         estimate D2E/DX2                !
 ! A96   A(24,23,25)           111.2087         estimate D2E/DX2                !
 ! A97   A(24,23,47)           106.0966         estimate D2E/DX2                !
 ! A98   A(25,23,47)           109.214          estimate D2E/DX2                !
 ! A99   A(4,24,23)            108.3888         estimate D2E/DX2                !
 ! A100  A(23,25,26)           118.8966         estimate D2E/DX2                !
 ! A101  A(23,25,27)           120.8237         estimate D2E/DX2                !
 ! A102  A(26,25,27)           120.2795         estimate D2E/DX2                !
 ! A103  A(25,26,48)           110.4198         estimate D2E/DX2                !
 ! A104  A(25,26,49)           111.1086         estimate D2E/DX2                !
 ! A105  A(25,26,50)           111.9375         estimate D2E/DX2                !
 ! A106  A(48,26,49)           108.9746         estimate D2E/DX2                !
 ! A107  A(48,26,50)           107.1809         estimate D2E/DX2                !
 ! A108  A(49,26,50)           107.0601         estimate D2E/DX2                !
 ! A109  A(25,27,51)           121.7655         estimate D2E/DX2                !
 ! A110  A(25,27,52)           121.5925         estimate D2E/DX2                !
 ! A111  A(51,27,52)           116.6418         estimate D2E/DX2                !
 ! A112  A(18,28,53)           110.5416         estimate D2E/DX2                !
 ! A113  A(18,28,54)           111.2791         estimate D2E/DX2                !
 ! A114  A(18,28,55)           112.5534         estimate D2E/DX2                !
 ! A115  A(53,28,54)           108.2862         estimate D2E/DX2                !
 ! A116  A(53,28,55)           105.3304         estimate D2E/DX2                !
 ! A117  A(54,28,55)           108.5952         estimate D2E/DX2                !
 ! A118  A(18,29,56)           110.6758         estimate D2E/DX2                !
 ! A119  A(18,29,57)           111.3702         estimate D2E/DX2                !
 ! A120  A(18,29,58)           112.1228         estimate D2E/DX2                !
 ! A121  A(56,29,57)           108.2873         estimate D2E/DX2                !
 ! A122  A(56,29,58)           105.2367         estimate D2E/DX2                !
 ! A123  A(57,29,58)           108.8986         estimate D2E/DX2                !
 ! A124  A(2,32,59)            112.0776         estimate D2E/DX2                !
 ! A125  A(2,32,60)            110.8935         estimate D2E/DX2                !
 ! A126  A(2,32,61)            110.2196         estimate D2E/DX2                !
 ! A127  A(59,32,60)           107.4426         estimate D2E/DX2                !
 ! A128  A(59,32,61)           107.3969         estimate D2E/DX2                !
 ! A129  A(60,32,61)           108.6663         estimate D2E/DX2                !
 ! A130  A(14,62,63)           111.4152         estimate D2E/DX2                !
 ! A131  A(14,62,64)           109.8658         estimate D2E/DX2                !
 ! A132  A(14,62,65)           111.7954         estimate D2E/DX2                !
 ! A133  A(63,62,64)           107.3859         estimate D2E/DX2                !
 ! A134  A(63,62,65)           108.371          estimate D2E/DX2                !
 ! A135  A(64,62,65)           107.8406         estimate D2E/DX2                !
 ! D1    D(6,1,2,3)             -1.5036         estimate D2E/DX2                !
 ! D2    D(6,1,2,32)           174.7484         estimate D2E/DX2                !
 ! D3    D(33,1,2,3)          -177.4684         estimate D2E/DX2                !
 ! D4    D(33,1,2,32)           -1.2163         estimate D2E/DX2                !
 ! D5    D(2,1,6,5)             24.9987         estimate D2E/DX2                !
 ! D6    D(2,1,6,34)           148.5124         estimate D2E/DX2                !
 ! D7    D(2,1,6,35)           -99.3989         estimate D2E/DX2                !
 ! D8    D(33,1,6,5)          -158.8958         estimate D2E/DX2                !
 ! D9    D(33,1,6,34)          -35.3821         estimate D2E/DX2                !
 ! D10   D(33,1,6,35)           76.7066         estimate D2E/DX2                !
 ! D11   D(1,2,3,4)            -10.7001         estimate D2E/DX2                !
 ! D12   D(1,2,3,20)          -132.951          estimate D2E/DX2                !
 ! D13   D(1,2,3,31)           110.1724         estimate D2E/DX2                !
 ! D14   D(32,2,3,4)           172.9296         estimate D2E/DX2                !
 ! D15   D(32,2,3,20)           50.6787         estimate D2E/DX2                !
 ! D16   D(32,2,3,31)          -66.1979         estimate D2E/DX2                !
 ! D17   D(1,2,32,59)           -5.1665         estimate D2E/DX2                !
 ! D18   D(1,2,32,60)          114.9042         estimate D2E/DX2                !
 ! D19   D(1,2,32,61)         -124.7194         estimate D2E/DX2                !
 ! D20   D(3,2,32,59)          171.2593         estimate D2E/DX2                !
 ! D21   D(3,2,32,60)          -68.6701         estimate D2E/DX2                !
 ! D22   D(3,2,32,61)           51.7063         estimate D2E/DX2                !
 ! D23   D(2,3,4,5)             -1.3213         estimate D2E/DX2                !
 ! D24   D(2,3,4,7)           -127.9226         estimate D2E/DX2                !
 ! D25   D(2,3,4,24)           119.7006         estimate D2E/DX2                !
 ! D26   D(20,3,4,5)           124.2696         estimate D2E/DX2                !
 ! D27   D(20,3,4,7)            -2.3317         estimate D2E/DX2                !
 ! D28   D(20,3,4,24)         -114.7085         estimate D2E/DX2                !
 ! D29   D(31,3,4,5)          -121.2482         estimate D2E/DX2                !
 ! D30   D(31,3,4,7)           112.1505         estimate D2E/DX2                !
 ! D31   D(31,3,4,24)           -0.2262         estimate D2E/DX2                !
 ! D32   D(2,3,20,17)          152.4103         estimate D2E/DX2                !
 ! D33   D(2,3,20,42)           31.7337         estimate D2E/DX2                !
 ! D34   D(2,3,20,43)          -86.8844         estimate D2E/DX2                !
 ! D35   D(4,3,20,17)           24.2773         estimate D2E/DX2                !
 ! D36   D(4,3,20,42)          -96.3994         estimate D2E/DX2                !
 ! D37   D(4,3,20,43)          144.9826         estimate D2E/DX2                !
 ! D38   D(31,3,20,17)         -91.0427         estimate D2E/DX2                !
 ! D39   D(31,3,20,42)         148.2806         estimate D2E/DX2                !
 ! D40   D(31,3,20,43)          29.6626         estimate D2E/DX2                !
 ! D41   D(3,4,5,6)             23.2183         estimate D2E/DX2                !
 ! D42   D(3,4,5,10)          -102.6868         estimate D2E/DX2                !
 ! D43   D(3,4,5,22)           140.9784         estimate D2E/DX2                !
 ! D44   D(7,4,5,6)            145.96           estimate D2E/DX2                !
 ! D45   D(7,4,5,10)            20.0549         estimate D2E/DX2                !
 ! D46   D(7,4,5,22)           -96.2799         estimate D2E/DX2                !
 ! D47   D(24,4,5,6)           -97.9773         estimate D2E/DX2                !
 ! D48   D(24,4,5,10)          136.1176         estimate D2E/DX2                !
 ! D49   D(24,4,5,22)           19.7828         estimate D2E/DX2                !
 ! D50   D(3,4,7,8)             89.5502         estimate D2E/DX2                !
 ! D51   D(3,4,7,17)           -20.9455         estimate D2E/DX2                !
 ! D52   D(3,4,7,21)          -145.1993         estimate D2E/DX2                !
 ! D53   D(5,4,7,8)            -40.776          estimate D2E/DX2                !
 ! D54   D(5,4,7,17)          -151.2717         estimate D2E/DX2                !
 ! D55   D(5,4,7,21)            84.4744         estimate D2E/DX2                !
 ! D56   D(24,4,7,8)          -157.291          estimate D2E/DX2                !
 ! D57   D(24,4,7,17)           92.2133         estimate D2E/DX2                !
 ! D58   D(24,4,7,21)          -32.0405         estimate D2E/DX2                !
 ! D59   D(3,4,24,23)         -123.7365         estimate D2E/DX2                !
 ! D60   D(5,4,24,23)            4.5352         estimate D2E/DX2                !
 ! D61   D(7,4,24,23)          124.8539         estimate D2E/DX2                !
 ! D62   D(4,5,6,1)            -34.228          estimate D2E/DX2                !
 ! D63   D(4,5,6,34)          -156.2191         estimate D2E/DX2                !
 ! D64   D(4,5,6,35)            87.6372         estimate D2E/DX2                !
 ! D65   D(10,5,6,1)            95.8298         estimate D2E/DX2                !
 ! D66   D(10,5,6,34)          -26.1612         estimate D2E/DX2                !
 ! D67   D(10,5,6,35)         -142.3049         estimate D2E/DX2                !
 ! D68   D(22,5,6,1)          -147.6568         estimate D2E/DX2                !
 ! D69   D(22,5,6,34)           90.3522         estimate D2E/DX2                !
 ! D70   D(22,5,6,35)          -25.7915         estimate D2E/DX2                !
 ! D71   D(4,5,10,9)            12.0138         estimate D2E/DX2                !
 ! D72   D(4,5,10,16)         -169.337          estimate D2E/DX2                !
 ! D73   D(6,5,10,9)          -117.2643         estimate D2E/DX2                !
 ! D74   D(6,5,10,16)           61.3849         estimate D2E/DX2                !
 ! D75   D(22,5,10,9)          125.0928         estimate D2E/DX2                !
 ! D76   D(22,5,10,16)         -56.258          estimate D2E/DX2                !
 ! D77   D(4,5,22,23)          -35.3188         estimate D2E/DX2                !
 ! D78   D(4,5,22,45)         -156.5311         estimate D2E/DX2                !
 ! D79   D(4,5,22,46)           83.27           estimate D2E/DX2                !
 ! D80   D(6,5,22,23)           86.0162         estimate D2E/DX2                !
 ! D81   D(6,5,22,45)          -35.1961         estimate D2E/DX2                !
 ! D82   D(6,5,22,46)         -155.395          estimate D2E/DX2                !
 ! D83   D(10,5,22,23)        -157.4564         estimate D2E/DX2                !
 ! D84   D(10,5,22,45)          81.3313         estimate D2E/DX2                !
 ! D85   D(10,5,22,46)         -38.8676         estimate D2E/DX2                !
 ! D86   D(4,7,8,9)             31.0152         estimate D2E/DX2                !
 ! D87   D(4,7,8,19)          -142.4686         estimate D2E/DX2                !
 ! D88   D(17,7,8,9)           146.1085         estimate D2E/DX2                !
 ! D89   D(17,7,8,19)          -27.3754         estimate D2E/DX2                !
 ! D90   D(21,7,8,9)           -95.6237         estimate D2E/DX2                !
 ! D91   D(21,7,8,19)           90.8924         estimate D2E/DX2                !
 ! D92   D(4,7,17,18)          154.8908         estimate D2E/DX2                !
 ! D93   D(4,7,17,20)           35.5683         estimate D2E/DX2                !
 ! D94   D(4,7,17,30)          -83.7191         estimate D2E/DX2                !
 ! D95   D(8,7,17,18)           34.0018         estimate D2E/DX2                !
 ! D96   D(8,7,17,20)          -85.3208         estimate D2E/DX2                !
 ! D97   D(8,7,17,30)          155.3919         estimate D2E/DX2                !
 ! D98   D(21,7,17,18)         -81.4668         estimate D2E/DX2                !
 ! D99   D(21,7,17,20)         159.2106         estimate D2E/DX2                !
 ! D100  D(21,7,17,30)          39.9233         estimate D2E/DX2                !
 ! D101  D(4,7,21,44)           44.4018         estimate D2E/DX2                !
 ! D102  D(8,7,21,44)          173.1788         estimate D2E/DX2                !
 ! D103  D(17,7,21,44)         -76.997          estimate D2E/DX2                !
 ! D104  D(7,8,9,10)             2.931          estimate D2E/DX2                !
 ! D105  D(7,8,9,11)          -177.8973         estimate D2E/DX2                !
 ! D106  D(19,8,9,10)          175.7122         estimate D2E/DX2                !
 ! D107  D(19,8,9,11)           -5.1161         estimate D2E/DX2                !
 ! D108  D(7,8,19,18)            7.7388         estimate D2E/DX2                !
 ! D109  D(9,8,19,18)         -165.7097         estimate D2E/DX2                !
 ! D110  D(8,9,10,5)           -25.1635         estimate D2E/DX2                !
 ! D111  D(8,9,10,16)          156.1723         estimate D2E/DX2                !
 ! D112  D(11,9,10,5)          155.687          estimate D2E/DX2                !
 ! D113  D(11,9,10,16)         -22.9772         estimate D2E/DX2                !
 ! D114  D(8,9,11,12)           66.6794         estimate D2E/DX2                !
 ! D115  D(8,9,11,13)         -116.293          estimate D2E/DX2                !
 ! D116  D(10,9,11,12)        -114.1856         estimate D2E/DX2                !
 ! D117  D(10,9,11,13)          62.842          estimate D2E/DX2                !
 ! D118  D(9,11,13,14)          51.006          estimate D2E/DX2                !
 ! D119  D(9,11,13,15)         177.5409         estimate D2E/DX2                !
 ! D120  D(9,11,13,36)         -67.2961         estimate D2E/DX2                !
 ! D121  D(12,11,13,14)       -132.0847         estimate D2E/DX2                !
 ! D122  D(12,11,13,15)         -5.5497         estimate D2E/DX2                !
 ! D123  D(12,11,13,36)        109.6133         estimate D2E/DX2                !
 ! D124  D(11,13,14,37)       -170.2791         estimate D2E/DX2                !
 ! D125  D(11,13,14,38)        -54.5624         estimate D2E/DX2                !
 ! D126  D(11,13,14,62)         68.3864         estimate D2E/DX2                !
 ! D127  D(15,13,14,37)         63.7995         estimate D2E/DX2                !
 ! D128  D(15,13,14,38)        179.5161         estimate D2E/DX2                !
 ! D129  D(15,13,14,62)        -57.535          estimate D2E/DX2                !
 ! D130  D(36,13,14,37)        -52.6915         estimate D2E/DX2                !
 ! D131  D(36,13,14,38)         63.0252         estimate D2E/DX2                !
 ! D132  D(36,13,14,62)       -174.026          estimate D2E/DX2                !
 ! D133  D(11,13,15,39)         61.7261         estimate D2E/DX2                !
 ! D134  D(11,13,15,40)       -178.8527         estimate D2E/DX2                !
 ! D135  D(11,13,15,41)        -57.5348         estimate D2E/DX2                !
 ! D136  D(14,13,15,39)       -171.0679         estimate D2E/DX2                !
 ! D137  D(14,13,15,40)        -51.6468         estimate D2E/DX2                !
 ! D138  D(14,13,15,41)         69.6712         estimate D2E/DX2                !
 ! D139  D(36,13,15,39)        -53.6417         estimate D2E/DX2                !
 ! D140  D(36,13,15,40)         65.7794         estimate D2E/DX2                !
 ! D141  D(36,13,15,41)       -172.9026         estimate D2E/DX2                !
 ! D142  D(13,14,62,63)         65.7135         estimate D2E/DX2                !
 ! D143  D(13,14,62,64)       -175.4059         estimate D2E/DX2                !
 ! D144  D(13,14,62,65)        -55.7152         estimate D2E/DX2                !
 ! D145  D(37,14,62,63)        -55.9331         estimate D2E/DX2                !
 ! D146  D(37,14,62,64)         62.9474         estimate D2E/DX2                !
 ! D147  D(37,14,62,65)       -177.3619         estimate D2E/DX2                !
 ! D148  D(38,14,62,63)       -170.4842         estimate D2E/DX2                !
 ! D149  D(38,14,62,64)        -51.6037         estimate D2E/DX2                !
 ! D150  D(38,14,62,65)         68.087          estimate D2E/DX2                !
 ! D151  D(7,17,18,19)         -31.8606         estimate D2E/DX2                !
 ! D152  D(7,17,18,28)          85.878          estimate D2E/DX2                !
 ! D153  D(7,17,18,29)        -150.5663         estimate D2E/DX2                !
 ! D154  D(20,17,18,19)         77.8621         estimate D2E/DX2                !
 ! D155  D(20,17,18,28)       -164.3993         estimate D2E/DX2                !
 ! D156  D(20,17,18,29)        -40.8436         estimate D2E/DX2                !
 ! D157  D(30,17,18,19)       -153.9804         estimate D2E/DX2                !
 ! D158  D(30,17,18,28)        -36.2418         estimate D2E/DX2                !
 ! D159  D(30,17,18,29)         87.3139         estimate D2E/DX2                !
 ! D160  D(7,17,20,3)          -36.5669         estimate D2E/DX2                !
 ! D161  D(7,17,20,42)          83.0224         estimate D2E/DX2                !
 ! D162  D(7,17,20,43)        -157.7527         estimate D2E/DX2                !
 ! D163  D(18,17,20,3)        -146.6879         estimate D2E/DX2                !
 ! D164  D(18,17,20,42)        -27.0986         estimate D2E/DX2                !
 ! D165  D(18,17,20,43)         92.1263         estimate D2E/DX2                !
 ! D166  D(30,17,20,3)          84.4553         estimate D2E/DX2                !
 ! D167  D(30,17,20,42)       -155.9553         estimate D2E/DX2                !
 ! D168  D(30,17,20,43)        -36.7305         estimate D2E/DX2                !
 ! D169  D(17,18,19,8)          15.343          estimate D2E/DX2                !
 ! D170  D(28,18,19,8)        -105.5247         estimate D2E/DX2                !
 ! D171  D(29,18,19,8)         137.478          estimate D2E/DX2                !
 ! D172  D(17,18,28,53)       -179.3972         estimate D2E/DX2                !
 ! D173  D(17,18,28,54)         60.2368         estimate D2E/DX2                !
 ! D174  D(17,18,28,55)        -61.9238         estimate D2E/DX2                !
 ! D175  D(19,18,28,53)        -63.0437         estimate D2E/DX2                !
 ! D176  D(19,18,28,54)        176.5904         estimate D2E/DX2                !
 ! D177  D(19,18,28,55)         54.4297         estimate D2E/DX2                !
 ! D178  D(29,18,28,53)         54.0819         estimate D2E/DX2                !
 ! D179  D(29,18,28,54)        -66.284          estimate D2E/DX2                !
 ! D180  D(29,18,28,55)        171.5553         estimate D2E/DX2                !
 ! D181  D(17,18,29,56)       -177.8338         estimate D2E/DX2                !
 ! D182  D(17,18,29,57)        -57.3154         estimate D2E/DX2                !
 ! D183  D(17,18,29,58)         64.9959         estimate D2E/DX2                !
 ! D184  D(19,18,29,56)         65.0363         estimate D2E/DX2                !
 ! D185  D(19,18,29,57)       -174.4454         estimate D2E/DX2                !
 ! D186  D(19,18,29,58)        -52.1341         estimate D2E/DX2                !
 ! D187  D(28,18,29,56)        -51.8384         estimate D2E/DX2                !
 ! D188  D(28,18,29,57)         68.6799         estimate D2E/DX2                !
 ! D189  D(28,18,29,58)       -169.0088         estimate D2E/DX2                !
 ! D190  D(5,22,23,24)          39.5951         estimate D2E/DX2                !
 ! D191  D(5,22,23,25)         162.1775         estimate D2E/DX2                !
 ! D192  D(5,22,23,47)         -74.0695         estimate D2E/DX2                !
 ! D193  D(45,22,23,24)        161.7798         estimate D2E/DX2                !
 ! D194  D(45,22,23,25)        -75.6378         estimate D2E/DX2                !
 ! D195  D(45,22,23,47)         48.1152         estimate D2E/DX2                !
 ! D196  D(46,22,23,24)        -78.1604         estimate D2E/DX2                !
 ! D197  D(46,22,23,25)         44.4221         estimate D2E/DX2                !
 ! D198  D(46,22,23,47)        168.175          estimate D2E/DX2                !
 ! D199  D(22,23,24,4)         -27.6211         estimate D2E/DX2                !
 ! D200  D(25,23,24,4)        -152.6952         estimate D2E/DX2                !
 ! D201  D(47,23,24,4)          88.6592         estimate D2E/DX2                !
 ! D202  D(22,23,25,26)        -70.415          estimate D2E/DX2                !
 ! D203  D(22,23,25,27)        109.7703         estimate D2E/DX2                !
 ! D204  D(24,23,25,26)         48.7406         estimate D2E/DX2                !
 ! D205  D(24,23,25,27)       -131.0741         estimate D2E/DX2                !
 ! D206  D(47,23,25,26)        165.4961         estimate D2E/DX2                !
 ! D207  D(47,23,25,27)        -14.3186         estimate D2E/DX2                !
 ! D208  D(23,25,26,48)        -66.973          estimate D2E/DX2                !
 ! D209  D(23,25,26,49)         54.0662         estimate D2E/DX2                !
 ! D210  D(23,25,26,50)        173.7033         estimate D2E/DX2                !
 ! D211  D(27,25,26,48)        112.8427         estimate D2E/DX2                !
 ! D212  D(27,25,26,49)       -126.1181         estimate D2E/DX2                !
 ! D213  D(27,25,26,50)         -6.481          estimate D2E/DX2                !
 ! D214  D(23,25,27,51)         -0.0596         estimate D2E/DX2                !
 ! D215  D(23,25,27,52)        179.7875         estimate D2E/DX2                !
 ! D216  D(26,25,27,51)       -179.8718         estimate D2E/DX2                !
 ! D217  D(26,25,27,52)         -0.0246         estimate D2E/DX2                !
 --------------------------------------------------------------------------------
 Trust Radius=3.00D-01 FncErr=1.00D-07 GrdErr=1.00D-06
 Number of steps in this run=    390 maximum allowed number of steps=    390.
 GradGradGradGradGradGradGradGradGradGradGradGradGradGradGradGradGradGrad

 Stoichiometry    C26H34O5
 Framework group  C1[X(C26H34O5)]
 Deg. of freedom   189
 Full point group                 C1      NOp   1
 Largest Abelian subgroup         C1      NOp   1
 Largest concise Abelian subgroup C1      NOp   1
                         Standard orientation:                         
 ---------------------------------------------------------------------
 Center     Atomic      Atomic             Coordinates (Angstroms)
 Number     Number       Type             X           Y           Z
 ---------------------------------------------------------------------
      1          6           0       -1.575958    0.786279    3.046790
      2          6           0       -1.559993    1.886818    2.282486
      3          6           0       -1.620942    1.816395    0.776700
      4          6           0       -1.444648    0.407382    0.139545
      5          6           0       -1.192026   -0.801209    1.067876
      6          6           0       -1.686061   -0.604500    2.518972
      7          6           0       -0.331723    0.590155   -0.909638
      8          6           0        1.055015    0.372744   -0.416170
      9          6           0        1.357033   -0.485560    0.563668
     10          6           0        0.262151   -1.299480    1.135370
     11          6           0        2.762211   -0.608184    1.028677
     12          8           0        3.282933    0.350408    1.602672
     13          6           0        3.485418   -1.946920    0.837078
     14          6           0        3.395007   -2.481708   -0.603195
     15          6           0        4.934585   -1.854721    1.322001
     16          8           0        0.530485   -2.368496    1.687841
     17          6           0       -0.256793    2.062033   -1.248639
     18          6           0        1.199627    2.221497   -1.733724
     19          8           0        1.972004    1.254812   -0.977966
     20          6           0       -0.564823    2.715358    0.106088
     21          8           0       -0.547971   -0.223367   -2.049798
     22          6           0       -2.026552   -1.897930    0.392222
     23          6           0       -3.220227   -1.118891   -0.129538
     24          8           0       -2.672602    0.115275   -0.615635
     25          6           0       -4.023326   -1.817837   -1.197974
     26          6           0       -3.421450   -1.988023   -2.563919
     27          6           0       -5.259579   -2.279841   -0.939323
     28          6           0        1.366739    1.899638   -3.227565
     29          6           0        1.783780    3.614674   -1.476224
     30          1           0       -0.984683    2.371681   -2.007189
     31          1           0       -2.607582    2.205572    0.485445
     32          6           0       -1.564178    3.256749    2.910441
     33          1           0       -1.572013    0.883018    4.131686
     34          1           0       -1.133244   -1.261517    3.202696
     35          1           0       -2.736222   -0.901770    2.629672
     36          1           0        2.986885   -2.669001    1.494920
     37          1           0        3.777494   -3.510047   -0.622506
     38          1           0        2.347134   -2.544328   -0.918275
     39          1           0        4.967314   -1.625348    2.393177
     40          1           0        5.460543   -2.802650    1.168304
     41          1           0        5.488231   -1.063146    0.806051
     42          1           0        0.329924    2.776385    0.737745
     43          1           0       -0.933134    3.738700   -0.028947
     44          1           0       -1.498143   -0.119288   -2.253770
     45          1           0       -2.322822   -2.706100    1.070586
     46          1           0       -1.458683   -2.357087   -0.426604
     47          1           0       -3.882987   -0.850684    0.703039
     48          1           0       -3.303538   -1.016378   -3.052869
     49          1           0       -2.445348   -2.477712   -2.505975
     50          1           0       -4.051788   -2.603692   -3.215169
     51          1           0       -5.718676   -2.168118    0.038433
     52          1           0       -5.850084   -2.781848   -1.700106
     53          1           0        2.414336    2.013826   -3.530936
     54          1           0        0.755236    2.563019   -3.847773
     55          1           0        1.108326    0.864235   -3.464868
     56          1           0        2.803488    3.686281   -1.872874
     57          1           0        1.176770    4.394846   -1.946402
     58          1           0        1.874916    3.832273   -0.407631
     59          1           0       -1.672362    3.210134    3.999419
     60          1           0       -0.631591    3.787167    2.695920
     61          1           0       -2.400543    3.847886    2.523390
     62          6           0        4.164895   -1.668488   -1.636078
     63          1           0        5.243378   -1.715986   -1.458757
     64          1           0        3.980121   -2.069258   -2.638141
     65          1           0        3.861449   -0.618677   -1.634164
 ---------------------------------------------------------------------
 Rotational constants (GHZ):      0.1980838      0.1300232      0.1219593
 Standard basis: 6-31G(d) (6D, 7F)
 There are   533 symmetry adapted basis functions of A   symmetry.
 Integral buffers will be    131072 words long.
 Raffenetti 2 integral format.
 Two-electron integral symmetry is turned on.
   533 basis functions,  1004 primitive gaussians,   533 cartesian basis functions
   115 alpha electrons      115 beta electrons
       nuclear repulsion energy      3538.4217218233 Hartrees.
 NAtoms=   65 NActive=   65 NUniq=   65 SFac= 1.00D+00 NAtFMM=   50 NAOKFM=T Big=T
 One-electron integrals computed using PRISM.
 NBasis=   533 RedAO= T  NBF=   533
 NBsUse=   533 1.00D-06 NBFU=   533
 Harris functional with IExCor=  402 diagonalized for initial guess.
 ExpMin= 1.61D-01 ExpMax= 5.48D+03 ExpMxC= 8.25D+02 IAcc=1 IRadAn=         1 AccDes= 0.00D+00
 HarFok:  IExCor=  402 AccDes= 0.00D+00 IRadAn=         1 IDoV= 1
 ScaDFX=  1.000000  1.000000  1.000000  1.000000
 FoFCou: FMM=F IPFlag=           0 FMFlag=      100000 FMFlg1=        2001
         NFxFlg=           0 DoJE=T BraDBF=F KetDBF=T FulRan=T
         Omega=  0.000000  0.000000  1.000000  0.000000  0.000000 ICntrl=     500 IOpCl=  0
         NMat0=    1 NMatS0=    1 NMatT0=    0 NMatD0=    1 NMtDS0=    0 NMtDT0=    0
         I1Cent=           4 NGrid=           0.
 Petite list used in FoFCou.
 Initial guess orbital symmetries:
       Occupied  (A) (A) (A) (A) (A) (A) (A) (A) (A) (A) (A) (A)
                 (A) (A) (A) (A) (A) (A) (A) (A) (A) (A) (A) (A)
                 (A) (A) (A) (A) (A) (A) (A) (A) (A) (A) (A) (A)
                 (A) (A) (A) (A) (A) (A) (A) (A) (A) (A) (A) (A)
                 (A) (A) (A) (A) (A) (A) (A) (A) (A) (A) (A) (A)
                 (A) (A) (A) (A) (A) (A) (A) (A) (A) (A) (A) (A)
                 (A) (A) (A) (A) (A) (A) (A) (A) (A) (A) (A) (A)
                 (A) (A) (A) (A) (A) (A) (A) (A) (A) (A) (A) (A)
                 (A) (A) (A) (A) (A) (A) (A) (A) (A) (A) (A) (A)
                 (A) (A) (A) (A) (A) (A) (A)
       Virtual   (A) (A) (A) (A) (A) (A) (A) (A) (A) (A) (A) (A)
                 (A) (A) (A) (A) (A) (A) (A) (A) (A) (A) (A) (A)
                 (A) (A) (A) (A) (A) (A) (A) (A) (A) (A) (A) (A)
                 (A) (A) (A) (A) (A) (A) (A) (A) (A) (A) (A) (A)
                 (A) (A) (A) (A) (A) (A) (A) (A) (A) (A) (A) (A)
                 (A) (A) (A) (A) (A) (A) (A) (A) (A) (A) (A) (A)
                 (A) (A) (A) (A) (A) (A) (A) (A) (A) (A) (A) (A)
                 (A) (A) (A) (A) (A) (A) (A) (A) (A) (A) (A) (A)
                 (A) (A) (A) (A) (A) (A) (A) (A) (A) (A) (A) (A)
                 (A) (A) (A) (A) (A) (A) (A) (A) (A) (A) (A) (A)
                 (A) (A) (A) (A) (A) (A) (A) (A) (A) (A) (A) (A)
                 (A) (A) (A) (A) (A) (A) (A) (A) (A) (A) (A) (A)
                 (A) (A) (A) (A) (A) (A) (A) (A) (A) (A) (A) (A)
                 (A) (A) (A) (A) (A) (A) (A) (A) (A) (A) (A) (A)
                 (A) (A) (A) (A) (A) (A) (A) (A) (A) (A) (A) (A)
                 (A) (A) (A) (A) (A) (A) (A) (A) (A) (A) (A) (A)
                 (A) (A) (A) (A) (A) (A) (A) (A) (A) (A) (A) (A)
                 (A) (A) (A) (A) (A) (A) (A) (A) (A) (A) (A) (A)
                 (A) (A) (A) (A) (A) (A) (A) (A) (A) (A) (A) (A)
                 (A) (A) (A) (A) (A) (A) (A) (A) (A) (A) (A) (A)
                 (A) (A) (A) (A) (A) (A) (A) (A) (A) (A) (A) (A)
                 (A) (A) (A) (A) (A) (A) (A) (A) (A) (A) (A) (A)
                 (A) (A) (A) (A) (A) (A) (A) (A) (A) (A) (A) (A)
                 (A) (A) (A) (A) (A) (A) (A) (A) (A) (A) (A) (A)
                 (A) (A) (A) (A) (A) (A) (A) (A) (A) (A) (A) (A)
                 (A) (A) (A) (A) (A) (A) (A) (A) (A) (A) (A) (A)
                 (A) (A) (A) (A) (A) (A) (A) (A) (A) (A) (A) (A)
                 (A) (A) (A) (A) (A) (A) (A) (A) (A) (A) (A) (A)
                 (A) (A) (A) (A) (A) (A) (A) (A) (A) (A) (A) (A)
                 (A) (A) (A) (A) (A) (A) (A) (A) (A) (A) (A) (A)
                 (A) (A) (A) (A) (A) (A) (A) (A) (A) (A) (A) (A)
                 (A) (A) (A) (A) (A) (A) (A) (A) (A) (A) (A) (A)
                 (A) (A) (A) (A) (A) (A) (A) (A) (A) (A) (A) (A)
                 (A) (A) (A) (A) (A) (A) (A) (A) (A) (A) (A) (A)
                 (A) (A) (A) (A) (A) (A) (A) (A) (A) (A)
 The electronic state of the initial guess is 1-A.
 Requested convergence on RMS density matrix=1.00D-08 within 128 cycles.
 Requested convergence on MAX density matrix=1.00D-06.
 Requested convergence on             energy=1.00D-06.
 No special actions if energy rises.
 Integral accuracy reduced to 1.0D-05 until final iterations.
 Initial convergence to 1.0D-05 achieved.  Increase integral accuracy.
 SCF Done:  E(RB3LYP) =  -1387.30265055     A.U. after   16 cycles
             Convg  =    0.4686D-08             -V/T =  2.0091

 **********************************************************************

            Population analysis using the SCF density.

 **********************************************************************

 Orbital symmetries:
       Occupied  (A) (A) (A) (A) (A) (A) (A) (A) (A) (A) (A) (A)
                 (A) (A) (A) (A) (A) (A) (A) (A) (A) (A) (A) (A)
                 (A) (A) (A) (A) (A) (A) (A) (A) (A) (A) (A) (A)
                 (A) (A) (A) (A) (A) (A) (A) (A) (A) (A) (A) (A)
                 (A) (A) (A) (A) (A) (A) (A) (A) (A) (A) (A) (A)
                 (A) (A) (A) (A) (A) (A) (A) (A) (A) (A) (A) (A)
                 (A) (A) (A) (A) (A) (A) (A) (A) (A) (A) (A) (A)
                 (A) (A) (A) (A) (A) (A) (A) (A) (A) (A) (A) (A)
                 (A) (A) (A) (A) (A) (A) (A) (A) (A) (A) (A) (A)
                 (A) (A) (A) (A) (A) (A) (A)
       Virtual   (A) (A) (A) (A) (A) (A) (A) (A) (A) (A) (A) (A)
                 (A) (A) (A) (A) (A) (A) (A) (A) (A) (A) (A) (A)
                 (A) (A) (A) (A) (A) (A) (A) (A) (A) (A) (A) (A)
                 (A) (A) (A) (A) (A) (A) (A) (A) (A) (A) (A) (A)
                 (A) (A) (A) (A) (A) (A) (A) (A) (A) (A) (A) (A)
                 (A) (A) (A) (A) (A) (A) (A) (A) (A) (A) (A) (A)
                 (A) (A) (A) (A) (A) (A) (A) (A) (A) (A) (A) (A)
                 (A) (A) (A) (A) (A) (A) (A) (A) (A) (A) (A) (A)
                 (A) (A) (A) (A) (A) (A) (A) (A) (A) (A) (A) (A)
                 (A) (A) (A) (A) (A) (A) (A) (A) (A) (A) (A) (A)
                 (A) (A) (A) (A) (A) (A) (A) (A) (A) (A) (A) (A)
                 (A) (A) (A) (A) (A) (A) (A) (A) (A) (A) (A) (A)
                 (A) (A) (A) (A) (A) (A) (A) (A) (A) (A) (A) (A)
                 (A) (A) (A) (A) (A) (A) (A) (A) (A) (A) (A) (A)
                 (A) (A) (A) (A) (A) (A) (A) (A) (A) (A) (A) (A)
                 (A) (A) (A) (A) (A) (A) (A) (A) (A) (A) (A) (A)
                 (A) (A) (A) (A) (A) (A) (A) (A) (A) (A) (A) (A)
                 (A) (A) (A) (A) (A) (A) (A) (A) (A) (A) (A) (A)
                 (A) (A) (A) (A) (A) (A) (A) (A) (A) (A) (A) (A)
                 (A) (A) (A) (A) (A) (A) (A) (A) (A) (A) (A) (A)
                 (A) (A) (A) (A) (A) (A) (A) (A) (A) (A) (A) (A)
                 (A) (A) (A) (A) (A) (A) (A) (A) (A) (A) (A) (A)
                 (A) (A) (A) (A) (A) (A) (A) (A) (A) (A) (A) (A)
                 (A) (A) (A) (A) (A) (A) (A) (A) (A) (A) (A) (A)
                 (A) (A) (A) (A) (A) (A) (A) (A) (A) (A) (A) (A)
                 (A) (A) (A) (A) (A) (A) (A) (A) (A) (A) (A) (A)
                 (A) (A) (A) (A) (A) (A) (A) (A) (A) (A) (A) (A)
                 (A) (A) (A) (A) (A) (A) (A) (A) (A) (A) (A) (A)
                 (A) (A) (A) (A) (A) (A) (A) (A) (A) (A) (A) (A)
                 (A) (A) (A) (A) (A) (A) (A) (A) (A) (A) (A) (A)
                 (A) (A) (A) (A) (A) (A) (A) (A) (A) (A) (A) (A)
                 (A) (A) (A) (A) (A) (A) (A) (A) (A) (A) (A) (A)
                 (A) (A) (A) (A) (A) (A) (A) (A) (A) (A) (A) (A)
                 (A) (A) (A) (A) (A) (A) (A) (A) (A) (A) (A) (A)
                 (A) (A) (A) (A) (A) (A) (A) (A) (A) (A)
 The electronic state is 1-A.
 Alpha  occ. eigenvalues --  -19.19515 -19.16692 -19.15539 -19.13610 -19.13094
 Alpha  occ. eigenvalues --  -10.28129 -10.26996 -10.26877 -10.26007 -10.25979
 Alpha  occ. eigenvalues --  -10.25586 -10.24798 -10.21826 -10.20543 -10.20210
 Alpha  occ. eigenvalues --  -10.20128 -10.19642 -10.19459 -10.19402 -10.19389
 Alpha  occ. eigenvalues --  -10.19294 -10.18981 -10.18577 -10.18430 -10.18381
 Alpha  occ. eigenvalues --  -10.18123 -10.18044 -10.17662 -10.17397 -10.16184
 Alpha  occ. eigenvalues --  -10.15878  -1.08451  -1.05915  -1.03457  -1.02523
 Alpha  occ. eigenvalues --   -1.02128  -0.87385  -0.83983  -0.82701  -0.81740
 Alpha  occ. eigenvalues --   -0.80404  -0.79687  -0.76921  -0.74383  -0.73698
 Alpha  occ. eigenvalues --   -0.72014  -0.71411  -0.69703  -0.69403  -0.67975
 Alpha  occ. eigenvalues --   -0.65710  -0.64296  -0.63207  -0.61860  -0.60871
 Alpha  occ. eigenvalues --   -0.59391  -0.58874  -0.57420  -0.54834  -0.53906
 Alpha  occ. eigenvalues --   -0.53120  -0.52081  -0.50907  -0.50498  -0.49279
 Alpha  occ. eigenvalues --   -0.47880  -0.47318  -0.46765  -0.46211  -0.45743
 Alpha  occ. eigenvalues --   -0.45168  -0.45017  -0.44645  -0.43916  -0.43710
 Alpha  occ. eigenvalues --   -0.43231  -0.43080  -0.42208  -0.41622  -0.41345
 Alpha  occ. eigenvalues --   -0.40888  -0.40833  -0.40345  -0.39859  -0.39416
 Alpha  occ. eigenvalues --   -0.38905  -0.38478  -0.38300  -0.38140  -0.37472
 Alpha  occ. eigenvalues --   -0.37344  -0.37216  -0.36967  -0.36667  -0.36575
 Alpha  occ. eigenvalues --   -0.36290  -0.35805  -0.35238  -0.34755  -0.34219
 Alpha  occ. eigenvalues --   -0.33839  -0.33452  -0.33275  -0.32677  -0.32200
 Alpha  occ. eigenvalues --   -0.31521  -0.31372  -0.31189  -0.28047  -0.26987
 Alpha  occ. eigenvalues --   -0.25598  -0.25111  -0.24552  -0.23436  -0.23201
 Alpha virt. eigenvalues --   -0.05294  -0.01570   0.00704   0.02212   0.03677
 Alpha virt. eigenvalues --    0.06919   0.07952   0.08731   0.09351   0.09844
 Alpha virt. eigenvalues --    0.10213   0.10539   0.11526   0.11876   0.12560
 Alpha virt. eigenvalues --    0.12729   0.13199   0.13569   0.14121   0.14385
 Alpha virt. eigenvalues --    0.14434   0.14821   0.15056   0.15594   0.15940
 Alpha virt. eigenvalues --    0.16573   0.16688   0.16824   0.17248   0.17695
 Alpha virt. eigenvalues --    0.17825   0.18262   0.18372   0.18877   0.19115
 Alpha virt. eigenvalues --    0.19364   0.19664   0.19876   0.20215   0.20576
 Alpha virt. eigenvalues --    0.20870   0.21698   0.21996   0.22131   0.22431
 Alpha virt. eigenvalues --    0.22872   0.23471   0.23684   0.23825   0.24519
 Alpha virt. eigenvalues --    0.24945   0.25757   0.25857   0.26340   0.26499
 Alpha virt. eigenvalues --    0.27263   0.27845   0.28431   0.29046   0.30001
 Alpha virt. eigenvalues --    0.31502   0.32066   0.33037   0.33693   0.34821
 Alpha virt. eigenvalues --    0.35241   0.36110   0.37433   0.37775   0.39819
 Alpha virt. eigenvalues --    0.42686   0.45447   0.46629   0.47759   0.48158
 Alpha virt. eigenvalues --    0.49752   0.50615   0.51355   0.51432   0.51645
 Alpha virt. eigenvalues --    0.52131   0.52342   0.52712   0.53100   0.53958
 Alpha virt. eigenvalues --    0.54231   0.54648   0.55535   0.55795   0.56598
 Alpha virt. eigenvalues --    0.57336   0.57542   0.57937   0.58676   0.59450
 Alpha virt. eigenvalues --    0.60091   0.60923   0.61456   0.61810   0.62471
 Alpha virt. eigenvalues --    0.62640   0.63365   0.63493   0.63703   0.64854
 Alpha virt. eigenvalues --    0.65405   0.66052   0.66707   0.67207   0.67412
 Alpha virt. eigenvalues --    0.67808   0.68032   0.68217   0.69177   0.69223
 Alpha virt. eigenvalues --    0.69565   0.71223   0.71487   0.73231   0.73359
 Alpha virt. eigenvalues --    0.73968   0.74699   0.74893   0.75935   0.76066
 Alpha virt. eigenvalues --    0.77247   0.77629   0.78179   0.79347   0.80099
 Alpha virt. eigenvalues --    0.80430   0.80896   0.81177   0.81670   0.82111
 Alpha virt. eigenvalues --    0.82744   0.83373   0.84061   0.84272   0.84975
 Alpha virt. eigenvalues --    0.85218   0.85743   0.86047   0.86702   0.87154
 Alpha virt. eigenvalues --    0.87423   0.87659   0.88281   0.88822   0.89204
 Alpha virt. eigenvalues --    0.89719   0.89803   0.90099   0.90481   0.90696
 Alpha virt. eigenvalues --    0.90781   0.90915   0.91431   0.92184   0.92291
 Alpha virt. eigenvalues --    0.93129   0.93607   0.94062   0.94775   0.95161
 Alpha virt. eigenvalues --    0.95703   0.96428   0.96883   0.97304   0.97595
 Alpha virt. eigenvalues --    0.97867   0.98888   0.99237   0.99459   1.00067
 Alpha virt. eigenvalues --    1.00821   1.01475   1.02212   1.02887   1.03481
 Alpha virt. eigenvalues --    1.04744   1.05707   1.06011   1.06831   1.07903
 Alpha virt. eigenvalues --    1.08403   1.09601   1.10557   1.10824   1.11728
 Alpha virt. eigenvalues --    1.13077   1.14547   1.16338   1.16838   1.17029
 Alpha virt. eigenvalues --    1.17514   1.18035   1.18983   1.20012   1.21249
 Alpha virt. eigenvalues --    1.22780   1.23261   1.24169   1.24631   1.26214
 Alpha virt. eigenvalues --    1.27978   1.29382   1.29902   1.31089   1.32019
 Alpha virt. eigenvalues --    1.33560   1.35323   1.37824   1.39320   1.40630
 Alpha virt. eigenvalues --    1.41272   1.42191   1.43023   1.44817   1.47230
 Alpha virt. eigenvalues --    1.48718   1.48923   1.50093   1.50723   1.51056
 Alpha virt. eigenvalues --    1.53406   1.54528   1.55575   1.57422   1.57697
 Alpha virt. eigenvalues --    1.58784   1.60299   1.61631   1.63484   1.64221
 Alpha virt. eigenvalues --    1.65539   1.66730   1.67440   1.68534   1.69155
 Alpha virt. eigenvalues --    1.70230   1.70899   1.71948   1.73199   1.73951
 Alpha virt. eigenvalues --    1.74357   1.74732   1.76091   1.77016   1.77321
 Alpha virt. eigenvalues --    1.78666   1.79684   1.80101   1.81156   1.81405
 Alpha virt. eigenvalues --    1.82957   1.83437   1.83994   1.84190   1.84592
 Alpha virt. eigenvalues --    1.85775   1.86058   1.87389   1.87612   1.88114
 Alpha virt. eigenvalues --    1.89374   1.89663   1.90288   1.91625   1.92400
 Alpha virt. eigenvalues --    1.92903   1.93091   1.93933   1.95034   1.96024
 Alpha virt. eigenvalues --    1.96466   1.97232   1.97415   1.97846   1.98678
 Alpha virt. eigenvalues --    1.99312   1.99968   2.00479   2.00930   2.02182
 Alpha virt. eigenvalues --    2.03374   2.03720   2.04567   2.05390   2.06210
 Alpha virt. eigenvalues --    2.06707   2.07947   2.08390   2.08599   2.09915
 Alpha virt. eigenvalues --    2.10344   2.11981   2.12218   2.12879   2.13535
 Alpha virt. eigenvalues --    2.14585   2.14835   2.16267   2.16914   2.19164
 Alpha virt. eigenvalues --    2.19941   2.20539   2.21395   2.22197   2.22759
 Alpha virt. eigenvalues --    2.23201   2.24250   2.25303   2.25814   2.26982
 Alpha virt. eigenvalues --    2.28657   2.29148   2.29439   2.31121   2.31448
 Alpha virt. eigenvalues --    2.31992   2.33627   2.33962   2.34585   2.35391
 Alpha virt. eigenvalues --    2.36158   2.37309   2.37677   2.38162   2.39157
 Alpha virt. eigenvalues --    2.40929   2.41814   2.41890   2.43019   2.43708
 Alpha virt. eigenvalues --    2.44647   2.45168   2.46242   2.48130   2.49192
 Alpha virt. eigenvalues --    2.50158   2.50763   2.51655   2.53723   2.54924
 Alpha virt. eigenvalues --    2.56065   2.57102   2.58390   2.59209   2.59851
 Alpha virt. eigenvalues --    2.60567   2.61499   2.62447   2.64356   2.65494
 Alpha virt. eigenvalues --    2.66207   2.67298   2.68516   2.70268   2.70889
 Alpha virt. eigenvalues --    2.72521   2.74253   2.74959   2.77061   2.78642
 Alpha virt. eigenvalues --    2.78811   2.81477   2.82204   2.83654   2.85445
 Alpha virt. eigenvalues --    2.88733   2.90165   2.92780   2.95089   2.95899
 Alpha virt. eigenvalues --    2.96951   2.99471   3.00786   3.02330   3.02943
 Alpha virt. eigenvalues --    3.05803   3.07289   3.13403   3.17103   3.19893
 Alpha virt. eigenvalues --    3.22692   3.29723   4.01878   4.06151   4.10185
 Alpha virt. eigenvalues --    4.12632   4.14223   4.15953   4.16698   4.19139
 Alpha virt. eigenvalues --    4.21668   4.24165   4.25842   4.28565   4.30971
 Alpha virt. eigenvalues --    4.32087   4.36064   4.37812   4.42270   4.45292
 Alpha virt. eigenvalues --    4.49736   4.51514   4.52866   4.56010   4.59927
 Alpha virt. eigenvalues --    4.61491   4.64253   4.70505   4.71654   4.80217
 Alpha virt. eigenvalues --    4.93024   5.01254   5.21280
          Condensed to atoms (all electrons):
 Mulliken atomic charges:
              1
     1  C   -0.192052
     2  C    0.192930
     3  C   -0.188497
     4  C    0.327719
     5  C   -0.035703
     6  C   -0.335926
     7  C    0.196463
     8  C    0.404887
     9  C   -0.084100
    10  C    0.407603
    11  C    0.415024
    12  O   -0.452990
    13  C   -0.170149
    14  C   -0.266150
    15  C   -0.444643
    16  O   -0.500501
    17  C   -0.163629
    18  C    0.311712
    19  O   -0.529886
    20  C   -0.320943
    21  O   -0.665167
    22  C   -0.311060
    23  C    0.087523
    24  O   -0.590398
    25  C    0.226574
    26  C   -0.531809
    27  C   -0.401472
    28  C   -0.463243
    29  C   -0.463199
    30  H    0.142713
    31  H    0.163515
    32  C   -0.517638
    33  H    0.122843
    34  H    0.178841
    35  H    0.153510
    36  H    0.183127
    37  H    0.136191
    38  H    0.144396
    39  H    0.153092
    40  H    0.132987
    41  H    0.155974
    42  H    0.174661
    43  H    0.148226
    44  H    0.422410
    45  H    0.169113
    46  H    0.168034
    47  H    0.133224
    48  H    0.159341
    49  H    0.172783
    50  H    0.158613
    51  H    0.138902
    52  H    0.141850
    53  H    0.151027
    54  H    0.138774
    55  H    0.182884
    56  H    0.159428
    57  H    0.148118
    58  H    0.164503
    59  H    0.157869
    60  H    0.161922
    61  H    0.149082
    62  C   -0.457312
    63  H    0.147145
    64  H    0.139459
    65  H    0.161475
 Sum of Mulliken atomic charges =   0.00000
 Mulliken charges with hydrogens summed into heavy atoms:
              1
     1  C   -0.069209
     2  C    0.192930
     3  C   -0.024982
     4  C    0.327719
     5  C   -0.035703
     6  C   -0.003576
     7  C    0.196463
     8  C    0.404887
     9  C   -0.084100
    10  C    0.407603
    11  C    0.415024
    12  O   -0.452990
    13  C    0.012978
    14  C    0.014438
    15  C   -0.002590
    16  O   -0.500501
    17  C   -0.020915
    18  C    0.311712
    19  O   -0.529886
    20  C    0.001943
    21  O   -0.242757
    22  C    0.026086
    23  C    0.220747
    24  O   -0.590398
    25  C    0.226574
    26  C   -0.041072
    27  C   -0.120719
    28  C    0.009441
    29  C    0.008850
    32  C   -0.048765
    62  C   -0.009234
 Sum of Mulliken charges with hydrogens summed into heavy atoms =   0.00000
 Electronic spatial extent (au):  <R**2>=          11165.1662
 Charge=              0.0000 electrons
 Dipole moment (field-independent basis, Debye):
    X=             -4.0551    Y=              1.8888    Z=             -2.0700  Tot=              4.9292
 Quadrupole moment (field-independent basis, Debye-Ang):
   XX=           -187.8210   YY=           -178.6481   ZZ=           -182.1121
   XY=             -0.3031   XZ=             -6.4130   YZ=             -0.1485
 Traceless Quadrupole moment (field-independent basis, Debye-Ang):
   XX=             -4.9606   YY=              4.2123   ZZ=              0.7483
   XY=             -0.3031   XZ=             -6.4130   YZ=             -0.1485
 Octapole moment (field-independent basis, Debye-Ang**2):
  XXX=            -30.0532  YYY=             41.0870  ZZZ=             -5.3953  XYY=             -1.6639
  XXY=            -39.4220  XXZ=            -22.2434  XZZ=            -25.3408  YZZ=              9.2132
  YYZ=            -24.3782  XYZ=            -13.5144
 Hexadecapole moment (field-independent basis, Debye-Ang**3):
 XXXX=          -7659.4488 YYYY=          -4074.7576 ZZZZ=          -3239.8021 XXXY=             51.3092
 XXXZ=            -35.8040 YYYX=             -5.1571 YYYZ=              5.9846 ZZZX=             23.3417
 ZZZY=             -6.7929 XXYY=          -1873.3388 XXZZ=          -1807.5269 YYZZ=          -1211.4948
 XXYZ=             -8.4778 YYXZ=             12.7534 ZZXY=             27.8518
 N-N= 3.538421721823D+03 E-N=-1.030316383530D+04  KE= 1.374779500752D+03
 Calling FoFJK, ICntrl=      2127 FMM=T ISym2X=0 I1Cent= 0 IOpClX= 0 NMat=1 NMatS=1 NMatT=0.
 ***** Axes restored to original set *****
 -------------------------------------------------------------------
 Center     Atomic                   Forces (Hartrees/Bohr)
 Number     Number              X              Y              Z
 -------------------------------------------------------------------
      1        6           0.009822162   -0.000844453    0.000220735
      2        6          -0.011884549   -0.005714568    0.002778196
      3        6          -0.001118370   -0.008500267   -0.000936088
      4        6           0.004522902   -0.004288482    0.010759198
      5        6          -0.011511479    0.000996938    0.000075220
      6        6          -0.004549856   -0.011173996   -0.001829593
      7        6           0.011656797    0.019641934    0.009659144
      8        6           0.012191963   -0.014658712   -0.018286003
      9        6           0.000247170    0.005914976    0.008289893
     10        6          -0.008249759    0.003161728   -0.020739039
     11        6          -0.008938008   -0.021743109   -0.017900157
     12        8          -0.006082158    0.019583421    0.005733290
     13        6          -0.000501697   -0.003636047   -0.008985612
     14        6          -0.000869505    0.004887272    0.004324508
     15        6           0.001170442   -0.006486769   -0.002758641
     16        8           0.007427689   -0.004568872    0.010827501
     17        6           0.006913410   -0.011168726   -0.006541016
     18        6           0.031958242    0.007464324   -0.001856366
     19        8          -0.026976307    0.002895176    0.028567886
     20        6           0.011698472   -0.005192665   -0.000402369
     21        8          -0.005085869    0.007845681   -0.002157984
     22        6          -0.007666216    0.008738364    0.000404806
     23        6          -0.001766783    0.003624782    0.008015942
     24        8          -0.000784338   -0.004501296   -0.013697143
     25        6          -0.002337730    0.004896562    0.017145699
     26        6          -0.000583487    0.002216499   -0.001247655
     27        6           0.002899704   -0.004859787   -0.008488425
     28        6          -0.003013373    0.007920352   -0.004516567
     29        6          -0.004219161   -0.006343588   -0.008981819
     30        1          -0.001803169    0.001249802   -0.001404519
     31        1          -0.003066872    0.005907201    0.000045876
     32        6          -0.001243836    0.001164563   -0.001071003
     33        1           0.001156218   -0.000533504   -0.000132339
     34        1          -0.000278186    0.007364019   -0.000134171
     35        1          -0.000949784    0.005327957    0.001960576
     36        1           0.002038460    0.001043440    0.007199963
     37        1          -0.002096487   -0.001577742    0.000967377
     38        1          -0.001517589   -0.001211603    0.001556180
     39        1           0.001254805    0.000649817   -0.000394817
     40        1          -0.000324872    0.001629785    0.000556456
     41        1          -0.000935189   -0.000174931    0.000032539
     42        1          -0.000031543    0.002831984   -0.000053764
     43        1          -0.001419517   -0.001972176   -0.001375361
     44        1          -0.003198495   -0.002162092   -0.002209686
     45        1           0.001746639   -0.002366519   -0.001559117
     46        1           0.001660954   -0.000613701    0.002586078
     47        1          -0.004435214    0.001745708    0.002643285
     48        1           0.002182455    0.000891761   -0.002730031
     49        1           0.002930621    0.000334740   -0.003370698
     50        1          -0.000431440   -0.002290199    0.001127503
     51        1           0.000520450   -0.001163598    0.001277808
     52        1          -0.001753535    0.000612183   -0.000788686
     53        1           0.002056125   -0.003885642    0.000269037
     54        1           0.000556928   -0.000835165    0.000105256
     55        1          -0.000961828   -0.002825500    0.005482524
     56        1           0.000587413    0.002719566    0.001492272
     57        1          -0.000638369    0.001349378    0.000822417
     58        1          -0.000131859    0.000090182    0.003559663
     59        1          -0.001156023    0.001775544   -0.000618890
     60        1           0.004260602   -0.001731433    0.000219815
     61        1           0.004081332   -0.001095578    0.000125469
     62        6           0.002424102    0.002471934   -0.002421982
     63        1           0.001305187   -0.000658003   -0.000870004
     64        1           0.001051985    0.000742995   -0.000368571
     65        1           0.002189223   -0.000911840   -0.000003997
 -------------------------------------------------------------------
 Cartesian Forces:  Max     0.031958242 RMS     0.006842137

 GradGradGradGradGradGradGradGradGradGradGradGradGradGradGradGradGradGrad
 Berny optimization.
 Internal  Forces:  Max     0.021398580 RMS     0.003433924
 Search for a local minimum.
 Step number   1 out of a maximum of  390
 All quantities printed in internal units (Hartrees-Bohrs-Radians)
 Mixed Optimization -- RFO/linear search
 Second derivative matrix not updated -- first step.
 ITU=  0
     Eigenvalues ---    0.00250   0.00273   0.00321   0.00336   0.00357
     Eigenvalues ---    0.00430   0.00456   0.00512   0.00570   0.00573
     Eigenvalues ---    0.00656   0.00673   0.00711   0.00735   0.00820
     Eigenvalues ---    0.00962   0.01089   0.01239   0.01263   0.01415
     Eigenvalues ---    0.01464   0.01620   0.01713   0.01813   0.01929
     Eigenvalues ---    0.02537   0.02818   0.02818   0.03006   0.03137
     Eigenvalues ---    0.03308   0.03499   0.03586   0.03850   0.04045
     Eigenvalues ---    0.04096   0.04283   0.04368   0.04611   0.04765
     Eigenvalues ---    0.04799   0.04802   0.04935   0.05097   0.05245
     Eigenvalues ---    0.05306   0.05367   0.05405   0.05454   0.05460
     Eigenvalues ---    0.05492   0.05502   0.05551   0.05579   0.05642
     Eigenvalues ---    0.05698   0.05772   0.05944   0.06246   0.06535
     Eigenvalues ---    0.06719   0.06743   0.07099   0.07148   0.07196
     Eigenvalues ---    0.07227   0.07240   0.07336   0.07743   0.08379
     Eigenvalues ---    0.08612   0.08706   0.08983   0.09195   0.10011
     Eigenvalues ---    0.10115   0.10608   0.11098   0.11628   0.12471
     Eigenvalues ---    0.13181   0.14680   0.15243   0.15966   0.16000
     Eigenvalues ---    0.16000   0.16000   0.16000   0.16000   0.16000
     Eigenvalues ---    0.16000   0.16000   0.16000   0.16000   0.16000
     Eigenvalues ---    0.16000   0.16000   0.16000   0.16000   0.16000
     Eigenvalues ---    0.16000   0.16000   0.16000   0.16000   0.16000
     Eigenvalues ---    0.16065   0.17144   0.17232   0.18394   0.18529
     Eigenvalues ---    0.19862   0.21496   0.21932   0.22731   0.23415
     Eigenvalues ---    0.24436   0.24943   0.24971   0.24991   0.24998
     Eigenvalues ---    0.25000   0.25000   0.25000   0.25950   0.27216
     Eigenvalues ---    0.27376   0.27665   0.27722   0.27861   0.28267
     Eigenvalues ---    0.28607   0.28766   0.28794   0.29093   0.29196
     Eigenvalues ---    0.29338   0.30037   0.30588   0.30672   0.31519
     Eigenvalues ---    0.31654   0.32048   0.32133   0.33278   0.33695
     Eigenvalues ---    0.33947   0.33967   0.33978   0.33982   0.33997
     Eigenvalues ---    0.34013   0.34022   0.34053   0.34061   0.34075
     Eigenvalues ---    0.34127   0.34134   0.34134   0.34134   0.34135
     Eigenvalues ---    0.34165   0.34204   0.34226   0.34248   0.34252
     Eigenvalues ---    0.34255   0.34260   0.34284   0.34303   0.34318
     Eigenvalues ---    0.34342   0.34342   0.34355   0.34402   0.34442
     Eigenvalues ---    0.34492   0.34904   0.35273   0.35286   0.36477
     Eigenvalues ---    0.37582   0.42880   0.43780   0.51898   0.53592
     Eigenvalues ---    0.54444   0.56128   0.89892   0.89975
 RFO step:  Lambda=-2.21435201D-02 EMin= 2.49891989D-03
 Linear search not attempted -- first point.
 Iteration  1 RMS(Cart)=  0.04153278 RMS(Int)=  0.00065741
 Iteration  2 RMS(Cart)=  0.00110011 RMS(Int)=  0.00024816
 Iteration  3 RMS(Cart)=  0.00000060 RMS(Int)=  0.00024816
 Variable       Old X    -DE/DX   Delta X   Delta X   Delta X     New X
                                 (Linear)    (Quad)   (Total)
    R1        2.53223  -0.00205   0.00000  -0.00427  -0.00431   2.52792
    R2        2.81878   0.00892   0.00000   0.02621   0.02611   2.84490
    R3        2.05830  -0.00011   0.00000  -0.00031  -0.00031   2.05800
    R4        2.85096   0.00402   0.00000   0.00915   0.00920   2.86016
    R5        2.84782   0.00284   0.00000   0.00840   0.00840   2.85622
    R6        2.94116   0.00560   0.00000   0.01341   0.01335   2.95451
    R7        2.91119   0.01096   0.00000   0.03707   0.03697   2.94815
    R8        2.07848  -0.00090   0.00000  -0.00249  -0.00249   2.07599
    R9        2.91919   0.00887   0.00000   0.02750   0.02726   2.94644
   R10        2.91091   0.00749   0.00000   0.02486   0.02508   2.93599
   R11        2.77957  -0.00554   0.00000  -0.01510  -0.01509   2.76447
   R12        2.92050   0.00118   0.00000   0.00670   0.00662   2.92712
   R13        2.90764   0.00625   0.00000   0.01446   0.01434   2.92198
   R14        2.90043   0.01055   0.00000   0.03582   0.03577   2.93620
   R15        2.07419  -0.00116   0.00000  -0.00320  -0.00320   2.07099
   R16        2.07308   0.00280   0.00000   0.00772   0.00772   2.08080
   R17        2.81171   0.00975   0.00000   0.02136   0.02100   2.83271
   R18        2.85778   0.01553   0.00000   0.05577   0.05533   2.91311
   R19        2.67818   0.00535   0.00000   0.01185   0.01185   2.69003
   R20        2.52686   0.01291   0.00000   0.02264   0.02268   2.54954
   R21        2.62837  -0.02140   0.00000  -0.04987  -0.04966   2.57871
   R22        2.79531   0.00012   0.00000  -0.00290  -0.00272   2.79259
   R23        2.80661   0.01619   0.00000   0.04472   0.04472   2.85133
   R24        2.32983  -0.01024   0.00000  -0.01112  -0.01112   2.31871
   R25        2.32944  -0.02104   0.00000  -0.02282  -0.02282   2.30663
   R26        2.89810  -0.00457   0.00000  -0.01459  -0.01459   2.88351
   R27        2.90831   0.00429   0.00000   0.01392   0.01392   2.92223
   R28        2.89303   0.00376   0.00000   0.01192   0.01192   2.90495
   R29        2.07241   0.00133   0.00000   0.00367   0.00367   2.07608
   R30        2.07367   0.00038   0.00000   0.00104   0.00104   2.07470
   R31        2.07116   0.00092   0.00000   0.00252   0.00252   2.07368
   R32        2.87890   0.00804   0.00000   0.02492   0.02492   2.90383
   R33        2.07104  -0.00109   0.00000  -0.00301  -0.00301   2.06803
   R34        2.06908   0.00086   0.00000   0.00237   0.00237   2.07144
   R35        2.06950  -0.00082   0.00000  -0.00225  -0.00225   2.06726
   R36        2.91649  -0.00067   0.00000   0.00932   0.00956   2.92604
   R37        2.90121   0.00480   0.00000   0.01695   0.01698   2.91819
   R38        2.07104  -0.00147   0.00000  -0.00405  -0.00405   2.06699
[...]
     55          1           0        0.722975    1.241066   -3.452297
     56          1           0        2.714662    3.821641   -1.663534
     57          1           0        1.128431    4.611447   -1.753855
     58          1           0        1.707694    3.936545   -0.214230
     59          1           0       -1.650717    2.944387    4.211555
     60          1           0       -0.756281    3.676105    2.870620
     61          1           0       -2.517223    3.655505    2.837001
     62          6           0        4.192079   -1.675898   -1.721473
     63          1           0        5.264913   -1.629302   -1.504931
     64          1           0        4.075761   -2.112766   -2.720047
     65          1           0        3.817820   -0.646313   -1.762627
 ---------------------------------------------------------------------
 Rotational constants (GHZ):      0.1915549      0.1303263      0.1207639

 **********************************************************************

            Population analysis using the SCF density.

 **********************************************************************

 Orbital symmetries:
       Occupied  (A) (A) (A) (A) (A) (A) (A) (A) (A) (A) (A) (A)
                 (A) (A) (A) (A) (A) (A) (A) (A) (A) (A) (A) (A)
                 (A) (A) (A) (A) (A) (A) (A) (A) (A) (A) (A) (A)
                 (A) (A) (A) (A) (A) (A) (A) (A) (A) (A) (A) (A)
                 (A) (A) (A) (A) (A) (A) (A) (A) (A) (A) (A) (A)
                 (A) (A) (A) (A) (A) (A) (A) (A) (A) (A) (A) (A)
                 (A) (A) (A) (A) (A) (A) (A) (A) (A) (A) (A) (A)
                 (A) (A) (A) (A) (A) (A) (A) (A) (A) (A) (A) (A)
                 (A) (A) (A) (A) (A) (A) (A) (A) (A) (A) (A) (A)
                 (A) (A) (A) (A) (A) (A) (A)
       Virtual   (A) (A) (A) (A) (A) (A) (A) (A) (A) (A) (A) (A)
                 (A) (A) (A) (A) (A) (A) (A) (A) (A) (A) (A) (A)
                 (A) (A) (A) (A) (A) (A) (A) (A) (A) (A) (A) (A)
                 (A) (A) (A) (A) (A) (A) (A) (A) (A) (A) (A) (A)
                 (A) (A) (A) (A) (A) (A) (A) (A) (A) (A) (A) (A)
                 (A) (A) (A) (A) (A) (A) (A) (A) (A) (A) (A) (A)
                 (A) (A) (A) (A) (A) (A) (A) (A) (A) (A) (A) (A)
                 (A) (A) (A) (A) (A) (A) (A) (A) (A) (A) (A) (A)
                 (A) (A) (A) (A) (A) (A) (A) (A) (A) (A) (A) (A)
                 (A) (A) (A) (A) (A) (A) (A) (A) (A) (A) (A) (A)
                 (A) (A) (A) (A) (A) (A) (A) (A) (A) (A) (A) (A)
                 (A) (A) (A) (A) (A) (A) (A) (A) (A) (A) (A) (A)
                 (A) (A) (A) (A) (A) (A) (A) (A) (A) (A) (A) (A)
                 (A) (A) (A) (A) (A) (A) (A) (A) (A) (A) (A) (A)
                 (A) (A) (A) (A) (A) (A) (A) (A) (A) (A) (A) (A)
                 (A) (A) (A) (A) (A) (A) (A) (A) (A) (A) (A) (A)
                 (A) (A) (A) (A) (A) (A) (A) (A) (A) (A) (A) (A)
                 (A) (A) (A) (A) (A) (A) (A) (A) (A) (A) (A) (A)
                 (A) (A) (A) (A) (A) (A) (A) (A) (A) (A) (A) (A)
                 (A) (A) (A) (A) (A) (A) (A) (A) (A) (A) (A) (A)
                 (A) (A) (A) (A) (A) (A) (A) (A) (A) (A) (A) (A)
                 (A) (A) (A) (A) (A) (A) (A) (A) (A) (A) (A) (A)
                 (A) (A) (A) (A) (A) (A) (A) (A) (A) (A) (A) (A)
                 (A) (A) (A) (A) (A) (A) (A) (A) (A) (A) (A) (A)
                 (A) (A) (A) (A) (A) (A) (A) (A) (A) (A) (A) (A)
                 (A) (A) (A) (A) (A) (A) (A) (A) (A) (A) (A) (A)
                 (A) (A) (A) (A) (A) (A) (A) (A) (A) (A) (A) (A)
                 (A) (A) (A) (A) (A) (A) (A) (A) (A) (A) (A) (A)
                 (A) (A) (A) (A) (A) (A) (A) (A) (A) (A) (A) (A)
                 (A) (A) (A) (A) (A) (A) (A) (A) (A) (A) (A) (A)
                 (A) (A) (A) (A) (A) (A) (A) (A) (A) (A) (A) (A)
                 (A) (A) (A) (A) (A) (A) (A) (A) (A) (A) (A) (A)
                 (A) (A) (A) (A) (A) (A) (A) (A) (A) (A) (A) (A)
                 (A) (A) (A) (A) (A) (A) (A) (A) (A) (A) (A) (A)
                 (A) (A) (A) (A) (A) (A) (A) (A) (A) (A)
 The electronic state is 1-A.
 Alpha  occ. eigenvalues --  -19.19641 -19.16747 -19.15935 -19.12742 -19.12372
 Alpha  occ. eigenvalues --  -10.27319 -10.27306 -10.26669 -10.26198 -10.25855
 Alpha  occ. eigenvalues --  -10.25835 -10.25053 -10.21468 -10.20802 -10.20615
 Alpha  occ. eigenvalues --  -10.20352 -10.19837 -10.19572 -10.19409 -10.19374
 Alpha  occ. eigenvalues --  -10.19209 -10.18904 -10.18841 -10.18783 -10.18490
 Alpha  occ. eigenvalues --  -10.18208 -10.18156 -10.17513 -10.17442 -10.16269
 Alpha  occ. eigenvalues --  -10.15672  -1.09281  -1.05978  -1.03018  -1.02625
 Alpha  occ. eigenvalues --   -1.02181  -0.86656  -0.83599  -0.82456  -0.81377
 Alpha  occ. eigenvalues --   -0.80221  -0.79230  -0.76620  -0.74252  -0.73142
 Alpha  occ. eigenvalues --   -0.71611  -0.71114  -0.70103  -0.69921  -0.67812
 Alpha  occ. eigenvalues --   -0.65494  -0.64156  -0.63113  -0.61530  -0.60562
 Alpha  occ. eigenvalues --   -0.59293  -0.58645  -0.56974  -0.54660  -0.53838
 Alpha  occ. eigenvalues --   -0.52679  -0.51975  -0.50654  -0.50431  -0.49395
 Alpha  occ. eigenvalues --   -0.47609  -0.47104  -0.46607  -0.46251  -0.45661
 Alpha  occ. eigenvalues --   -0.45073  -0.44550  -0.44488  -0.43866  -0.43668
 Alpha  occ. eigenvalues --   -0.43025  -0.42865  -0.42050  -0.41462  -0.41401
 Alpha  occ. eigenvalues --   -0.40714  -0.40654  -0.40516  -0.39980  -0.39314
 Alpha  occ. eigenvalues --   -0.39155  -0.38417  -0.38267  -0.37839  -0.37587
 Alpha  occ. eigenvalues --   -0.37401  -0.37343  -0.37047  -0.36745  -0.36613
 Alpha  occ. eigenvalues --   -0.36454  -0.35585  -0.35224  -0.34968  -0.34301
 Alpha  occ. eigenvalues --   -0.33806  -0.33501  -0.33354  -0.32752  -0.32118
 Alpha  occ. eigenvalues --   -0.31445  -0.31199  -0.30826  -0.28360  -0.27093
 Alpha  occ. eigenvalues --   -0.25726  -0.24477  -0.24159  -0.23379  -0.22557
 Alpha virt. eigenvalues --   -0.04793  -0.00869   0.00635   0.02186   0.05311
 Alpha virt. eigenvalues --    0.07179   0.08196   0.08851   0.09229   0.09974
 Alpha virt. eigenvalues --    0.10464   0.10514   0.11364   0.12098   0.12286
 Alpha virt. eigenvalues --    0.12636   0.13152   0.13831   0.14039   0.14440
 Alpha virt. eigenvalues --    0.14494   0.14763   0.15275   0.15825   0.16225
 Alpha virt. eigenvalues --    0.16745   0.16878   0.17051   0.17175   0.17361
 Alpha virt. eigenvalues --    0.17799   0.17856   0.18087   0.18656   0.18855
 Alpha virt. eigenvalues --    0.19132   0.19476   0.19718   0.20248   0.20824
 Alpha virt. eigenvalues --    0.21132   0.21660   0.21883   0.21918   0.22418
 Alpha virt. eigenvalues --    0.22731   0.23621   0.23716   0.24067   0.24276
 Alpha virt. eigenvalues --    0.24817   0.25193   0.25554   0.26148   0.26394
 Alpha virt. eigenvalues --    0.27315   0.27791   0.28439   0.28867   0.29523
 Alpha virt. eigenvalues --    0.31323   0.31666   0.32897   0.33216   0.34183
 Alpha virt. eigenvalues --    0.34741   0.37033   0.37241   0.37949   0.38748
 Alpha virt. eigenvalues --    0.42133   0.45423   0.46793   0.47726   0.48399
 Alpha virt. eigenvalues --    0.49296   0.50218   0.50953   0.51243   0.51520
 Alpha virt. eigenvalues --    0.51760   0.51974   0.52627   0.53086   0.53879
 Alpha virt. eigenvalues --    0.54134   0.54252   0.55357   0.55885   0.56518
 Alpha virt. eigenvalues --    0.56697   0.57665   0.57786   0.58562   0.59207
 Alpha virt. eigenvalues --    0.59912   0.60677   0.61166   0.61316   0.62016
 Alpha virt. eigenvalues --    0.62910   0.63094   0.63319   0.64150   0.64903
 Alpha virt. eigenvalues --    0.65216   0.65889   0.66588   0.66814   0.67415
 Alpha virt. eigenvalues --    0.67865   0.68149   0.68454   0.68945   0.69263
 Alpha virt. eigenvalues --    0.69635   0.70643   0.71754   0.72107   0.72967
 Alpha virt. eigenvalues --    0.73889   0.74612   0.74898   0.75798   0.76196
 Alpha virt. eigenvalues --    0.77244   0.77426   0.78633   0.79289   0.79648
 Alpha virt. eigenvalues --    0.80182   0.80698   0.81274   0.81760   0.82646
 Alpha virt. eigenvalues --    0.82997   0.83385   0.83992   0.84916   0.85020
 Alpha virt. eigenvalues --    0.85634   0.85966   0.86181   0.86528   0.87097
 Alpha virt. eigenvalues --    0.87634   0.87925   0.88152   0.88697   0.88942
 Alpha virt. eigenvalues --    0.89304   0.89650   0.90136   0.90401   0.90739
 Alpha virt. eigenvalues --    0.90793   0.91179   0.91662   0.92079   0.92289
 Alpha virt. eigenvalues --    0.92865   0.93900   0.94515   0.94829   0.95194
 Alpha virt. eigenvalues --    0.95849   0.96402   0.96762   0.97195   0.97615
 Alpha virt. eigenvalues --    0.98456   0.99043   0.99365   0.99783   1.00267
 Alpha virt. eigenvalues --    1.01544   1.01683   1.02298   1.03021   1.03951
 Alpha virt. eigenvalues --    1.05244   1.06073   1.06244   1.06455   1.07372
 Alpha virt. eigenvalues --    1.09304   1.09981   1.10622   1.11819   1.12308
 Alpha virt. eigenvalues --    1.13794   1.14444   1.15757   1.16512   1.17105
 Alpha virt. eigenvalues --    1.17888   1.18439   1.19212   1.20575   1.21696
 Alpha virt. eigenvalues --    1.22818   1.23230   1.25226   1.25722   1.26636
 Alpha virt. eigenvalues --    1.27605   1.29604   1.30244   1.31173   1.32500
 Alpha virt. eigenvalues --    1.33376   1.36039   1.37589   1.39589   1.40315
 Alpha virt. eigenvalues --    1.41705   1.42287   1.43835   1.46325   1.46930
 Alpha virt. eigenvalues --    1.47490   1.48598   1.50677   1.51270   1.52220
 Alpha virt. eigenvalues --    1.53392   1.54077   1.54840   1.57347   1.57591
 Alpha virt. eigenvalues --    1.58811   1.60690   1.61017   1.61888   1.64741
 Alpha virt. eigenvalues --    1.65187   1.65843   1.67381   1.67921   1.68512
 Alpha virt. eigenvalues --    1.69555   1.70908   1.72250   1.72614   1.72777
 Alpha virt. eigenvalues --    1.74283   1.74585   1.75094   1.76475   1.76663
 Alpha virt. eigenvalues --    1.78621   1.79633   1.79807   1.80158   1.80867
 Alpha virt. eigenvalues --    1.81739   1.82545   1.82666   1.84008   1.84599
 Alpha virt. eigenvalues --    1.85533   1.86071   1.86641   1.87276   1.87845
 Alpha virt. eigenvalues --    1.88671   1.89186   1.89830   1.90604   1.91605
 Alpha virt. eigenvalues --    1.92819   1.93112   1.94541   1.94890   1.95349
 Alpha virt. eigenvalues --    1.96603   1.96876   1.97356   1.97933   1.98942
 Alpha virt. eigenvalues --    1.99036   1.99430   2.00545   2.00863   2.01690
 Alpha virt. eigenvalues --    2.02618   2.03116   2.03728   2.04584   2.05630
 Alpha virt. eigenvalues --    2.05778   2.06849   2.07590   2.08658   2.09607
 Alpha virt. eigenvalues --    2.10677   2.11655   2.11914   2.12376   2.12710
 Alpha virt. eigenvalues --    2.13752   2.14598   2.16392   2.16773   2.18531
 Alpha virt. eigenvalues --    2.18878   2.19296   2.21082   2.21463   2.22234
 Alpha virt. eigenvalues --    2.22851   2.23839   2.24595   2.25910   2.26408
 Alpha virt. eigenvalues --    2.27143   2.28654   2.29534   2.30811   2.31566
 Alpha virt. eigenvalues --    2.32321   2.32575   2.33483   2.34257   2.35078
 Alpha virt. eigenvalues --    2.35908   2.36053   2.37333   2.38122   2.38566
 Alpha virt. eigenvalues --    2.39332   2.41076   2.41792   2.42743   2.44062
 Alpha virt. eigenvalues --    2.44627   2.45396   2.45591   2.47676   2.48155
 Alpha virt. eigenvalues --    2.48772   2.50580   2.51599   2.52993   2.53834
 Alpha virt. eigenvalues --    2.55591   2.55923   2.58271   2.59434   2.59518
 Alpha virt. eigenvalues --    2.60053   2.61221   2.62162   2.64344   2.64735
 Alpha virt. eigenvalues --    2.65204   2.67099   2.67766   2.69867   2.70389
 Alpha virt. eigenvalues --    2.71797   2.73409   2.73875   2.75960   2.76824
 Alpha virt. eigenvalues --    2.78067   2.79820   2.81872   2.82817   2.83551
 Alpha virt. eigenvalues --    2.87258   2.89528   2.92528   2.93984   2.95985
 Alpha virt. eigenvalues --    2.98338   2.99080   3.01415   3.01824   3.02962
 Alpha virt. eigenvalues --    3.04613   3.06763   3.12191   3.17294   3.20937
 Alpha virt. eigenvalues --    3.25190   3.28985   4.03901   4.06583   4.08757
 Alpha virt. eigenvalues --    4.12099   4.13530   4.14497   4.16298   4.18535
 Alpha virt. eigenvalues --    4.22384   4.23500   4.25316   4.28552   4.30885
 Alpha virt. eigenvalues --    4.31866   4.35531   4.36524   4.40606   4.45266
 Alpha virt. eigenvalues --    4.49492   4.51236   4.52794   4.55322   4.58598
 Alpha virt. eigenvalues --    4.63039   4.66211   4.68446   4.72541   4.80169
 Alpha virt. eigenvalues --    4.90707   5.02507   5.19527
          Condensed to atoms (all electrons):
 Mulliken atomic charges:
              1
     1  C   -0.187876
     2  C    0.194942
     3  C   -0.189973
     4  C    0.328777
     5  C   -0.044965
     6  C   -0.338302
     7  C    0.185875
     8  C    0.409391
     9  C   -0.093947
    10  C    0.415755
    11  C    0.419452
    12  O   -0.453914
    13  C   -0.174972
    14  C   -0.265522
    15  C   -0.443560
    16  O   -0.511217
    17  C   -0.163392
    18  C    0.301846
    19  O   -0.517817
    20  C   -0.324876
    21  O   -0.670386
    22  C   -0.311366
    23  C    0.076578
    24  O   -0.596717
    25  C    0.240465
    26  C   -0.547148
    27  C   -0.404011
    28  C   -0.469444
    29  C   -0.457659
    30  H    0.143570
    31  H    0.164529
    32  C   -0.519677
    33  H    0.122415
    34  H    0.185014
    35  H    0.146661
    36  H    0.183509
    37  H    0.136713
    38  H    0.142575
    39  H    0.151281
    40  H    0.131457
    41  H    0.157046
    42  H    0.172953
    43  H    0.151704
    44  H    0.432747
    45  H    0.169144
    46  H    0.163655
    47  H    0.136058
    48  H    0.166416
    49  H    0.174361
    50  H    0.161798
    51  H    0.142135
    52  H    0.142054
    53  H    0.159253
    54  H    0.143501
    55  H    0.190650
    56  H    0.166842
    57  H    0.148376
    58  H    0.167584
    59  H    0.157993
    60  H    0.159234
    61  H    0.150314
    62  C   -0.453973
    63  H    0.148189
    64  H    0.138987
    65  H    0.158915
 Sum of Mulliken atomic charges =   0.00000
 Mulliken charges with hydrogens summed into heavy atoms:
              1
     1  C   -0.065462
     2  C    0.194942
     3  C   -0.025444
     4  C    0.328777
     5  C   -0.044965
     6  C   -0.006628
     7  C    0.185875
     8  C    0.409391
     9  C   -0.093947
    10  C    0.415755
    11  C    0.419452
    12  O   -0.453914
    13  C    0.008537
    14  C    0.013766
    15  C   -0.003776
    16  O   -0.511217
    17  C   -0.019822
    18  C    0.301846
    19  O   -0.517817
    20  C   -0.000219
    21  O   -0.237639
    22  C    0.021432
    23  C    0.212636
    24  O   -0.596717
    25  C    0.240465
    26  C   -0.044573
    27  C   -0.119823
    28  C    0.023960
    29  C    0.025143
    32  C   -0.052135
    62  C   -0.007882
 Sum of Mulliken charges with hydrogens summed into heavy atoms =   0.00000
 Electronic spatial extent (au):  <R**2>=          11278.3458
 Charge=              0.0000 electrons
 Dipole moment (field-independent basis, Debye):
    X=             -4.4355    Y=              2.0869    Z=             -2.3509  Tot=              5.4365
 Quadrupole moment (field-independent basis, Debye-Ang):
   XX=           -189.7992   YY=           -175.6887   ZZ=           -181.7794
   XY=              1.2929   XZ=             -5.6207   YZ=              0.6380
 Traceless Quadrupole moment (field-independent basis, Debye-Ang):
   XX=             -7.3768   YY=              6.7337   ZZ=              0.6431
   XY=              1.2929   XZ=             -5.6207   YZ=              0.6380
 Octapole moment (field-independent basis, Debye-Ang**2):
  XXX=            -38.5757  YYY=             47.2285  ZZZ=             -8.9245  XYY=             -5.9791
  XXY=            -40.6414  XXZ=            -24.0217  XZZ=            -19.8559  YZZ=             13.5436
  YYZ=            -27.3283  XYZ=            -12.3669
 Hexadecapole moment (field-independent basis, Debye-Ang**3):
 XXXX=          -7616.4400 YYYY=          -4224.0596 ZZZZ=          -3305.1672 XXXY=             65.6055
 XXXZ=            -33.6527 YYYX=             18.9228 YYYZ=            -11.3401 ZZZX=             34.0198
 ZZZY=             -0.0287 XXYY=          -1879.9903 XXZZ=          -1788.6271 YYZZ=          -1247.3312
 XXYZ=             -5.2693 YYXZ=              0.0758 ZZXY=             44.6811
 N-N= 3.522657825489D+03 E-N=-1.027156557427D+04  KE= 1.374460674308D+03
 1\1\GINC-B0805\FOpt\RB3LYP\6-31G(d)\C26H34O5\CAOFEI\24-Mar-2021\0\\# o
 pt rb3lyp/6-31g(d) geom=connectivity\\Title Card Required\\0,1\C,-0.00
 20279602,-0.0203926003,0.0034091219\C,1.3347811828,-0.0468333833,0.011
 79916\C,2.1521818827,1.2272821598,0.0225303348\C,1.3714861723,2.555625
 3963,-0.2434263411\C,-0.1497153707,2.4834244964,-0.5717453536\C,-0.830
 78333,1.2306363694,0.043397991\C,2.1915731664,3.2662404997,-1.35230696
 82\C,1.7636001959,2.8812860729,-2.7515954376\C,0.4832738467,2.62692281
 19,-3.1233069091\C,-0.54294204,2.5442895392,-2.0770269747\C,0.15175471
 72,2.3171435448,-4.5704413769\O,0.8187784037,1.4926403924,-5.171343404
 8\C,-0.9839330175,3.0904886689,-5.2335159705\C,-0.6740125099,4.6127863
 307,-5.2279981279\C,-1.2893210338,2.5383019465,-6.6290586132\O,-1.7407
 68581,2.4699958184,-2.341261969\C,3.6161795827,2.6734413838,-1.3566620
 386\C,4.0909166446,2.9375951894,-2.8062281022\O,2.8171527903,2.8559865
 289,-3.5727661114\C,3.3393306383,1.2038384419,-0.98707595\O,2.11266372
 88,4.6758097492,-1.2453990667\C,-0.6912358364,3.7561496791,0.133031363
 9\C,0.1722276101,3.818023165,1.3961223212\O,1.4818277299,3.4046210415,
 0.934732032\C,0.2360347038,5.1548357619,2.1030385283\C,0.9806165959,6.
 2918961217,1.4479583545\C,-0.3893866909,5.3029453775,3.2752857587\C,4.
 6658198051,4.3426144925,-2.9996969456\C,5.014682705,1.8854327001,-3.41
 38728612\H,4.2621215227,3.1647229647,-0.6223187244\H,2.5754110969,1.35
 38997854,1.0291125418\C,2.1024807386,-1.3444877805,0.0717552998\H,-0.5
 478068721,-0.9630082925,0.0233352362\H,-1.7817865642,1.0881306942,-0.4
 783093801\H,-1.0988849795,1.4387333399,1.0902103144\H,-1.8569035683,2.
 950998984,-4.5847851274\H,-1.5515472564,5.1309739204,-5.6364314975\H,-
 0.5769373263,4.9501521124,-4.1886136052\H,-1.5887545767,1.4870559055,-
 6.5741947823\H,-2.1075276363,3.1046769186,-7.0891748454\H,-0.417455915
 1,2.5894673902,-7.2872627253\H,3.0376731995,0.6464643013,-1.8805534484
 \H,4.21851802,0.699869342,-0.5757212625\H,2.1156246349,4.8277833384,-0
 .280659091\H,-1.759653862,3.6802001124,0.3497647691\H,-0.5266927182,4.
 6416018912,-0.4885427304\H,-0.1834720875,3.0729824103,2.1201583781\H,2
 .0625095413,6.1027658045,1.446803024\H,0.6736648833,6.4464546556,0.406
 703033\H,0.8160707812,7.2282172194,1.9888455037\H,-0.900600409,4.47558
 09266,3.7614498857\H,-0.4198913399,6.2597895502,3.7897397747\H,4.80563
 84548,4.5425375686,-4.0670227086\H,5.6425758337,4.4165353637,-2.507704
 8476\H,4.0020303286,5.0989002661,-2.5771626332\H,5.2293504179,2.135186
 0839,-4.457574067\H,5.9629988802,1.8616039607,-2.8654075443\H,4.571237
 7165,0.8876611164,-3.3906905709\H,1.4238714362,-2.2008561843,0.1315269
 337\H,2.74472153,-1.4875357963,-0.8065904716\H,2.7619794228,-1.3739447
 508,0.9510415134\C,0.5776274855,5.0248607264,-6.0133092777\H,0.4924805
 954,4.7713838563,-7.0756330435\H,0.7351589321,6.1074141503,-5.94406108
 55\H,1.4772139276,4.5319004485,-5.6265991819\\Version=EM64L-G09RevB.01
 \State=1-A\HF=-1387.3193597\RMSD=9.377e-09\RMSF=3.362e-06\Dipole=1.202
 4724,0.4244845,1.7171821\Quadrupole=3.2586301,1.8989531,-5.1575832,-2.
 3986949,-3.0092453,-3.3279308\PG=C01 [X(C26H34O5)]\\@


 NOT WHAT WE DID SHALL BE THE TEST
 WHEN ACT AND WILL ARE DONE,
 BUT WHAT OUR LORD INFERS WE WOULD-
 HAD WE DIVINER BEEN.
           EMILY DICKINSON  POEMS NO. CLXXV
 Job cpu time:  0 days  5 hours 31 minutes 59.7 seconds.
 File lengths (MBytes):  RWF=    186 Int=      0 D2E=      0 Chk=     20 Scr=      1
 Normal termination of Gaussian 09 at Wed Mar 24 17:41:04 2021.
