 Entering Gaussian System, Link 0=g09
 Initial command:
 /public/software/g09/g09/l1.exe /tmp/Gau-23976.inp -scrdir=/tmp/
 Entering Link 1 = /public/software/g09/g09/l1.exe PID=     23977.
  
 Copyright (c) 1988,1990,1992,1993,1995,1998,2003,2009,2010,
            Gaussian, Inc.  All Rights Reserved.
  
 This is part of the Gaussian(R) 09 program.  It is based on
 the Gaussian(R) 03 system (copyright 2003, Gaussian, Inc.),
 the Gaussian(R) 98 system (copyright 1998, Gaussian, Inc.),
 the Gaussian(R) 94 system (copyright 1995, Gaussian, Inc.),
 the Gaussian 92(TM) system (copyright 1992, Gaussian, Inc.),
 the Gaussian 90(TM) system (copyright 1990, Gaussian, Inc.),
 the Gaussian 88(TM) system (copyright 1988, Gaussian, Inc.),
 the Gaussian 86(TM) system (copyright 1986, Carnegie Mellon
 University), and the Gaussian 82(TM) system (copyright 1983,
 Carnegie Mellon University). Gaussian is a federally registered
 trademark of Gaussian, Inc.
  
 This software contains proprietary and confidential information,
 including trade secrets, belonging to Gaussian, Inc.
  
 This software is provided under written license and may be
 used, copied, transmitted, or stored only in accord with that
 written license.
  
 The following legend is applicable only to US Government
 contracts under FAR:
  
                    RESTRICTED RIGHTS LEGEND
  
 Use, reproduction and disclosure by the US Government is
 subject to restrictions as set forth in subparagraphs (a)
 and (c) of the Commercial Computer Software - Restricted
 Rights clause in FAR 52.227-19.
  
 Gaussian, Inc.
 340 Quinnipiac St., Bldg. 40, Wallingford CT 06492
  
  
 ---------------------------------------------------------------
 Warning -- This program may not be used in any manner that
 competes with the business of Gaussian, Inc. or will provide
 assistance to any competitor of Gaussian, Inc.  The licensee
 of this program is prohibited from giving any competitor of
 Gaussian, Inc. access to this program.  By using this program,
 the user acknowledges that Gaussian, Inc. is engaged in the
 business of creating and licensing software in the field of
 computational chemistry and represents and warrants to the
 licensee that it is not a competitor of Gaussian, Inc. and that
 it will not use this program in any manner prohibited above.
 ---------------------------------------------------------------
  

 Cite this work as:
 Gaussian 09, Revision B.01,
 M. J. Frisch, G. W. Trucks, H. B. Schlegel, G. E. Scuseria, 
 M. A. Robb, J. R. Cheeseman, G. Scalmani, V. Barone, B. Mennucci, 
 G. A. Petersson, H. Nakatsuji, M. Caricato, X. Li, H. P. Hratchian, 
 A. F. Izmaylov, J. Bloino, G. Zheng, J. L. Sonnenberg, M. Hada, 
 M. Ehara, K. Toyota, R. Fukuda, J. Hasegawa, M. Ishida, T. Nakajima, 
 Y. Honda, O. Kitao, H. Nakai, T. Vreven, J. A. Montgomery, Jr., 
 J. E. Peralta, F. Ogliaro, M. Bearpark, J. J. Heyd, E. Brothers, 
 K. N. Kudin, V. N. Staroverov, T. Keith, R. Kobayashi, J. Normand, 
 K. Raghavachari, A. Rendell, J. C. Burant, S. S. Iyengar, J. Tomasi, 
 M. Cossi, N. Rega, J. M. Millam, M. Klene, J. E. Knox, J. B. Cross, 
 V. Bakken, C. Adamo, J. Jaramillo, R. Gomperts, R. E. Stratmann, 
 O. Yazyev, A. J. Austin, R. Cammi, C. Pomelli, J. W. Ochterski, 
 R. L. Martin, K. Morokuma, V. G. Zakrzewski, G. A. Voth, 
 P. Salvador, J. J. Dannenberg, S. Dapprich, A. D. Daniels, 
 O. Farkas, J. B. Foresman, J. V. Ortiz, J. Cioslowski, 
 and D. J. Fox, Gaussian, Inc., Wallingford CT, 2010.
 
 ******************************************
 Gaussian 09:  EM64L-G09RevB.01 12-Aug-2010
                24-Mar-2021 
 ******************************************
 %mem=600MW
 %nprocshared=10
 Will use up to   10 processors via shared memory.
 ---------------------------------------
 # opt rb3lyp/6-31g(d) geom=connectivity
 ---------------------------------------
 1/14=-1,18=20,19=15,26=3,38=1,57=2/1,3;
 2/9=110,12=2,17=6,18=5,40=1/2;
 3/5=1,6=6,7=1,11=2,16=1,25=1,30=1,71=1,74=-5,116=1/1,2,3;
 4//1;
 5/5=2,38=5/2;
 6/7=2,8=2,9=2,10=2,28=1/1;
 7//1,2,3,16;
 1/14=-1,18=20,19=15/3(2);
 2/9=110/2;
 99//99;
 2/9=110/2;
 3/5=1,6=6,7=1,11=2,16=1,25=1,30=1,71=1,74=-5,116=1/1,2,3;
 4/5=5,16=3/1;
 5/5=2,38=5/2;
 7//1,2,3,16;
 1/14=-1,18=20,19=15/3(-5);
 2/9=110/2;
 6/7=2,8=2,9=2,10=2,19=2,28=1/1;
 99/9=1/99;
 -------------------
 Title Card Required
 -------------------
 Symbolic Z-matrix:
 Charge =  0 Multiplicity = 1
 C                     0.        0.        0. 
 C                     1.3416    0.        0. 
 C                     2.1349    1.2859    0. 
 C                     1.335     2.5802   -0.3251 
 C                    -0.1579    2.4519   -0.6652 
 C                    -0.8299    1.2426    0.0164 
 C                     2.1405    3.2739   -1.4391 
 C                     1.7855    2.8684   -2.8276 
 C                     0.5703    2.4356   -3.1826 
 C                    -0.5033    2.4178   -2.1633 
 C                     0.3354    1.9821   -4.5782 
 O                     0.9015    0.9616   -4.9751 
 C                    -0.6554    2.7675   -5.4462 
 C                    -0.3685    4.2793   -5.4708 
 C                    -0.7287    2.1764   -6.8564 
 O                    -1.6797    2.3825   -2.5307 
 C                     3.5537    2.7374   -1.3777 
 C                     4.0587    2.9553   -2.8198 
 O                     2.892     2.8182   -3.6699 
 C                     3.319     1.2693   -0.9845 
 O                     2.0815    4.6872   -1.3417 
 C                    -0.7207    3.7563   -0.0939 
 C                     0.1161    3.9741    1.1596 
 O                     1.4194    3.4479    0.8482 
 C                     0.2774    5.384     1.6808 
 C                     1.2065    5.5265    2.8601 
 C                    -0.3598    6.4634    1.1952 
 C                     4.6426    4.3602   -3.0385 
 C                     5.1044    1.9276   -3.2658 
 H                     4.1798    3.246    -0.6356 
 H                     2.5608    1.3864    1.0093 
 C                     2.1115   -1.2908    0.0944 
 H                    -0.5438   -0.9419    0.0495 
 H                    -1.7898    1.015    -0.4639 
 H                    -1.0744    1.4529    1.0645 
 H                    -1.6467    2.6225   -5.0004 
 H                    -1.2083    4.7901   -5.9587 
 H                    -0.3295    4.6731   -4.4486 
 H                    -1.0863    1.1412   -6.8206 
 H                    -1.4208    2.7463   -7.4849 
 H                     0.2514    2.162    -7.3447 
 H                     3.073     0.6504   -1.8559 
 H                     4.2175    0.839    -0.5279 
 H                     2.1588    4.8931   -0.388 
 H                    -1.7927    3.7115    0.1293 
 H                    -0.5773    4.5667   -0.8195 
 H                    -0.2848    3.3608    1.9761 
 H                     0.8909    4.8656    3.674 
 H                     2.2316    5.2674    2.5766 
 H                     1.2218    6.5486    3.2536 
 H                    -1.0556    6.4118    0.365 
 H                    -0.2063    7.4494    1.6252 
 H                     4.9799    4.4797   -4.0751 
 H                     5.4952    4.5436   -2.3766 
 H                     3.9036    5.1504   -2.882 
 H                     5.4572    2.1493   -4.2801 
 H                     5.9694    1.9215   -2.5948 
 H                     4.6906    0.9159   -3.3199 
 H                     1.4525   -2.1528    0.2448 
 H                     2.6838   -1.471    -0.8205 
 H                     2.8051   -1.257     0.941 
 C                     0.9132    4.6747   -6.1931 
 H                     0.8536    4.4525   -7.2627 
 H                     1.0804    5.752    -6.0915 
 H                     1.7855    4.1602   -5.7824 
 

 GradGradGradGradGradGradGradGradGradGradGradGradGradGradGradGradGradGrad
 Berny optimization.
 Initialization pass.
                           ----------------------------
                           !    Initial Parameters    !
                           ! (Angstroms and Degrees)  !
 --------------------------                            --------------------------
 ! Name  Definition              Value          Derivative Info.                !
 --------------------------------------------------------------------------------
 ! R1    R(1,2)                  1.3416         estimate D2E/DX2                !
 ! R2    R(1,6)                  1.4943         estimate D2E/DX2                !
 ! R3    R(1,33)                 1.0887         estimate D2E/DX2                !
 ! R4    R(2,3)                  1.5109         estimate D2E/DX2                !
 ! R5    R(2,32)                 1.5059         estimate D2E/DX2                !
 ! R6    R(3,4)                  1.5559         estimate D2E/DX2                !
 ! R7    R(3,20)                 1.54           estimate D2E/DX2                !
 ! R8    R(3,31)                 1.1001         estimate D2E/DX2                !
 ! R9    R(4,5)                  1.5365         estimate D2E/DX2                !
 ! R10   R(4,7)                  1.5398         estimate D2E/DX2                !
 ! R11   R(4,24)                 1.4617         estimate D2E/DX2                !
 ! R12   R(5,6)                  1.5423         estimate D2E/DX2                !
 ! R13   R(5,10)                 1.5378         estimate D2E/DX2                !
 ! R14   R(5,22)                 1.5312         estimate D2E/DX2                !
 ! R15   R(6,34)                 1.0972         estimate D2E/DX2                !
 ! R16   R(6,35)                 1.0966         estimate D2E/DX2                !
 ! R17   R(7,8)                  1.4894         estimate D2E/DX2                !
 ! R18   R(7,17)                 1.5129         estimate D2E/DX2                !
 ! R19   R(7,21)                 1.4179         estimate D2E/DX2                !
 ! R20   R(8,9)                  1.3379         estimate D2E/DX2                !
 ! R21   R(8,19)                 1.3915         estimate D2E/DX2                !
 ! R22   R(9,10)                 1.4805         estimate D2E/DX2                !
 ! R23   R(9,11)                 1.4861         estimate D2E/DX2                !
 ! R24   R(10,16)                1.2329         estimate D2E/DX2                !
 ! R25   R(11,12)                1.2326         estimate D2E/DX2                !
 ! R26   R(11,13)                1.5336         estimate D2E/DX2                !
 ! R27   R(13,14)                1.539          estimate D2E/DX2                !
 ! R28   R(13,15)                1.5308         estimate D2E/DX2                !
 ! R29   R(13,36)                1.0966         estimate D2E/DX2                !
 ! R30   R(14,37)                1.0974         estimate D2E/DX2                !
 ! R31   R(14,38)                1.0961         estimate D2E/DX2                !
 ! R32   R(14,62)                1.5234         estimate D2E/DX2                !
 ! R33   R(15,39)                1.0958         estimate D2E/DX2                !
 ! R34   R(15,40)                1.0949         estimate D2E/DX2                !
 ! R35   R(15,41)                1.0951         estimate D2E/DX2                !
 ! R36   R(17,18)                1.5434         estimate D2E/DX2                !
 ! R37   R(17,20)                1.5379         estimate D2E/DX2                !
 ! R38   R(17,30)                1.0961         estimate D2E/DX2                !
 ! R39   R(18,19)                1.4501         estimate D2E/DX2                !
 ! R40   R(18,28)                1.537          estimate D2E/DX2                !
 ! R41   R(18,29)                1.5325         estimate D2E/DX2                !
 ! R42   R(20,42)                1.0968         estimate D2E/DX2                !
 ! R43   R(20,43)                1.0959         estimate D2E/DX2                !
 ! R44   R(21,44)                0.9787         estimate D2E/DX2                !
 ! R45   R(22,23)                1.5228         estimate D2E/DX2                !
 ! R46   R(22,45)                1.0959         estimate D2E/DX2                !
 ! R47   R(22,46)                1.0972         estimate D2E/DX2                !
 ! R48   R(23,24)                1.4396         estimate D2E/DX2                !
 ! R49   R(23,25)                1.5118         estimate D2E/DX2                !
 ! R50   R(23,47)                1.0971         estimate D2E/DX2                !
 ! R51   R(25,26)                1.5081         estimate D2E/DX2                !
 ! R52   R(25,27)                1.3442         estimate D2E/DX2                !
 ! R53   R(26,48)                1.0949         estimate D2E/DX2                !
 ! R54   R(26,49)                1.0947         estimate D2E/DX2                !
 ! R55   R(26,50)                1.0953         estimate D2E/DX2                !
 ! R56   R(27,51)                1.0845         estimate D2E/DX2                !
 ! R57   R(27,52)                1.0866         estimate D2E/DX2                !
 ! R58   R(28,53)                1.0966         estimate D2E/DX2                !
 ! R59   R(28,54)                1.0948         estimate D2E/DX2                !
 ! R60   R(28,55)                1.0932         estimate D2E/DX2                !
 ! R61   R(29,56)                1.0966         estimate D2E/DX2                !
 ! R62   R(29,57)                1.0948         estimate D2E/DX2                !
 ! R63   R(29,58)                1.0944         estimate D2E/DX2                !
 ! R64   R(32,59)                1.0954         estimate D2E/DX2                !
 ! R65   R(32,60)                1.0941         estimate D2E/DX2                !
 ! R66   R(32,61)                1.095          estimate D2E/DX2                !
 ! R67   R(62,63)                1.0941         estimate D2E/DX2                !
 ! R68   R(62,64)                1.0949         estimate D2E/DX2                !
 ! R69   R(62,65)                1.0928         estimate D2E/DX2                !
 ! A1    A(2,1,6)              123.7356         estimate D2E/DX2                !
 ! A2    A(2,1,33)             119.9655         estimate D2E/DX2                !
 ! A3    A(6,1,33)             116.1996         estimate D2E/DX2                !
 ! A4    A(1,2,3)              121.6713         estimate D2E/DX2                !
 ! A5    A(1,2,32)             120.7469         estimate D2E/DX2                !
 ! A6    A(3,2,32)             117.4559         estimate D2E/DX2                !
 ! A7    A(2,3,4)              115.9799         estimate D2E/DX2                !
 ! A8    A(2,3,20)             113.2367         estimate D2E/DX2                !
 ! A9    A(2,3,31)             106.3214         estimate D2E/DX2                !
 ! A10   A(4,3,20)             105.7053         estimate D2E/DX2                !
 ! A11   A(4,3,31)             108.3458         estimate D2E/DX2                !
 ! A12   A(20,3,31)            106.848          estimate D2E/DX2                !
 ! A13   A(3,4,5)              118.4447         estimate D2E/DX2                !
 ! A14   A(3,4,7)              104.8918         estimate D2E/DX2                !
 ! A15   A(3,4,24)             107.242          estimate D2E/DX2                !
 ! A16   A(5,4,7)              112.6901         estimate D2E/DX2                !
 ! A17   A(5,4,24)             106.4594         estimate D2E/DX2                !
 ! A18   A(7,4,24)             106.4439         estimate D2E/DX2                !
 ! A19   A(4,5,6)              113.0171         estimate D2E/DX2                !
 ! A20   A(4,5,10)             115.831          estimate D2E/DX2                !
 ! A21   A(4,5,22)             101.736          estimate D2E/DX2                !
 ! A22   A(6,5,10)             108.3783         estimate D2E/DX2                !
 ! A23   A(6,5,22)             110.0549         estimate D2E/DX2                !
 ! A24   A(10,5,22)            107.4463         estimate D2E/DX2                !
 ! A25   A(1,6,5)              113.9024         estimate D2E/DX2                !
 ! A26   A(1,6,34)             107.9727         estimate D2E/DX2                !
 ! A27   A(1,6,35)             107.0846         estimate D2E/DX2                !
 ! A28   A(5,6,34)             110.5107         estimate D2E/DX2                !
 ! A29   A(5,6,35)             111.6652         estimate D2E/DX2                !
 ! A30   A(34,6,35)            105.2544         estimate D2E/DX2                !
 ! A31   A(4,7,8)              115.2839         estimate D2E/DX2                !
 ! A32   A(4,7,17)             107.4294         estimate D2E/DX2                !
 ! A33   A(4,7,21)             112.1843         estimate D2E/DX2                !
 ! A34   A(8,7,17)              99.4353         estimate D2E/DX2                !
 ! A35   A(8,7,21)             108.9955         estimate D2E/DX2                !
 ! A36   A(17,7,21)            112.9274         estimate D2E/DX2                !
 ! A37   A(7,8,9)              123.4981         estimate D2E/DX2                !
 ! A38   A(7,8,19)             112.6181         estimate D2E/DX2                !
 ! A39   A(9,8,19)             123.3637         estimate D2E/DX2                !
 ! A40   A(8,9,10)             118.6755         estimate D2E/DX2                !
 ! A41   A(8,9,11)             119.4361         estimate D2E/DX2                !
 ! A42   A(10,9,11)            121.8877         estimate D2E/DX2                !
 ! A43   A(5,10,9)             120.5022         estimate D2E/DX2                !
 ! A44   A(5,10,16)            120.3474         estimate D2E/DX2                !
 ! A45   A(9,10,16)            119.1493         estimate D2E/DX2                !
 ! A46   A(9,11,12)            118.8439         estimate D2E/DX2                !
 ! A47   A(9,11,13)            118.5125         estimate D2E/DX2                !
 ! A48   A(12,11,13)           122.5781         estimate D2E/DX2                !
 ! A49   A(11,13,14)           113.0596         estimate D2E/DX2                !
 ! A50   A(11,13,15)           110.7673         estimate D2E/DX2                !
 ! A51   A(11,13,36)           106.6321         estimate D2E/DX2                !
 ! A52   A(14,13,15)           111.9324         estimate D2E/DX2                !
 ! A53   A(14,13,36)           107.7535         estimate D2E/DX2                !
 ! A54   A(15,13,36)           106.27           estimate D2E/DX2                !
 ! A55   A(13,14,37)           108.7655         estimate D2E/DX2                !
 ! A56   A(13,14,38)           110.1602         estimate D2E/DX2                !
 ! A57   A(13,14,62)           114.7958         estimate D2E/DX2                !
 ! A58   A(37,14,38)           105.9394         estimate D2E/DX2                !
 ! A59   A(37,14,62)           108.1943         estimate D2E/DX2                !
 ! A60   A(38,14,62)           108.6008         estimate D2E/DX2                !
 ! A61   A(13,15,39)           110.5059         estimate D2E/DX2                !
 ! A62   A(13,15,40)           110.9822         estimate D2E/DX2                !
 ! A63   A(13,15,41)           111.8997         estimate D2E/DX2                !
 ! A64   A(39,15,40)           107.7094         estimate D2E/DX2                !
 ! A65   A(39,15,41)           107.1102         estimate D2E/DX2                !
 ! A66   A(40,15,41)           108.4588         estimate D2E/DX2                !
 ! A67   A(7,17,18)            102.5713         estimate D2E/DX2                !
 ! A68   A(7,17,20)            101.9089         estimate D2E/DX2                !
 ! A69   A(7,17,30)            113.3605         estimate D2E/DX2                !
 ! A70   A(18,17,20)           115.0624         estimate D2E/DX2                !
 ! A71   A(18,17,30)           112.3456         estimate D2E/DX2                !
 ! A72   A(20,17,30)           110.9184         estimate D2E/DX2                !
 ! A73   A(17,18,19)           105.7334         estimate D2E/DX2                !
 ! A74   A(17,18,28)           112.7234         estimate D2E/DX2                !
 ! A75   A(17,18,29)           113.6098         estimate D2E/DX2                !
 ! A76   A(19,18,28)           107.9782         estimate D2E/DX2                !
 ! A77   A(19,18,29)           108.3602         estimate D2E/DX2                !
 ! A78   A(28,18,29)           108.1994         estimate D2E/DX2                !
 ! A79   A(8,19,18)            106.3505         estimate D2E/DX2                !
 ! A80   A(3,20,17)            105.6944         estimate D2E/DX2                !
 ! A81   A(3,20,42)            109.9711         estimate D2E/DX2                !
 ! A82   A(3,20,43)            111.6098         estimate D2E/DX2                !
 ! A83   A(17,20,42)           111.7025         estimate D2E/DX2                !
 ! A84   A(17,20,43)           110.8698         estimate D2E/DX2                !
 ! A85   A(42,20,43)           107.0595         estimate D2E/DX2                !
 ! A86   A(7,21,44)            105.8635         estimate D2E/DX2                !
 ! A87   A(5,22,23)            103.1198         estimate D2E/DX2                !
 ! A88   A(5,22,45)            113.622          estimate D2E/DX2                !
 ! A89   A(5,22,46)            109.5379         estimate D2E/DX2                !
 ! A90   A(23,22,45)           112.069          estimate D2E/DX2                !
 ! A91   A(23,22,46)           111.5254         estimate D2E/DX2                !
 ! A92   A(45,22,46)           107.0217         estimate D2E/DX2                !
 ! A93   A(22,23,24)           105.4948         estimate D2E/DX2                !
 ! A94   A(22,23,25)           118.4118         estimate D2E/DX2                !
 ! A95   A(22,23,47)           109.3827         estimate D2E/DX2                !
 ! A96   A(24,23,25)           108.5944         estimate D2E/DX2                !
 ! A97   A(24,23,47)           106.7075         estimate D2E/DX2                !
 ! A98   A(25,23,47)           107.6839         estimate D2E/DX2                !
 ! A99   A(4,24,23)            109.7752         estimate D2E/DX2                !
 ! A100  A(23,25,26)           115.0529         estimate D2E/DX2                !
 ! A101  A(23,25,27)           125.0126         estimate D2E/DX2                !
 ! A102  A(26,25,27)           119.9114         estimate D2E/DX2                !
 ! A103  A(25,26,48)           110.2841         estimate D2E/DX2                !
 ! A104  A(25,26,49)           110.612          estimate D2E/DX2                !
 ! A105  A(25,26,50)           112.1919         estimate D2E/DX2                !
 ! A106  A(48,26,49)           108.6366         estimate D2E/DX2                !
 ! A107  A(48,26,50)           107.4714         estimate D2E/DX2                !
 ! A108  A(49,26,50)           107.5069         estimate D2E/DX2                !
 ! A109  A(25,27,51)           122.8533         estimate D2E/DX2                !
 ! A110  A(25,27,52)           121.2475         estimate D2E/DX2                !
 ! A111  A(51,27,52)           115.8982         estimate D2E/DX2                !
 ! A112  A(18,28,53)           110.5451         estimate D2E/DX2                !
 ! A113  A(18,28,54)           111.2798         estimate D2E/DX2                !
 ! A114  A(18,28,55)           112.5523         estimate D2E/DX2                !
 ! A115  A(53,28,54)           108.2818         estimate D2E/DX2                !
 ! A116  A(53,28,55)           105.3363         estimate D2E/DX2                !
 ! A117  A(54,28,55)           108.5906         estimate D2E/DX2                !
 ! A118  A(18,29,56)           110.6802         estimate D2E/DX2                !
 ! A119  A(18,29,57)           111.3769         estimate D2E/DX2                !
 ! A120  A(18,29,58)           112.1056         estimate D2E/DX2                !
 ! A121  A(56,29,57)           108.2919         estimate D2E/DX2                !
 ! A122  A(56,29,58)           105.238          estimate D2E/DX2                !
 ! A123  A(57,29,58)           108.8991         estimate D2E/DX2                !
 ! A124  A(2,32,59)            112.0578         estimate D2E/DX2                !
 ! A125  A(2,32,60)            110.8657         estimate D2E/DX2                !
 ! A126  A(2,32,61)            110.2339         estimate D2E/DX2                !
 ! A127  A(59,32,60)           107.4509         estimate D2E/DX2                !
 ! A128  A(59,32,61)           107.4103         estimate D2E/DX2                !
 ! A129  A(60,32,61)           108.68           estimate D2E/DX2                !
 ! A130  A(14,62,63)           111.4066         estimate D2E/DX2                !
 ! A131  A(14,62,64)           109.8677         estimate D2E/DX2                !
 ! A132  A(14,62,65)           111.7879         estimate D2E/DX2                !
 ! A133  A(63,62,64)           107.3894         estimate D2E/DX2                !
 ! A134  A(63,62,65)           108.3774         estimate D2E/DX2                !
 ! A135  A(64,62,65)           107.8457         estimate D2E/DX2                !
 ! D1    D(6,1,2,3)             -0.7562         estimate D2E/DX2                !
 ! D2    D(6,1,2,32)           175.0611         estimate D2E/DX2                !
 ! D3    D(33,1,2,3)          -176.9917         estimate D2E/DX2                !
 ! D4    D(33,1,2,32)           -1.1744         estimate D2E/DX2                !
 ! D5    D(2,1,6,5)             29.6489         estimate D2E/DX2                !
 ! D6    D(2,1,6,34)           152.7883         estimate D2E/DX2                !
 ! D7    D(2,1,6,35)           -94.3149         estimate D2E/DX2                !
 ! D8    D(33,1,6,5)          -153.9856         estimate D2E/DX2                !
 ! D9    D(33,1,6,34)          -30.8462         estimate D2E/DX2                !
 ! D10   D(33,1,6,35)           82.0506         estimate D2E/DX2                !
 ! D11   D(1,2,3,4)            -13.4407         estimate D2E/DX2                !
 ! D12   D(1,2,3,20)          -135.9154         estimate D2E/DX2                !
 ! D13   D(1,2,3,31)           107.0587         estimate D2E/DX2                !
 ! D14   D(32,2,3,4)           170.6102         estimate D2E/DX2                !
 ! D15   D(32,2,3,20)           48.1355         estimate D2E/DX2                !
 ! D16   D(32,2,3,31)          -68.8904         estimate D2E/DX2                !
 ! D17   D(1,2,32,59)           -4.9231         estimate D2E/DX2                !
 ! D18   D(1,2,32,60)          115.1255         estimate D2E/DX2                !
 ! D19   D(1,2,32,61)         -124.4895         estimate D2E/DX2                !
 ! D20   D(3,2,32,59)          171.0655         estimate D2E/DX2                !
 ! D21   D(3,2,32,60)          -68.8859         estimate D2E/DX2                !
 ! D22   D(3,2,32,61)           51.4991         estimate D2E/DX2                !
 ! D23   D(2,3,4,5)             -2.1682         estimate D2E/DX2                !
 ! D24   D(2,3,4,7)           -128.8957         estimate D2E/DX2                !
 ! D25   D(2,3,4,24)           118.1978         estimate D2E/DX2                !
 ! D26   D(20,3,4,5)           124.1966         estimate D2E/DX2                !
 ! D27   D(20,3,4,7)            -2.5309         estimate D2E/DX2                !
 ! D28   D(20,3,4,24)         -115.4374         estimate D2E/DX2                !
 ! D29   D(31,3,4,5)          -121.571          estimate D2E/DX2                !
 ! D30   D(31,3,4,7)           111.7015         estimate D2E/DX2                !
 ! D31   D(31,3,4,24)           -1.205          estimate D2E/DX2                !
 ! D32   D(2,3,20,17)          152.6692         estimate D2E/DX2                !
 ! D33   D(2,3,20,42)           31.9526         estimate D2E/DX2                !
 ! D34   D(2,3,20,43)          -86.7122         estimate D2E/DX2                !
 ! D35   D(4,3,20,17)           24.6486         estimate D2E/DX2                !
 ! D36   D(4,3,20,42)          -96.0681         estimate D2E/DX2                !
 ! D37   D(4,3,20,43)          145.2671         estimate D2E/DX2                !
 ! D38   D(31,3,20,17)         -90.6144         estimate D2E/DX2                !
 ! D39   D(31,3,20,42)         148.6689         estimate D2E/DX2                !
 ! D40   D(31,3,20,43)          30.0042         estimate D2E/DX2                !
 ! D41   D(3,4,5,6)             29.1388         estimate D2E/DX2                !
 ! D42   D(3,4,5,10)           -96.752          estimate D2E/DX2                !
 ! D43   D(3,4,5,22)           147.0948         estimate D2E/DX2                !
 ! D44   D(7,4,5,6)            152.0466         estimate D2E/DX2                !
 ! D45   D(7,4,5,10)            26.1558         estimate D2E/DX2                !
 ! D46   D(7,4,5,22)           -89.9974         estimate D2E/DX2                !
 ! D47   D(24,4,5,6)           -91.6286         estimate D2E/DX2                !
 ! D48   D(24,4,5,10)          142.4806         estimate D2E/DX2                !
 ! D49   D(24,4,5,22)           26.3274         estimate D2E/DX2                !
 ! D50   D(3,4,7,8)             88.7597         estimate D2E/DX2                !
 ! D51   D(3,4,7,17)           -21.0149         estimate D2E/DX2                !
 ! D52   D(3,4,7,21)          -145.6933         estimate D2E/DX2                !
 ! D53   D(5,4,7,8)            -41.4356         estimate D2E/DX2                !
 ! D54   D(5,4,7,17)          -151.2102         estimate D2E/DX2                !
 ! D55   D(5,4,7,21)            84.1114         estimate D2E/DX2                !
 ! D56   D(24,4,7,8)          -157.7698         estimate D2E/DX2                !
 ! D57   D(24,4,7,17)           92.4557         estimate D2E/DX2                !
 ! D58   D(24,4,7,21)          -32.2227         estimate D2E/DX2                !
 ! D59   D(3,4,24,23)         -133.9742         estimate D2E/DX2                !
 ! D60   D(5,4,24,23)           -6.2599         estimate D2E/DX2                !
 ! D61   D(7,4,24,23)          114.1767         estimate D2E/DX2                !
 ! D62   D(4,5,6,1)            -41.9144         estimate D2E/DX2                !
 ! D63   D(4,5,6,34)          -163.66           estimate D2E/DX2                !
 ! D64   D(4,5,6,35)            79.5402         estimate D2E/DX2                !
 ! D65   D(10,5,6,1)            87.877          estimate D2E/DX2                !
 ! D66   D(10,5,6,34)          -33.8686         estimate D2E/DX2                !
 ! D67   D(10,5,6,35)         -150.6684         estimate D2E/DX2                !
 ! D68   D(22,5,6,1)          -154.8905         estimate D2E/DX2                !
 ! D69   D(22,5,6,34)           83.3639         estimate D2E/DX2                !
 ! D70   D(22,5,6,35)          -33.4359         estimate D2E/DX2                !
 ! D71   D(4,5,10,9)             3.1582         estimate D2E/DX2                !
 ! D72   D(4,5,10,16)         -176.4507         estimate D2E/DX2                !
 ! D73   D(6,5,10,9)          -125.055          estimate D2E/DX2                !
 ! D74   D(6,5,10,16)           55.3361         estimate D2E/DX2                !
 ! D75   D(22,5,10,9)          116.0513         estimate D2E/DX2                !
 ! D76   D(22,5,10,16)         -63.5576         estimate D2E/DX2                !
 ! D77   D(4,5,22,23)          -35.7129         estimate D2E/DX2                !
 ! D78   D(4,5,22,45)         -157.2472         estimate D2E/DX2                !
 ! D79   D(4,5,22,46)           83.1342         estimate D2E/DX2                !
 ! D80   D(6,5,22,23)           84.3514         estimate D2E/DX2                !
 ! D81   D(6,5,22,45)          -37.1829         estimate D2E/DX2                !
 ! D82   D(6,5,22,46)         -156.8015         estimate D2E/DX2                !
 ! D83   D(10,5,22,23)        -157.838          estimate D2E/DX2                !
 ! D84   D(10,5,22,45)          80.6277         estimate D2E/DX2                !
 ! D85   D(10,5,22,46)         -38.9908         estimate D2E/DX2                !
 ! D86   D(4,7,8,9)             28.1832         estimate D2E/DX2                !
 ! D87   D(4,7,8,19)          -143.7808         estimate D2E/DX2                !
 ! D88   D(17,7,8,9)           142.6587         estimate D2E/DX2                !
 ! D89   D(17,7,8,19)          -29.3053         estimate D2E/DX2                !
 ! D90   D(21,7,8,9)           -98.9913         estimate D2E/DX2                !
 ! D91   D(21,7,8,19)           89.0447         estimate D2E/DX2                !
 ! D92   D(4,7,17,18)          155.2294         estimate D2E/DX2                !
 ! D93   D(4,7,17,20)           35.8502         estimate D2E/DX2                !
 ! D94   D(4,7,17,30)          -83.396          estimate D2E/DX2                !
 ! D95   D(8,7,17,18)           34.8337         estimate D2E/DX2                !
 ! D96   D(8,7,17,20)          -84.5454         estimate D2E/DX2                !
 ! D97   D(8,7,17,30)          156.2084         estimate D2E/DX2                !
 ! D98   D(21,7,17,18)         -80.542          estimate D2E/DX2                !
 ! D99   D(21,7,17,20)         160.0788         estimate D2E/DX2                !
 ! D100  D(21,7,17,30)          40.8326         estimate D2E/DX2                !
 ! D101  D(4,7,21,44)           41.0144         estimate D2E/DX2                !
 ! D102  D(8,7,21,44)          169.9307         estimate D2E/DX2                !
 ! D103  D(17,7,21,44)         -80.5665         estimate D2E/DX2                !
 ! D104  D(7,8,9,10)             3.1117         estimate D2E/DX2                !
 ! D105  D(7,8,9,11)          -176.6036         estimate D2E/DX2                !
 ! D106  D(19,8,9,10)          174.2235         estimate D2E/DX2                !
 ! D107  D(19,8,9,11)           -5.4918         estimate D2E/DX2                !
 ! D108  D(7,8,19,18)            9.997          estimate D2E/DX2                !
 ! D109  D(9,8,19,18)         -161.9795         estimate D2E/DX2                !
 ! D110  D(8,9,10,5)           -19.3519         estimate D2E/DX2                !
 ! D111  D(8,9,10,16)          160.2617         estimate D2E/DX2                !
 ! D112  D(11,9,10,5)          160.3561         estimate D2E/DX2                !
 ! D113  D(11,9,10,16)         -20.0304         estimate D2E/DX2                !
 ! D114  D(8,9,11,12)           66.7633         estimate D2E/DX2                !
 ! D115  D(8,9,11,13)         -116.103          estimate D2E/DX2                !
 ! D116  D(10,9,11,12)        -112.9425         estimate D2E/DX2                !
 ! D117  D(10,9,11,13)          64.1912         estimate D2E/DX2                !
 ! D118  D(9,11,13,14)          51.6906         estimate D2E/DX2                !
 ! D119  D(9,11,13,15)         178.2452         estimate D2E/DX2                !
 ! D120  D(9,11,13,36)         -66.5412         estimate D2E/DX2                !
 ! D121  D(12,11,13,14)       -131.289          estimate D2E/DX2                !
 ! D122  D(12,11,13,15)         -4.7344         estimate D2E/DX2                !
 ! D123  D(12,11,13,36)        110.4792         estimate D2E/DX2                !
 ! D124  D(11,13,14,37)       -170.1838         estimate D2E/DX2                !
 ! D125  D(11,13,14,38)        -54.4807         estimate D2E/DX2                !
 ! D126  D(11,13,14,62)         68.4693         estimate D2E/DX2                !
 ! D127  D(15,13,14,37)         63.883          estimate D2E/DX2                !
 ! D128  D(15,13,14,38)        179.586          estimate D2E/DX2                !
 ! D129  D(15,13,14,62)        -57.4639         estimate D2E/DX2                !
 ! D130  D(36,13,14,37)        -52.6072         estimate D2E/DX2                !
 ! D131  D(36,13,14,38)         63.0959         estimate D2E/DX2                !
 ! D132  D(36,13,14,62)       -173.9541         estimate D2E/DX2                !
 ! D133  D(11,13,15,39)         61.6651         estimate D2E/DX2                !
 ! D134  D(11,13,15,40)       -178.9112         estimate D2E/DX2                !
 ! D135  D(11,13,15,41)        -57.6025         estimate D2E/DX2                !
 ! D136  D(14,13,15,39)       -171.1579         estimate D2E/DX2                !
 ! D137  D(14,13,15,40)        -51.7342         estimate D2E/DX2                !
 ! D138  D(14,13,15,41)         69.5745         estimate D2E/DX2                !
 ! D139  D(36,13,15,39)        -53.7744         estimate D2E/DX2                !
 ! D140  D(36,13,15,40)         65.6493         estimate D2E/DX2                !
 ! D141  D(36,13,15,41)       -173.0421         estimate D2E/DX2                !
 ! D142  D(13,14,62,63)         65.7519         estimate D2E/DX2                !
 ! D143  D(13,14,62,64)       -175.3674         estimate D2E/DX2                !
 ! D144  D(13,14,62,65)        -55.6738         estimate D2E/DX2                !
 ! D145  D(37,14,62,63)        -55.9065         estimate D2E/DX2                !
 ! D146  D(37,14,62,64)         62.9742         estimate D2E/DX2                !
 ! D147  D(37,14,62,65)       -177.3322         estimate D2E/DX2                !
 ! D148  D(38,14,62,63)       -170.465          estimate D2E/DX2                !
 ! D149  D(38,14,62,64)        -51.5843         estimate D2E/DX2                !
 ! D150  D(38,14,62,65)         68.1093         estimate D2E/DX2                !
 ! D151  D(7,17,18,19)         -31.5171         estimate D2E/DX2                !
 ! D152  D(7,17,18,28)          86.2341         estimate D2E/DX2                !
 ! D153  D(7,17,18,29)        -150.221          estimate D2E/DX2                !
 ! D154  D(20,17,18,19)         78.2187         estimate D2E/DX2                !
 ! D155  D(20,17,18,28)       -164.0301         estimate D2E/DX2                !
 ! D156  D(20,17,18,29)        -40.4852         estimate D2E/DX2                !
 ! D157  D(30,17,18,19)       -153.5837         estimate D2E/DX2                !
 ! D158  D(30,17,18,28)        -35.8325         estimate D2E/DX2                !
 ! D159  D(30,17,18,29)         87.7124         estimate D2E/DX2                !
 ! D160  D(7,17,20,3)          -37.0374         estimate D2E/DX2                !
 ! D161  D(7,17,20,42)          82.5447         estimate D2E/DX2                !
 ! D162  D(7,17,20,43)        -158.1373         estimate D2E/DX2                !
 ! D163  D(18,17,20,3)        -147.1694         estimate D2E/DX2                !
 ! D164  D(18,17,20,42)        -27.5873         estimate D2E/DX2                !
 ! D165  D(18,17,20,43)         91.7307         estimate D2E/DX2                !
 ! D166  D(30,17,20,3)          83.9228         estimate D2E/DX2                !
 ! D167  D(30,17,20,42)       -156.4951         estimate D2E/DX2                !
 ! D168  D(30,17,20,43)        -37.1772         estimate D2E/DX2                !
 ! D169  D(17,18,19,8)          13.7887         estimate D2E/DX2                !
 ! D170  D(28,18,19,8)        -107.0976         estimate D2E/DX2                !
 ! D171  D(29,18,19,8)         135.9233         estimate D2E/DX2                !
 ! D172  D(17,18,28,53)       -179.3962         estimate D2E/DX2                !
 ! D173  D(17,18,28,54)         60.2407         estimate D2E/DX2                !
 ! D174  D(17,18,28,55)        -61.9138         estimate D2E/DX2                !
 ! D175  D(19,18,28,53)        -62.9749         estimate D2E/DX2                !
 ! D176  D(19,18,28,54)        176.6619         estimate D2E/DX2                !
 ! D177  D(19,18,28,55)         54.5074         estimate D2E/DX2                !
 ! D178  D(29,18,28,53)         54.1083         estimate D2E/DX2                !
 ! D179  D(29,18,28,54)        -66.2548         estimate D2E/DX2                !
 ! D180  D(29,18,28,55)        171.5907         estimate D2E/DX2                !
 ! D181  D(17,18,29,56)       -177.8345         estimate D2E/DX2                !
 ! D182  D(17,18,29,57)        -57.3028         estimate D2E/DX2                !
 ! D183  D(17,18,29,58)         65.0016         estimate D2E/DX2                !
 ! D184  D(19,18,29,56)         64.9802         estimate D2E/DX2                !
 ! D185  D(19,18,29,57)       -174.4881         estimate D2E/DX2                !
 ! D186  D(19,18,29,58)        -52.1837         estimate D2E/DX2                !
 ! D187  D(28,18,29,56)        -51.8565         estimate D2E/DX2                !
 ! D188  D(28,18,29,57)         68.6751         estimate D2E/DX2                !
 ! D189  D(28,18,29,58)       -169.0204         estimate D2E/DX2                !
 ! D190  D(5,22,23,24)          33.1807         estimate D2E/DX2                !
 ! D191  D(5,22,23,25)         154.9282         estimate D2E/DX2                !
 ! D192  D(5,22,23,47)         -81.2622         estimate D2E/DX2                !
 ! D193  D(45,22,23,24)        155.7597         estimate D2E/DX2                !
 ! D194  D(45,22,23,25)        -82.4927         estimate D2E/DX2                !
 ! D195  D(45,22,23,47)         41.3169         estimate D2E/DX2                !
 ! D196  D(46,22,23,24)        -84.2753         estimate D2E/DX2                !
 ! D197  D(46,22,23,25)         37.4722         estimate D2E/DX2                !
 ! D198  D(46,22,23,47)        161.2818         estimate D2E/DX2                !
 ! D199  D(22,23,24,4)         -16.8829         estimate D2E/DX2                !
 ! D200  D(25,23,24,4)        -144.7776         estimate D2E/DX2                !
 ! D201  D(47,23,24,4)          99.3988         estimate D2E/DX2                !
 ! D202  D(22,23,25,26)       -175.4393         estimate D2E/DX2                !
 ! D203  D(22,23,25,27)          6.3204         estimate D2E/DX2                !
 ! D204  D(24,23,25,26)        -55.2765         estimate D2E/DX2                !
 ! D205  D(24,23,25,27)        126.4833         estimate D2E/DX2                !
 ! D206  D(47,23,25,26)         59.9139         estimate D2E/DX2                !
 ! D207  D(47,23,25,27)       -118.3264         estimate D2E/DX2                !
 ! D208  D(23,25,26,48)        -55.2611         estimate D2E/DX2                !
 ! D209  D(23,25,26,49)         64.9378         estimate D2E/DX2                !
 ! D210  D(23,25,26,50)       -175.0268         estimate D2E/DX2                !
 ! D211  D(27,25,26,48)        123.0762         estimate D2E/DX2                !
 ! D212  D(27,25,26,49)       -116.7249         estimate D2E/DX2                !
 ! D213  D(27,25,26,50)          3.3104         estimate D2E/DX2                !
 ! D214  D(23,25,27,51)         -0.3578         estimate D2E/DX2                !
 ! D215  D(23,25,27,52)        179.2776         estimate D2E/DX2                !
 ! D216  D(26,25,27,51)       -178.5186         estimate D2E/DX2                !
 ! D217  D(26,25,27,52)          1.1168         estimate D2E/DX2                !
 --------------------------------------------------------------------------------
 Trust Radius=3.00D-01 FncErr=1.00D-07 GrdErr=1.00D-06
 Number of steps in this run=    390 maximum allowed number of steps=    390.
 GradGradGradGradGradGradGradGradGradGradGradGradGradGradGradGradGradGrad

 Stoichiometry    C26H34O5
 Framework group  C1[X(C26H34O5)]
 Deg. of freedom   189
 Full point group                 C1      NOp   1
 Largest Abelian subgroup         C1      NOp   1
 Largest concise Abelian subgroup C1      NOp   1
                         Standard orientation:                         
 ---------------------------------------------------------------------
 Center     Atomic      Atomic             Coordinates (Angstroms)
 Number     Number       Type             X           Y           Z
 ---------------------------------------------------------------------
      1          6           0       -1.472873    0.896341    3.111243
      2          6           0       -1.475167    1.953472    2.285193
      3          6           0       -1.631479    1.792368    0.791045
      4          6           0       -1.463348    0.347059    0.240085
      5          6           0       -1.107714   -0.775628    1.226988
      6          6           0       -1.637472   -0.516116    2.651972
      7          6           0       -0.442438    0.476472   -0.905358
      8          6           0        0.985413    0.343502   -0.502931
      9          6           0        1.392057   -0.375283    0.549704
     10          6           0        0.384167   -1.136092    1.322513
     11          6           0        2.832535   -0.384790    0.915043
     12          8           0        3.348548    0.656289    1.326510
     13          6           0        3.601259   -1.708936    0.827515
     14          6           0        3.443012   -2.408971   -0.533869
     15          6           0        5.072536   -1.508043    1.199567
     16          8           0        0.755155   -2.068238    2.039185
     17          6           0       -0.441157    1.922509   -1.350006
     18          6           0        0.963311    2.082137   -1.969801
     19          8           0        1.825731    1.184706   -1.225823
     20          6           0       -0.654179    2.663814   -0.019556
     21          8           0       -0.709335   -0.427008   -1.965016
     22          6           0       -1.831072   -1.974975    0.608194
     23          6           0       -3.103112   -1.357441    0.042952
     24          8           0       -2.732802   -0.031460   -0.377872
     25          6           0       -3.790687   -2.054376   -1.109006
     26          6           0       -4.980152   -1.323481   -1.679310
     27          6           0       -3.437609   -3.251788   -1.607479
     28          6           0        1.010123    1.667343   -3.449081
     29          6           0        1.528114    3.501947   -1.852716
     30          1           0       -1.240207    2.158965   -2.062042
     31          1           0       -2.646261    2.140053    0.547100
     32          6           0       -1.414649    3.356193    2.829740
     33          1           0       -1.407580    1.047328    4.187479
     34          1           0       -1.131605   -1.168322    3.374899
     35          1           0       -2.702857   -0.760986    2.738656
     36          1           0        3.177877   -2.368910    1.594078
     37          1           0        3.867239   -3.418552   -0.463118
     38          1           0        2.380742   -2.544532   -0.767742
     39          1           0        5.162354   -1.154292    2.232811
     40          1           0        5.628964   -2.447619    1.119657
     41          1           0        5.557336   -0.762533    0.560486
     42          1           0        0.285870    2.784879    0.532298
     43          1           0       -1.057134    3.668150   -0.192413
     44          1           0       -1.681028   -0.422499   -2.082092
     45          1           0       -2.045414   -2.776019    1.324711
     46          1           0       -1.208662   -2.410324   -0.183566
     47          1           0       -3.839071   -1.238876    0.847835
     48          1           0       -5.707940   -1.108790   -0.889969
     49          1           0       -4.669249   -0.377983   -2.135059
     50          1           0       -5.493977   -1.907664   -2.450335
     51          1           0       -2.606052   -3.828993   -1.218402
     52          1           0       -3.983553   -3.702344   -2.431859
     53          1           0        2.024191    1.784535   -3.849735
     54          1           0        0.329489    2.275256   -4.053939
     55          1           0        0.760806    0.613315   -3.597052
     56          1           0        2.507702    3.570493   -2.340703
     57          1           0        0.861260    4.236153   -2.316129
     58          1           0        1.704440    3.790497   -0.811878
     59          1           0       -1.458952    3.374908    3.924104
     60          1           0       -0.485682    3.850659    2.530469
     61          1           0       -2.260338    3.943742    2.457513
     62          6           0        4.110209   -1.693411   -1.701617
     63          1           0        5.198891   -1.682452   -1.593818
     64          1           0        3.879245   -2.212919   -2.637363
     65          1           0        3.763010   -0.661585   -1.796896
 ---------------------------------------------------------------------
 Rotational constants (GHZ):      0.1966634      0.1308309      0.1246767
 Standard basis: 6-31G(d) (6D, 7F)
 There are   533 symmetry adapted basis functions of A   symmetry.
 Integral buffers will be    131072 words long.
 Raffenetti 2 integral format.
 Two-electron integral symmetry is turned on.
   533 basis functions,  1004 primitive gaussians,   533 cartesian basis functions
   115 alpha electrons      115 beta electrons
       nuclear repulsion energy      3542.3092915875 Hartrees.
 NAtoms=   65 NActive=   65 NUniq=   65 SFac= 1.00D+00 NAtFMM=   50 NAOKFM=T Big=T
 One-electron integrals computed using PRISM.
 NBasis=   533 RedAO= T  NBF=   533
 NBsUse=   533 1.00D-06 NBFU=   533
 Harris functional with IExCor=  402 diagonalized for initial guess.
 ExpMin= 1.61D-01 ExpMax= 5.48D+03 ExpMxC= 8.25D+02 IAcc=1 IRadAn=         1 AccDes= 0.00D+00
 HarFok:  IExCor=  402 AccDes= 0.00D+00 IRadAn=         1 IDoV= 1
 ScaDFX=  1.000000  1.000000  1.000000  1.000000
 FoFCou: FMM=F IPFlag=           0 FMFlag=      100000 FMFlg1=        2001
         NFxFlg=           0 DoJE=T BraDBF=F KetDBF=T FulRan=T
         Omega=  0.000000  0.000000  1.000000  0.000000  0.000000 ICntrl=     500 IOpCl=  0
         NMat0=    1 NMatS0=    1 NMatT0=    0 NMatD0=    1 NMtDS0=    0 NMtDT0=    0
         I1Cent=           4 NGrid=           0.
 Petite list used in FoFCou.
 Initial guess orbital symmetries:
       Occupied  (A) (A) (A) (A) (A) (A) (A) (A) (A) (A) (A) (A)
                 (A) (A) (A) (A) (A) (A) (A) (A) (A) (A) (A) (A)
                 (A) (A) (A) (A) (A) (A) (A) (A) (A) (A) (A) (A)
                 (A) (A) (A) (A) (A) (A) (A) (A) (A) (A) (A) (A)
                 (A) (A) (A) (A) (A) (A) (A) (A) (A) (A) (A) (A)
                 (A) (A) (A) (A) (A) (A) (A) (A) (A) (A) (A) (A)
                 (A) (A) (A) (A) (A) (A) (A) (A) (A) (A) (A) (A)
                 (A) (A) (A) (A) (A) (A) (A) (A) (A) (A) (A) (A)
                 (A) (A) (A) (A) (A) (A) (A) (A) (A) (A) (A) (A)
                 (A) (A) (A) (A) (A) (A) (A)
       Virtual   (A) (A) (A) (A) (A) (A) (A) (A) (A) (A) (A) (A)
                 (A) (A) (A) (A) (A) (A) (A) (A) (A) (A) (A) (A)
                 (A) (A) (A) (A) (A) (A) (A) (A) (A) (A) (A) (A)
                 (A) (A) (A) (A) (A) (A) (A) (A) (A) (A) (A) (A)
                 (A) (A) (A) (A) (A) (A) (A) (A) (A) (A) (A) (A)
                 (A) (A) (A) (A) (A) (A) (A) (A) (A) (A) (A) (A)
                 (A) (A) (A) (A) (A) (A) (A) (A) (A) (A) (A) (A)
                 (A) (A) (A) (A) (A) (A) (A) (A) (A) (A) (A) (A)
                 (A) (A) (A) (A) (A) (A) (A) (A) (A) (A) (A) (A)
                 (A) (A) (A) (A) (A) (A) (A) (A) (A) (A) (A) (A)
                 (A) (A) (A) (A) (A) (A) (A) (A) (A) (A) (A) (A)
                 (A) (A) (A) (A) (A) (A) (A) (A) (A) (A) (A) (A)
                 (A) (A) (A) (A) (A) (A) (A) (A) (A) (A) (A) (A)
                 (A) (A) (A) (A) (A) (A) (A) (A) (A) (A) (A) (A)
                 (A) (A) (A) (A) (A) (A) (A) (A) (A) (A) (A) (A)
                 (A) (A) (A) (A) (A) (A) (A) (A) (A) (A) (A) (A)
                 (A) (A) (A) (A) (A) (A) (A) (A) (A) (A) (A) (A)
                 (A) (A) (A) (A) (A) (A) (A) (A) (A) (A) (A) (A)
                 (A) (A) (A) (A) (A) (A) (A) (A) (A) (A) (A) (A)
                 (A) (A) (A) (A) (A) (A) (A) (A) (A) (A) (A) (A)
                 (A) (A) (A) (A) (A) (A) (A) (A) (A) (A) (A) (A)
                 (A) (A) (A) (A) (A) (A) (A) (A) (A) (A) (A) (A)
                 (A) (A) (A) (A) (A) (A) (A) (A) (A) (A) (A) (A)
                 (A) (A) (A) (A) (A) (A) (A) (A) (A) (A) (A) (A)
                 (A) (A) (A) (A) (A) (A) (A) (A) (A) (A) (A) (A)
                 (A) (A) (A) (A) (A) (A) (A) (A) (A) (A) (A) (A)
                 (A) (A) (A) (A) (A) (A) (A) (A) (A) (A) (A) (A)
                 (A) (A) (A) (A) (A) (A) (A) (A) (A) (A) (A) (A)
                 (A) (A) (A) (A) (A) (A) (A) (A) (A) (A) (A) (A)
                 (A) (A) (A) (A) (A) (A) (A) (A) (A) (A) (A) (A)
                 (A) (A) (A) (A) (A) (A) (A) (A) (A) (A) (A) (A)
                 (A) (A) (A) (A) (A) (A) (A) (A) (A) (A) (A) (A)
                 (A) (A) (A) (A) (A) (A) (A) (A) (A) (A) (A) (A)
                 (A) (A) (A) (A) (A) (A) (A) (A) (A) (A) (A) (A)
                 (A) (A) (A) (A) (A) (A) (A) (A) (A) (A)
 The electronic state of the initial guess is 1-A.
 Requested convergence on RMS density matrix=1.00D-08 within 128 cycles.
 Requested convergence on MAX density matrix=1.00D-06.
 Requested convergence on             energy=1.00D-06.
 No special actions if energy rises.
 Integral accuracy reduced to 1.0D-05 until final iterations.
 Initial convergence to 1.0D-05 achieved.  Increase integral accuracy.
 SCF Done:  E(RB3LYP) =  -1387.30450986     A.U. after   16 cycles
             Convg  =    0.4766D-08             -V/T =  2.0091

 **********************************************************************

            Population analysis using the SCF density.

 **********************************************************************

 Orbital symmetries:
       Occupied  (A) (A) (A) (A) (A) (A) (A) (A) (A) (A) (A) (A)
                 (A) (A) (A) (A) (A) (A) (A) (A) (A) (A) (A) (A)
                 (A) (A) (A) (A) (A) (A) (A) (A) (A) (A) (A) (A)
                 (A) (A) (A) (A) (A) (A) (A) (A) (A) (A) (A) (A)
                 (A) (A) (A) (A) (A) (A) (A) (A) (A) (A) (A) (A)
                 (A) (A) (A) (A) (A) (A) (A) (A) (A) (A) (A) (A)
                 (A) (A) (A) (A) (A) (A) (A) (A) (A) (A) (A) (A)
                 (A) (A) (A) (A) (A) (A) (A) (A) (A) (A) (A) (A)
                 (A) (A) (A) (A) (A) (A) (A) (A) (A) (A) (A) (A)
                 (A) (A) (A) (A) (A) (A) (A)
       Virtual   (A) (A) (A) (A) (A) (A) (A) (A) (A) (A) (A) (A)
                 (A) (A) (A) (A) (A) (A) (A) (A) (A) (A) (A) (A)
                 (A) (A) (A) (A) (A) (A) (A) (A) (A) (A) (A) (A)
                 (A) (A) (A) (A) (A) (A) (A) (A) (A) (A) (A) (A)
                 (A) (A) (A) (A) (A) (A) (A) (A) (A) (A) (A) (A)
                 (A) (A) (A) (A) (A) (A) (A) (A) (A) (A) (A) (A)
                 (A) (A) (A) (A) (A) (A) (A) (A) (A) (A) (A) (A)
                 (A) (A) (A) (A) (A) (A) (A) (A) (A) (A) (A) (A)
                 (A) (A) (A) (A) (A) (A) (A) (A) (A) (A) (A) (A)
                 (A) (A) (A) (A) (A) (A) (A) (A) (A) (A) (A) (A)
                 (A) (A) (A) (A) (A) (A) (A) (A) (A) (A) (A) (A)
                 (A) (A) (A) (A) (A) (A) (A) (A) (A) (A) (A) (A)
                 (A) (A) (A) (A) (A) (A) (A) (A) (A) (A) (A) (A)
                 (A) (A) (A) (A) (A) (A) (A) (A) (A) (A) (A) (A)
                 (A) (A) (A) (A) (A) (A) (A) (A) (A) (A) (A) (A)
                 (A) (A) (A) (A) (A) (A) (A) (A) (A) (A) (A) (A)
                 (A) (A) (A) (A) (A) (A) (A) (A) (A) (A) (A) (A)
                 (A) (A) (A) (A) (A) (A) (A) (A) (A) (A) (A) (A)
                 (A) (A) (A) (A) (A) (A) (A) (A) (A) (A) (A) (A)
                 (A) (A) (A) (A) (A) (A) (A) (A) (A) (A) (A) (A)
                 (A) (A) (A) (A) (A) (A) (A) (A) (A) (A) (A) (A)
                 (A) (A) (A) (A) (A) (A) (A) (A) (A) (A) (A) (A)
                 (A) (A) (A) (A) (A) (A) (A) (A) (A) (A) (A) (A)
                 (A) (A) (A) (A) (A) (A) (A) (A) (A) (A) (A) (A)
                 (A) (A) (A) (A) (A) (A) (A) (A) (A) (A) (A) (A)
                 (A) (A) (A) (A) (A) (A) (A) (A) (A) (A) (A) (A)
                 (A) (A) (A) (A) (A) (A) (A) (A) (A) (A) (A) (A)
                 (A) (A) (A) (A) (A) (A) (A) (A) (A) (A) (A) (A)
                 (A) (A) (A) (A) (A) (A) (A) (A) (A) (A) (A) (A)
                 (A) (A) (A) (A) (A) (A) (A) (A) (A) (A) (A) (A)
                 (A) (A) (A) (A) (A) (A) (A) (A) (A) (A) (A) (A)
                 (A) (A) (A) (A) (A) (A) (A) (A) (A) (A) (A) (A)
                 (A) (A) (A) (A) (A) (A) (A) (A) (A) (A) (A) (A)
                 (A) (A) (A) (A) (A) (A) (A) (A) (A) (A) (A) (A)
                 (A) (A) (A) (A) (A) (A) (A) (A) (A) (A)
 The electronic state is 1-A.
 Alpha  occ. eigenvalues --  -19.19390 -19.16766 -19.15384 -19.13580 -19.13055
 Alpha  occ. eigenvalues --  -10.28099 -10.26966 -10.26819 -10.25899 -10.25897
 Alpha  occ. eigenvalues --  -10.25459 -10.25060 -10.21691 -10.20684 -10.20219
 Alpha  occ. eigenvalues --  -10.20041 -10.19610 -10.19532 -10.19354 -10.19294
 Alpha  occ. eigenvalues --  -10.19175 -10.18796 -10.18714 -10.18331 -10.18322
 Alpha  occ. eigenvalues --  -10.18039 -10.18001 -10.17533 -10.17414 -10.16148
 Alpha  occ. eigenvalues --  -10.15839  -1.08334  -1.05996  -1.03419  -1.02325
 Alpha  occ. eigenvalues --   -1.02063  -0.87400  -0.83911  -0.82581  -0.81703
 Alpha  occ. eigenvalues --   -0.80392  -0.79655  -0.76814  -0.74426  -0.73629
 Alpha  occ. eigenvalues --   -0.71962  -0.71382  -0.69386  -0.69196  -0.67887
 Alpha  occ. eigenvalues --   -0.65607  -0.64311  -0.63467  -0.61840  -0.60827
 Alpha  occ. eigenvalues --   -0.59421  -0.58813  -0.57338  -0.54820  -0.53658
 Alpha  occ. eigenvalues --   -0.53020  -0.52084  -0.50986  -0.50426  -0.49162
 Alpha  occ. eigenvalues --   -0.48119  -0.47305  -0.46620  -0.46106  -0.45846
 Alpha  occ. eigenvalues --   -0.45070  -0.44989  -0.44641  -0.43859  -0.43479
 Alpha  occ. eigenvalues --   -0.42957  -0.42867  -0.42040  -0.41743  -0.41494
 Alpha  occ. eigenvalues --   -0.40938  -0.40785  -0.40246  -0.39688  -0.39182
 Alpha  occ. eigenvalues --   -0.38882  -0.38422  -0.38192  -0.37988  -0.37390
 Alpha  occ. eigenvalues --   -0.37241  -0.37159  -0.36998  -0.36730  -0.36617
 Alpha  occ. eigenvalues --   -0.36461  -0.35745  -0.35237  -0.34616  -0.34004
 Alpha  occ. eigenvalues --   -0.33640  -0.33273  -0.33207  -0.32466  -0.32153
 Alpha  occ. eigenvalues --   -0.31391  -0.31328  -0.31159  -0.27904  -0.26563
 Alpha  occ. eigenvalues --   -0.26100  -0.25222  -0.24535  -0.23402  -0.23170
 Alpha virt. eigenvalues --   -0.05296  -0.01532   0.00352   0.02205   0.04019
 Alpha virt. eigenvalues --    0.06963   0.08602   0.08956   0.09259   0.10180
 Alpha virt. eigenvalues --    0.10495   0.10799   0.11454   0.11916   0.12419
 Alpha virt. eigenvalues --    0.13004   0.13211   0.13533   0.13926   0.14280
 Alpha virt. eigenvalues --    0.14530   0.14772   0.15040   0.15425   0.15950
 Alpha virt. eigenvalues --    0.16072   0.16642   0.16911   0.17197   0.17450
 Alpha virt. eigenvalues --    0.17994   0.18278   0.18547   0.19047   0.19230
 Alpha virt. eigenvalues --    0.19355   0.19720   0.20081   0.20350   0.20517
 Alpha virt. eigenvalues --    0.20851   0.21116   0.21693   0.21928   0.22214
 Alpha virt. eigenvalues --    0.22976   0.23544   0.23751   0.23949   0.24905
 Alpha virt. eigenvalues --    0.24996   0.25531   0.26081   0.26444   0.26587
 Alpha virt. eigenvalues --    0.27174   0.27587   0.28186   0.28936   0.29713
 Alpha virt. eigenvalues --    0.31499   0.32277   0.32424   0.33604   0.34482
 Alpha virt. eigenvalues --    0.34936   0.36281   0.37441   0.38759   0.39565
 Alpha virt. eigenvalues --    0.42025   0.45337   0.46612   0.48047   0.48362
 Alpha virt. eigenvalues --    0.49562   0.50746   0.51044   0.51429   0.51921
 Alpha virt. eigenvalues --    0.52061   0.52337   0.52874   0.53308   0.54283
 Alpha virt. eigenvalues --    0.54398   0.54556   0.55348   0.55702   0.57205
 Alpha virt. eigenvalues --    0.57373   0.57701   0.57965   0.58926   0.59168
 Alpha virt. eigenvalues --    0.59888   0.60570   0.61325   0.61735   0.62404
 Alpha virt. eigenvalues --    0.62759   0.63013   0.63287   0.64236   0.64460
 Alpha virt. eigenvalues --    0.65348   0.65810   0.66707   0.67260   0.67400
 Alpha virt. eigenvalues --    0.67725   0.68289   0.68905   0.69129   0.69512
 Alpha virt. eigenvalues --    0.69997   0.71081   0.71944   0.72831   0.73467
 Alpha virt. eigenvalues --    0.73975   0.74689   0.75071   0.75683   0.76020
 Alpha virt. eigenvalues --    0.76883   0.77760   0.78644   0.80068   0.80227
 Alpha virt. eigenvalues --    0.80658   0.80900   0.81492   0.81771   0.82521
 Alpha virt. eigenvalues --    0.82877   0.83156   0.83909   0.84276   0.84631
 Alpha virt. eigenvalues --    0.85848   0.86095   0.86584   0.86911   0.87133
 Alpha virt. eigenvalues --    0.87164   0.87861   0.88263   0.88625   0.89277
 Alpha virt. eigenvalues --    0.89627   0.90165   0.90310   0.90592   0.90737
 Alpha virt. eigenvalues --    0.91021   0.91245   0.91398   0.91725   0.92339
 Alpha virt. eigenvalues --    0.92890   0.93358   0.93872   0.94513   0.94573
 Alpha virt. eigenvalues --    0.95493   0.95764   0.96366   0.96732   0.96956
 Alpha virt. eigenvalues --    0.97442   0.98227   0.98657   0.99473   0.99920
 Alpha virt. eigenvalues --    1.00665   1.01323   1.02403   1.02971   1.03489
 Alpha virt. eigenvalues --    1.04360   1.05121   1.05963   1.06245   1.07910
 Alpha virt. eigenvalues --    1.08518   1.08862   1.09584   1.11112   1.11611
 Alpha virt. eigenvalues --    1.13354   1.13637   1.14456   1.16399   1.16677
 Alpha virt. eigenvalues --    1.17800   1.18084   1.18358   1.18937   1.20304
 Alpha virt. eigenvalues --    1.22963   1.23281   1.24111   1.25234   1.25435
 Alpha virt. eigenvalues --    1.26552   1.29839   1.30571   1.31649   1.31895
 Alpha virt. eigenvalues --    1.35144   1.36388   1.36652   1.38168   1.40247
 Alpha virt. eigenvalues --    1.40820   1.41934   1.43369   1.44272   1.45174
 Alpha virt. eigenvalues --    1.47841   1.49394   1.49826   1.51647   1.53223
 Alpha virt. eigenvalues --    1.54152   1.55665   1.56550   1.57752   1.58980
 Alpha virt. eigenvalues --    1.60322   1.61326   1.62709   1.63179   1.64193
 Alpha virt. eigenvalues --    1.65329   1.66399   1.67056   1.67622   1.69311
 Alpha virt. eigenvalues --    1.70993   1.71656   1.72291   1.73373   1.74080
 Alpha virt. eigenvalues --    1.74570   1.75275   1.76885   1.77271   1.78508
 Alpha virt. eigenvalues --    1.79271   1.79802   1.80638   1.81044   1.82280
 Alpha virt. eigenvalues --    1.82548   1.83518   1.83744   1.83963   1.85223
 Alpha virt. eigenvalues --    1.85717   1.86148   1.86571   1.87400   1.88319
 Alpha virt. eigenvalues --    1.88832   1.89707   1.90435   1.90953   1.91701
 Alpha virt. eigenvalues --    1.92224   1.92914   1.93984   1.95132   1.95588
 Alpha virt. eigenvalues --    1.96443   1.96781   1.97494   1.97885   1.98573
 Alpha virt. eigenvalues --    1.99188   2.00488   2.00608   2.01275   2.03015
 Alpha virt. eigenvalues --    2.03234   2.03624   2.04418   2.06052   2.06715
 Alpha virt. eigenvalues --    2.06934   2.07722   2.08462   2.09289   2.10070
 Alpha virt. eigenvalues --    2.10433   2.12019   2.12558   2.13030   2.13714
 Alpha virt. eigenvalues --    2.14075   2.14731   2.15952   2.16685   2.16993
 Alpha virt. eigenvalues --    2.18949   2.20397   2.21303   2.22171   2.23312
 Alpha virt. eigenvalues --    2.23770   2.24508   2.25435   2.26083   2.27692
 Alpha virt. eigenvalues --    2.28928   2.29376   2.30447   2.31102   2.31446
 Alpha virt. eigenvalues --    2.32319   2.33696   2.33965   2.34231   2.35041
 Alpha virt. eigenvalues --    2.35649   2.36821   2.37455   2.38584   2.39697
 Alpha virt. eigenvalues --    2.40276   2.41470   2.42029   2.43196   2.43731
 Alpha virt. eigenvalues --    2.44304   2.45428   2.45884   2.48267   2.49289
 Alpha virt. eigenvalues --    2.50282   2.50343   2.51988   2.52782   2.54283
 Alpha virt. eigenvalues --    2.56761   2.57898   2.58358   2.59105   2.59815
 Alpha virt. eigenvalues --    2.61180   2.61611   2.63282   2.63522   2.65566
 Alpha virt. eigenvalues --    2.66809   2.67453   2.69071   2.69767   2.70925
 Alpha virt. eigenvalues --    2.71661   2.73435   2.74905   2.77133   2.79272
 Alpha virt. eigenvalues --    2.79341   2.81341   2.82552   2.83128   2.85617
 Alpha virt. eigenvalues --    2.87205   2.89540   2.92535   2.95448   2.95634
 Alpha virt. eigenvalues --    2.96721   3.00326   3.01115   3.01998   3.03483
 Alpha virt. eigenvalues --    3.06123   3.07483   3.12873   3.18291   3.21239
 Alpha virt. eigenvalues --    3.23156   3.29707   4.00445   4.06631   4.09165
 Alpha virt. eigenvalues --    4.12484   4.14629   4.16018   4.16995   4.20011
 Alpha virt. eigenvalues --    4.22745   4.24537   4.26144   4.28443   4.31052
 Alpha virt. eigenvalues --    4.32298   4.35632   4.38150   4.40465   4.45064
 Alpha virt. eigenvalues --    4.46237   4.51391   4.53602   4.55933   4.60694
 Alpha virt. eigenvalues --    4.63449   4.64242   4.69619   4.73277   4.82080
 Alpha virt. eigenvalues --    4.91342   5.02639   5.19430
          Condensed to atoms (all electrons):
 Mulliken atomic charges:
              1
     1  C   -0.193981
     2  C    0.191223
     3  C   -0.186157
     4  C    0.322638
     5  C   -0.044293
     6  C   -0.331412
     7  C    0.213243
     8  C    0.400496
     9  C   -0.084295
    10  C    0.418913
    11  C    0.417694
    12  O   -0.453700
    13  C   -0.171459
    14  C   -0.266082
    15  C   -0.444638
    16  O   -0.503590
    17  C   -0.164726
    18  C    0.312858
    19  O   -0.529776
    20  C   -0.322249
    21  O   -0.660166
    22  C   -0.324962
    23  C    0.105447
    24  O   -0.584964
    25  C    0.178221
    26  C   -0.504726
    27  C   -0.392086
    28  C   -0.463121
    29  C   -0.462317
    30  H    0.142915
    31  H    0.163493
    32  C   -0.517862
    33  H    0.123538
    34  H    0.177971
    35  H    0.152288
    36  H    0.183388
    37  H    0.136094
    38  H    0.142612
    39  H    0.153381
    40  H    0.132656
    41  H    0.156154
    42  H    0.175632
    43  H    0.147449
    44  H    0.410776
    45  H    0.167655
    46  H    0.171483
    47  H    0.136390
    48  H    0.154667
    49  H    0.165926
    50  H    0.153693
    51  H    0.149120
    52  H    0.142815
    53  H    0.150271
    54  H    0.138292
    55  H    0.183966
    56  H    0.159019
    57  H    0.147452
    58  H    0.165025
    59  H    0.158021
    60  H    0.162957
    61  H    0.148626
    62  C   -0.457090
    63  H    0.147090
    64  H    0.139667
    65  H    0.162438
 Sum of Mulliken atomic charges =   0.00000
 Mulliken charges with hydrogens summed into heavy atoms:
              1
     1  C   -0.070443
     2  C    0.191223
     3  C   -0.022664
     4  C    0.322638
     5  C   -0.044293
     6  C   -0.001153
     7  C    0.213243
     8  C    0.400496
     9  C   -0.084295
    10  C    0.418913
    11  C    0.417694
    12  O   -0.453700
    13  C    0.011929
    14  C    0.012625
    15  C   -0.002447
    16  O   -0.503590
    17  C   -0.021811
    18  C    0.312858
    19  O   -0.529776
    20  C    0.000832
    21  O   -0.249391
    22  C    0.014175
    23  C    0.241837
    24  O   -0.584964
    25  C    0.178221
    26  C   -0.030440
    27  C   -0.100152
    28  C    0.009408
    29  C    0.009178
    32  C   -0.048258
    62  C   -0.007894
 Sum of Mulliken charges with hydrogens summed into heavy atoms =   0.00000
 Electronic spatial extent (au):  <R**2>=          11079.8803
 Charge=              0.0000 electrons
 Dipole moment (field-independent basis, Debye):
    X=             -4.6173    Y=              1.4138    Z=             -1.9874  Tot=              5.2218
 Quadrupole moment (field-independent basis, Debye-Ang):
   XX=           -186.2470   YY=           -177.6800   ZZ=           -183.5364
   XY=             -2.1926   XZ=             -4.8837   YZ=             -0.6689
 Traceless Quadrupole moment (field-independent basis, Debye-Ang):
   XX=             -3.7592   YY=              4.8078   ZZ=             -1.0486
   XY=             -2.1926   XZ=             -4.8837   YZ=             -0.6689
 Octapole moment (field-independent basis, Debye-Ang**2):
  XXX=            -41.2207  YYY=             24.4280  ZZZ=             -3.9585  XYY=             -7.1173
  XXY=            -34.9070  XXZ=            -26.1800  XZZ=            -20.8702  YZZ=             16.9130
  YYZ=            -24.1457  XYZ=            -10.1895
 Hexadecapole moment (field-independent basis, Debye-Ang**3):
 XXXX=          -7461.0183 YYYY=          -3971.9517 ZZZZ=          -3352.9876 XXXY=            -27.1365
 XXXZ=             21.2964 YYYX=              7.2443 YYYZ=             13.1070 ZZZX=             13.8543
 ZZZY=             -0.2210 XXYY=          -1878.5578 XXZZ=          -1786.3930 YYZZ=          -1223.9575
 XXYZ=            -14.2753 YYXZ=              9.3329 ZZXY=             31.6047
 N-N= 3.542309291587D+03 E-N=-1.031103199784D+04  KE= 1.374745334872D+03
 Calling FoFJK, ICntrl=      2127 FMM=T ISym2X=0 I1Cent= 0 IOpClX= 0 NMat=1 NMatS=1 NMatT=0.
 ***** Axes restored to original set *****
 -------------------------------------------------------------------
 Center     Atomic                   Forces (Hartrees/Bohr)
 Number     Number              X              Y              Z
 -------------------------------------------------------------------
      1        6           0.009641199   -0.000501095    0.000317381
      2        6          -0.012360397   -0.005050531    0.001986119
      3        6          -0.001009696   -0.007984255   -0.000447232
      4        6           0.003425625   -0.004328850    0.010796656
      5        6          -0.011174837   -0.002697597    0.001039244
      6        6          -0.004407902   -0.010731898   -0.000987658
      7        6           0.010531343    0.020164258    0.009293493
      8        6           0.013807428   -0.013691234   -0.016370545
      9        6          -0.001453739    0.006580700    0.008653704
     10        6          -0.007189094    0.001598970   -0.021387331
     11        6          -0.006319617   -0.023148666   -0.017409658
     12        8          -0.008073317    0.019307541    0.004786879
     13        6           0.000069893   -0.003804301   -0.008898101
     14        6          -0.001300009    0.004892921    0.003926680
     15        6           0.001727505   -0.006329103   -0.002567463
     16        8           0.006895285   -0.003425140    0.011267154
     17        6           0.007854046   -0.010882881   -0.005789420
     18        6           0.032021749    0.008110460    0.000158338
     19        8          -0.029011704    0.002066374    0.026809637
     20        6           0.011178632   -0.004800011    0.000039011
     21        8          -0.005611122    0.006931500   -0.002629575
     22        6          -0.007426194    0.013743073    0.001319638
     23        6          -0.004862881    0.007984595    0.000694675
     24        8           0.001670722   -0.006128509   -0.009484463
     25        6          -0.002981787    0.014704750    0.001256640
     26        6           0.001304264    0.001779075    0.000242217
     27        6           0.001081635   -0.010017181   -0.001442803
     28        6          -0.002796856    0.007919991   -0.004772813
     29        6          -0.003545954   -0.006551654   -0.009145849
     30        1          -0.001696193    0.001059922   -0.001666551
     31        1          -0.003336964    0.006010764   -0.000064408
     32        6          -0.001129360    0.000688177   -0.001065619
     33        1           0.001449739   -0.000881237   -0.000074545
     34        1           0.000458920    0.007342411   -0.001491870
     35        1          -0.000634079    0.005608772    0.001850551
     36        1           0.001595963    0.001132786    0.007248907
     37        1          -0.002070814   -0.001698685    0.000855396
     38        1          -0.001387029   -0.001225528    0.001475366
     39        1           0.001178222    0.000650159   -0.000312861
     40        1          -0.000435756    0.001680333    0.000508679
     41        1          -0.000916189   -0.000209107    0.000065360
     42        1           0.000015553    0.002834321   -0.000337354
     43        1          -0.001236663   -0.001927347   -0.001419480
     44        1          -0.002025703   -0.003668906   -0.002564730
     45        1           0.001468514   -0.003019729   -0.001311002
     46        1           0.002088362    0.000295106    0.003576414
     47        1          -0.001902886   -0.001246177    0.003055798
     48        1           0.002574014   -0.002696165    0.001711748
     49        1           0.001020156   -0.003316160    0.002315882
     50        1          -0.001417982   -0.000158770   -0.001695770
     51        1          -0.000270340   -0.000353158   -0.001402362
     52        1          -0.000030774   -0.000583861    0.001064299
     53        1           0.002027638   -0.003888204    0.000479847
     54        1           0.000544809   -0.000853040    0.000140109
     55        1          -0.001257686   -0.002741368    0.005375102
     56        1           0.000449727    0.002783330    0.001553804
     57        1          -0.000756071    0.001344219    0.000736170
     58        1          -0.000370333    0.000193856    0.003550091
     59        1          -0.001101867    0.001793620   -0.000617607
     60        1           0.004214817   -0.001616003    0.000338567
     61        1           0.004074169   -0.001138426    0.000104784
     62        6           0.002503908    0.002543968   -0.002367946
     63        1           0.001390706   -0.000537486   -0.000696898
     64        1           0.001046207    0.000791191   -0.000336447
     65        1           0.002191049   -0.000704877    0.000164021
 -------------------------------------------------------------------
 Cartesian Forces:  Max     0.032021749 RMS     0.006791663

 GradGradGradGradGradGradGradGradGradGradGradGradGradGradGradGradGradGrad
 Berny optimization.
 Internal  Forces:  Max     0.021392478 RMS     0.003412704
 Search for a local minimum.
 Step number   1 out of a maximum of  390
 All quantities printed in internal units (Hartrees-Bohrs-Radians)
 Mixed Optimization -- RFO/linear search
 Second derivative matrix not updated -- first step.
 ITU=  0
     Eigenvalues ---    0.00250   0.00276   0.00321   0.00336   0.00358
     Eigenvalues ---    0.00427   0.00456   0.00545   0.00568   0.00610
     Eigenvalues ---    0.00612   0.00659   0.00685   0.00688   0.00731
     Eigenvalues ---    0.00950   0.01081   0.01244   0.01245   0.01403
     Eigenvalues ---    0.01455   0.01604   0.01706   0.01796   0.01920
     Eigenvalues ---    0.02507   0.02827   0.02827   0.03031   0.03116
     Eigenvalues ---    0.03308   0.03500   0.03597   0.03745   0.04031
     Eigenvalues ---    0.04112   0.04318   0.04404   0.04585   0.04644
     Eigenvalues ---    0.04766   0.04803   0.04926   0.05095   0.05247
     Eigenvalues ---    0.05307   0.05382   0.05406   0.05419   0.05456
     Eigenvalues ---    0.05493   0.05503   0.05550   0.05580   0.05624
     Eigenvalues ---    0.05699   0.05770   0.05927   0.06273   0.06637
     Eigenvalues ---    0.06695   0.06863   0.07089   0.07112   0.07162
     Eigenvalues ---    0.07247   0.07249   0.07366   0.07649   0.08385
     Eigenvalues ---    0.08707   0.08819   0.09015   0.09173   0.09798
     Eigenvalues ---    0.10095   0.10645   0.10889   0.11634   0.12471
     Eigenvalues ---    0.13178   0.14698   0.15189   0.15969   0.16000
     Eigenvalues ---    0.16000   0.16000   0.16000   0.16000   0.16000
     Eigenvalues ---    0.16000   0.16000   0.16000   0.16000   0.16000
     Eigenvalues ---    0.16000   0.16000   0.16000   0.16000   0.16000
     Eigenvalues ---    0.16000   0.16000   0.16000   0.16000   0.16000
     Eigenvalues ---    0.16440   0.17239   0.17264   0.18333   0.18524
     Eigenvalues ---    0.19712   0.21561   0.21932   0.22723   0.23568
     Eigenvalues ---    0.24525   0.24928   0.24973   0.24987   0.24993
     Eigenvalues ---    0.24999   0.25000   0.25000   0.25916   0.27248
     Eigenvalues ---    0.27421   0.27701   0.27788   0.28111   0.28260
     Eigenvalues ---    0.28610   0.28659   0.28782   0.29092   0.29193
     Eigenvalues ---    0.29347   0.30039   0.30403   0.30558   0.31172
     Eigenvalues ---    0.31545   0.31763   0.31792   0.33165   0.33673
     Eigenvalues ---    0.33879   0.33974   0.33991   0.33996   0.34010
     Eigenvalues ---    0.34043   0.34058   0.34062   0.34066   0.34066
     Eigenvalues ---    0.34114   0.34120   0.34139   0.34142   0.34150
     Eigenvalues ---    0.34194   0.34203   0.34230   0.34245   0.34250
     Eigenvalues ---    0.34251   0.34253   0.34259   0.34268   0.34277
     Eigenvalues ---    0.34310   0.34344   0.34348   0.34448   0.34487
     Eigenvalues ---    0.34959   0.35211   0.35312   0.35462   0.36465
     Eigenvalues ---    0.37316   0.42781   0.43660   0.51632   0.53266
     Eigenvalues ---    0.54286   0.56269   0.89872   0.89992
 RFO step:  Lambda=-2.15764000D-02 EMin= 2.50331508D-03
 Linear search not attempted -- first point.
 Iteration  1 RMS(Cart)=  0.03600105 RMS(Int)=  0.00062572
 Iteration  2 RMS(Cart)=  0.00098069 RMS(Int)=  0.00026754
 Iteration  3 RMS(Cart)=  0.00000055 RMS(Int)=  0.00026754
 Variable       Old X    -DE/DX   Delta X   Delta X   Delta X     New X
                                 (Linear)    (Quad)   (Total)
    R1        2.53526  -0.00265   0.00000  -0.00558  -0.00559   2.52966
    R2        2.82390   0.00857   0.00000   0.02520   0.02514   2.84904
    R3        2.05741   0.00004   0.00000   0.00010   0.00010   2.05751
    R4        2.85522   0.00366   0.00000   0.00798   0.00803   2.86325
    R5        2.84579   0.00325   0.00000   0.00957   0.00957   2.85536
    R6        2.94017   0.00499   0.00000   0.01212   0.01200   2.95218
    R7        2.91018   0.01099   0.00000   0.03752   0.03747   2.94765
    R8        2.07885  -0.00080   0.00000  -0.00224  -0.00224   2.07661
    R9        2.90359   0.00892   0.00000   0.02867   0.02848   2.93208
   R10        2.90984   0.00715   0.00000   0.02409   0.02426   2.93410
   R11        2.76227  -0.00445   0.00000  -0.01044  -0.01046   2.75182
   R12        2.91445  -0.00011   0.00000   0.00245   0.00237   2.91682
   R13        2.90598   0.00607   0.00000   0.01334   0.01329   2.91927
   R14        2.89356   0.01246   0.00000   0.04040   0.04042   2.93397
   R15        2.07345  -0.00127   0.00000  -0.00351  -0.00351   2.06994
   R16        2.07226   0.00299   0.00000   0.00824   0.00824   2.08051
   R17        2.81461   0.00922   0.00000   0.02019   0.01981   2.83442
   R18        2.85889   0.01530   0.00000   0.05504   0.05457   2.91345
   R19        2.67941   0.00321   0.00000   0.00715   0.00715   2.68655
   R20        2.52832   0.01302   0.00000   0.02285   0.02286   2.55117
   R21        2.62959  -0.02139   0.00000  -0.05016  -0.04994   2.57966
   R22        2.79776  -0.00108   0.00000  -0.00674  -0.00656   2.79120
   R23        2.80835   0.01615   0.00000   0.04481   0.04481   2.85316
   R24        2.32992  -0.00984   0.00000  -0.01069  -0.01069   2.31923
   R25        2.32937  -0.02123   0.00000  -0.02304  -0.02304   2.30632
   R26        2.89810  -0.00453   0.00000  -0.01449  -0.01449   2.88362
   R27        2.90825   0.00440   0.00000   0.01429   0.01429   2.92253
   R28        2.89285   0.00367   0.00000   0.01166   0.01166   2.90450
   R29        2.07219   0.00135   0.00000   0.00374   0.00374   2.07593
   R30        2.07373   0.00041   0.00000   0.00114   0.00114   2.07488
   R31        2.07138   0.00089   0.00000   0.00244   0.00244   2.07382
   R32        2.87885   0.00809   0.00000   0.02512   0.02512   2.90397
   R33        2.07078  -0.00101   0.00000  -0.00279  -0.00279   2.06799
   R34        2.06906   0.00086   0.00000   0.00236   0.00236   2.07142
   R35        2.06944  -0.00085   0.00000  -0.00233  -0.00233   2.06711
   R36        2.91665  -0.00103   0.00000   0.00884   0.00907   2.92572
   R37        2.90613   0.00419   0.00000   0.01443   0.01449   2.92063
   R38        2.07129  -0.00161   0.00000  -0.00443  -0.00443   2.06686
[...]
     54          1           0        0.318153    2.798267   -3.900316
     55          1           0        0.456974    1.061723   -3.542002
     56          1           0        2.447043    3.793522   -1.991983
     57          1           0        0.828748    4.520197   -2.016599
     58          1           0        1.526417    3.935190   -0.488916
     59          1           0       -1.614916    3.025907    4.164205
     60          1           0       -0.769583    3.712286    2.768552
     61          1           0       -2.530371    3.667747    2.787196
     62          6           0        4.255008   -1.499391   -1.773748
     63          1           0        5.327631   -1.398433   -1.575811
     64          1           0        4.143909   -1.971306   -2.756838
     65          1           0        3.833302   -0.489792   -1.838991
 ---------------------------------------------------------------------
 Rotational constants (GHZ):      0.1919839      0.1304065      0.1226974

 **********************************************************************

            Population analysis using the SCF density.

 **********************************************************************

 Orbital symmetries:
       Occupied  (A) (A) (A) (A) (A) (A) (A) (A) (A) (A) (A) (A)
                 (A) (A) (A) (A) (A) (A) (A) (A) (A) (A) (A) (A)
                 (A) (A) (A) (A) (A) (A) (A) (A) (A) (A) (A) (A)
                 (A) (A) (A) (A) (A) (A) (A) (A) (A) (A) (A) (A)
                 (A) (A) (A) (A) (A) (A) (A) (A) (A) (A) (A) (A)
                 (A) (A) (A) (A) (A) (A) (A) (A) (A) (A) (A) (A)
                 (A) (A) (A) (A) (A) (A) (A) (A) (A) (A) (A) (A)
                 (A) (A) (A) (A) (A) (A) (A) (A) (A) (A) (A) (A)
                 (A) (A) (A) (A) (A) (A) (A) (A) (A) (A) (A) (A)
                 (A) (A) (A) (A) (A) (A) (A)
       Virtual   (A) (A) (A) (A) (A) (A) (A) (A) (A) (A) (A) (A)
                 (A) (A) (A) (A) (A) (A) (A) (A) (A) (A) (A) (A)
                 (A) (A) (A) (A) (A) (A) (A) (A) (A) (A) (A) (A)
                 (A) (A) (A) (A) (A) (A) (A) (A) (A) (A) (A) (A)
                 (A) (A) (A) (A) (A) (A) (A) (A) (A) (A) (A) (A)
                 (A) (A) (A) (A) (A) (A) (A) (A) (A) (A) (A) (A)
                 (A) (A) (A) (A) (A) (A) (A) (A) (A) (A) (A) (A)
                 (A) (A) (A) (A) (A) (A) (A) (A) (A) (A) (A) (A)
                 (A) (A) (A) (A) (A) (A) (A) (A) (A) (A) (A) (A)
                 (A) (A) (A) (A) (A) (A) (A) (A) (A) (A) (A) (A)
                 (A) (A) (A) (A) (A) (A) (A) (A) (A) (A) (A) (A)
                 (A) (A) (A) (A) (A) (A) (A) (A) (A) (A) (A) (A)
                 (A) (A) (A) (A) (A) (A) (A) (A) (A) (A) (A) (A)
                 (A) (A) (A) (A) (A) (A) (A) (A) (A) (A) (A) (A)
                 (A) (A) (A) (A) (A) (A) (A) (A) (A) (A) (A) (A)
                 (A) (A) (A) (A) (A) (A) (A) (A) (A) (A) (A) (A)
                 (A) (A) (A) (A) (A) (A) (A) (A) (A) (A) (A) (A)
                 (A) (A) (A) (A) (A) (A) (A) (A) (A) (A) (A) (A)
                 (A) (A) (A) (A) (A) (A) (A) (A) (A) (A) (A) (A)
                 (A) (A) (A) (A) (A) (A) (A) (A) (A) (A) (A) (A)
                 (A) (A) (A) (A) (A) (A) (A) (A) (A) (A) (A) (A)
                 (A) (A) (A) (A) (A) (A) (A) (A) (A) (A) (A) (A)
                 (A) (A) (A) (A) (A) (A) (A) (A) (A) (A) (A) (A)
                 (A) (A) (A) (A) (A) (A) (A) (A) (A) (A) (A) (A)
                 (A) (A) (A) (A) (A) (A) (A) (A) (A) (A) (A) (A)
                 (A) (A) (A) (A) (A) (A) (A) (A) (A) (A) (A) (A)
                 (A) (A) (A) (A) (A) (A) (A) (A) (A) (A) (A) (A)
                 (A) (A) (A) (A) (A) (A) (A) (A) (A) (A) (A) (A)
                 (A) (A) (A) (A) (A) (A) (A) (A) (A) (A) (A) (A)
                 (A) (A) (A) (A) (A) (A) (A) (A) (A) (A) (A) (A)
                 (A) (A) (A) (A) (A) (A) (A) (A) (A) (A) (A) (A)
                 (A) (A) (A) (A) (A) (A) (A) (A) (A) (A) (A) (A)
                 (A) (A) (A) (A) (A) (A) (A) (A) (A) (A) (A) (A)
                 (A) (A) (A) (A) (A) (A) (A) (A) (A) (A) (A) (A)
                 (A) (A) (A) (A) (A) (A) (A) (A) (A) (A)
 The electronic state is 1-A.
 Alpha  occ. eigenvalues --  -19.19522 -19.16670 -19.15818 -19.12683 -19.12427
 Alpha  occ. eigenvalues --  -10.27232 -10.27213 -10.26593 -10.26205 -10.25731
 Alpha  occ. eigenvalues --  -10.25710 -10.25198 -10.21344 -10.20846 -10.20553
 Alpha  occ. eigenvalues --  -10.20318 -10.19795 -10.19587 -10.19336 -10.19123
 Alpha  occ. eigenvalues --  -10.18945 -10.18937 -10.18771 -10.18749 -10.18443
 Alpha  occ. eigenvalues --  -10.18114 -10.18084 -10.17564 -10.17497 -10.16241
 Alpha  occ. eigenvalues --  -10.15685  -1.09152  -1.05859  -1.02959  -1.02434
 Alpha  occ. eigenvalues --   -1.02188  -0.86651  -0.83557  -0.82384  -0.81350
 Alpha  occ. eigenvalues --   -0.80199  -0.79244  -0.76548  -0.74265  -0.73092
 Alpha  occ. eigenvalues --   -0.71580  -0.71121  -0.69873  -0.69526  -0.67813
 Alpha  occ. eigenvalues --   -0.65438  -0.64153  -0.63355  -0.61498  -0.60526
 Alpha  occ. eigenvalues --   -0.59356  -0.58607  -0.56904  -0.54587  -0.53468
 Alpha  occ. eigenvalues --   -0.52599  -0.51966  -0.50659  -0.50254  -0.49206
 Alpha  occ. eigenvalues --   -0.48057  -0.47009  -0.46458  -0.46103  -0.45781
 Alpha  occ. eigenvalues --   -0.45204  -0.44544  -0.44483  -0.43712  -0.43279
 Alpha  occ. eigenvalues --   -0.42854  -0.42664  -0.41974  -0.41602  -0.41310
 Alpha  occ. eigenvalues --   -0.40714  -0.40567  -0.40432  -0.39932  -0.39200
 Alpha  occ. eigenvalues --   -0.38972  -0.38348  -0.38063  -0.37699  -0.37516
 Alpha  occ. eigenvalues --   -0.37464  -0.37308  -0.37122  -0.36898  -0.36594
 Alpha  occ. eigenvalues --   -0.36400  -0.35604  -0.35162  -0.34875  -0.34130
 Alpha  occ. eigenvalues --   -0.33593  -0.33447  -0.33328  -0.32710  -0.31958
 Alpha  occ. eigenvalues --   -0.31390  -0.31144  -0.30837  -0.28090  -0.26668
 Alpha  occ. eigenvalues --   -0.26321  -0.24508  -0.24063  -0.23374  -0.22544
 Alpha virt. eigenvalues --   -0.04671  -0.00759   0.00281   0.02240   0.05520
 Alpha virt. eigenvalues --    0.07174   0.08803   0.08879   0.09344   0.10293
 Alpha virt. eigenvalues --    0.10662   0.10808   0.11247   0.11874   0.12313
 Alpha virt. eigenvalues --    0.12962   0.13187   0.13449   0.14073   0.14390
 Alpha virt. eigenvalues --    0.14458   0.14633   0.15102   0.15474   0.16098
 Alpha virt. eigenvalues --    0.16572   0.16809   0.16978   0.17073   0.17265
 Alpha virt. eigenvalues --    0.17665   0.17959   0.18312   0.18722   0.18998
 Alpha virt. eigenvalues --    0.19092   0.19441   0.19671   0.20283   0.20617
 Alpha virt. eigenvalues --    0.21020   0.21306   0.21702   0.21979   0.22353
 Alpha virt. eigenvalues --    0.22862   0.23592   0.23682   0.24045   0.24254
 Alpha virt. eigenvalues --    0.25044   0.25122   0.25763   0.26328   0.26685
 Alpha virt. eigenvalues --    0.27289   0.27673   0.27977   0.29093   0.29425
 Alpha virt. eigenvalues --    0.31102   0.31861   0.32570   0.33097   0.33998
 Alpha virt. eigenvalues --    0.34434   0.36866   0.37332   0.38042   0.39250
 Alpha virt. eigenvalues --    0.41629   0.45551   0.46721   0.48047   0.48863
 Alpha virt. eigenvalues --    0.49284   0.50233   0.50693   0.51245   0.51693
 Alpha virt. eigenvalues --    0.52003   0.52082   0.52952   0.53248   0.53832
 Alpha virt. eigenvalues --    0.53876   0.54124   0.55116   0.55971   0.56530
 Alpha virt. eigenvalues --    0.57005   0.57613   0.57981   0.58606   0.58997
 Alpha virt. eigenvalues --    0.59565   0.60360   0.61321   0.61440   0.61966
 Alpha virt. eigenvalues --    0.62557   0.62872   0.63103   0.64459   0.64613
 Alpha virt. eigenvalues --    0.65149   0.65824   0.66580   0.67070   0.67454
 Alpha virt. eigenvalues --    0.67862   0.68153   0.68824   0.69386   0.69431
 Alpha virt. eigenvalues --    0.69796   0.70515   0.71448   0.72375   0.73002
 Alpha virt. eigenvalues --    0.73783   0.74903   0.75122   0.75593   0.76278
 Alpha virt. eigenvalues --    0.76760   0.77660   0.78507   0.79695   0.80046
 Alpha virt. eigenvalues --    0.80187   0.80624   0.81480   0.82149   0.82498
 Alpha virt. eigenvalues --    0.82863   0.83771   0.84301   0.84745   0.85199
 Alpha virt. eigenvalues --    0.85697   0.86294   0.86469   0.86947   0.87303
 Alpha virt. eigenvalues --    0.87412   0.87913   0.88235   0.88580   0.89127
 Alpha virt. eigenvalues --    0.89321   0.89858   0.90359   0.90623   0.90671
 Alpha virt. eigenvalues --    0.90854   0.91191   0.91315   0.91889   0.92223
 Alpha virt. eigenvalues --    0.93238   0.93259   0.94116   0.94443   0.94910
 Alpha virt. eigenvalues --    0.95660   0.96115   0.96345   0.96913   0.97235
 Alpha virt. eigenvalues --    0.97395   0.98251   0.99002   0.99488   0.99966
 Alpha virt. eigenvalues --    1.00871   1.01229   1.01866   1.02660   1.02956
 Alpha virt. eigenvalues --    1.04227   1.05777   1.06011   1.06763   1.07921
 Alpha virt. eigenvalues --    1.08747   1.09135   1.10282   1.10601   1.12394
 Alpha virt. eigenvalues --    1.13325   1.14198   1.14624   1.16344   1.16938
 Alpha virt. eigenvalues --    1.17572   1.18056   1.18234   1.19058   1.21554
 Alpha virt. eigenvalues --    1.22774   1.23393   1.25139   1.25605   1.26555
 Alpha virt. eigenvalues --    1.28181   1.28351   1.29706   1.32198   1.32403
 Alpha virt. eigenvalues --    1.34369   1.36447   1.37602   1.37825   1.40386
 Alpha virt. eigenvalues --    1.41136   1.41481   1.43709   1.44640   1.45460
 Alpha virt. eigenvalues --    1.47022   1.48610   1.49950   1.51790   1.53267
 Alpha virt. eigenvalues --    1.53531   1.54580   1.55618   1.57413   1.58616
 Alpha virt. eigenvalues --    1.60452   1.60640   1.61507   1.62432   1.64215
 Alpha virt. eigenvalues --    1.65821   1.65997   1.66320   1.67442   1.68423
 Alpha virt. eigenvalues --    1.70556   1.71214   1.72499   1.72842   1.73296
 Alpha virt. eigenvalues --    1.74126   1.75244   1.76659   1.77049   1.78120
 Alpha virt. eigenvalues --    1.78998   1.79516   1.79802   1.80549   1.81135
 Alpha virt. eigenvalues --    1.81998   1.82396   1.83442   1.84051   1.85421
 Alpha virt. eigenvalues --    1.85916   1.86412   1.86662   1.86984   1.87796
 Alpha virt. eigenvalues --    1.88550   1.89277   1.89417   1.91067   1.91422
 Alpha virt. eigenvalues --    1.91990   1.92224   1.94498   1.94758   1.95235
 Alpha virt. eigenvalues --    1.96007   1.96922   1.97082   1.98522   1.98818
 Alpha virt. eigenvalues --    1.99187   1.99604   1.99909   2.00467   2.01560
 Alpha virt. eigenvalues --    2.02682   2.03184   2.03703   2.05027   2.05990
 Alpha virt. eigenvalues --    2.06385   2.07374   2.08218   2.09202   2.09754
 Alpha virt. eigenvalues --    2.10106   2.11040   2.11651   2.12467   2.12782
 Alpha virt. eigenvalues --    2.13937   2.14592   2.16207   2.16431   2.16818
 Alpha virt. eigenvalues --    2.17800   2.19521   2.19854   2.21455   2.22507
 Alpha virt. eigenvalues --    2.23646   2.24288   2.24513   2.26414   2.26457
 Alpha virt. eigenvalues --    2.28352   2.29527   2.30118   2.30162   2.31213
 Alpha virt. eigenvalues --    2.32605   2.33324   2.33802   2.34349   2.34830
 Alpha virt. eigenvalues --    2.35161   2.36067   2.36831   2.38361   2.39077
 Alpha virt. eigenvalues --    2.40295   2.40754   2.41948   2.42636   2.43068
 Alpha virt. eigenvalues --    2.44540   2.44858   2.45690   2.47735   2.48399
 Alpha virt. eigenvalues --    2.48770   2.50358   2.51761   2.52689   2.53562
 Alpha virt. eigenvalues --    2.55751   2.56926   2.58013   2.59124   2.59714
 Alpha virt. eigenvalues --    2.60003   2.61775   2.62981   2.64531   2.65088
 Alpha virt. eigenvalues --    2.65852   2.66705   2.68807   2.69306   2.70400
 Alpha virt. eigenvalues --    2.71387   2.72577   2.73672   2.76218   2.76734
 Alpha virt. eigenvalues --    2.78353   2.80042   2.82161   2.82620   2.84441
 Alpha virt. eigenvalues --    2.86751   2.88989   2.90824   2.94166   2.96290
 Alpha virt. eigenvalues --    2.98414   3.00863   3.01159   3.01754   3.02542
 Alpha virt. eigenvalues --    3.05632   3.06883   3.12031   3.18089   3.21476
 Alpha virt. eigenvalues --    3.25576   3.28753   4.02888   4.05245   4.08249
 Alpha virt. eigenvalues --    4.12596   4.13905   4.14829   4.16355   4.19550
 Alpha virt. eigenvalues --    4.22266   4.24186   4.25953   4.28472   4.30921
 Alpha virt. eigenvalues --    4.31862   4.35193   4.37500   4.39685   4.44997
 Alpha virt. eigenvalues --    4.45702   4.51244   4.53375   4.56109   4.61170
 Alpha virt. eigenvalues --    4.62199   4.66869   4.68065   4.74358   4.81949
 Alpha virt. eigenvalues --    4.90178   5.03076   5.17650
          Condensed to atoms (all electrons):
 Mulliken atomic charges:
              1
     1  C   -0.187854
     2  C    0.193965
     3  C   -0.188370
     4  C    0.325485
     5  C   -0.051790
     6  C   -0.334242
     7  C    0.199320
     8  C    0.409040
     9  C   -0.096666
    10  C    0.421028
    11  C    0.423149
    12  O   -0.453593
    13  C   -0.174580
    14  C   -0.265905
    15  C   -0.444203
    16  O   -0.512539
    17  C   -0.164928
    18  C    0.302751
    19  O   -0.519380
    20  C   -0.325077
    21  O   -0.657077
    22  C   -0.325426
    23  C    0.096891
    24  O   -0.591817
    25  C    0.181586
    26  C   -0.507899
    27  C   -0.393139
    28  C   -0.469374
    29  C   -0.457343
    30  H    0.143070
    31  H    0.163779
    32  C   -0.519961
    33  H    0.122729
    34  H    0.184711
    35  H    0.145728
    36  H    0.180913
    37  H    0.136664
    38  H    0.141589
    39  H    0.152070
    40  H    0.131488
    41  H    0.157848
    42  H    0.173615
    43  H    0.150983
    44  H    0.413588
    45  H    0.167892
    46  H    0.169076
    47  H    0.138791
    48  H    0.156592
    49  H    0.170879
    50  H    0.154462
    51  H    0.152437
    52  H    0.142427
    53  H    0.158662
    54  H    0.143017
    55  H    0.191731
    56  H    0.166293
    57  H    0.147949
    58  H    0.168076
    59  H    0.158068
    60  H    0.159725
    61  H    0.149701
    62  C   -0.454452
    63  H    0.148054
    64  H    0.139021
    65  H    0.160769
 Sum of Mulliken atomic charges =   0.00000
 Mulliken charges with hydrogens summed into heavy atoms:
              1
     1  C   -0.065125
     2  C    0.193965
     3  C   -0.024590
     4  C    0.325485
     5  C   -0.051790
     6  C   -0.003803
     7  C    0.199320
     8  C    0.409040
     9  C   -0.096666
    10  C    0.421028
    11  C    0.423149
    12  O   -0.453593
    13  C    0.006334
    14  C    0.012349
    15  C   -0.002797
    16  O   -0.512539
    17  C   -0.021857
    18  C    0.302751
    19  O   -0.519380
    20  C   -0.000479
    21  O   -0.243489
    22  C    0.011541
    23  C    0.235681
    24  O   -0.591817
    25  C    0.181586
    26  C   -0.025966
    27  C   -0.098275
    28  C    0.024037
    29  C    0.024975
    32  C   -0.052467
    62  C   -0.006608
 Sum of Mulliken charges with hydrogens summed into heavy atoms =   0.00000
 Electronic spatial extent (au):  <R**2>=          11215.8972
 Charge=              0.0000 electrons
 Dipole moment (field-independent basis, Debye):
    X=             -4.8891    Y=              1.6545    Z=             -2.3677  Tot=              5.6786
 Quadrupole moment (field-independent basis, Debye-Ang):
   XX=           -187.7613   YY=           -174.6722   ZZ=           -183.9074
   XY=             -1.0387   XZ=             -4.8131   YZ=             -0.0536
 Traceless Quadrupole moment (field-independent basis, Debye-Ang):
   XX=             -5.6477   YY=              7.4415   ZZ=             -1.7938
   XY=             -1.0387   XZ=             -4.8131   YZ=             -0.0536
 Octapole moment (field-independent basis, Debye-Ang**2):
  XXX=            -47.9731  YYY=             32.2654  ZZZ=             -8.2172  XYY=             -8.5079
  XXY=            -33.1985  XXZ=            -28.5712  XZZ=            -17.4509  YZZ=             19.2477
  YYZ=            -27.7382  XYZ=             -9.1081
 Hexadecapole moment (field-independent basis, Debye-Ang**3):
 XXXX=          -7491.4400 YYYY=          -4099.4580 ZZZZ=          -3380.6397 XXXY=            -16.2258
 XXXZ=             19.6992 YYYX=             13.7488 YYYZ=             -3.9967 ZZZX=             15.9838
 ZZZY=              1.0219 XXYY=          -1909.6127 XXZZ=          -1790.5630 YYZZ=          -1239.2491
 XXYZ=             -9.0975 YYXZ=             -1.1934 ZZXY=             45.7845
 N-N= 3.525507861255D+03 E-N=-1.027739036987D+04  KE= 1.374454542883D+03
 1\1\GINC-B0603\FOpt\RB3LYP\6-31G(d)\C26H34O5\CAOFEI\24-Mar-2021\0\\# o
 pt rb3lyp/6-31g(d) geom=connectivity\\Title Card Required\\0,1\C,0.023
 9495093,-0.010084446,0.0263329962\C,1.361510415,-0.0233469113,0.048784
 6919\C,2.1623786488,1.2618536241,0.0318344001\C,1.3644865093,2.5590716
 293,-0.3125379378\C,-0.1300670721,2.4346249591,-0.7109658397\C,-0.8126
 24471,1.2384249883,-0.0029711233\C,2.2214039268,3.2612417721,-1.398268
 0128\C,1.872823369,2.8227367504,-2.8044096001\C,0.6294055285,2.4812900
 751,-3.226596878\C,-0.4399417698,2.3411305539,-2.232239923\C,0.3848402
 356,2.1001570404,-4.6747645734\O,1.0945055606,1.2616742977,-5.20195209
 12\C,-0.7248275896,2.8278651932,-5.4280844811\C,-0.4131628765,4.348068
 5158,-5.5060691604\C,-0.9776861495,2.1894168389,-6.7970432391\O,-1.603
 3732783,2.1159135341,-2.5581520673\C,3.6561512321,2.6979143126,-1.3196
 496983\C,4.1971126019,2.9416504219,-2.7495015705\O,2.9640000674,2.8234
 34676,-3.5766544722\C,3.387000475,1.230308362,-0.9303042294\O,2.106505
 1001,4.6712447726,-1.3409961538\C,-0.7121046751,3.7728292671,-0.181102
 1162\C,0.0653235928,3.9894494057,1.1135812739\O,1.3845678746,3.4296363
 478,0.8482750549\C,0.2403872943,5.3990288056,1.6400121141\C,1.10145686
 58,5.5097825046,2.8755233854\C,-0.3530691559,6.4603923219,1.0849124643
 \C,4.75783942,4.3522743511,-2.9430874261\C,5.1659375727,1.8930085806,-
 3.2898173729\H,4.2560731595,3.2163715893,-0.5652789546\H,2.5456183017,
 1.4361833845,1.0475141128\C,2.1423953411,-1.3094680285,0.1615695128\H,
 -0.5137178249,-0.9561705156,0.0744299529\H,-1.7637389706,1.0580469788,
 -0.5122170646\H,-1.0700974843,1.519961022,1.0291268203\H,-1.6221210225
 ,2.7243286335,-4.8061598123\H,-1.2765235269,4.8391249238,-5.9740856565
 \H,-0.3489735737,4.7490814982,-4.4867562654\H,-1.2820823218,1.14389354
 88,-6.6872768757\H,-1.7759250133,2.7258461507,-7.323313057\H,-0.080466
 7407,2.1991593515,-7.4220947188\H,3.1279218814,0.6490378384,-1.8219745
 265\H,4.2564946789,0.7488040138,-0.4738621807\H,2.0386145225,4.8669092
 746,-0.3852971516\H,-1.7927972918,3.7111678537,-0.0283583168\H,-0.5047
 726303,4.5786615391,-0.8906371213\H,-0.3791320457,3.3874804961,1.92194
 99473\H,0.6777923472,4.9207510874,3.7006563906\H,2.1056300777,5.111157
 453,2.6914370862\H,1.192097048,6.5475973562,3.2092153894\H,-0.98764566
 15,6.3873575152,0.2075995117\H,-0.2299510249,7.454846145,1.5066591815\
 H,4.9449729583,4.5344132285,-4.0063133886\H,5.7087000657,4.4524639354,
 -2.4069952971\H,4.0620901881,5.1050775698,-2.5682982201\H,5.4300431937
 ,2.1274856897,-4.3256582525\H,6.0854723604,1.8931777723,-2.6937717589\
 H,4.7359208529,0.8892024853,-3.2712952716\H,1.4723735533,-2.1710705576
 ,0.2401553227\H,2.7976222009,-1.4734365748,-0.7035463119\H,2.790695854
 8,-1.3033752672,1.0496612498\C,0.8638175242,4.7133509224,-6.2735237691
 \H,0.8134481928,4.3956570017,-7.3206264159\H,1.0186618791,5.7984608244
 ,-6.2650536014\H,1.7496601889,4.2466713156,-5.8275689034\\Version=EM64
 L-G09RevB.01\State=1-A\HF=-1387.3203311\RMSD=5.254e-09\RMSF=2.460e-06\
 Dipole=1.102112,0.5860573,1.8528835\Quadrupole=3.3928829,0.0932279,-3.
 4861108,-3.3552871,-1.2144334,-3.7205788\PG=C01 [X(C26H34O5)]\\@


 IF AT FIRST YOU DON'T SUCCEED, TRY LOOKING IN 
 THE WASTEBASKET FOR THE DIRECTIONS.
 Job cpu time:  0 days  8 hours 18 minutes 43.4 seconds.
 File lengths (MBytes):  RWF=    208 Int=      0 D2E=      0 Chk=     20 Scr=      1
 Normal termination of Gaussian 09 at Wed Mar 24 17:59:35 2021.
