 Entering Gaussian System, Link 0=g09
 Initial command:
 /public/software/g09/g09/l1.exe /tmp/Gau-28334.inp -scrdir=/tmp/
 Entering Link 1 = /public/software/g09/g09/l1.exe PID=     28335.
  
 Copyright (c) 1988,1990,1992,1993,1995,1998,2003,2009,2010,
            Gaussian, Inc.  All Rights Reserved.
  
 This is part of the Gaussian(R) 09 program.  It is based on
 the Gaussian(R) 03 system (copyright 2003, Gaussian, Inc.),
 the Gaussian(R) 98 system (copyright 1998, Gaussian, Inc.),
 the Gaussian(R) 94 system (copyright 1995, Gaussian, Inc.),
 the Gaussian 92(TM) system (copyright 1992, Gaussian, Inc.),
 the Gaussian 90(TM) system (copyright 1990, Gaussian, Inc.),
 the Gaussian 88(TM) system (copyright 1988, Gaussian, Inc.),
 the Gaussian 86(TM) system (copyright 1986, Carnegie Mellon
 University), and the Gaussian 82(TM) system (copyright 1983,
 Carnegie Mellon University). Gaussian is a federally registered
 trademark of Gaussian, Inc.
  
 This software contains proprietary and confidential information,
 including trade secrets, belonging to Gaussian, Inc.
  
 This software is provided under written license and may be
 used, copied, transmitted, or stored only in accord with that
 written license.
  
 The following legend is applicable only to US Government
 contracts under FAR:
  
                    RESTRICTED RIGHTS LEGEND
  
 Use, reproduction and disclosure by the US Government is
 subject to restrictions as set forth in subparagraphs (a)
 and (c) of the Commercial Computer Software - Restricted
 Rights clause in FAR 52.227-19.
  
 Gaussian, Inc.
 340 Quinnipiac St., Bldg. 40, Wallingford CT 06492
  
  
 ---------------------------------------------------------------
 Warning -- This program may not be used in any manner that
 competes with the business of Gaussian, Inc. or will provide
 assistance to any competitor of Gaussian, Inc.  The licensee
 of this program is prohibited from giving any competitor of
 Gaussian, Inc. access to this program.  By using this program,
 the user acknowledges that Gaussian, Inc. is engaged in the
 business of creating and licensing software in the field of
 computational chemistry and represents and warrants to the
 licensee that it is not a competitor of Gaussian, Inc. and that
 it will not use this program in any manner prohibited above.
 ---------------------------------------------------------------
  

 Cite this work as:
 Gaussian 09, Revision B.01,
 M. J. Frisch, G. W. Trucks, H. B. Schlegel, G. E. Scuseria, 
 M. A. Robb, J. R. Cheeseman, G. Scalmani, V. Barone, B. Mennucci, 
 G. A. Petersson, H. Nakatsuji, M. Caricato, X. Li, H. P. Hratchian, 
 A. F. Izmaylov, J. Bloino, G. Zheng, J. L. Sonnenberg, M. Hada, 
 M. Ehara, K. Toyota, R. Fukuda, J. Hasegawa, M. Ishida, T. Nakajima, 
 Y. Honda, O. Kitao, H. Nakai, T. Vreven, J. A. Montgomery, Jr., 
 J. E. Peralta, F. Ogliaro, M. Bearpark, J. J. Heyd, E. Brothers, 
 K. N. Kudin, V. N. Staroverov, T. Keith, R. Kobayashi, J. Normand, 
 K. Raghavachari, A. Rendell, J. C. Burant, S. S. Iyengar, J. Tomasi, 
 M. Cossi, N. Rega, J. M. Millam, M. Klene, J. E. Knox, J. B. Cross, 
 V. Bakken, C. Adamo, J. Jaramillo, R. Gomperts, R. E. Stratmann, 
 O. Yazyev, A. J. Austin, R. Cammi, C. Pomelli, J. W. Ochterski, 
 R. L. Martin, K. Morokuma, V. G. Zakrzewski, G. A. Voth, 
 P. Salvador, J. J. Dannenberg, S. Dapprich, A. D. Daniels, 
 O. Farkas, J. B. Foresman, J. V. Ortiz, J. Cioslowski, 
 and D. J. Fox, Gaussian, Inc., Wallingford CT, 2010.
 
 ******************************************
 Gaussian 09:  EM64L-G09RevB.01 12-Aug-2010
                24-Mar-2021 
 ******************************************
 %mem=600MW
 %nprocshared=10
 Will use up to   10 processors via shared memory.
 ---------------------------------------
 # opt rb3lyp/6-31g(d) geom=connectivity
 ---------------------------------------
 1/14=-1,18=20,19=15,26=3,38=1,57=2/1,3;
 2/9=110,12=2,17=6,18=5,40=1/2;
 3/5=1,6=6,7=1,11=2,16=1,25=1,30=1,71=1,74=-5,116=1/1,2,3;
 4//1;
 5/5=2,38=5/2;
 6/7=2,8=2,9=2,10=2,28=1/1;
 7//1,2,3,16;
 1/14=-1,18=20,19=15/3(2);
 2/9=110/2;
 99//99;
 2/9=110/2;
 3/5=1,6=6,7=1,11=2,16=1,25=1,30=1,71=1,74=-5,116=1/1,2,3;
 4/5=5,16=3/1;
 5/5=2,38=5/2;
 7//1,2,3,16;
 1/14=-1,18=20,19=15/3(-5);
 2/9=110/2;
 6/7=2,8=2,9=2,10=2,19=2,28=1/1;
 99/9=1/99;
 -------------------
 Title Card Required
 -------------------
 Symbolic Z-matrix:
 Charge =  0 Multiplicity = 1
 C                     0.        0.        0. 
 C                     1.3403    0.        0. 
 C                     2.1208    1.2868    0. 
 C                     1.3761    2.5447    0.5389 
 C                    -0.1663    2.4686    0.6637 
 C                    -0.8049    1.2566   -0.0485 
 C                     1.9086    3.7013   -0.3352 
 C                     0.9693    4.2002   -1.3766 
 C                    -0.3526    4.2502   -1.1957 
 C                    -0.8817    3.6945    0.0675 
 C                    -1.2553    4.731    -2.261 
 O                    -1.5737    3.9625   -3.1681 
 C                    -1.7618    6.1669   -2.1552 
 C                    -0.724     7.1706   -2.6818 
 C                    -3.1225    6.3096   -2.8355 
 O                    -1.936     4.1313    0.5268 
 C                     3.0217    3.1573   -1.2097 
 C                     2.9617    4.0595   -2.4575 
 O                     1.5866    4.4952   -2.5825 
 C                     2.6056    1.6915   -1.3973 
 O                     2.3399    4.8038    0.45 
 C                    -0.4055    2.4232    2.1845 
 C                     0.9549    2.1342    2.791 
 O                     1.8701    2.7718    1.893 
 C                     1.1143    2.6464    4.2044 
 C                     0.2649    1.9577    5.2393 
 C                     1.9597    3.6288    4.5616 
 C                     3.8343    5.3155   -2.3071 
 C                     3.3554    3.3426   -3.7515 
 H                     4.0042    3.2071   -0.7241 
 H                     3.0082    1.1288    0.6317 
 C                     2.1347   -1.2752   -0.0148 
 H                    -0.5496   -0.9386   -0.0295 
 H                    -1.7925    1.0564    0.3879 
 H                    -0.9986    1.4723   -1.1078 
 H                    -1.9185    6.3794   -1.0895 
 H                     0.2156    7.0524   -2.1292 
 H                    -1.0761    8.1885   -2.4731 
 H                    -3.0832    6.0453   -3.8972 
 H                    -3.8557    5.6443   -2.3657 
 H                    -3.4953    7.3355   -2.7504 
 H                     1.7979    1.5805   -2.1313 
 H                     3.4487    1.0784   -1.7332 
 H                     2.5017    4.4406    1.3466 
 H                    -0.7708    3.3906    2.5529 
 H                    -1.1432    1.6732    2.4904 
 H                     1.1697    1.0586    2.7788 
 H                     0.4609    0.8805    5.235 
 H                     0.4665    2.3259    6.2509 
 H                    -0.7981    2.1196    5.0347 
 H                     2.0448    3.9573    5.593 
 H                     2.5917    4.1347    3.8395 
 H                     3.7385    5.9597   -3.1892 
 H                     4.8903    5.0545   -2.1836 
 H                     3.5272    5.9316   -1.4569 
 H                     2.6528    2.5414   -4.0022 
 H                     3.3252    4.034    -4.602 
 H                     4.3639    2.9222   -3.6854 
 H                     1.4907   -2.1609   -0.0219 
 H                     2.7706   -1.3192   -0.9046 
 H                     2.7723   -1.335     0.8731 
 C                    -0.4228    7.0615   -4.171 
 H                    -1.3054    7.2871   -4.7765 
 H                     0.3568    7.7797   -4.4459 
 H                    -0.0642    6.0633   -4.4382 
 

 GradGradGradGradGradGradGradGradGradGradGradGradGradGradGradGradGradGrad
 Berny optimization.
 Initialization pass.
                           ----------------------------
                           !    Initial Parameters    !
                           ! (Angstroms and Degrees)  !
 --------------------------                            --------------------------
 ! Name  Definition              Value          Derivative Info.                !
 --------------------------------------------------------------------------------
 ! R1    R(1,2)                  1.3403         estimate D2E/DX2                !
 ! R2    R(1,6)                  1.4931         estimate D2E/DX2                !
 ! R3    R(1,33)                 1.0881         estimate D2E/DX2                !
 ! R4    R(2,3)                  1.505          estimate D2E/DX2                !
 ! R5    R(2,32)                 1.5025         estimate D2E/DX2                !
 ! R6    R(3,4)                  1.558          estimate D2E/DX2                !
 ! R7    R(3,20)                 1.5334         estimate D2E/DX2                !
 ! R8    R(3,31)                 1.1007         estimate D2E/DX2                !
 ! R9    R(4,5)                  1.5493         estimate D2E/DX2                !
 ! R10   R(4,7)                  1.5445         estimate D2E/DX2                !
 ! R11   R(4,24)                 1.4592         estimate D2E/DX2                !
 ! R12   R(5,6)                  1.544          estimate D2E/DX2                !
 ! R13   R(5,10)                 1.5395         estimate D2E/DX2                !
 ! R14   R(5,22)                 1.5402         estimate D2E/DX2                !
 ! R15   R(6,34)                 1.0981         estimate D2E/DX2                !
 ! R16   R(6,35)                 1.0983         estimate D2E/DX2                !
 ! R17   R(7,8)                  1.4885         estimate D2E/DX2                !
 ! R18   R(7,17)                 1.5165         estimate D2E/DX2                !
 ! R19   R(7,21)                 1.4206         estimate D2E/DX2                !
 ! R20   R(8,9)                  1.3352         estimate D2E/DX2                !
 ! R21   R(8,19)                 1.3865         estimate D2E/DX2                !
 ! R22   R(9,10)                 1.478          estimate D2E/DX2                !
 ! R23   R(9,11)                 1.4768         estimate D2E/DX2                !
 ! R24   R(10,16)                1.2302         estimate D2E/DX2                !
 ! R25   R(11,12)                1.2308         estimate D2E/DX2                !
 ! R26   R(11,13)                1.5263         estimate D2E/DX2                !
 ! R27   R(13,14)                1.5368         estimate D2E/DX2                !
 ! R28   R(13,15)                1.528          estimate D2E/DX2                !
 ! R29   R(13,36)                1.0979         estimate D2E/DX2                !
 ! R30   R(14,37)                1.0964         estimate D2E/DX2                !
 ! R31   R(14,38)                1.0971         estimate D2E/DX2                !
 ! R32   R(14,62)                1.5233         estimate D2E/DX2                !
 ! R33   R(15,39)                1.0948         estimate D2E/DX2                !
 ! R34   R(15,40)                1.0959         estimate D2E/DX2                !
 ! R35   R(15,41)                1.0948         estimate D2E/DX2                !
 ! R36   R(17,18)                1.541          estimate D2E/DX2                !
 ! R37   R(17,20)                1.5352         estimate D2E/DX2                !
 ! R38   R(17,30)                1.0971         estimate D2E/DX2                !
 ! R39   R(18,19)                1.4479         estimate D2E/DX2                !
 ! R40   R(18,28)                1.5367         estimate D2E/DX2                !
 ! R41   R(18,29)                1.5308         estimate D2E/DX2                !
 ! R42   R(20,42)                1.097          estimate D2E/DX2                !
 ! R43   R(20,43)                1.0952         estimate D2E/DX2                !
 ! R44   R(21,44)                0.9808         estimate D2E/DX2                !
 ! R45   R(22,23)                1.5173         estimate D2E/DX2                !
 ! R46   R(22,45)                1.0977         estimate D2E/DX2                !
 ! R47   R(22,46)                1.0956         estimate D2E/DX2                !
 ! R48   R(23,24)                1.432          estimate D2E/DX2                !
 ! R49   R(23,25)                1.5118         estimate D2E/DX2                !
 ! R50   R(23,47)                1.0969         estimate D2E/DX2                !
 ! R51   R(24,44)                1.8661         estimate D2E/DX2                !
 ! R52   R(25,26)                1.5056         estimate D2E/DX2                !
 ! R53   R(25,27)                1.3444         estimate D2E/DX2                !
 ! R54   R(26,48)                1.0949         estimate D2E/DX2                !
 ! R55   R(26,49)                1.0952         estimate D2E/DX2                !
 ! R56   R(26,50)                1.0946         estimate D2E/DX2                !
 ! R57   R(27,51)                1.0858         estimate D2E/DX2                !
 ! R58   R(27,52)                1.0848         estimate D2E/DX2                !
 ! R59   R(28,53)                1.0965         estimate D2E/DX2                !
 ! R60   R(28,54)                1.0948         estimate D2E/DX2                !
 ! R61   R(28,55)                1.094          estimate D2E/DX2                !
 ! R62   R(29,56)                1.0947         estimate D2E/DX2                !
 ! R63   R(29,57)                1.0965         estimate D2E/DX2                !
 ! R64   R(29,58)                1.0946         estimate D2E/DX2                !
 ! R65   R(32,59)                1.0951         estimate D2E/DX2                !
 ! R66   R(32,60)                1.0946         estimate D2E/DX2                !
 ! R67   R(32,61)                1.0947         estimate D2E/DX2                !
 ! R68   R(62,63)                1.0939         estimate D2E/DX2                !
 ! R69   R(62,64)                1.0951         estimate D2E/DX2                !
 ! R70   R(62,65)                1.0938         estimate D2E/DX2                !
 ! A1    A(2,1,6)              122.6217         estimate D2E/DX2                !
 ! A2    A(2,1,33)             120.3389         estimate D2E/DX2                !
 ! A3    A(6,1,33)             116.9249         estimate D2E/DX2                !
 ! A4    A(1,2,3)              121.2386         estimate D2E/DX2                !
 ! A5    A(1,2,32)             121.9196         estimate D2E/DX2                !
 ! A6    A(3,2,32)             116.8387         estimate D2E/DX2                !
 ! A7    A(2,3,4)              116.2599         estimate D2E/DX2                !
 ! A8    A(2,3,20)             112.9311         estimate D2E/DX2                !
 ! A9    A(2,3,31)             107.1803         estimate D2E/DX2                !
 ! A10   A(4,3,20)             104.6688         estimate D2E/DX2                !
 ! A11   A(4,3,31)             107.6231         estimate D2E/DX2                !
 ! A12   A(20,3,31)            107.8166         estimate D2E/DX2                !
 ! A13   A(3,4,5)              117.6496         estimate D2E/DX2                !
 ! A14   A(3,4,7)              104.1267         estimate D2E/DX2                !
 ! A15   A(3,4,24)             106.5484         estimate D2E/DX2                !
 ! A16   A(5,4,7)              115.1898         estimate D2E/DX2                !
 ! A17   A(5,4,24)             105.6601         estimate D2E/DX2                !
 ! A18   A(7,4,24)             106.9735         estimate D2E/DX2                !
 ! A19   A(4,5,6)              114.403          estimate D2E/DX2                !
 ! A20   A(4,5,10)             113.0985         estimate D2E/DX2                !
 ! A21   A(4,5,22)             103.6271         estimate D2E/DX2                !
 ! A22   A(6,5,10)             104.7283         estimate D2E/DX2                !
 ! A23   A(6,5,22)             111.598          estimate D2E/DX2                !
 ! A24   A(10,5,22)            109.4935         estimate D2E/DX2                !
 ! A25   A(1,6,5)              115.0048         estimate D2E/DX2                !
 ! A26   A(1,6,34)             108.5714         estimate D2E/DX2                !
 ! A27   A(1,6,35)             106.9602         estimate D2E/DX2                !
 ! A28   A(5,6,34)             109.3761         estimate D2E/DX2                !
 ! A29   A(5,6,35)             111.3264         estimate D2E/DX2                !
 ! A30   A(34,6,35)            105.0995         estimate D2E/DX2                !
 ! A31   A(4,7,8)              115.4286         estimate D2E/DX2                !
 ! A32   A(4,7,17)             108.1076         estimate D2E/DX2                !
 ! A33   A(4,7,21)             111.9037         estimate D2E/DX2                !
 ! A34   A(8,7,17)             100.3677         estimate D2E/DX2                !
 ! A35   A(8,7,21)             108.5522         estimate D2E/DX2                !
 ! A36   A(17,7,21)            111.9808         estimate D2E/DX2                !
 ! A37   A(7,8,9)              122.8556         estimate D2E/DX2                !
 ! A38   A(7,8,19)             113.5072         estimate D2E/DX2                !
 ! A39   A(9,8,19)             123.4143         estimate D2E/DX2                !
 ! A40   A(8,9,10)             117.1392         estimate D2E/DX2                !
 ! A41   A(8,9,11)             121.3084         estimate D2E/DX2                !
 ! A42   A(10,9,11)            121.3404         estimate D2E/DX2                !
 ! A43   A(5,10,9)             117.6474         estimate D2E/DX2                !
 ! A44   A(5,10,16)            122.4399         estimate D2E/DX2                !
 ! A45   A(9,10,16)            119.4995         estimate D2E/DX2                !
 ! A46   A(9,11,12)            119.1108         estimate D2E/DX2                !
 ! A47   A(9,11,13)            117.3313         estimate D2E/DX2                !
 ! A48   A(12,11,13)           123.5502         estimate D2E/DX2                !
 ! A49   A(11,13,14)           111.505          estimate D2E/DX2                !
 ! A50   A(11,13,15)           110.6417         estimate D2E/DX2                !
 ! A51   A(11,13,36)           107.2615         estimate D2E/DX2                !
 ! A52   A(14,13,15)           112.8187         estimate D2E/DX2                !
 ! A53   A(14,13,36)           107.6125         estimate D2E/DX2                !
 ! A54   A(15,13,36)           106.6779         estimate D2E/DX2                !
 ! A55   A(13,14,37)           109.6087         estimate D2E/DX2                !
 ! A56   A(13,14,38)           108.9079         estimate D2E/DX2                !
 ! A57   A(13,14,62)           114.945          estimate D2E/DX2                !
 ! A58   A(37,14,38)           106.2108         estimate D2E/DX2                !
 ! A59   A(37,14,62)           108.3942         estimate D2E/DX2                !
 ! A60   A(38,14,62)           108.4141         estimate D2E/DX2                !
 ! A61   A(13,15,39)           112.1638         estimate D2E/DX2                !
 ! A62   A(13,15,40)           110.3802         estimate D2E/DX2                !
 ! A63   A(13,15,41)           110.8629         estimate D2E/DX2                !
 ! A64   A(39,15,40)           107.0493         estimate D2E/DX2                !
 ! A65   A(39,15,41)           108.2889         estimate D2E/DX2                !
 ! A66   A(40,15,41)           107.9224         estimate D2E/DX2                !
 ! A67   A(7,17,18)            103.2001         estimate D2E/DX2                !
 ! A68   A(7,17,20)            102.3587         estimate D2E/DX2                !
 ! A69   A(7,17,30)            112.6941         estimate D2E/DX2                !
 ! A70   A(18,17,20)           116.7116         estimate D2E/DX2                !
 ! A71   A(18,17,30)           111.513          estimate D2E/DX2                !
 ! A72   A(20,17,30)           109.8864         estimate D2E/DX2                !
 ! A73   A(17,18,19)           106.4436         estimate D2E/DX2                !
 ! A74   A(17,18,28)           112.1578         estimate D2E/DX2                !
 ! A75   A(17,18,29)           113.5961         estimate D2E/DX2                !
 ! A76   A(19,18,28)           107.5647         estimate D2E/DX2                !
 ! A77   A(19,18,29)           108.1921         estimate D2E/DX2                !
 ! A78   A(28,18,29)           108.6298         estimate D2E/DX2                !
 ! A79   A(8,19,18)            106.4833         estimate D2E/DX2                !
 ! A80   A(3,20,17)            103.0812         estimate D2E/DX2                !
 ! A81   A(3,20,42)            110.5008         estimate D2E/DX2                !
 ! A82   A(3,20,43)            112.0312         estimate D2E/DX2                !
 ! A83   A(17,20,42)           112.2051         estimate D2E/DX2                !
 ! A84   A(17,20,43)           111.3038         estimate D2E/DX2                !
 ! A85   A(42,20,43)           107.7537         estimate D2E/DX2                !
 ! A86   A(7,21,44)            105.5434         estimate D2E/DX2                !
 ! A87   A(5,22,23)            105.1337         estimate D2E/DX2                !
 ! A88   A(5,22,45)            110.9213         estimate D2E/DX2                !
 ! A89   A(5,22,46)            113.6069         estimate D2E/DX2                !
 ! A90   A(23,22,45)           109.3953         estimate D2E/DX2                !
 ! A91   A(23,22,46)           111.2065         estimate D2E/DX2                !
 ! A92   A(45,22,46)           106.5897         estimate D2E/DX2                !
 ! A93   A(22,23,24)           103.7426         estimate D2E/DX2                !
 ! A94   A(22,23,25)           113.8115         estimate D2E/DX2                !
 ! A95   A(22,23,47)           110.9719         estimate D2E/DX2                !
 ! A96   A(24,23,25)           111.5958         estimate D2E/DX2                !
 ! A97   A(24,23,47)           107.7271         estimate D2E/DX2                !
 ! A98   A(25,23,47)           108.7826         estimate D2E/DX2                !
 ! A99   A(4,24,23)            107.2343         estimate D2E/DX2                !
 ! A100  A(23,25,26)           115.352          estimate D2E/DX2                !
 ! A101  A(23,25,27)           124.2142         estimate D2E/DX2                !
 ! A102  A(26,25,27)           120.4238         estimate D2E/DX2                !
 ! A103  A(25,26,48)           110.2638         estimate D2E/DX2                !
 ! A104  A(25,26,49)           112.1637         estimate D2E/DX2                !
 ! A105  A(25,26,50)           110.5946         estimate D2E/DX2                !
 ! A106  A(48,26,49)           107.5433         estimate D2E/DX2                !
 ! A107  A(48,26,50)           108.5808         estimate D2E/DX2                !
 ! A108  A(49,26,50)           107.559          estimate D2E/DX2                !
 ! A109  A(25,27,51)           121.517          estimate D2E/DX2                !
 ! A110  A(25,27,52)           122.0241         estimate D2E/DX2                !
 ! A111  A(51,27,52)           116.4588         estimate D2E/DX2                !
 ! A112  A(18,28,53)           110.5998         estimate D2E/DX2                !
 ! A113  A(18,28,54)           111.3402         estimate D2E/DX2                !
 ! A114  A(18,28,55)           112.1455         estimate D2E/DX2                !
 ! A115  A(53,28,54)           108.3667         estimate D2E/DX2                !
 ! A116  A(53,28,55)           105.6536         estimate D2E/DX2                !
 ! A117  A(54,28,55)           108.5045         estimate D2E/DX2                !
 ! A118  A(18,29,56)           111.7937         estimate D2E/DX2                !
 ! A119  A(18,29,57)           110.6882         estimate D2E/DX2                !
 ! A120  A(18,29,58)           111.4549         estimate D2E/DX2                !
 ! A121  A(56,29,57)           105.4371         estimate D2E/DX2                !
 ! A122  A(56,29,58)           108.9086         estimate D2E/DX2                !
 ! A123  A(57,29,58)           108.3239         estimate D2E/DX2                !
 ! A124  A(2,32,59)            112.0598         estimate D2E/DX2                !
 ! A125  A(2,32,60)            110.4445         estimate D2E/DX2                !
 ! A126  A(2,32,61)            110.2619         estimate D2E/DX2                !
 ! A127  A(59,32,60)           107.6901         estimate D2E/DX2                !
 ! A128  A(59,32,61)           107.6729         estimate D2E/DX2                !
 ! A129  A(60,32,61)           108.5887         estimate D2E/DX2                !
 ! A130  A(14,62,63)           111.5216         estimate D2E/DX2                !
 ! A131  A(14,62,64)           109.8293         estimate D2E/DX2                !
 ! A132  A(14,62,65)           111.6547         estimate D2E/DX2                !
 ! A133  A(63,62,64)           107.47           estimate D2E/DX2                !
 ! A134  A(63,62,65)           108.5134         estimate D2E/DX2                !
 ! A135  A(64,62,65)           107.6863         estimate D2E/DX2                !
 ! D1    D(6,1,2,3)              2.2103         estimate D2E/DX2                !
 ! D2    D(6,1,2,32)          -177.1248         estimate D2E/DX2                !
 ! D3    D(33,1,2,3)           178.1998         estimate D2E/DX2                !
 ! D4    D(33,1,2,32)           -1.1353         estimate D2E/DX2                !
 ! D5    D(2,1,6,5)            -32.8196         estimate D2E/DX2                !
 ! D6    D(2,1,6,34)          -155.7005         estimate D2E/DX2                !
 ! D7    D(2,1,6,35)            91.3595         estimate D2E/DX2                !
 ! D8    D(33,1,6,5)           151.0623         estimate D2E/DX2                !
 ! D9    D(33,1,6,34)           28.1814         estimate D2E/DX2                !
 ! D10   D(33,1,6,35)          -84.7586         estimate D2E/DX2                !
 ! D11   D(1,2,3,4)             22.6874         estimate D2E/DX2                !
 ! D12   D(1,2,3,20)           -98.3316         estimate D2E/DX2                !
 ! D13   D(1,2,3,31)           143.0782         estimate D2E/DX2                !
 ! D14   D(32,2,3,4)          -157.9452         estimate D2E/DX2                !
 ! D15   D(32,2,3,20)           81.0358         estimate D2E/DX2                !
 ! D16   D(32,2,3,31)          -37.5543         estimate D2E/DX2                !
 ! D17   D(1,2,32,59)           -0.1795         estimate D2E/DX2                !
 ! D18   D(1,2,32,60)          119.8852         estimate D2E/DX2                !
 ! D19   D(1,2,32,61)         -120.0979         estimate D2E/DX2                !
 ! D20   D(3,2,32,59)         -179.5423         estimate D2E/DX2                !
 ! D21   D(3,2,32,60)          -59.4776         estimate D2E/DX2                !
 ! D22   D(3,2,32,61)           60.5393         estimate D2E/DX2                !
 ! D23   D(2,3,4,5)            -16.0004         estimate D2E/DX2                !
 ! D24   D(2,3,4,7)           -144.8534         estimate D2E/DX2                !
 ! D25   D(2,3,4,24)           102.2653         estimate D2E/DX2                !
 ! D26   D(20,3,4,5)           109.3268         estimate D2E/DX2                !
 ! D27   D(20,3,4,7)           -19.5262         estimate D2E/DX2                !
 ! D28   D(20,3,4,24)         -132.4075         estimate D2E/DX2                !
 ! D29   D(31,3,4,5)          -136.1535         estimate D2E/DX2                !
 ! D30   D(31,3,4,7)            94.9935         estimate D2E/DX2                !
 ! D31   D(31,3,4,24)          -17.8878         estimate D2E/DX2                !
 ! D32   D(2,3,20,17)          165.5581         estimate D2E/DX2                !
 ! D33   D(2,3,20,42)           45.485          estimate D2E/DX2                !
 ! D34   D(2,3,20,43)          -74.6798         estimate D2E/DX2                !
 ! D35   D(4,3,20,17)           38.161          estimate D2E/DX2                !
 ! D36   D(4,3,20,42)          -81.9121         estimate D2E/DX2                !
 ! D37   D(4,3,20,43)          157.9231         estimate D2E/DX2                !
 ! D38   D(31,3,20,17)         -76.2227         estimate D2E/DX2                !
 ! D39   D(31,3,20,42)         163.7042         estimate D2E/DX2                !
 ! D40   D(31,3,20,43)          43.5393         estimate D2E/DX2                !
 ! D41   D(3,4,5,6)            -12.561          estimate D2E/DX2                !
 ! D42   D(3,4,5,10)          -132.3632         estimate D2E/DX2                !
 ! D43   D(3,4,5,22)           109.1675         estimate D2E/DX2                !
 ! D44   D(7,4,5,6)            110.8676         estimate D2E/DX2                !
 ! D45   D(7,4,5,10)            -8.9345         estimate D2E/DX2                !
 ! D46   D(7,4,5,22)          -127.4038         estimate D2E/DX2                !
 ! D47   D(24,4,5,6)          -131.2991         estimate D2E/DX2                !
 ! D48   D(24,4,5,10)          108.8987         estimate D2E/DX2                !
 ! D49   D(24,4,5,22)           -9.5706         estimate D2E/DX2                !
 ! D50   D(3,4,7,8)            104.9162         estimate D2E/DX2                !
 ! D51   D(3,4,7,17)            -6.4989         estimate D2E/DX2                !
 ! D52   D(3,4,7,21)          -130.2727         estimate D2E/DX2                !
 ! D53   D(5,4,7,8)            -25.4146         estimate D2E/DX2                !
 ! D54   D(5,4,7,17)          -136.8297         estimate D2E/DX2                !
 ! D55   D(5,4,7,21)            99.3965         estimate D2E/DX2                !
 ! D56   D(24,4,7,8)          -142.5082         estimate D2E/DX2                !
 ! D57   D(24,4,7,17)          106.0767         estimate D2E/DX2                !
 ! D58   D(24,4,7,21)          -17.6971         estimate D2E/DX2                !
 ! D59   D(3,4,24,23)          -94.92           estimate D2E/DX2                !
 ! D60   D(5,4,24,23)           30.959          estimate D2E/DX2                !
 ! D61   D(7,4,24,23)          154.17           estimate D2E/DX2                !
 ! D62   D(4,5,6,1)             36.0378         estimate D2E/DX2                !
 ! D63   D(4,5,6,34)           158.4872         estimate D2E/DX2                !
 ! D64   D(4,5,6,35)           -85.8078         estimate D2E/DX2                !
 ! D65   D(10,5,6,1)           160.4191         estimate D2E/DX2                !
 ! D66   D(10,5,6,34)          -77.1315         estimate D2E/DX2                !
 ! D67   D(10,5,6,35)           38.5735         estimate D2E/DX2                !
 ! D68   D(22,5,6,1)           -81.2112         estimate D2E/DX2                !
 ! D69   D(22,5,6,34)           41.2381         estimate D2E/DX2                !
 ! D70   D(22,5,6,35)          156.9432         estimate D2E/DX2                !
 ! D71   D(4,5,10,9)            39.8275         estimate D2E/DX2                !
 ! D72   D(4,5,10,16)         -147.5947         estimate D2E/DX2                !
 ! D73   D(6,5,10,9)           -85.3799         estimate D2E/DX2                !
 ! D74   D(6,5,10,16)           87.1979         estimate D2E/DX2                !
 ! D75   D(22,5,10,9)          154.832          estimate D2E/DX2                !
 ! D76   D(22,5,10,16)         -32.5902         estimate D2E/DX2                !
 ! D77   D(4,5,22,23)          -13.4077         estimate D2E/DX2                !
 ! D78   D(4,5,22,45)          104.736          estimate D2E/DX2                !
 ! D79   D(4,5,22,46)         -135.2205         estimate D2E/DX2                !
 ! D80   D(6,5,22,23)          110.1788         estimate D2E/DX2                !
 ! D81   D(6,5,22,45)         -131.6775         estimate D2E/DX2                !
 ! D82   D(6,5,22,46)          -11.634          estimate D2E/DX2                !
 ! D83   D(10,5,22,23)        -134.341          estimate D2E/DX2                !
 ! D84   D(10,5,22,45)         -16.1973         estimate D2E/DX2                !
 ! D85   D(10,5,22,46)         103.8462         estimate D2E/DX2                !
 ! D86   D(4,7,8,9)             34.8031         estimate D2E/DX2                !
 ! D87   D(4,7,8,19)          -139.9376         estimate D2E/DX2                !
 ! D88   D(17,7,8,9)           150.7054         estimate D2E/DX2                !
 ! D89   D(17,7,8,19)          -24.0353         estimate D2E/DX2                !
 ! D90   D(21,7,8,9)           -91.7288         estimate D2E/DX2                !
 ! D91   D(21,7,8,19)           93.5305         estimate D2E/DX2                !
 ! D92   D(4,7,17,18)          151.3857         estimate D2E/DX2                !
 ! D93   D(4,7,17,20)           29.7818         estimate D2E/DX2                !
 ! D94   D(4,7,17,30)          -88.1927         estimate D2E/DX2                !
 ! D95   D(8,7,17,18)           30.1149         estimate D2E/DX2                !
 ! D96   D(8,7,17,20)          -91.489          estimate D2E/DX2                !
 ! D97   D(8,7,17,30)          150.5366         estimate D2E/DX2                !
 ! D98   D(21,7,17,18)         -84.887          estimate D2E/DX2                !
 ! D99   D(21,7,17,20)         153.5091         estimate D2E/DX2                !
 ! D100  D(21,7,17,30)          35.5346         estimate D2E/DX2                !
 ! D101  D(4,7,21,44)           20.4086         estimate D2E/DX2                !
 ! D102  D(8,7,21,44)          148.9515         estimate D2E/DX2                !
 ! D103  D(17,7,21,44)        -101.1611         estimate D2E/DX2                !
 ! D104  D(7,8,9,10)            -4.2039         estimate D2E/DX2                !
 ! D105  D(7,8,9,11)          -178.9821         estimate D2E/DX2                !
 ! D106  D(19,8,9,10)          170.0165         estimate D2E/DX2                !
 ! D107  D(19,8,9,11)           -4.7616         estimate D2E/DX2                !
 ! D108  D(7,8,19,18)            6.4603         estimate D2E/DX2                !
 ! D109  D(9,8,19,18)         -168.2467         estimate D2E/DX2                !
 ! D110  D(8,9,10,5)           -34.5709         estimate D2E/DX2                !
 ! D111  D(8,9,10,16)          152.6249         estimate D2E/DX2                !
 ! D112  D(11,9,10,5)          140.2054         estimate D2E/DX2                !
 ! D113  D(11,9,10,16)         -32.5987         estimate D2E/DX2                !
 ! D114  D(8,9,11,12)           80.7554         estimate D2E/DX2                !
 ! D115  D(8,9,11,13)         -100.2141         estimate D2E/DX2                !
 ! D116  D(10,9,11,12)         -93.8032         estimate D2E/DX2                !
 ! D117  D(10,9,11,13)          85.2273         estimate D2E/DX2                !
 ! D118  D(9,11,13,14)          81.5624         estimate D2E/DX2                !
 ! D119  D(9,11,13,15)        -152.0065         estimate D2E/DX2                !
 ! D120  D(9,11,13,36)         -36.0176         estimate D2E/DX2                !
 ! D121  D(12,11,13,14)        -99.4539         estimate D2E/DX2                !
 ! D122  D(12,11,13,15)         26.9772         estimate D2E/DX2                !
 ! D123  D(12,11,13,36)        142.966          estimate D2E/DX2                !
 ! D124  D(11,13,14,37)        -57.2685         estimate D2E/DX2                !
 ! D125  D(11,13,14,38)       -173.0723         estimate D2E/DX2                !
 ! D126  D(11,13,14,62)         65.0857         estimate D2E/DX2                !
 ! D127  D(15,13,14,37)        177.5022         estimate D2E/DX2                !
 ! D128  D(15,13,14,38)         61.6984         estimate D2E/DX2                !
 ! D129  D(15,13,14,62)        -60.1436         estimate D2E/DX2                !
 ! D130  D(36,13,14,37)         60.0995         estimate D2E/DX2                !
 ! D131  D(36,13,14,38)        -55.7043         estimate D2E/DX2                !
 ! D132  D(36,13,14,62)       -177.5462         estimate D2E/DX2                !
 ! D133  D(11,13,15,39)        -59.5475         estimate D2E/DX2                !
 ! D134  D(11,13,15,40)         59.7314         estimate D2E/DX2                !
 ! D135  D(11,13,15,41)        179.2628         estimate D2E/DX2                !
 ! D136  D(14,13,15,39)         66.1488         estimate D2E/DX2                !
 ! D137  D(14,13,15,40)       -174.5723         estimate D2E/DX2                !
 ! D138  D(14,13,15,41)        -55.0409         estimate D2E/DX2                !
 ! D139  D(36,13,15,39)       -175.8988         estimate D2E/DX2                !
 ! D140  D(36,13,15,40)        -56.6199         estimate D2E/DX2                !
 ! D141  D(36,13,15,41)         62.9115         estimate D2E/DX2                !
 ! D142  D(13,14,62,63)         63.5868         estimate D2E/DX2                !
 ! D143  D(13,14,62,64)       -177.3845         estimate D2E/DX2                !
 ! D144  D(13,14,62,65)        -58.0014         estimate D2E/DX2                !
 ! D145  D(37,14,62,63)       -173.407          estimate D2E/DX2                !
 ! D146  D(37,14,62,64)        -54.3783         estimate D2E/DX2                !
 ! D147  D(37,14,62,65)         65.0048         estimate D2E/DX2                !
 ! D148  D(38,14,62,63)        -58.5223         estimate D2E/DX2                !
 ! D149  D(38,14,62,64)         60.5064         estimate D2E/DX2                !
 ! D150  D(38,14,62,65)        179.8895         estimate D2E/DX2                !
 ! D151  D(7,17,18,19)         -28.5883         estimate D2E/DX2                !
 ! D152  D(7,17,18,28)          88.7946         estimate D2E/DX2                !
 ! D153  D(7,17,18,29)        -147.5444         estimate D2E/DX2                !
 ! D154  D(20,17,18,19)         82.7657         estimate D2E/DX2                !
 ! D155  D(20,17,18,28)       -159.8514         estimate D2E/DX2                !
 ! D156  D(20,17,18,29)        -36.1903         estimate D2E/DX2                !
 ! D157  D(30,17,18,19)       -149.8139         estimate D2E/DX2                !
 ! D158  D(30,17,18,28)        -32.431          estimate D2E/DX2                !
 ! D159  D(30,17,18,29)         91.23           estimate D2E/DX2                !
 ! D160  D(7,17,20,3)          -41.6174         estimate D2E/DX2                !
 ! D161  D(7,17,20,42)          77.2772         estimate D2E/DX2                !
 ! D162  D(7,17,20,43)        -161.8798         estimate D2E/DX2                !
 ! D163  D(18,17,20,3)        -153.4535         estimate D2E/DX2                !
 ! D164  D(18,17,20,42)        -34.5589         estimate D2E/DX2                !
 ! D165  D(18,17,20,43)         86.2841         estimate D2E/DX2                !
 ! D166  D(30,17,20,3)          78.3342         estimate D2E/DX2                !
 ! D167  D(30,17,20,42)       -162.7712         estimate D2E/DX2                !
 ! D168  D(30,17,20,43)        -41.9282         estimate D2E/DX2                !
 ! D169  D(17,18,19,8)          14.1314         estimate D2E/DX2                !
 ! D170  D(28,18,19,8)        -106.2596         estimate D2E/DX2                !
 ! D171  D(29,18,19,8)         136.5641         estimate D2E/DX2                !
 ! D172  D(17,18,28,53)       -177.509          estimate D2E/DX2                !
 ! D173  D(17,18,28,54)         61.9436         estimate D2E/DX2                !
 ! D174  D(17,18,28,55)        -59.8517         estimate D2E/DX2                !
 ! D175  D(19,18,28,53)        -60.7976         estimate D2E/DX2                !
 ! D176  D(19,18,28,54)        178.655          estimate D2E/DX2                !
 ! D177  D(19,18,28,55)         56.8597         estimate D2E/DX2                !
 ! D178  D(29,18,28,53)         56.0931         estimate D2E/DX2                !
 ! D179  D(29,18,28,54)        -64.4542         estimate D2E/DX2                !
 ! D180  D(29,18,28,55)        173.7505         estimate D2E/DX2                !
 ! D181  D(17,18,29,56)         64.4731         estimate D2E/DX2                !
 ! D182  D(17,18,29,57)       -178.3059         estimate D2E/DX2                !
 ! D183  D(17,18,29,58)        -57.6761         estimate D2E/DX2                !
 ! D184  D(19,18,29,56)        -53.4768         estimate D2E/DX2                !
 ! D185  D(19,18,29,57)         63.7442         estimate D2E/DX2                !
 ! D186  D(19,18,29,58)       -175.6261         estimate D2E/DX2                !
 ! D187  D(28,18,29,56)       -169.965          estimate D2E/DX2                !
 ! D188  D(28,18,29,57)        -52.744          estimate D2E/DX2                !
 ! D189  D(28,18,29,58)         67.8858         estimate D2E/DX2                !
 ! D190  D(5,22,23,24)          32.1808         estimate D2E/DX2                !
 ! D191  D(5,22,23,25)         153.6526         estimate D2E/DX2                !
 ! D192  D(5,22,23,47)         -83.2509         estimate D2E/DX2                !
 ! D193  D(45,22,23,24)        -86.9881         estimate D2E/DX2                !
 ! D194  D(45,22,23,25)         34.4838         estimate D2E/DX2                !
 ! D195  D(45,22,23,47)        157.5802         estimate D2E/DX2                !
 ! D196  D(46,22,23,24)        155.5421         estimate D2E/DX2                !
 ! D197  D(46,22,23,25)        -82.9861         estimate D2E/DX2                !
 ! D198  D(46,22,23,47)         40.1104         estimate D2E/DX2                !
 ! D199  D(22,23,24,4)         -39.5625         estimate D2E/DX2                !
 ! D200  D(25,23,24,4)        -162.5061         estimate D2E/DX2                !
 ! D201  D(47,23,24,4)          78.1479         estimate D2E/DX2                !
 ! D202  D(22,23,25,26)         67.4684         estimate D2E/DX2                !
 ! D203  D(22,23,25,27)       -113.6784         estimate D2E/DX2                !
 ! D204  D(24,23,25,26)       -175.5343         estimate D2E/DX2                !
 ! D205  D(24,23,25,27)          3.3189         estimate D2E/DX2                !
 ! D206  D(47,23,25,26)        -56.8155         estimate D2E/DX2                !
 ! D207  D(47,23,25,27)        122.0378         estimate D2E/DX2                !
 ! D208  D(23,25,26,48)         56.6204         estimate D2E/DX2                !
 ! D209  D(23,25,26,49)        176.4446         estimate D2E/DX2                !
 ! D210  D(23,25,26,50)        -63.4846         estimate D2E/DX2                !
 ! D211  D(27,25,26,48)       -122.2799         estimate D2E/DX2                !
 ! D212  D(27,25,26,49)         -2.4557         estimate D2E/DX2                !
 ! D213  D(27,25,26,50)        117.6151         estimate D2E/DX2                !
 ! D214  D(23,25,27,51)       -179.4889         estimate D2E/DX2                !
 ! D215  D(23,25,27,52)          0.4957         estimate D2E/DX2                !
 ! D216  D(26,25,27,51)         -0.6907         estimate D2E/DX2                !
 ! D217  D(26,25,27,52)        179.2939         estimate D2E/DX2                !
 --------------------------------------------------------------------------------
 Trust Radius=3.00D-01 FncErr=1.00D-07 GrdErr=1.00D-06
 Number of steps in this run=    390 maximum allowed number of steps=    390.
 GradGradGradGradGradGradGradGradGradGradGradGradGradGradGradGradGradGrad

 Stoichiometry    C26H34O5
 Framework group  C1[X(C26H34O5)]
 Deg. of freedom   189
 Full point group                 C1      NOp   1
 Largest Abelian subgroup         C1      NOp   1
 Largest concise Abelian subgroup C1      NOp   1
                         Standard orientation:                         
 ---------------------------------------------------------------------
 Center     Atomic      Atomic             Coordinates (Angstroms)
 Number     Number       Type             X           Y           Z
 ---------------------------------------------------------------------
      1          6           0       -2.136399    0.419027    2.733624
      2          6           0       -2.406281    1.504792    1.995598
      3          6           0       -1.811325    1.684452    0.624911
      4          6           0       -1.349735    0.385941   -0.101799
      5          6           0       -1.181733   -0.895316    0.752904
      6          6           0       -1.201737   -0.652258    2.277537
      7          6           0       -0.093880    0.820516   -0.888759
      8          6           0        1.205420    0.372613   -0.317006
      9          6           0        1.358630   -0.800690    0.301487
     10          6           0        0.147467   -1.626387    0.490519
     11          6           0        2.658767   -1.201366    0.875945
     12          8           0        2.986703   -0.763489    1.978453
     13          6           0        3.516858   -2.166365    0.062310
     14          6           0        4.308455   -1.431676   -1.031012
     15          6           0        4.408984   -2.999736    0.981158
     16          8           0        0.254044   -2.849552    0.566730
     17          6           0        0.051403    2.323781   -0.751777
     18          6           0        1.571606    2.543153   -0.875989
     19          8           0        2.201408    1.334579   -0.387052
     20          6           0       -0.574094    2.590278    0.624681
     21          8           0       -0.153515    0.413798   -2.248571
     22          6           0       -2.355486   -1.786494    0.305447
     23          6           0       -3.275053   -0.867289   -0.476544
     24          8           0       -2.380821    0.071069   -1.085117
     25          6           0       -4.118740   -1.581315   -1.507960
     26          6           0       -5.163695   -2.512612   -0.953379
     27          6           0       -3.995537   -1.409565   -2.835637
     28          6           0        2.011797    2.737707   -2.335430
     29          6           0        2.090425    3.721232   -0.047534
     30          1           0       -0.499018    2.874395   -1.524730
     31          1           0       -2.578890    2.162586   -0.002561
     32          6           0       -3.299944    2.603806    2.496556
     33          1           0       -2.551143    0.317780    3.734442
     34          1           0       -1.462909   -1.586591    2.792016
     35          1           0       -0.204027   -0.388149    2.653015
     36          1           0        2.834951   -2.867946   -0.435901
     37          1           0        3.615816   -0.888151   -1.684479
     38          1           0        4.810259   -2.172838   -1.665457
     39          1           0        5.081111   -2.376916    1.580280
     40          1           0        3.798489   -3.580056    1.682187
     41          1           0        5.016785   -3.702503    0.402030
     42          1           0        0.100606    2.319313    1.446151
     43          1           0       -0.838183    3.646479    0.743988
     44          1           0       -1.103127    0.252047   -2.433118
     45          1           0       -2.006068   -2.595499   -0.349109
     46          1           0       -2.885752   -2.263786    1.136883
     47          1           0       -3.937389   -0.309230    0.196572
     48          1           0       -5.829390   -1.972926   -0.271923
     49          1           0       -5.784221   -2.953326   -1.740950
     50          1           0       -4.694201   -3.334712   -0.404044
     51          1           0       -4.631372   -1.939978   -3.538001
     52          1           0       -3.259518   -0.736811   -3.262796
     53          1           0        3.100963    2.847284   -2.398531
     54          1           0        1.549537    3.627035   -2.775793
     55          1           0        1.765460    1.873413   -2.959164
     56          1           0        1.960665    3.551472    1.026134
     57          1           0        3.169131    3.852526   -0.193994
     58          1           0        1.589680    4.655073   -0.322075
     59          1           0       -3.682367    2.396972    3.501655
     60          1           0       -2.754303    3.551804    2.536864
     61          1           0       -4.161192    2.724860    1.831670
     62          6           0        5.354582   -0.450752   -0.517448
     63          1           0        6.140098   -0.961064    0.047401
     64          1           0        5.833458    0.057127   -1.361187
     65          1           0        4.908966    0.316188    0.122568
 ---------------------------------------------------------------------
 Rotational constants (GHZ):      0.2171616      0.1236900      0.1076366
 Standard basis: 6-31G(d) (6D, 7F)
 There are   533 symmetry adapted basis functions of A   symmetry.
 Integral buffers will be    131072 words long.
 Raffenetti 2 integral format.
 Two-electron integral symmetry is turned on.
   533 basis functions,  1004 primitive gaussians,   533 cartesian basis functions
   115 alpha electrons      115 beta electrons
       nuclear repulsion energy      3509.6995633807 Hartrees.
 NAtoms=   65 NActive=   65 NUniq=   65 SFac= 1.00D+00 NAtFMM=   50 NAOKFM=T Big=T
 One-electron integrals computed using PRISM.
 NBasis=   533 RedAO= T  NBF=   533
 NBsUse=   533 1.00D-06 NBFU=   533
 Harris functional with IExCor=  402 diagonalized for initial guess.
 ExpMin= 1.61D-01 ExpMax= 5.48D+03 ExpMxC= 8.25D+02 IAcc=1 IRadAn=         1 AccDes= 0.00D+00
 HarFok:  IExCor=  402 AccDes= 0.00D+00 IRadAn=         1 IDoV= 1
 ScaDFX=  1.000000  1.000000  1.000000  1.000000
 FoFCou: FMM=F IPFlag=           0 FMFlag=      100000 FMFlg1=        2001
         NFxFlg=           0 DoJE=T BraDBF=F KetDBF=T FulRan=T
         Omega=  0.000000  0.000000  1.000000  0.000000  0.000000 ICntrl=     500 IOpCl=  0
         NMat0=    1 NMatS0=    1 NMatT0=    0 NMatD0=    1 NMtDS0=    0 NMtDT0=    0
         I1Cent=           4 NGrid=           0.
 Petite list used in FoFCou.
 Initial guess orbital symmetries:
       Occupied  (A) (A) (A) (A) (A) (A) (A) (A) (A) (A) (A) (A)
                 (A) (A) (A) (A) (A) (A) (A) (A) (A) (A) (A) (A)
                 (A) (A) (A) (A) (A) (A) (A) (A) (A) (A) (A) (A)
                 (A) (A) (A) (A) (A) (A) (A) (A) (A) (A) (A) (A)
                 (A) (A) (A) (A) (A) (A) (A) (A) (A) (A) (A) (A)
                 (A) (A) (A) (A) (A) (A) (A) (A) (A) (A) (A) (A)
                 (A) (A) (A) (A) (A) (A) (A) (A) (A) (A) (A) (A)
                 (A) (A) (A) (A) (A) (A) (A) (A) (A) (A) (A) (A)
                 (A) (A) (A) (A) (A) (A) (A) (A) (A) (A) (A) (A)
                 (A) (A) (A) (A) (A) (A) (A)
       Virtual   (A) (A) (A) (A) (A) (A) (A) (A) (A) (A) (A) (A)
                 (A) (A) (A) (A) (A) (A) (A) (A) (A) (A) (A) (A)
                 (A) (A) (A) (A) (A) (A) (A) (A) (A) (A) (A) (A)
                 (A) (A) (A) (A) (A) (A) (A) (A) (A) (A) (A) (A)
                 (A) (A) (A) (A) (A) (A) (A) (A) (A) (A) (A) (A)
                 (A) (A) (A) (A) (A) (A) (A) (A) (A) (A) (A) (A)
                 (A) (A) (A) (A) (A) (A) (A) (A) (A) (A) (A) (A)
                 (A) (A) (A) (A) (A) (A) (A) (A) (A) (A) (A) (A)
                 (A) (A) (A) (A) (A) (A) (A) (A) (A) (A) (A) (A)
                 (A) (A) (A) (A) (A) (A) (A) (A) (A) (A) (A) (A)
                 (A) (A) (A) (A) (A) (A) (A) (A) (A) (A) (A) (A)
                 (A) (A) (A) (A) (A) (A) (A) (A) (A) (A) (A) (A)
                 (A) (A) (A) (A) (A) (A) (A) (A) (A) (A) (A) (A)
                 (A) (A) (A) (A) (A) (A) (A) (A) (A) (A) (A) (A)
                 (A) (A) (A) (A) (A) (A) (A) (A) (A) (A) (A) (A)
                 (A) (A) (A) (A) (A) (A) (A) (A) (A) (A) (A) (A)
                 (A) (A) (A) (A) (A) (A) (A) (A) (A) (A) (A) (A)
                 (A) (A) (A) (A) (A) (A) (A) (A) (A) (A) (A) (A)
                 (A) (A) (A) (A) (A) (A) (A) (A) (A) (A) (A) (A)
                 (A) (A) (A) (A) (A) (A) (A) (A) (A) (A) (A) (A)
                 (A) (A) (A) (A) (A) (A) (A) (A) (A) (A) (A) (A)
                 (A) (A) (A) (A) (A) (A) (A) (A) (A) (A) (A) (A)
                 (A) (A) (A) (A) (A) (A) (A) (A) (A) (A) (A) (A)
                 (A) (A) (A) (A) (A) (A) (A) (A) (A) (A) (A) (A)
                 (A) (A) (A) (A) (A) (A) (A) (A) (A) (A) (A) (A)
                 (A) (A) (A) (A) (A) (A) (A) (A) (A) (A) (A) (A)
                 (A) (A) (A) (A) (A) (A) (A) (A) (A) (A) (A) (A)
                 (A) (A) (A) (A) (A) (A) (A) (A) (A) (A) (A) (A)
                 (A) (A) (A) (A) (A) (A) (A) (A) (A) (A) (A) (A)
                 (A) (A) (A) (A) (A) (A) (A) (A) (A) (A) (A) (A)
                 (A) (A) (A) (A) (A) (A) (A) (A) (A) (A) (A) (A)
                 (A) (A) (A) (A) (A) (A) (A) (A) (A) (A) (A) (A)
                 (A) (A) (A) (A) (A) (A) (A) (A) (A) (A) (A) (A)
                 (A) (A) (A) (A) (A) (A) (A) (A) (A) (A) (A) (A)
                 (A) (A) (A) (A) (A) (A) (A) (A) (A) (A)
 The electronic state of the initial guess is 1-A.
 Requested convergence on RMS density matrix=1.00D-08 within 128 cycles.
 Requested convergence on MAX density matrix=1.00D-06.
 Requested convergence on             energy=1.00D-06.
 No special actions if energy rises.
 Integral accuracy reduced to 1.0D-05 until final iterations.
 Initial convergence to 1.0D-05 achieved.  Increase integral accuracy.
 SCF Done:  E(RB3LYP) =  -1387.30143595     A.U. after   15 cycles
             Convg  =    0.9703D-08             -V/T =  2.0091

 **********************************************************************

            Population analysis using the SCF density.

 **********************************************************************

 Orbital symmetries:
       Occupied  (A) (A) (A) (A) (A) (A) (A) (A) (A) (A) (A) (A)
                 (A) (A) (A) (A) (A) (A) (A) (A) (A) (A) (A) (A)
                 (A) (A) (A) (A) (A) (A) (A) (A) (A) (A) (A) (A)
                 (A) (A) (A) (A) (A) (A) (A) (A) (A) (A) (A) (A)
                 (A) (A) (A) (A) (A) (A) (A) (A) (A) (A) (A) (A)
                 (A) (A) (A) (A) (A) (A) (A) (A) (A) (A) (A) (A)
                 (A) (A) (A) (A) (A) (A) (A) (A) (A) (A) (A) (A)
                 (A) (A) (A) (A) (A) (A) (A) (A) (A) (A) (A) (A)
                 (A) (A) (A) (A) (A) (A) (A) (A) (A) (A) (A) (A)
                 (A) (A) (A) (A) (A) (A) (A)
       Virtual   (A) (A) (A) (A) (A) (A) (A) (A) (A) (A) (A) (A)
                 (A) (A) (A) (A) (A) (A) (A) (A) (A) (A) (A) (A)
                 (A) (A) (A) (A) (A) (A) (A) (A) (A) (A) (A) (A)
                 (A) (A) (A) (A) (A) (A) (A) (A) (A) (A) (A) (A)
                 (A) (A) (A) (A) (A) (A) (A) (A) (A) (A) (A) (A)
                 (A) (A) (A) (A) (A) (A) (A) (A) (A) (A) (A) (A)
                 (A) (A) (A) (A) (A) (A) (A) (A) (A) (A) (A) (A)
                 (A) (A) (A) (A) (A) (A) (A) (A) (A) (A) (A) (A)
                 (A) (A) (A) (A) (A) (A) (A) (A) (A) (A) (A) (A)
                 (A) (A) (A) (A) (A) (A) (A) (A) (A) (A) (A) (A)
                 (A) (A) (A) (A) (A) (A) (A) (A) (A) (A) (A) (A)
                 (A) (A) (A) (A) (A) (A) (A) (A) (A) (A) (A) (A)
                 (A) (A) (A) (A) (A) (A) (A) (A) (A) (A) (A) (A)
                 (A) (A) (A) (A) (A) (A) (A) (A) (A) (A) (A) (A)
                 (A) (A) (A) (A) (A) (A) (A) (A) (A) (A) (A) (A)
                 (A) (A) (A) (A) (A) (A) (A) (A) (A) (A) (A) (A)
                 (A) (A) (A) (A) (A) (A) (A) (A) (A) (A) (A) (A)
                 (A) (A) (A) (A) (A) (A) (A) (A) (A) (A) (A) (A)
                 (A) (A) (A) (A) (A) (A) (A) (A) (A) (A) (A) (A)
                 (A) (A) (A) (A) (A) (A) (A) (A) (A) (A) (A) (A)
                 (A) (A) (A) (A) (A) (A) (A) (A) (A) (A) (A) (A)
                 (A) (A) (A) (A) (A) (A) (A) (A) (A) (A) (A) (A)
                 (A) (A) (A) (A) (A) (A) (A) (A) (A) (A) (A) (A)
                 (A) (A) (A) (A) (A) (A) (A) (A) (A) (A) (A) (A)
                 (A) (A) (A) (A) (A) (A) (A) (A) (A) (A) (A) (A)
                 (A) (A) (A) (A) (A) (A) (A) (A) (A) (A) (A) (A)
                 (A) (A) (A) (A) (A) (A) (A) (A) (A) (A) (A) (A)
                 (A) (A) (A) (A) (A) (A) (A) (A) (A) (A) (A) (A)
                 (A) (A) (A) (A) (A) (A) (A) (A) (A) (A) (A) (A)
                 (A) (A) (A) (A) (A) (A) (A) (A) (A) (A) (A) (A)
                 (A) (A) (A) (A) (A) (A) (A) (A) (A) (A) (A) (A)
                 (A) (A) (A) (A) (A) (A) (A) (A) (A) (A) (A) (A)
                 (A) (A) (A) (A) (A) (A) (A) (A) (A) (A) (A) (A)
                 (A) (A) (A) (A) (A) (A) (A) (A) (A) (A) (A) (A)
                 (A) (A) (A) (A) (A) (A) (A) (A) (A) (A)
 The electronic state is 1-A.
 Alpha  occ. eigenvalues --  -19.19346 -19.16977 -19.14515 -19.13620 -19.13567
 Alpha  occ. eigenvalues --  -10.27821 -10.27065 -10.26400 -10.26324 -10.25877
 Alpha  occ. eigenvalues --  -10.25535 -10.24851 -10.21918 -10.20375 -10.20192
 Alpha  occ. eigenvalues --  -10.19888 -10.19807 -10.19794 -10.19722 -10.19081
 Alpha  occ. eigenvalues --  -10.19067 -10.18920 -10.18836 -10.18724 -10.18489
 Alpha  occ. eigenvalues --  -10.18347 -10.17849 -10.17781 -10.17631 -10.16125
 Alpha  occ. eigenvalues --  -10.16107  -1.08362  -1.06279  -1.03466  -1.02558
 Alpha  occ. eigenvalues --   -1.01835  -0.87624  -0.83981  -0.82682  -0.81664
 Alpha  occ. eigenvalues --   -0.80407  -0.79887  -0.77052  -0.74384  -0.73558
 Alpha  occ. eigenvalues --   -0.72474  -0.71611  -0.69574  -0.68969  -0.68486
 Alpha  occ. eigenvalues --   -0.65757  -0.63976  -0.63668  -0.62152  -0.61191
 Alpha  occ. eigenvalues --   -0.59200  -0.58962  -0.57142  -0.54913  -0.53524
 Alpha  occ. eigenvalues --   -0.53012  -0.51944  -0.50944  -0.50580  -0.49398
 Alpha  occ. eigenvalues --   -0.47958  -0.47630  -0.46923  -0.46136  -0.45682
 Alpha  occ. eigenvalues --   -0.45277  -0.45065  -0.44538  -0.43920  -0.43399
 Alpha  occ. eigenvalues --   -0.43191  -0.42624  -0.42452  -0.42032  -0.41803
 Alpha  occ. eigenvalues --   -0.41456  -0.40610  -0.40298  -0.39858  -0.39718
 Alpha  occ. eigenvalues --   -0.39286  -0.38698  -0.38590  -0.38246  -0.37920
 Alpha  occ. eigenvalues --   -0.37515  -0.37119  -0.36958  -0.36612  -0.36062
 Alpha  occ. eigenvalues --   -0.35866  -0.35316  -0.34995  -0.34940  -0.34342
 Alpha  occ. eigenvalues --   -0.33985  -0.33661  -0.33234  -0.32824  -0.32208
 Alpha  occ. eigenvalues --   -0.31826  -0.31506  -0.31431  -0.28153  -0.26985
 Alpha  occ. eigenvalues --   -0.25066  -0.25004  -0.24303  -0.23754  -0.23124
 Alpha virt. eigenvalues --   -0.04491  -0.01729   0.01171   0.01874   0.02714
 Alpha virt. eigenvalues --    0.06423   0.08207   0.08387   0.09255   0.10019
 Alpha virt. eigenvalues --    0.10339   0.10483   0.11294   0.11490   0.12314
 Alpha virt. eigenvalues --    0.12570   0.13116   0.13435   0.13617   0.13968
 Alpha virt. eigenvalues --    0.14511   0.14714   0.14923   0.15497   0.15751
 Alpha virt. eigenvalues --    0.15862   0.16254   0.16772   0.16854   0.17259
 Alpha virt. eigenvalues --    0.17590   0.17976   0.18568   0.18957   0.19070
 Alpha virt. eigenvalues --    0.19340   0.19484   0.19874   0.20440   0.20714
 Alpha virt. eigenvalues --    0.21189   0.21285   0.21516   0.22273   0.22694
 Alpha virt. eigenvalues --    0.23103   0.23570   0.23788   0.24332   0.24462
 Alpha virt. eigenvalues --    0.24782   0.25283   0.25771   0.25977   0.26758
 Alpha virt. eigenvalues --    0.27348   0.27944   0.28392   0.29393   0.30583
 Alpha virt. eigenvalues --    0.31623   0.32649   0.32764   0.34113   0.34460
 Alpha virt. eigenvalues --    0.34647   0.36217   0.37906   0.38184   0.40228
 Alpha virt. eigenvalues --    0.40700   0.44940   0.46644   0.47358   0.48451
 Alpha virt. eigenvalues --    0.49728   0.50234   0.50672   0.51608   0.52057
 Alpha virt. eigenvalues --    0.52555   0.52733   0.53055   0.53270   0.53533
 Alpha virt. eigenvalues --    0.54053   0.54424   0.54947   0.55506   0.55877
 Alpha virt. eigenvalues --    0.56340   0.57459   0.57961   0.58726   0.58973
 Alpha virt. eigenvalues --    0.60026   0.60337   0.60459   0.61238   0.61924
 Alpha virt. eigenvalues --    0.62477   0.62754   0.63047   0.63761   0.63959
 Alpha virt. eigenvalues --    0.64848   0.65298   0.66363   0.66706   0.67274
 Alpha virt. eigenvalues --    0.67674   0.68567   0.68629   0.69556   0.69851
 Alpha virt. eigenvalues --    0.70394   0.71030   0.71818   0.72348   0.72986
 Alpha virt. eigenvalues --    0.73103   0.73940   0.74412   0.75791   0.76174
 Alpha virt. eigenvalues --    0.76431   0.77239   0.77581   0.78722   0.79474
 Alpha virt. eigenvalues --    0.79986   0.80524   0.81072   0.81945   0.82260
 Alpha virt. eigenvalues --    0.82985   0.83423   0.83768   0.84215   0.85147
 Alpha virt. eigenvalues --    0.85676   0.85920   0.86040   0.86127   0.86656
 Alpha virt. eigenvalues --    0.87526   0.87725   0.88201   0.88551   0.89180
 Alpha virt. eigenvalues --    0.89312   0.89730   0.90127   0.90142   0.90490
 Alpha virt. eigenvalues --    0.90716   0.90756   0.91187   0.91536   0.91642
 Alpha virt. eigenvalues --    0.92454   0.93279   0.93556   0.94171   0.94498
 Alpha virt. eigenvalues --    0.95007   0.95719   0.96037   0.96202   0.97180
 Alpha virt. eigenvalues --    0.97572   0.98262   0.98507   0.99245   0.99735
 Alpha virt. eigenvalues --    1.00194   1.01603   1.02157   1.02777   1.03193
 Alpha virt. eigenvalues --    1.03888   1.04675   1.05736   1.06419   1.07227
 Alpha virt. eigenvalues --    1.09683   1.10939   1.11176   1.12032   1.12210
 Alpha virt. eigenvalues --    1.12983   1.13700   1.14769   1.15424   1.16545
 Alpha virt. eigenvalues --    1.16936   1.17235   1.18049   1.19423   1.20585
 Alpha virt. eigenvalues --    1.21186   1.23269   1.24156   1.25670   1.26843
 Alpha virt. eigenvalues --    1.28695   1.29158   1.30088   1.31387   1.33701
 Alpha virt. eigenvalues --    1.35085   1.37355   1.37820   1.38517   1.39633
 Alpha virt. eigenvalues --    1.40864   1.43144   1.44443   1.45076   1.46205
 Alpha virt. eigenvalues --    1.47836   1.50337   1.50699   1.51374   1.52883
 Alpha virt. eigenvalues --    1.54203   1.54767   1.56299   1.57609   1.58452
 Alpha virt. eigenvalues --    1.59388   1.59706   1.61917   1.63901   1.64254
 Alpha virt. eigenvalues --    1.65444   1.65933   1.66886   1.67703   1.69308
 Alpha virt. eigenvalues --    1.70762   1.72028   1.73190   1.73951   1.74994
 Alpha virt. eigenvalues --    1.75071   1.75391   1.77016   1.77672   1.78632
 Alpha virt. eigenvalues --    1.79159   1.79895   1.80170   1.81354   1.82046
 Alpha virt. eigenvalues --    1.82615   1.83058   1.83988   1.85018   1.85465
 Alpha virt. eigenvalues --    1.86456   1.86670   1.87568   1.88018   1.88827
 Alpha virt. eigenvalues --    1.89655   1.90044   1.90441   1.91023   1.92173
 Alpha virt. eigenvalues --    1.92555   1.93457   1.94874   1.95768   1.96087
 Alpha virt. eigenvalues --    1.96490   1.97223   1.97490   1.97825   1.98542
 Alpha virt. eigenvalues --    1.98704   2.00042   2.00444   2.00539   2.00935
 Alpha virt. eigenvalues --    2.01580   2.02736   2.03653   2.05016   2.05681
 Alpha virt. eigenvalues --    2.06776   2.08058   2.09205   2.09872   2.10472
 Alpha virt. eigenvalues --    2.10885   2.11487   2.12715   2.14150   2.14806
 Alpha virt. eigenvalues --    2.15348   2.15739   2.16196   2.16775   2.17543
 Alpha virt. eigenvalues --    2.18890   2.19214   2.20481   2.21743   2.22491
 Alpha virt. eigenvalues --    2.23429   2.24823   2.26003   2.26494   2.27645
 Alpha virt. eigenvalues --    2.28242   2.29165   2.29605   2.30087   2.31020
 Alpha virt. eigenvalues --    2.31922   2.32800   2.33163   2.33506   2.34127
 Alpha virt. eigenvalues --    2.35641   2.37105   2.37211   2.38746   2.39976
 Alpha virt. eigenvalues --    2.41054   2.41968   2.42053   2.43213   2.44354
 Alpha virt. eigenvalues --    2.45028   2.46497   2.48026   2.48561   2.48769
 Alpha virt. eigenvalues --    2.50189   2.50733   2.51890   2.53406   2.54339
 Alpha virt. eigenvalues --    2.57689   2.58077   2.58764   2.59648   2.61404
 Alpha virt. eigenvalues --    2.62504   2.63483   2.64249   2.64962   2.65181
 Alpha virt. eigenvalues --    2.66063   2.68068   2.68940   2.70761   2.71688
 Alpha virt. eigenvalues --    2.72391   2.73379   2.75579   2.76083   2.78614
 Alpha virt. eigenvalues --    2.79178   2.79632   2.80370   2.81397   2.85405
 Alpha virt. eigenvalues --    2.87853   2.90143   2.93836   2.94318   2.95020
 Alpha virt. eigenvalues --    2.98159   3.00451   3.00783   3.01783   3.02852
 Alpha virt. eigenvalues --    3.06599   3.07452   3.12867   3.16575   3.20763
 Alpha virt. eigenvalues --    3.23101   3.28890   4.01618   4.08106   4.11443
 Alpha virt. eigenvalues --    4.13905   4.15097   4.17741   4.18260   4.19748
 Alpha virt. eigenvalues --    4.22732   4.24805   4.26263   4.27306   4.31673
 Alpha virt. eigenvalues --    4.32964   4.33596   4.38067   4.41525   4.44229
 Alpha virt. eigenvalues --    4.47941   4.49922   4.51788   4.58171   4.62959
 Alpha virt. eigenvalues --    4.65053   4.65599   4.71075   4.75524   4.77911
 Alpha virt. eigenvalues --    4.89743   4.97127   5.26846
          Condensed to atoms (all electrons):
 Mulliken atomic charges:
              1
     1  C   -0.196297
     2  C    0.195257
     3  C   -0.193816
     4  C    0.316745
     5  C   -0.024102
     6  C   -0.331487
     7  C    0.198482
     8  C    0.420187
     9  C   -0.102017
    10  C    0.399615
    11  C    0.418788
    12  O   -0.458013
    13  C   -0.156609
    14  C   -0.265960
    15  C   -0.451285
    16  O   -0.490886
    17  C   -0.154286
    18  C    0.306513
    19  O   -0.537133
    20  C   -0.308075
    21  O   -0.675886
    22  C   -0.315079
    23  C    0.116156
    24  O   -0.593764
    25  C    0.181247
    26  C   -0.517484
    27  C   -0.391439
    28  C   -0.460919
    29  C   -0.463100
    30  H    0.146111
    31  H    0.151012
    32  C   -0.519705
    33  H    0.125863
    34  H    0.162359
    35  H    0.180792
    36  H    0.162141
    37  H    0.148818
    38  H    0.139133
    39  H    0.164367
    40  H    0.154043
    41  H    0.135611
    42  H    0.166937
    43  H    0.149151
    44  H    0.426221
    45  H    0.182091
    46  H    0.151611
    47  H    0.136724
    48  H    0.154313
    49  H    0.160972
    50  H    0.165934
    51  H    0.137639
    52  H    0.141622
    53  H    0.150243
    54  H    0.140182
    55  H    0.183625
    56  H    0.160895
    57  H    0.158739
    58  H    0.148358
    59  H    0.157812
    60  H    0.157532
    61  H    0.154601
    62  C   -0.450629
    63  H    0.146013
    64  H    0.136708
    65  H    0.166805
 Sum of Mulliken atomic charges =   0.00000
 Mulliken charges with hydrogens summed into heavy atoms:
              1
     1  C   -0.070434
     2  C    0.195257
     3  C   -0.042804
     4  C    0.316745
     5  C   -0.024102
     6  C    0.011664
     7  C    0.198482
     8  C    0.420187
     9  C   -0.102017
    10  C    0.399615
    11  C    0.418788
    12  O   -0.458013
    13  C    0.005532
    14  C    0.021991
    15  C    0.002736
    16  O   -0.490886
    17  C   -0.008174
    18  C    0.306513
    19  O   -0.537133
    20  C    0.008013
    21  O   -0.249665
    22  C    0.018623
    23  C    0.252880
    24  O   -0.593764
    25  C    0.181247
    26  C   -0.036265
    27  C   -0.112178
    28  C    0.013130
    29  C    0.004892
    32  C   -0.049760
    62  C   -0.001103
 Sum of Mulliken charges with hydrogens summed into heavy atoms =   0.00000
 Electronic spatial extent (au):  <R**2>=          11722.7626
 Charge=              0.0000 electrons
 Dipole moment (field-independent basis, Debye):
    X=             -3.7651    Y=              3.2944    Z=             -0.5518  Tot=              5.0333
 Quadrupole moment (field-independent basis, Debye-Ang):
   XX=           -178.9002   YY=           -179.6236   ZZ=           -187.7456
   XY=              3.3569   XZ=            -10.0221   YZ=              1.4302
 Traceless Quadrupole moment (field-independent basis, Debye-Ang):
   XX=              3.1896   YY=              2.4662   ZZ=             -5.6558
   XY=              3.3569   XZ=            -10.0221   YZ=              1.4302
 Octapole moment (field-independent basis, Debye-Ang**2):
  XXX=            -27.7372  YYY=             52.0978  ZZZ=             -6.3720  XYY=             -0.7035
  XXY=            -28.8274  XXZ=            -23.8842  XZZ=            -26.8787  YZZ=             -0.3156
  YYZ=            -12.3490  XYZ=             -3.3441
 Hexadecapole moment (field-independent basis, Debye-Ang**3):
 XXXX=          -8935.4756 YYYY=          -4224.2777 ZZZZ=          -2471.6093 XXXY=             73.0513
 XXXZ=            -57.3409 YYYX=             25.8395 YYYZ=            -15.8978 ZZZX=            -11.9927
 ZZZY=             -9.4241 XXYY=          -2102.0756 XXZZ=          -1932.7689 YYZZ=          -1108.7396
 XXYZ=             51.6816 YYXZ=              3.1277 ZZXY=             30.0823
 N-N= 3.509699563381D+03 E-N=-1.024570409383D+04  KE= 1.374842021967D+03
 Calling FoFJK, ICntrl=      2127 FMM=T ISym2X=0 I1Cent= 0 IOpClX= 0 NMat=1 NMatS=1 NMatT=0.
 ***** Axes restored to original set *****
 -------------------------------------------------------------------
 Center     Atomic                   Forces (Hartrees/Bohr)
 Number     Number              X              Y              Z
 -------------------------------------------------------------------
      1        6           0.009879262   -0.000147093    0.000761521
      2        6          -0.009087195   -0.006360443    0.003490625
      3        6          -0.006809389   -0.009639116   -0.003270098
      4        6           0.010470902   -0.007135042    0.012613565
      5        6          -0.008591946    0.005107415    0.004098057
      6        6          -0.009363214   -0.008259232   -0.005649401
      7        6           0.020895636    0.014925300    0.011622935
      8        6          -0.005403899   -0.003945778   -0.025148259
      9        6           0.011331568   -0.006584037    0.009065930
     10        6          -0.015170134    0.018038939   -0.004695990
     11        6          -0.019203652   -0.004122506   -0.018292479
     12        8           0.003783360    0.012787337    0.011799895
     13        6          -0.010635912   -0.001451736    0.001614805
     14        6           0.008005468    0.002900128   -0.000463191
     15        6          -0.005214201   -0.002275069   -0.004858713
     16        8           0.007099213   -0.010081800    0.002274756
     17        6           0.003124226   -0.006393437   -0.011818107
     18        6           0.030312949    0.004657048   -0.012946382
     19        8          -0.012099088   -0.009023742    0.032768751
     20        6           0.009375333   -0.001605058   -0.005777021
     21        8          -0.003130047    0.004820878    0.005439945
     22        6          -0.009574830   -0.001166648    0.008870498
     23        6           0.008643222    0.007065832    0.008114259
     24        8          -0.004140699    0.001711617   -0.008245897
     25        6           0.011630094    0.009327125    0.009677648
     26        6          -0.000179267   -0.000282769   -0.000368070
     27        6          -0.004288636   -0.006122415   -0.009135682
     28        6          -0.001690750    0.008388241    0.001740574
     29        6          -0.008360955   -0.000548743   -0.007623595
     30        1          -0.003004298    0.001914231    0.000127239
     31        1          -0.001732791    0.005958224    0.000558806
     32        6          -0.002504243   -0.000474769    0.000191109
     33        1           0.000567148   -0.000776969    0.000032160
     34        1           0.000520484    0.005179965   -0.000244428
     35        1          -0.000824091    0.005018389   -0.001427268
     36        1           0.003984964   -0.002622708    0.001439843
     37        1          -0.000035078   -0.000107713    0.002073600
     38        1          -0.001853600   -0.000554488    0.002785804
     39        1           0.000559031   -0.000016309    0.001004943
     40        1           0.000135222    0.000526096   -0.000069707
     41        1           0.000453787    0.001197854    0.000518628
     42        1           0.000361641    0.000891306    0.000763036
     43        1          -0.002032750   -0.001556982   -0.001432862
     44        1          -0.003010967    0.001347012   -0.003995329
     45        1           0.000639052   -0.001535560   -0.003411911
     46        1          -0.000061499    0.000579708   -0.003155130
     47        1          -0.001366368   -0.003555992    0.000560004
     48        1          -0.003022103   -0.003135618    0.000180592
     49        1           0.001032332    0.001019702   -0.001927929
     50        1          -0.002923248   -0.003011846    0.000527170
     51        1          -0.001054357   -0.000488574    0.000434033
     52        1           0.000252572   -0.000184990   -0.000248189
     53        1           0.000490251   -0.003332236   -0.002208559
     54        1           0.000233703   -0.000741179   -0.000386949
     55        1           0.000298144   -0.004498308    0.003317747
     56        1           0.001186900   -0.001721987    0.002652872
     57        1           0.001912061    0.001472208    0.001849273
     58        1          -0.000012856    0.000705344    0.001377367
     59        1          -0.000634940    0.000883193   -0.000348083
     60        1           0.003966254   -0.001555033   -0.000052819
     61        1           0.004256214   -0.001147930    0.000094249
     62        6           0.001665252    0.000437010   -0.004258354
     63        1          -0.000212564   -0.000705895   -0.001396728
     64        1           0.000499736    0.000515927   -0.000812998
     65        1          -0.000336416   -0.000506281   -0.000772112
 -------------------------------------------------------------------
 Cartesian Forces:  Max     0.032768751 RMS     0.006817767

 GradGradGradGradGradGradGradGradGradGradGradGradGradGradGradGradGradGrad
 Berny optimization.
 Internal  Forces:  Max     0.020166682 RMS     0.003398678
 Search for a local minimum.
 Step number   1 out of a maximum of  390
 All quantities printed in internal units (Hartrees-Bohrs-Radians)
 Mixed Optimization -- RFO/linear search
 Second derivative matrix not updated -- first step.
 ITU=  0
     Eigenvalues ---    0.00279   0.00280   0.00358   0.00396   0.00418
     Eigenvalues ---    0.00458   0.00478   0.00573   0.00592   0.00610
     Eigenvalues ---    0.00666   0.00692   0.00723   0.00733   0.00882
     Eigenvalues ---    0.01073   0.01167   0.01250   0.01301   0.01452
     Eigenvalues ---    0.01513   0.01716   0.01738   0.01843   0.02091
     Eigenvalues ---    0.02624   0.02824   0.02824   0.03102   0.03212
     Eigenvalues ---    0.03322   0.03613   0.03710   0.03906   0.04080
     Eigenvalues ---    0.04268   0.04323   0.04448   0.04504   0.04774
     Eigenvalues ---    0.04781   0.04895   0.05002   0.05144   0.05289
     Eigenvalues ---    0.05318   0.05341   0.05394   0.05420   0.05444
     Eigenvalues ---    0.05457   0.05504   0.05574   0.05614   0.05653
     Eigenvalues ---    0.05707   0.05852   0.05886   0.05931   0.06136
     Eigenvalues ---    0.06571   0.06779   0.07110   0.07151   0.07155
     Eigenvalues ---    0.07214   0.07273   0.07313   0.07446   0.08012
     Eigenvalues ---    0.08327   0.08510   0.08726   0.09402   0.09429
     Eigenvalues ---    0.09935   0.10237   0.11431   0.11912   0.12482
     Eigenvalues ---    0.12604   0.13324   0.14545   0.15322   0.15716
     Eigenvalues ---    0.15965   0.16000   0.16000   0.16000   0.16000
     Eigenvalues ---    0.16000   0.16000   0.16000   0.16000   0.16000
     Eigenvalues ---    0.16000   0.16000   0.16000   0.16000   0.16000
     Eigenvalues ---    0.16000   0.16000   0.16000   0.16000   0.16000
     Eigenvalues ---    0.16000   0.16567   0.17293   0.18115   0.18268
     Eigenvalues ---    0.19775   0.20935   0.21947   0.22335   0.22518
     Eigenvalues ---    0.23448   0.24729   0.24898   0.24994   0.24997
     Eigenvalues ---    0.24997   0.24998   0.25000   0.26080   0.26685
     Eigenvalues ---    0.27027   0.27208   0.27382   0.27705   0.28328
     Eigenvalues ---    0.28804   0.28809   0.28995   0.29349   0.29612
     Eigenvalues ---    0.29769   0.30054   0.30323   0.30781   0.31173
     Eigenvalues ---    0.31798   0.31864   0.32119   0.33392   0.33607
     Eigenvalues ---    0.33876   0.33890   0.33913   0.33934   0.34004
     Eigenvalues ---    0.34007   0.34014   0.34027   0.34073   0.34074
     Eigenvalues ---    0.34079   0.34144   0.34177   0.34214   0.34215
     Eigenvalues ---    0.34229   0.34234   0.34253   0.34258   0.34263
     Eigenvalues ---    0.34268   0.34270   0.34272   0.34285   0.34292
     Eigenvalues ---    0.34292   0.34360   0.34371   0.34377   0.34940
     Eigenvalues ---    0.35036   0.35201   0.35304   0.35421   0.36668
     Eigenvalues ---    0.37505   0.41058   0.44539   0.50203   0.53494
     Eigenvalues ---    0.54572   0.56231   0.90765   0.91019
 RFO step:  Lambda=-2.13001161D-02 EMin= 2.79171847D-03
 Linear search not attempted -- first point.
 Iteration  1 RMS(Cart)=  0.04184644 RMS(Int)=  0.00063035
 Iteration  2 RMS(Cart)=  0.00113836 RMS(Int)=  0.00023398
 Iteration  3 RMS(Cart)=  0.00000064 RMS(Int)=  0.00023397
 Variable       Old X    -DE/DX   Delta X   Delta X   Delta X     New X
                                 (Linear)    (Quad)   (Total)
    R1        2.53280  -0.00176   0.00000  -0.00380  -0.00389   2.52891
    R2        2.82149   0.00895   0.00000   0.02589   0.02575   2.84725
    R3        2.05616   0.00038   0.00000   0.00103   0.00103   2.05719
    R4        2.84404   0.00508   0.00000   0.01288   0.01292   2.85697
    R5        2.83926   0.00463   0.00000   0.01352   0.01352   2.85278
    R6        2.94416   0.00664   0.00000   0.01683   0.01681   2.96096
    R7        2.89767   0.01034   0.00000   0.03469   0.03464   2.93231
    R8        2.07998  -0.00193   0.00000  -0.00541  -0.00541   2.07456
    R9        2.92777   0.01220   0.00000   0.03906   0.03899   2.96676
   R10        2.91859   0.00780   0.00000   0.03132   0.03155   2.95014
   R11        2.75744  -0.00511   0.00000  -0.01527  -0.01530   2.74214
   R12        2.91777   0.00546   0.00000   0.02029   0.02024   2.93801
   R13        2.90925   0.00480   0.00000   0.00870   0.00836   2.91761
   R14        2.91049   0.00600   0.00000   0.02148   0.02147   2.93196
   R15        2.07516  -0.00151   0.00000  -0.00418  -0.00418   2.07097
   R16        2.07540   0.00251   0.00000   0.00696   0.00696   2.08236
   R17        2.81290   0.01132   0.00000   0.02624   0.02604   2.83894
   R18        2.86571   0.01503   0.00000   0.05323   0.05274   2.91845
   R19        2.68452   0.00277   0.00000   0.00716   0.00717   2.69169
   R20        2.52308   0.01244   0.00000   0.02184   0.02199   2.54507
   R21        2.62003  -0.01783   0.00000  -0.04144  -0.04119   2.57885
   R22        2.79298   0.00104   0.00000  -0.00106  -0.00092   2.79206
   R23        2.79072   0.02017   0.00000   0.05440   0.05440   2.84512
   R24        2.32467  -0.00881   0.00000  -0.00946  -0.00946   2.31521
   R25        2.32582  -0.01766   0.00000  -0.01901  -0.01901   2.30681
   R26        2.88426  -0.00170   0.00000  -0.00534  -0.00534   2.87892
   R27        2.90413   0.00751   0.00000   0.02427   0.02427   2.92840
   R28        2.88743   0.00507   0.00000   0.01598   0.01598   2.90342
   R29        2.07477   0.00032   0.00000   0.00090   0.00090   2.07567
   R30        2.07198   0.00103   0.00000   0.00284   0.00284   2.07482
   R31        2.07324   0.00061   0.00000   0.00169   0.00169   2.07493
   R32        2.87856   0.00741   0.00000   0.02303   0.02303   2.90159
   R33        2.06889  -0.00095   0.00000  -0.00262  -0.00262   2.06626
   R34        2.07088  -0.00044   0.00000  -0.00122  -0.00122   2.06966
   R35        2.06896   0.00101   0.00000   0.00278   0.00278   2.07175
   R36        2.91200  -0.00023   0.00000   0.01097   0.01115   2.92315
   R37        2.90115   0.00566   0.00000   0.01876   0.01876   2.91990
[...]
     55          1           0        1.330355    2.142565   -3.020671
     56          1           0        1.177561    4.196639    0.787496
     57          1           0        2.494441    4.486875   -0.358235
     58          1           0        0.870477    5.113610   -0.703966
     59          1           0       -4.194212    1.963331    3.318279
     60          1           0       -3.619272    3.254520    2.248877
     61          1           0       -4.709718    2.024316    1.619596
     62          6           0        4.697575   -1.793993   -1.421862
     63          1           0        5.714690   -1.762746   -1.016097
     64          1           0        4.749083   -2.276278   -2.404914
     65          1           0        4.373206   -0.758354   -1.575672
 ---------------------------------------------------------------------
 Rotational constants (GHZ):      0.1945041      0.1326682      0.1078172

 **********************************************************************

            Population analysis using the SCF density.

 **********************************************************************

 Orbital symmetries:
       Occupied  (A) (A) (A) (A) (A) (A) (A) (A) (A) (A) (A) (A)
                 (A) (A) (A) (A) (A) (A) (A) (A) (A) (A) (A) (A)
                 (A) (A) (A) (A) (A) (A) (A) (A) (A) (A) (A) (A)
                 (A) (A) (A) (A) (A) (A) (A) (A) (A) (A) (A) (A)
                 (A) (A) (A) (A) (A) (A) (A) (A) (A) (A) (A) (A)
                 (A) (A) (A) (A) (A) (A) (A) (A) (A) (A) (A) (A)
                 (A) (A) (A) (A) (A) (A) (A) (A) (A) (A) (A) (A)
                 (A) (A) (A) (A) (A) (A) (A) (A) (A) (A) (A) (A)
                 (A) (A) (A) (A) (A) (A) (A) (A) (A) (A) (A) (A)
                 (A) (A) (A) (A) (A) (A) (A)
       Virtual   (A) (A) (A) (A) (A) (A) (A) (A) (A) (A) (A) (A)
                 (A) (A) (A) (A) (A) (A) (A) (A) (A) (A) (A) (A)
                 (A) (A) (A) (A) (A) (A) (A) (A) (A) (A) (A) (A)
                 (A) (A) (A) (A) (A) (A) (A) (A) (A) (A) (A) (A)
                 (A) (A) (A) (A) (A) (A) (A) (A) (A) (A) (A) (A)
                 (A) (A) (A) (A) (A) (A) (A) (A) (A) (A) (A) (A)
                 (A) (A) (A) (A) (A) (A) (A) (A) (A) (A) (A) (A)
                 (A) (A) (A) (A) (A) (A) (A) (A) (A) (A) (A) (A)
                 (A) (A) (A) (A) (A) (A) (A) (A) (A) (A) (A) (A)
                 (A) (A) (A) (A) (A) (A) (A) (A) (A) (A) (A) (A)
                 (A) (A) (A) (A) (A) (A) (A) (A) (A) (A) (A) (A)
                 (A) (A) (A) (A) (A) (A) (A) (A) (A) (A) (A) (A)
                 (A) (A) (A) (A) (A) (A) (A) (A) (A) (A) (A) (A)
                 (A) (A) (A) (A) (A) (A) (A) (A) (A) (A) (A) (A)
                 (A) (A) (A) (A) (A) (A) (A) (A) (A) (A) (A) (A)
                 (A) (A) (A) (A) (A) (A) (A) (A) (A) (A) (A) (A)
                 (A) (A) (A) (A) (A) (A) (A) (A) (A) (A) (A) (A)
                 (A) (A) (A) (A) (A) (A) (A) (A) (A) (A) (A) (A)
                 (A) (A) (A) (A) (A) (A) (A) (A) (A) (A) (A) (A)
                 (A) (A) (A) (A) (A) (A) (A) (A) (A) (A) (A) (A)
                 (A) (A) (A) (A) (A) (A) (A) (A) (A) (A) (A) (A)
                 (A) (A) (A) (A) (A) (A) (A) (A) (A) (A) (A) (A)
                 (A) (A) (A) (A) (A) (A) (A) (A) (A) (A) (A) (A)
                 (A) (A) (A) (A) (A) (A) (A) (A) (A) (A) (A) (A)
                 (A) (A) (A) (A) (A) (A) (A) (A) (A) (A) (A) (A)
                 (A) (A) (A) (A) (A) (A) (A) (A) (A) (A) (A) (A)
                 (A) (A) (A) (A) (A) (A) (A) (A) (A) (A) (A) (A)
                 (A) (A) (A) (A) (A) (A) (A) (A) (A) (A) (A) (A)
                 (A) (A) (A) (A) (A) (A) (A) (A) (A) (A) (A) (A)
                 (A) (A) (A) (A) (A) (A) (A) (A) (A) (A) (A) (A)
                 (A) (A) (A) (A) (A) (A) (A) (A) (A) (A) (A) (A)
                 (A) (A) (A) (A) (A) (A) (A) (A) (A) (A) (A) (A)
                 (A) (A) (A) (A) (A) (A) (A) (A) (A) (A) (A) (A)
                 (A) (A) (A) (A) (A) (A) (A) (A) (A) (A) (A) (A)
                 (A) (A) (A) (A) (A) (A) (A) (A) (A) (A)
 The electronic state is 1-A.
 Alpha  occ. eigenvalues --  -19.19885 -19.17285 -19.15259 -19.13301 -19.11405
 Alpha  occ. eigenvalues --  -10.27369 -10.27313 -10.26635 -10.26318 -10.26096
 Alpha  occ. eigenvalues --  -10.25654 -10.25047 -10.21599 -10.20694 -10.20610
 Alpha  occ. eigenvalues --  -10.20432 -10.20208 -10.20176 -10.20017 -10.19307
 Alpha  occ. eigenvalues --  -10.19067 -10.18973 -10.18966 -10.18963 -10.18790
 Alpha  occ. eigenvalues --  -10.18195 -10.17831 -10.17114 -10.16709 -10.15708
 Alpha  occ. eigenvalues --  -10.15387  -1.09544  -1.06860  -1.03326  -1.02533
 Alpha  occ. eigenvalues --   -1.01412  -0.87174  -0.83795  -0.82228  -0.81414
 Alpha  occ. eigenvalues --   -0.80159  -0.78713  -0.76718  -0.74088  -0.73202
 Alpha  occ. eigenvalues --   -0.72200  -0.70646  -0.70112  -0.69134  -0.68490
 Alpha  occ. eigenvalues --   -0.65314  -0.63892  -0.63713  -0.61486  -0.60877
 Alpha  occ. eigenvalues --   -0.59142  -0.58281  -0.56872  -0.54732  -0.53492
 Alpha  occ. eigenvalues --   -0.52814  -0.51756  -0.51141  -0.49988  -0.49388
 Alpha  occ. eigenvalues --   -0.47979  -0.47135  -0.46679  -0.46573  -0.46009
 Alpha  occ. eigenvalues --   -0.45245  -0.44460  -0.44171  -0.43606  -0.43156
 Alpha  occ. eigenvalues --   -0.42748  -0.42465  -0.42324  -0.41862  -0.41672
 Alpha  occ. eigenvalues --   -0.40872  -0.40462  -0.40281  -0.40046  -0.39640
 Alpha  occ. eigenvalues --   -0.39300  -0.39023  -0.38602  -0.38428  -0.37621
 Alpha  occ. eigenvalues --   -0.37228  -0.36859  -0.36722  -0.36427  -0.36327
 Alpha  occ. eigenvalues --   -0.35732  -0.35473  -0.35076  -0.34636  -0.34304
 Alpha  occ. eigenvalues --   -0.33875  -0.33675  -0.32962  -0.32798  -0.32495
 Alpha  occ. eigenvalues --   -0.31399  -0.30633  -0.30296  -0.28453  -0.27451
 Alpha  occ. eigenvalues --   -0.25224  -0.24653  -0.24306  -0.23432  -0.21990
 Alpha virt. eigenvalues --   -0.04875  -0.00810   0.00829   0.01822   0.05416
 Alpha virt. eigenvalues --    0.07027   0.08109   0.08757   0.09160   0.10128
 Alpha virt. eigenvalues --    0.10312   0.10790   0.11165   0.11318   0.12037
 Alpha virt. eigenvalues --    0.12558   0.12848   0.13587   0.13696   0.14310
 Alpha virt. eigenvalues --    0.14725   0.15039   0.15254   0.15406   0.15931
 Alpha virt. eigenvalues --    0.16008   0.16471   0.16508   0.17262   0.17326
 Alpha virt. eigenvalues --    0.17828   0.18277   0.18427   0.18903   0.19179
 Alpha virt. eigenvalues --    0.19300   0.19497   0.20023   0.20367   0.20799
 Alpha virt. eigenvalues --    0.21130   0.21313   0.21670   0.21733   0.22849
 Alpha virt. eigenvalues --    0.23020   0.23573   0.23906   0.24112   0.24851
 Alpha virt. eigenvalues --    0.24866   0.25499   0.25584   0.26355   0.26386
 Alpha virt. eigenvalues --    0.27117   0.27177   0.28238   0.29289   0.30581
 Alpha virt. eigenvalues --    0.30945   0.32296   0.32538   0.33507   0.34327
 Alpha virt. eigenvalues --    0.34625   0.36182   0.37269   0.37982   0.39867
 Alpha virt. eigenvalues --    0.40820   0.44235   0.46259   0.47863   0.48044
 Alpha virt. eigenvalues --    0.49416   0.50129   0.50669   0.50891   0.51354
 Alpha virt. eigenvalues --    0.52118   0.52437   0.53159   0.53283   0.53479
 Alpha virt. eigenvalues --    0.53752   0.54253   0.54574   0.54920   0.55341
 Alpha virt. eigenvalues --    0.56767   0.57228   0.57679   0.58356   0.59412
 Alpha virt. eigenvalues --    0.59752   0.60054   0.61084   0.61241   0.61893
 Alpha virt. eigenvalues --    0.62310   0.62662   0.63594   0.63846   0.64246
 Alpha virt. eigenvalues --    0.64805   0.65566   0.66420   0.66734   0.67112
 Alpha virt. eigenvalues --    0.67640   0.68159   0.68522   0.69487   0.70306
 Alpha virt. eigenvalues --    0.70675   0.70990   0.71361   0.71979   0.72604
 Alpha virt. eigenvalues --    0.73110   0.74598   0.75017   0.75549   0.75693
 Alpha virt. eigenvalues --    0.76700   0.77117   0.78335   0.78629   0.78950
 Alpha virt. eigenvalues --    0.79845   0.80263   0.80573   0.81065   0.81826
 Alpha virt. eigenvalues --    0.82218   0.83272   0.84260   0.84447   0.85285
 Alpha virt. eigenvalues --    0.85582   0.85743   0.86105   0.86943   0.87179
 Alpha virt. eigenvalues --    0.87550   0.87934   0.88599   0.88755   0.89131
 Alpha virt. eigenvalues --    0.89498   0.89537   0.89819   0.90132   0.90711
 Alpha virt. eigenvalues --    0.90855   0.91084   0.91467   0.91572   0.92048
 Alpha virt. eigenvalues --    0.92518   0.93439   0.93597   0.94119   0.94685
 Alpha virt. eigenvalues --    0.94990   0.95780   0.96279   0.96668   0.97518
 Alpha virt. eigenvalues --    0.97909   0.98193   0.98435   0.98881   1.00076
 Alpha virt. eigenvalues --    1.00429   1.00924   1.02292   1.03259   1.03918
 Alpha virt. eigenvalues --    1.04488   1.05292   1.05783   1.06520   1.08396
 Alpha virt. eigenvalues --    1.09690   1.10792   1.11129   1.12542   1.13364
 Alpha virt. eigenvalues --    1.13548   1.13751   1.14472   1.15911   1.16300
 Alpha virt. eigenvalues --    1.18366   1.18560   1.18656   1.19547   1.20756
 Alpha virt. eigenvalues --    1.22541   1.23837   1.24892   1.26753   1.27652
 Alpha virt. eigenvalues --    1.28934   1.29799   1.31495   1.31948   1.33333
 Alpha virt. eigenvalues --    1.35303   1.36182   1.37804   1.38586   1.39919
 Alpha virt. eigenvalues --    1.40476   1.42079   1.44039   1.45638   1.46792
 Alpha virt. eigenvalues --    1.47235   1.48994   1.50300   1.52751   1.53410
 Alpha virt. eigenvalues --    1.54657   1.55345   1.55749   1.56142   1.57603
 Alpha virt. eigenvalues --    1.59454   1.61375   1.62367   1.62771   1.63911
 Alpha virt. eigenvalues --    1.64894   1.65716   1.67285   1.67885   1.68638
 Alpha virt. eigenvalues --    1.70635   1.70904   1.72650   1.73683   1.73971
 Alpha virt. eigenvalues --    1.74279   1.75157   1.76580   1.77205   1.77757
 Alpha virt. eigenvalues --    1.78653   1.78808   1.80162   1.80335   1.80748
 Alpha virt. eigenvalues --    1.81924   1.82721   1.83471   1.83970   1.84362
 Alpha virt. eigenvalues --    1.85194   1.85513   1.86636   1.87056   1.87771
 Alpha virt. eigenvalues --    1.88840   1.89321   1.89612   1.89923   1.92061
 Alpha virt. eigenvalues --    1.92199   1.92816   1.93999   1.94178   1.94370
 Alpha virt. eigenvalues --    1.95848   1.96546   1.96605   1.97180   1.97802
 Alpha virt. eigenvalues --    1.98791   1.99024   1.99390   1.99702   2.00362
 Alpha virt. eigenvalues --    2.01488   2.02227   2.03092   2.03892   2.05638
 Alpha virt. eigenvalues --    2.06098   2.06347   2.08228   2.08542   2.08755
 Alpha virt. eigenvalues --    2.10510   2.11224   2.11994   2.12674   2.13040
 Alpha virt. eigenvalues --    2.13677   2.15415   2.17053   2.17332   2.17657
 Alpha virt. eigenvalues --    2.18888   2.19811   2.20561   2.20735   2.22913
 Alpha virt. eigenvalues --    2.23592   2.24254   2.24602   2.25391   2.26972
 Alpha virt. eigenvalues --    2.27764   2.28893   2.29787   2.30265   2.31188
 Alpha virt. eigenvalues --    2.31763   2.32987   2.33435   2.33740   2.34823
 Alpha virt. eigenvalues --    2.36109   2.37355   2.37909   2.39186   2.40269
 Alpha virt. eigenvalues --    2.40649   2.41595   2.41912   2.43028   2.43845
 Alpha virt. eigenvalues --    2.45011   2.46041   2.47127   2.48173   2.48489
 Alpha virt. eigenvalues --    2.49702   2.50342   2.52165   2.53760   2.55193
 Alpha virt. eigenvalues --    2.55835   2.57338   2.57981   2.58428   2.60086
 Alpha virt. eigenvalues --    2.60936   2.62350   2.63331   2.64617   2.65485
 Alpha virt. eigenvalues --    2.66425   2.67245   2.68824   2.70856   2.71664
 Alpha virt. eigenvalues --    2.72000   2.73072   2.74697   2.75957   2.77312
 Alpha virt. eigenvalues --    2.78056   2.79374   2.79535   2.81137   2.83305
 Alpha virt. eigenvalues --    2.85200   2.87894   2.93368   2.94838   2.95352
 Alpha virt. eigenvalues --    2.98232   2.98808   3.01049   3.02125   3.03792
 Alpha virt. eigenvalues --    3.04223   3.06516   3.11289   3.13422   3.21240
 Alpha virt. eigenvalues --    3.23608   3.29749   4.01233   4.07017   4.10284
 Alpha virt. eigenvalues --    4.12278   4.14939   4.15808   4.17289   4.18408
 Alpha virt. eigenvalues --    4.22516   4.24522   4.25796   4.26845   4.30810
 Alpha virt. eigenvalues --    4.31512   4.34116   4.36486   4.41094   4.43397
 Alpha virt. eigenvalues --    4.47624   4.48119   4.51232   4.56446   4.60510
 Alpha virt. eigenvalues --    4.64517   4.66334   4.69508   4.74002   4.77154
 Alpha virt. eigenvalues --    4.88353   4.94611   5.24393
          Condensed to atoms (all electrons):
 Mulliken atomic charges:
              1
     1  C   -0.195186
     2  C    0.199342
     3  C   -0.199769
     4  C    0.309756
     5  C   -0.018746
     6  C   -0.329129
     7  C    0.192595
     8  C    0.403046
     9  C   -0.071504
    10  C    0.375366
    11  C    0.406289
    12  O   -0.472816
    13  C   -0.159613
    14  C   -0.263487
    15  C   -0.442176
    16  O   -0.488428
    17  C   -0.152302
    18  C    0.291007
    19  O   -0.488395
    20  C   -0.311279
    21  O   -0.671305
    22  C   -0.332267
    23  C    0.118705
    24  O   -0.587681
    25  C    0.182745
    26  C   -0.518274
    27  C   -0.394465
    28  C   -0.468562
    29  C   -0.459905
    30  H    0.149345
    31  H    0.150340
    32  C   -0.521627
    33  H    0.125535
    34  H    0.161173
    35  H    0.165760
    36  H    0.161841
    37  H    0.155684
    38  H    0.133208
    39  H    0.161500
    40  H    0.141499
    41  H    0.130111
    42  H    0.163757
    43  H    0.152566
    44  H    0.430077
    45  H    0.190766
    46  H    0.147366
    47  H    0.134943
    48  H    0.154031
    49  H    0.160929
    50  H    0.168636
    51  H    0.136756
    52  H    0.146007
    53  H    0.163237
    54  H    0.144778
    55  H    0.194632
    56  H    0.162525
    57  H    0.171093
    58  H    0.149352
    59  H    0.158407
    60  H    0.157027
    61  H    0.156135
    62  C   -0.448614
    63  H    0.145586
    64  H    0.137964
    65  H    0.154114
 Sum of Mulliken atomic charges =   0.00000
 Mulliken charges with hydrogens summed into heavy atoms:
              1
     1  C   -0.069651
     2  C    0.199342
     3  C   -0.049429
     4  C    0.309756
     5  C   -0.018746
     6  C   -0.002196
     7  C    0.192595
     8  C    0.403046
     9  C   -0.071504
    10  C    0.375366
    11  C    0.406289
    12  O   -0.472816
    13  C    0.002228
    14  C    0.025405
    15  C   -0.009065
    16  O   -0.488428
    17  C   -0.002957
    18  C    0.291007
    19  O   -0.488395
    20  C    0.005044
    21  O   -0.241228
    22  C    0.005864
    23  C    0.253648
    24  O   -0.587681
    25  C    0.182745
    26  C   -0.034677
    27  C   -0.111701
    28  C    0.034085
    29  C    0.023064
    32  C   -0.050058
    62  C   -0.010950
 Sum of Mulliken charges with hydrogens summed into heavy atoms =   0.00000
 Electronic spatial extent (au):  <R**2>=          11703.5771
 Charge=              0.0000 electrons
 Dipole moment (field-independent basis, Debye):
    X=             -5.5285    Y=              2.6600    Z=              0.1945  Tot=              6.1382
 Quadrupole moment (field-independent basis, Debye-Ang):
   XX=           -189.7014   YY=           -174.7704   ZZ=           -182.6183
   XY=              0.4325   XZ=             -7.3621   YZ=             -2.5487
 Traceless Quadrupole moment (field-independent basis, Debye-Ang):
   XX=             -7.3380   YY=              7.5930   ZZ=             -0.2549
   XY=              0.4325   XZ=             -7.3621   YZ=             -2.5487
 Octapole moment (field-independent basis, Debye-Ang**2):
  XXX=            -60.7287  YYY=             59.9984  ZZZ=              0.6073  XYY=            -14.1042
  XXY=            -28.8065  XXZ=            -12.7434  XZZ=             -9.9819  YZZ=             -2.3804
  YYZ=            -23.1058  XYZ=            -14.1796
 Hexadecapole moment (field-independent basis, Debye-Ang**3):
 XXXX=          -8386.2556 YYYY=          -4841.5818 ZZZZ=          -2493.9330 XXXY=             11.6115
 XXXZ=           -101.6775 YYYX=            103.6835 YYYZ=            -29.1170 ZZZX=             11.1298
 ZZZY=             -7.3001 XXYY=          -2086.8612 XXZZ=          -1804.3324 YYZZ=          -1224.3066
 XXYZ=              1.0793 YYXZ=              9.2765 ZZXY=             26.5002
 N-N= 3.499745221617D+03 E-N=-1.022578032034D+04  KE= 1.374459735788D+03
 1\1\GINC-B0800\FOpt\RB3LYP\6-31G(d)\C26H34O5\CAOFEI\24-Mar-2021\0\\# o
 pt rb3lyp/6-31g(d) geom=connectivity\\Title Card Required\\0,1\C,-0.08
 94834945,0.0692353323,-0.0330827612\C,1.2362509527,-0.07428823,0.08489
 43299\C,2.1401007348,1.1311296697,-0.0376535582\C,1.5170036196,2.50195
 66472,0.3835463206\C,-0.0429355775,2.5715510082,0.4726579397\C,-0.7387
 858695,1.4037320972,-0.2889490724\C,2.1432344023,3.5359917136,-0.59928
 79248\C,1.1833157107,3.9519990853,-1.7098908784\C,-0.1262573217,4.2697
 70556,-1.4774465241\C,-0.6357077919,3.8798251957,-0.1450504622\C,-0.96
 89365788,4.9130642596,-2.5449556814\O,-0.6557892698,4.7772847551,-3.71
 98279416\C,-2.1766326871,5.7622999537,-2.1458360975\C,-1.7000250844,7.
 075765424,-1.4649662935\C,-3.0898897503,6.0100004987,-3.3513503399\O,-
 1.5804918822,4.4228055003,0.4148043703\C,3.2315205878,2.818581466,-1.4
 251705571\C,3.2343147416,3.6029893184,-2.7548220168\O,1.8209737103,4.0
 541358823,-2.8692918403\C,2.7092398816,1.3680908437,-1.4618500994\O,2.
 5671335288,4.7112375203,0.0605123679\C,-0.328112816,2.5154485194,1.995
 6043973\C,1.0517304908,2.3613700691,2.665835315\O,1.982806699,2.856768
 1142,1.6935273908\C,1.2104625206,3.0652915608,3.9928168931\C,0.2669455
 614,2.5889016088,5.0703807321\C,2.126467996,4.0124212238,4.2064392107\
 C,4.111013295,4.8563314039,-2.6949766934\C,3.5153519002,2.7928548813,-
 4.0162085082\H,4.2021407921,2.8763818268,-0.9240850018\H,2.9994411625,
 1.0019778037,0.634501575\C,1.9010801161,-1.4083527075,0.3044142795\H,-
 0.7362130265,-0.8047890059,0.0271097719\H,-1.793623057,1.3866458187,0.
 0066661323\H,-0.7353016185,1.6154968923,-1.3675708097\H,-2.7288307438,
 5.2143781856,-1.3754465537\H,-1.1533514396,6.8137713397,-0.5528204935\
 H,-2.5968566037,7.6183022358,-1.1366905034\H,-2.558953633,6.5076017565
 ,-4.1667857474\H,-3.4780934464,5.0665444611,-3.7497159371\H,-3.9425890
 663,6.6322717058,-3.0553567057\H,1.9047773501,1.2626408431,-2.19959195
 73\H,3.4841337579,0.6416107958,-1.7247603114\H,2.495495502,4.505612334
 3,1.0143015839\H,-0.8197250379,3.4423463297,2.3006806372\H,-0.99092800
 27,1.6858177006,2.255462767\H,1.2607955006,1.2893237077,2.8184671118\H
 ,0.3630173363,1.5063965268,5.2334697493\H,0.4672509684,3.0930244997,6.
 019922567\H,-0.7808432767,2.7757827459,4.8017263563\H,2.2168568225,4.4
 951859922,5.1758223348\H,2.8187983766,4.3315480772,3.435327006\H,3.922
 896789,5.4837728039,-3.5719676184\H,5.1695740564,4.5722088847,-2.69562
 90003\H,3.9071563117,5.4354074839,-1.7914189015\H,2.8285665127,1.94946
 92742,-4.1215654437\H,3.408529169,3.4288266395,-4.900189992\H,4.540931
 4161,2.4082588472,-3.9915134922\H,1.1678471111,-2.2188681229,0.3634587
 319\H,2.6004831229,-1.6463512886,-0.5089651609\H,2.490197915,-1.411447
 1117,1.2320477703\C,-0.8408024034,7.9935159352,-2.3426140205\H,-1.3846
 779346,8.3373567684,-3.2292479278\H,-0.5329039193,8.8819631826,-1.7791
 404546\H,0.067704911,7.4881209592,-2.6899043582\\Version=EM64L-G09RevB
 .01\State=1-A\HF=-1387.3198415\RMSD=5.148e-09\RMSF=6.790e-06\Dipole=1.
 299884,-1.8143115,0.9223045\Quadrupole=1.6149324,2.1239805,-3.7389129,
 1.1107772,-7.1766176,1.095572\PG=C01 [X(C26H34O5)]\\@


 ...THE PHYSICISTS HAVE MADE THEIR UNIVERSE, AND IF YOU DO NOT LIKE
 IT, YOU MUST MAKE YOUR OWN.
                               -- E. R. HARRISON IN "COSMOLOGY" (1980)
 Job cpu time:  0 days  6 hours 38 minutes 58.9 seconds.
 File lengths (MBytes):  RWF=    186 Int=      0 D2E=      0 Chk=     20 Scr=      1
 Normal termination of Gaussian 09 at Wed Mar 24 16:43:37 2021.
