 Entering Gaussian System, Link 0=g09
 Initial command:
 /public/software/g09/g09/l1.exe /tmp/Gau-19503.inp -scrdir=/tmp/
 Entering Link 1 = /public/software/g09/g09/l1.exe PID=     19504.
  
 Copyright (c) 1988,1990,1992,1993,1995,1998,2003,2009,2010,
            Gaussian, Inc.  All Rights Reserved.
  
 This is part of the Gaussian(R) 09 program.  It is based on
 the Gaussian(R) 03 system (copyright 2003, Gaussian, Inc.),
 the Gaussian(R) 98 system (copyright 1998, Gaussian, Inc.),
 the Gaussian(R) 94 system (copyright 1995, Gaussian, Inc.),
 the Gaussian 92(TM) system (copyright 1992, Gaussian, Inc.),
 the Gaussian 90(TM) system (copyright 1990, Gaussian, Inc.),
 the Gaussian 88(TM) system (copyright 1988, Gaussian, Inc.),
 the Gaussian 86(TM) system (copyright 1986, Carnegie Mellon
 University), and the Gaussian 82(TM) system (copyright 1983,
 Carnegie Mellon University). Gaussian is a federally registered
 trademark of Gaussian, Inc.
  
 This software contains proprietary and confidential information,
 including trade secrets, belonging to Gaussian, Inc.
  
 This software is provided under written license and may be
 used, copied, transmitted, or stored only in accord with that
 written license.
  
 The following legend is applicable only to US Government
 contracts under FAR:
  
                    RESTRICTED RIGHTS LEGEND
  
 Use, reproduction and disclosure by the US Government is
 subject to restrictions as set forth in subparagraphs (a)
 and (c) of the Commercial Computer Software - Restricted
 Rights clause in FAR 52.227-19.
  
 Gaussian, Inc.
 340 Quinnipiac St., Bldg. 40, Wallingford CT 06492
  
  
 ---------------------------------------------------------------
 Warning -- This program may not be used in any manner that
 competes with the business of Gaussian, Inc. or will provide
 assistance to any competitor of Gaussian, Inc.  The licensee
 of this program is prohibited from giving any competitor of
 Gaussian, Inc. access to this program.  By using this program,
 the user acknowledges that Gaussian, Inc. is engaged in the
 business of creating and licensing software in the field of
 computational chemistry and represents and warrants to the
 licensee that it is not a competitor of Gaussian, Inc. and that
 it will not use this program in any manner prohibited above.
 ---------------------------------------------------------------
  

 Cite this work as:
 Gaussian 09, Revision B.01,
 M. J. Frisch, G. W. Trucks, H. B. Schlegel, G. E. Scuseria, 
 M. A. Robb, J. R. Cheeseman, G. Scalmani, V. Barone, B. Mennucci, 
 G. A. Petersson, H. Nakatsuji, M. Caricato, X. Li, H. P. Hratchian, 
 A. F. Izmaylov, J. Bloino, G. Zheng, J. L. Sonnenberg, M. Hada, 
 M. Ehara, K. Toyota, R. Fukuda, J. Hasegawa, M. Ishida, T. Nakajima, 
 Y. Honda, O. Kitao, H. Nakai, T. Vreven, J. A. Montgomery, Jr., 
 J. E. Peralta, F. Ogliaro, M. Bearpark, J. J. Heyd, E. Brothers, 
 K. N. Kudin, V. N. Staroverov, T. Keith, R. Kobayashi, J. Normand, 
 K. Raghavachari, A. Rendell, J. C. Burant, S. S. Iyengar, J. Tomasi, 
 M. Cossi, N. Rega, J. M. Millam, M. Klene, J. E. Knox, J. B. Cross, 
 V. Bakken, C. Adamo, J. Jaramillo, R. Gomperts, R. E. Stratmann, 
 O. Yazyev, A. J. Austin, R. Cammi, C. Pomelli, J. W. Ochterski, 
 R. L. Martin, K. Morokuma, V. G. Zakrzewski, G. A. Voth, 
 P. Salvador, J. J. Dannenberg, S. Dapprich, A. D. Daniels, 
 O. Farkas, J. B. Foresman, J. V. Ortiz, J. Cioslowski, 
 and D. J. Fox, Gaussian, Inc., Wallingford CT, 2010.
 
 ******************************************
 Gaussian 09:  EM64L-G09RevB.01 12-Aug-2010
                24-Mar-2021 
 ******************************************
 %mem=600MW
 %nprocshared=10
 Will use up to   10 processors via shared memory.
 ---------------------------------------
 # opt rb3lyp/6-31g(d) geom=connectivity
 ---------------------------------------
 1/14=-1,18=20,19=15,26=3,38=1,57=2/1,3;
 2/9=110,12=2,17=6,18=5,40=1/2;
 3/5=1,6=6,7=1,11=2,16=1,25=1,30=1,71=1,74=-5,116=1/1,2,3;
 4//1;
 5/5=2,38=5/2;
 6/7=2,8=2,9=2,10=2,28=1/1;
 7//1,2,3,16;
 1/14=-1,18=20,19=15/3(2);
 2/9=110/2;
 99//99;
 2/9=110/2;
 3/5=1,6=6,7=1,11=2,16=1,25=1,30=1,71=1,74=-5,116=1/1,2,3;
 4/5=5,16=3/1;
 5/5=2,38=5/2;
 7//1,2,3,16;
 1/14=-1,18=20,19=15/3(-5);
 2/9=110/2;
 6/7=2,8=2,9=2,10=2,19=2,28=1/1;
 99/9=1/99;
 -------------------
 Title Card Required
 -------------------
 Symbolic Z-matrix:
 Charge =  0 Multiplicity = 1
 C                     0.        0.        0. 
 C                     1.3413    0.        0. 
 C                     2.1359    1.2849    0. 
 C                     1.3378    2.5822   -0.3183 
 C                    -0.1611    2.4615   -0.6424 
 C                    -0.8316    1.2406    0.0206 
 C                     2.1338    3.2676   -1.4464 
 C                     1.7633    2.8543   -2.8284 
 C                     0.539     2.4355   -3.1617 
 C                    -0.5245    2.4552   -2.1358 
 C                     0.2721    1.9731   -4.5415 
 O                     0.6953    0.8783   -4.9127 
 C                    -0.5237    2.9032   -5.4489 
 C                     0.4239    3.4869   -6.5069 
 C                    -1.6935    2.1328   -6.0569 
 O                    -1.7031    2.47     -2.4981 
 C                     3.5466    2.73     -1.3977 
 C                     4.0346    2.9338   -2.8486 
 O                     2.8578    2.7849   -3.6844 
 C                     3.315     1.2653   -0.9909 
 O                     2.0739    4.6807   -1.3627 
 C                    -0.7162    3.7527   -0.0364 
 C                     0.1362    3.9427    1.2089 
 O                     1.4408    3.4507    0.8552 
 C                     0.1978    5.3663    1.7189 
 C                    -1.1306    6.0144    2.0098 
 C                     1.3407    6.0329    1.9594 
 C                     4.6138    4.3374   -3.0882 
 C                     5.0776    1.9037   -3.2958 
 H                     4.1824    3.2439   -0.6678 
 H                     2.5672    1.382     1.0073 
 C                     2.1103   -1.2917    0.0939 
 H                    -0.543    -0.9425    0.0482 
 H                    -1.0862    1.439     1.0688 
 H                    -1.7868    1.0146   -0.4701 
 H                    -0.9297    3.7229   -4.8433 
 H                     1.2966    3.928    -6.0087 
 H                     0.8114    2.688    -7.1514 
 H                    -2.3702    2.8013   -6.5978 
 H                    -2.2768    1.6307   -5.2772 
 H                    -1.3458    1.3624   -6.7539 
 H                     4.2167    0.8395   -0.5363 
 H                     3.0658    0.6397   -1.8565 
 H                     2.1505    4.8937   -0.4117 
 H                    -1.7854    3.696     0.1982 
 H                    -0.5856    4.5937   -0.7305 
 H                    -0.2304    3.3065    2.0235 
 H                    -1.7016    6.1563    1.0869 
 H                    -1.7164    5.3888    2.6912 
 H                    -1.0167    6.9966    2.4812 
 H                     2.3153    5.5823    1.803 
 H                     1.3349    7.0492    2.3424 
 H                     3.8755    5.1281   -2.9314 
 H                     4.9393    4.4468   -4.1296 
 H                     5.4734    4.5287   -2.4378 
 H                     5.9497    1.9059   -2.6342 
 H                     5.4191    2.1163   -4.3159 
 H                     4.6655    0.8907   -3.3358 
 H                     1.4508   -2.1529    0.2463 
 H                     2.6807   -1.4735   -0.8218 
 H                     2.8054   -1.2579    0.9392 
 C                    -0.2257    4.557    -7.3714 
 H                    -0.6391    5.362    -6.7557 
 H                    -1.0296    4.1424   -7.9865 
 H                     0.5161    4.9948   -8.0471 
 

 GradGradGradGradGradGradGradGradGradGradGradGradGradGradGradGradGradGrad
 Berny optimization.
 Initialization pass.
                           ----------------------------
                           !    Initial Parameters    !
                           ! (Angstroms and Degrees)  !
 --------------------------                            --------------------------
 ! Name  Definition              Value          Derivative Info.                !
 --------------------------------------------------------------------------------
 ! R1    R(1,2)                  1.3413         estimate D2E/DX2                !
 ! R2    R(1,6)                  1.4937         estimate D2E/DX2                !
 ! R3    R(1,33)                 1.0888         estimate D2E/DX2                !
 ! R4    R(2,3)                  1.5107         estimate D2E/DX2                !
 ! R5    R(2,32)                 1.5062         estimate D2E/DX2                !
 ! R6    R(3,4)                  1.556          estimate D2E/DX2                !
 ! R7    R(3,20)                 1.5403         estimate D2E/DX2                !
 ! R8    R(3,31)                 1.1            estimate D2E/DX2                !
 ! R9    R(4,5)                  1.5383         estimate D2E/DX2                !
 ! R10   R(4,7)                  1.5414         estimate D2E/DX2                !
 ! R11   R(4,24)                 1.4636         estimate D2E/DX2                !
 ! R12   R(5,6)                  1.5426         estimate D2E/DX2                !
 ! R13   R(5,10)                 1.537          estimate D2E/DX2                !
 ! R14   R(5,22)                 1.5305         estimate D2E/DX2                !
 ! R15   R(6,34)                 1.0968         estimate D2E/DX2                !
 ! R16   R(6,35)                 1.0974         estimate D2E/DX2                !
 ! R17   R(7,8)                  1.4893         estimate D2E/DX2                !
 ! R18   R(7,17)                 1.5124         estimate D2E/DX2                !
 ! R19   R(7,21)                 1.4168         estimate D2E/DX2                !
 ! R20   R(8,9)                  1.3362         estimate D2E/DX2                !
 ! R21   R(8,19)                 1.3912         estimate D2E/DX2                !
 ! R22   R(9,10)                 1.4778         estimate D2E/DX2                !
 ! R23   R(9,11)                 1.4795         estimate D2E/DX2                !
 ! R24   R(10,16)                1.2331         estimate D2E/DX2                !
 ! R25   R(11,12)                1.231          estimate D2E/DX2                !
 ! R26   R(11,13)                1.5237         estimate D2E/DX2                !
 ! R27   R(13,14)                1.5356         estimate D2E/DX2                !
 ! R28   R(13,15)                1.527          estimate D2E/DX2                !
 ! R29   R(13,36)                1.097          estimate D2E/DX2                !
 ! R30   R(14,37)                1.0974         estimate D2E/DX2                !
 ! R31   R(14,38)                1.0972         estimate D2E/DX2                !
 ! R32   R(14,62)                1.5213         estimate D2E/DX2                !
 ! R33   R(15,39)                1.0943         estimate D2E/DX2                !
 ! R34   R(15,40)                1.0956         estimate D2E/DX2                !
 ! R35   R(15,41)                1.0955         estimate D2E/DX2                !
 ! R36   R(17,18)                1.5443         estimate D2E/DX2                !
 ! R37   R(17,20)                1.5377         estimate D2E/DX2                !
 ! R38   R(17,30)                1.0959         estimate D2E/DX2                !
 ! R39   R(18,19)                1.4511         estimate D2E/DX2                !
 ! R40   R(18,28)                1.5372         estimate D2E/DX2                !
 ! R41   R(18,29)                1.5326         estimate D2E/DX2                !
 ! R42   R(20,42)                1.0959         estimate D2E/DX2                !
 ! R43   R(20,43)                1.0967         estimate D2E/DX2                !
 ! R44   R(21,44)                0.9776         estimate D2E/DX2                !
 ! R45   R(22,23)                1.521          estimate D2E/DX2                !
 ! R46   R(22,45)                1.0961         estimate D2E/DX2                !
 ! R47   R(22,46)                1.0982         estimate D2E/DX2                !
 ! R48   R(23,24)                1.4385         estimate D2E/DX2                !
 ! R49   R(23,25)                1.5135         estimate D2E/DX2                !
 ! R50   R(23,47)                1.0967         estimate D2E/DX2                !
 ! R51   R(25,26)                1.5064         estimate D2E/DX2                !
 ! R52   R(25,27)                1.3448         estimate D2E/DX2                !
 ! R53   R(26,48)                1.0945         estimate D2E/DX2                !
 ! R54   R(26,49)                1.0949         estimate D2E/DX2                !
 ! R55   R(26,50)                1.0954         estimate D2E/DX2                !
 ! R56   R(27,51)                1.0851         estimate D2E/DX2                !
 ! R57   R(27,52)                1.0861         estimate D2E/DX2                !
 ! R58   R(28,53)                1.0931         estimate D2E/DX2                !
 ! R59   R(28,54)                1.0966         estimate D2E/DX2                !
 ! R60   R(28,55)                1.0948         estimate D2E/DX2                !
 ! R61   R(29,56)                1.0947         estimate D2E/DX2                !
 ! R62   R(29,57)                1.0966         estimate D2E/DX2                !
 ! R63   R(29,58)                1.0943         estimate D2E/DX2                !
 ! R64   R(32,59)                1.0954         estimate D2E/DX2                !
 ! R65   R(32,60)                1.094          estimate D2E/DX2                !
 ! R66   R(32,61)                1.0949         estimate D2E/DX2                !
 ! R67   R(62,63)                1.0945         estimate D2E/DX2                !
 ! R68   R(62,64)                1.0938         estimate D2E/DX2                !
 ! R69   R(62,65)                1.0948         estimate D2E/DX2                !
 ! A1    A(2,1,6)              123.8311         estimate D2E/DX2                !
 ! A2    A(2,1,33)             119.9151         estimate D2E/DX2                !
 ! A3    A(6,1,33)             116.1485         estimate D2E/DX2                !
 ! A4    A(1,2,3)              121.7332         estimate D2E/DX2                !
 ! A5    A(1,2,32)             120.7007         estimate D2E/DX2                !
 ! A6    A(3,2,32)             117.4418         estimate D2E/DX2                !
 ! A7    A(2,3,4)              116.0601         estimate D2E/DX2                !
 ! A8    A(2,3,20)             113.0667         estimate D2E/DX2                !
 ! A9    A(2,3,31)             106.3373         estimate D2E/DX2                !
 ! A10   A(4,3,20)             105.7619         estimate D2E/DX2                !
 ! A11   A(4,3,31)             108.3497         estimate D2E/DX2                !
 ! A12   A(20,3,31)            106.8619         estimate D2E/DX2                !
 ! A13   A(3,4,5)              118.5193         estimate D2E/DX2                !
 ! A14   A(3,4,7)              104.8065         estimate D2E/DX2                !
 ! A15   A(3,4,24)             107.1353         estimate D2E/DX2                !
 ! A16   A(5,4,7)              112.5742         estimate D2E/DX2                !
 ! A17   A(5,4,24)             106.5033         estimate D2E/DX2                !
 ! A18   A(7,4,24)             106.6547         estimate D2E/DX2                !
 ! A19   A(4,5,6)              113.2701         estimate D2E/DX2                !
 ! A20   A(4,5,10)             115.8119         estimate D2E/DX2                !
 ! A21   A(4,5,22)             101.7582         estimate D2E/DX2                !
 ! A22   A(6,5,10)             108.1547         estimate D2E/DX2                !
 ! A23   A(6,5,22)             109.8688         estimate D2E/DX2                !
 ! A24   A(10,5,22)            107.6027         estimate D2E/DX2                !
 ! A25   A(1,6,5)              114.1688         estimate D2E/DX2                !
 ! A26   A(1,6,34)             107.0177         estimate D2E/DX2                !
 ! A27   A(1,6,35)             107.9021         estimate D2E/DX2                !
 ! A28   A(5,6,34)             111.6219         estimate D2E/DX2                !
 ! A29   A(5,6,35)             110.4347         estimate D2E/DX2                !
 ! A30   A(34,6,35)            105.2211         estimate D2E/DX2                !
 ! A31   A(4,7,8)              115.2939         estimate D2E/DX2                !
 ! A32   A(4,7,17)             107.5039         estimate D2E/DX2                !
 ! A33   A(4,7,21)             112.2353         estimate D2E/DX2                !
 ! A34   A(8,7,17)              99.4174         estimate D2E/DX2                !
 ! A35   A(8,7,21)             108.7283         estimate D2E/DX2                !
 ! A36   A(17,7,21)            113.0859         estimate D2E/DX2                !
 ! A37   A(7,8,9)              123.12           estimate D2E/DX2                !
 ! A38   A(7,8,19)             112.8977         estimate D2E/DX2                !
 ! A39   A(9,8,19)             123.4859         estimate D2E/DX2                !
 ! A40   A(8,9,10)             118.8193         estimate D2E/DX2                !
 ! A41   A(8,9,11)             119.7282         estimate D2E/DX2                !
 ! A42   A(10,9,11)            121.4512         estimate D2E/DX2                !
 ! A43   A(5,10,9)             120.293          estimate D2E/DX2                !
 ! A44   A(5,10,16)            120.7577         estimate D2E/DX2                !
 ! A45   A(9,10,16)            118.949          estimate D2E/DX2                !
 ! A46   A(9,11,12)            119.8114         estimate D2E/DX2                !
 ! A47   A(9,11,13)            117.3113         estimate D2E/DX2                !
 ! A48   A(12,11,13)           122.8764         estimate D2E/DX2                !
 ! A49   A(11,13,14)           108.6652         estimate D2E/DX2                !
 ! A50   A(11,13,15)           109.2237         estimate D2E/DX2                !
 ! A51   A(11,13,36)           108.7015         estimate D2E/DX2                !
 ! A52   A(14,13,15)           112.9667         estimate D2E/DX2                !
 ! A53   A(14,13,36)           108.9475         estimate D2E/DX2                !
 ! A54   A(15,13,36)           108.2561         estimate D2E/DX2                !
 ! A55   A(13,14,37)           109.3129         estimate D2E/DX2                !
 ! A56   A(13,14,38)           110.2363         estimate D2E/DX2                !
 ! A57   A(13,14,62)           113.2907         estimate D2E/DX2                !
 ! A58   A(37,14,38)           106.1696         estimate D2E/DX2                !
 ! A59   A(37,14,62)           108.3486         estimate D2E/DX2                !
 ! A60   A(38,14,62)           109.219          estimate D2E/DX2                !
 ! A61   A(13,15,39)           111.2451         estimate D2E/DX2                !
 ! A62   A(13,15,40)           110.8384         estimate D2E/DX2                !
 ! A63   A(13,15,41)           111.4061         estimate D2E/DX2                !
 ! A64   A(39,15,40)           107.6092         estimate D2E/DX2                !
 ! A65   A(39,15,41)           108.1429         estimate D2E/DX2                !
 ! A66   A(40,15,41)           107.4262         estimate D2E/DX2                !
 ! A67   A(7,17,18)            102.5933         estimate D2E/DX2                !
 ! A68   A(7,17,20)            101.9121         estimate D2E/DX2                !
 ! A69   A(7,17,30)            113.3719         estimate D2E/DX2                !
 ! A70   A(18,17,20)           114.9521         estimate D2E/DX2                !
 ! A71   A(18,17,30)           112.366          estimate D2E/DX2                !
 ! A72   A(20,17,30)           110.9676         estimate D2E/DX2                !
 ! A73   A(17,18,19)           105.7442         estimate D2E/DX2                !
 ! A74   A(17,18,28)           112.7066         estimate D2E/DX2                !
 ! A75   A(17,18,29)           113.6092         estimate D2E/DX2                !
 ! A76   A(19,18,28)           108.0285         estimate D2E/DX2                !
 ! A77   A(19,18,29)           108.3529         estimate D2E/DX2                !
 ! A78   A(28,18,29)           108.168          estimate D2E/DX2                !
 ! A79   A(8,19,18)            106.1709         estimate D2E/DX2                !
 ! A80   A(3,20,17)            105.8647         estimate D2E/DX2                !
 ! A81   A(3,20,42)            111.5878         estimate D2E/DX2                !
 ! A82   A(3,20,43)            109.9421         estimate D2E/DX2                !
 ! A83   A(17,20,42)           110.8491         estimate D2E/DX2                !
 ! A84   A(17,20,43)           111.6406         estimate D2E/DX2                !
 ! A85   A(42,20,43)           107.0213         estimate D2E/DX2                !
 ! A86   A(7,21,44)            105.7517         estimate D2E/DX2                !
 ! A87   A(5,22,23)            103.0792         estimate D2E/DX2                !
 ! A88   A(5,22,45)            113.2587         estimate D2E/DX2                !
 ! A89   A(5,22,46)            110.6499         estimate D2E/DX2                !
 ! A90   A(23,22,45)           112.2031         estimate D2E/DX2                !
 ! A91   A(23,22,46)           110.8027         estimate D2E/DX2                !
 ! A92   A(45,22,46)           106.9109         estimate D2E/DX2                !
 ! A93   A(22,23,24)           105.321          estimate D2E/DX2                !
 ! A94   A(22,23,25)           114.5954         estimate D2E/DX2                !
 ! A95   A(22,23,47)           110.3858         estimate D2E/DX2                !
 ! A96   A(24,23,25)           111.5722         estimate D2E/DX2                !
 ! A97   A(24,23,47)           106.7023         estimate D2E/DX2                !
 ! A98   A(25,23,47)           107.9975         estimate D2E/DX2                !
 ! A99   A(4,24,23)            109.6515         estimate D2E/DX2                !
 ! A100  A(23,25,26)           115.7131         estimate D2E/DX2                !
 ! A101  A(23,25,27)           124.1337         estimate D2E/DX2                !
 ! A102  A(26,25,27)           120.1093         estimate D2E/DX2                !
 ! A103  A(25,26,48)           110.6707         estimate D2E/DX2                !
 ! A104  A(25,26,49)           110.2521         estimate D2E/DX2                !
 ! A105  A(25,26,50)           112.1588         estimate D2E/DX2                !
 ! A106  A(48,26,49)           108.6459         estimate D2E/DX2                !
 ! A107  A(48,26,50)           107.5099         estimate D2E/DX2                !
 ! A108  A(49,26,50)           107.4657         estimate D2E/DX2                !
 ! A109  A(25,27,51)           122.1229         estimate D2E/DX2                !
 ! A110  A(25,27,52)           121.4916         estimate D2E/DX2                !
 ! A111  A(51,27,52)           116.3735         estimate D2E/DX2                !
 ! A112  A(18,28,53)           112.5592         estimate D2E/DX2                !
 ! A113  A(18,28,54)           110.5467         estimate D2E/DX2                !
 ! A114  A(18,28,55)           111.2724         estimate D2E/DX2                !
 ! A115  A(53,28,54)           105.3403         estimate D2E/DX2                !
 ! A116  A(53,28,55)           108.5848         estimate D2E/DX2                !
 ! A117  A(54,28,55)           108.2828         estimate D2E/DX2                !
 ! A118  A(18,29,56)           111.3748         estimate D2E/DX2                !
 ! A119  A(18,29,57)           110.6753         estimate D2E/DX2                !
 ! A120  A(18,29,58)           112.1201         estimate D2E/DX2                !
 ! A121  A(56,29,57)           108.2853         estimate D2E/DX2                !
 ! A122  A(56,29,58)           108.9027         estimate D2E/DX2                !
 ! A123  A(57,29,58)           105.2328         estimate D2E/DX2                !
 ! A124  A(2,32,59)            112.057          estimate D2E/DX2                !
 ! A125  A(2,32,60)            110.8864         estimate D2E/DX2                !
 ! A126  A(2,32,61)            110.2293         estimate D2E/DX2                !
 ! A127  A(59,32,60)           107.4403         estimate D2E/DX2                !
 ! A128  A(59,32,61)           107.4027         estimate D2E/DX2                !
 ! A129  A(60,32,61)           108.6821         estimate D2E/DX2                !
 ! A130  A(14,62,63)           111.0355         estimate D2E/DX2                !
 ! A131  A(14,62,64)           111.5151         estimate D2E/DX2                !
 ! A132  A(14,62,65)           110.0412         estimate D2E/DX2                !
 ! A133  A(63,62,64)           108.5123         estimate D2E/DX2                !
 ! A134  A(63,62,65)           107.9989         estimate D2E/DX2                !
 ! A135  A(64,62,65)           107.6067         estimate D2E/DX2                !
 ! D1    D(6,1,2,3)             -0.9513         estimate D2E/DX2                !
 ! D2    D(6,1,2,32)           174.8909         estimate D2E/DX2                !
 ! D3    D(33,1,2,3)          -177.0724         estimate D2E/DX2                !
 ! D4    D(33,1,2,32)           -1.2302         estimate D2E/DX2                !
 ! D5    D(2,1,6,5)             29.0396         estimate D2E/DX2                !
 ! D6    D(2,1,6,34)           -94.9975         estimate D2E/DX2                !
 ! D7    D(2,1,6,35)           152.2092         estimate D2E/DX2                !
 ! D8    D(33,1,6,5)          -154.7057         estimate D2E/DX2                !
 ! D9    D(33,1,6,34)           81.2573         estimate D2E/DX2                !
 ! D10   D(33,1,6,35)          -31.536          estimate D2E/DX2                !
 ! D11   D(1,2,3,4)            -13.1621         estimate D2E/DX2                !
 ! D12   D(1,2,3,20)          -135.6358         estimate D2E/DX2                !
 ! D13   D(1,2,3,31)           107.4043         estimate D2E/DX2                !
 ! D14   D(32,2,3,4)           170.866          estimate D2E/DX2                !
 ! D15   D(32,2,3,20)           48.3923         estimate D2E/DX2                !
 ! D16   D(32,2,3,31)          -68.5676         estimate D2E/DX2                !
 ! D17   D(1,2,32,59)           -5.0611         estimate D2E/DX2                !
 ! D18   D(1,2,32,60)          114.9877         estimate D2E/DX2                !
 ! D19   D(1,2,32,61)         -124.6143         estimate D2E/DX2                !
 ! D20   D(3,2,32,59)          170.9546         estimate D2E/DX2                !
 ! D21   D(3,2,32,60)          -68.9966         estimate D2E/DX2                !
 ! D22   D(3,2,32,61)           51.4014         estimate D2E/DX2                !
 ! D23   D(2,3,4,5)             -1.6855         estimate D2E/DX2                !
 ! D24   D(2,3,4,7)           -128.2362         estimate D2E/DX2                !
 ! D25   D(2,3,4,24)           118.7026         estimate D2E/DX2                !
 ! D26   D(20,3,4,5)           124.5578         estimate D2E/DX2                !
 ! D27   D(20,3,4,7)            -1.993          estimate D2E/DX2                !
 ! D28   D(20,3,4,24)         -115.0542         estimate D2E/DX2                !
 ! D29   D(31,3,4,5)          -121.1643         estimate D2E/DX2                !
 ! D30   D(31,3,4,7)           112.285          estimate D2E/DX2                !
 ! D31   D(31,3,4,24)           -0.7762         estimate D2E/DX2                !
 ! D32   D(2,3,20,17)          152.1159         estimate D2E/DX2                !
 ! D33   D(2,3,20,42)          -87.1961         estimate D2E/DX2                !
 ! D34   D(2,3,20,43)           31.3885         estimate D2E/DX2                !
 ! D35   D(4,3,20,17)           24.0664         estimate D2E/DX2                !
 ! D36   D(4,3,20,42)          144.7545         estimate D2E/DX2                !
 ! D37   D(4,3,20,43)          -96.661          estimate D2E/DX2                !
 ! D38   D(31,3,20,17)         -91.2338         estimate D2E/DX2                !
 ! D39   D(31,3,20,42)          29.4542         estimate D2E/DX2                !
 ! D40   D(31,3,20,43)         148.0388         estimate D2E/DX2                !
 ! D41   D(3,4,5,6)             27.8869         estimate D2E/DX2                !
 ! D42   D(3,4,5,10)           -97.8998         estimate D2E/DX2                !
 ! D43   D(3,4,5,22)           145.753          estimate D2E/DX2                !
 ! D44   D(7,4,5,6)            150.6308         estimate D2E/DX2                !
 ! D45   D(7,4,5,10)            24.8441         estimate D2E/DX2                !
 ! D46   D(7,4,5,22)           -91.5031         estimate D2E/DX2                !
 ! D47   D(24,4,5,6)           -92.8248         estimate D2E/DX2                !
 ! D48   D(24,4,5,10)          141.3885         estimate D2E/DX2                !
 ! D49   D(24,4,5,22)           25.0413         estimate D2E/DX2                !
 ! D50   D(3,4,7,8)             88.4831         estimate D2E/DX2                !
 ! D51   D(3,4,7,17)           -21.3206         estimate D2E/DX2                !
 ! D52   D(3,4,7,21)          -146.2877         estimate D2E/DX2                !
 ! D53   D(5,4,7,8)            -41.6617         estimate D2E/DX2                !
 ! D54   D(5,4,7,17)          -151.4653         estimate D2E/DX2                !
 ! D55   D(5,4,7,21)            83.5675         estimate D2E/DX2                !
 ! D56   D(24,4,7,8)          -158.1156         estimate D2E/DX2                !
 ! D57   D(24,4,7,17)           92.0807         estimate D2E/DX2                !
 ! D58   D(24,4,7,21)          -32.8864         estimate D2E/DX2                !
 ! D59   D(3,4,24,23)         -131.8946         estimate D2E/DX2                !
 ! D60   D(5,4,24,23)           -4.128          estimate D2E/DX2                !
 ! D61   D(7,4,24,23)          116.3053         estimate D2E/DX2                !
 ! D62   D(4,5,6,1)            -40.6207         estimate D2E/DX2                !
 ! D63   D(4,5,6,34)            80.9092         estimate D2E/DX2                !
 ! D64   D(4,5,6,35)          -162.4071         estimate D2E/DX2                !
 ! D65   D(10,5,6,1)            89.1579         estimate D2E/DX2                !
 ! D66   D(10,5,6,34)         -149.3122         estimate D2E/DX2                !
 ! D67   D(10,5,6,35)          -32.6285         estimate D2E/DX2                !
 ! D68   D(22,5,6,1)          -153.6547         estimate D2E/DX2                !
 ! D69   D(22,5,6,34)          -32.1249         estimate D2E/DX2                !
 ! D70   D(22,5,6,35)           84.5588         estimate D2E/DX2                !
 ! D71   D(4,5,10,9)             5.6337         estimate D2E/DX2                !
 ! D72   D(4,5,10,16)         -174.1737         estimate D2E/DX2                !
 ! D73   D(6,5,10,9)          -122.7148         estimate D2E/DX2                !
 ! D74   D(6,5,10,16)           57.4778         estimate D2E/DX2                !
 ! D75   D(22,5,10,9)          118.6469         estimate D2E/DX2                !
 ! D76   D(22,5,10,16)         -61.1604         estimate D2E/DX2                !
 ! D77   D(4,5,22,23)          -35.6929         estimate D2E/DX2                !
 ! D78   D(4,5,22,45)         -157.1681         estimate D2E/DX2                !
 ! D79   D(4,5,22,46)           82.8097         estimate D2E/DX2                !
 ! D80   D(6,5,22,23)           84.5917         estimate D2E/DX2                !
 ! D81   D(6,5,22,45)          -36.8834         estimate D2E/DX2                !
 ! D82   D(6,5,22,46)         -156.9057         estimate D2E/DX2                !
 ! D83   D(10,5,22,23)        -157.8768         estimate D2E/DX2                !
 ! D84   D(10,5,22,45)          80.648          estimate D2E/DX2                !
 ! D85   D(10,5,22,46)         -39.3742         estimate D2E/DX2                !
 ! D86   D(4,7,8,9)             28.8219         estimate D2E/DX2                !
 ! D87   D(4,7,8,19)          -143.3414         estimate D2E/DX2                !
 ! D88   D(17,7,8,9)           143.3783         estimate D2E/DX2                !
 ! D89   D(17,7,8,19)          -28.785          estimate D2E/DX2                !
 ! D90   D(21,7,8,9)           -98.2024         estimate D2E/DX2                !
 ! D91   D(21,7,8,19)           89.6344         estimate D2E/DX2                !
 ! D92   D(4,7,17,18)          155.0502         estimate D2E/DX2                !
 ! D93   D(4,7,17,20)           35.7819         estimate D2E/DX2                !
 ! D94   D(4,7,17,30)          -83.5304         estimate D2E/DX2                !
 ! D95   D(8,7,17,18)           34.6237         estimate D2E/DX2                !
 ! D96   D(8,7,17,20)          -84.6447         estimate D2E/DX2                !
 ! D97   D(8,7,17,30)          156.043          estimate D2E/DX2                !
 ! D98   D(21,7,17,18)         -80.4952         estimate D2E/DX2                !
 ! D99   D(21,7,17,20)         160.2364         estimate D2E/DX2                !
 ! D100  D(21,7,17,30)          40.9241         estimate D2E/DX2                !
 ! D101  D(4,7,21,44)           40.5085         estimate D2E/DX2                !
 ! D102  D(8,7,21,44)          169.2636         estimate D2E/DX2                !
 ! D103  D(17,7,21,44)         -81.3265         estimate D2E/DX2                !
 ! D104  D(7,8,9,10)             3.72           estimate D2E/DX2                !
 ! D105  D(7,8,9,11)          -176.6942         estimate D2E/DX2                !
 ! D106  D(19,8,9,10)          175.0581         estimate D2E/DX2                !
 ! D107  D(19,8,9,11)           -5.3561         estimate D2E/DX2                !
 ! D108  D(7,8,19,18)            9.3156         estimate D2E/DX2                !
 ! D109  D(9,8,19,18)         -162.8145         estimate D2E/DX2                !
 ! D110  D(8,9,10,5)           -21.5882         estimate D2E/DX2                !
 ! D111  D(8,9,10,16)          158.2226         estimate D2E/DX2                !
 ! D112  D(11,9,10,5)          158.8335         estimate D2E/DX2                !
 ! D113  D(11,9,10,16)         -21.3557         estimate D2E/DX2                !
 ! D114  D(8,9,11,12)           74.0099         estimate D2E/DX2                !
 ! D115  D(8,9,11,13)         -105.6573         estimate D2E/DX2                !
 ! D116  D(10,9,11,12)        -106.4156         estimate D2E/DX2                !
 ! D117  D(10,9,11,13)          73.9172         estimate D2E/DX2                !
 ! D118  D(9,11,13,14)         108.3918         estimate D2E/DX2                !
 ! D119  D(9,11,13,15)        -127.9684         estimate D2E/DX2                !
 ! D120  D(9,11,13,36)         -10.0446         estimate D2E/DX2                !
 ! D121  D(12,11,13,14)        -71.2644         estimate D2E/DX2                !
 ! D122  D(12,11,13,15)         52.3755         estimate D2E/DX2                !
 ! D123  D(12,11,13,36)        170.2993         estimate D2E/DX2                !
 ! D124  D(11,13,14,37)        -52.3488         estimate D2E/DX2                !
 ! D125  D(11,13,14,38)         63.9909         estimate D2E/DX2                !
 ! D126  D(11,13,14,62)       -173.2809         estimate D2E/DX2                !
 ! D127  D(15,13,14,37)       -173.7223         estimate D2E/DX2                !
 ! D128  D(15,13,14,38)        -57.3826         estimate D2E/DX2                !
 ! D129  D(15,13,14,62)         65.3456         estimate D2E/DX2                !
 ! D130  D(36,13,14,37)         65.9321         estimate D2E/DX2                !
 ! D131  D(36,13,14,38)       -177.7282         estimate D2E/DX2                !
 ! D132  D(36,13,14,62)        -55.0            estimate D2E/DX2                !
 ! D133  D(11,13,15,39)        171.7441         estimate D2E/DX2                !
 ! D134  D(11,13,15,40)         52.0557         estimate D2E/DX2                !
 ! D135  D(11,13,15,41)        -67.5082         estimate D2E/DX2                !
 ! D136  D(14,13,15,39)        -67.1988         estimate D2E/DX2                !
 ! D137  D(14,13,15,40)        173.1128         estimate D2E/DX2                !
 ! D138  D(14,13,15,41)         53.5488         estimate D2E/DX2                !
 ! D139  D(36,13,15,39)         53.5412         estimate D2E/DX2                !
 ! D140  D(36,13,15,40)        -66.1472         estimate D2E/DX2                !
 ! D141  D(36,13,15,41)        174.2888         estimate D2E/DX2                !
 ! D142  D(13,14,62,63)         55.7085         estimate D2E/DX2                !
 ! D143  D(13,14,62,64)        -65.4403         estimate D2E/DX2                !
 ! D144  D(13,14,62,65)        175.2258         estimate D2E/DX2                !
 ! D145  D(37,14,62,63)        -65.7665         estimate D2E/DX2                !
 ! D146  D(37,14,62,64)        173.0847         estimate D2E/DX2                !
 ! D147  D(37,14,62,65)         53.7508         estimate D2E/DX2                !
 ! D148  D(38,14,62,63)        178.9983         estimate D2E/DX2                !
 ! D149  D(38,14,62,64)         57.8495         estimate D2E/DX2                !
 ! D150  D(38,14,62,65)        -61.4844         estimate D2E/DX2                !
 ! D151  D(7,17,18,19)         -31.7443         estimate D2E/DX2                !
 ! D152  D(7,17,18,28)          86.0656         estimate D2E/DX2                !
 ! D153  D(7,17,18,29)        -150.4459         estimate D2E/DX2                !
 ! D154  D(20,17,18,19)         77.9633         estimate D2E/DX2                !
 ! D155  D(20,17,18,28)       -164.2269         estimate D2E/DX2                !
 ! D156  D(20,17,18,29)        -40.7383         estimate D2E/DX2                !
 ! D157  D(30,17,18,19)       -153.8489         estimate D2E/DX2                !
 ! D158  D(30,17,18,28)        -36.0391         estimate D2E/DX2                !
 ! D159  D(30,17,18,29)         87.4495         estimate D2E/DX2                !
 ! D160  D(7,17,20,3)          -36.6301         estimate D2E/DX2                !
 ! D161  D(7,17,20,42)        -157.7968         estimate D2E/DX2                !
 ! D162  D(7,17,20,43)          82.988          estimate D2E/DX2                !
 ! D163  D(18,17,20,3)        -146.7461         estimate D2E/DX2                !
 ! D164  D(18,17,20,42)         92.0872         estimate D2E/DX2                !
 ! D165  D(18,17,20,43)        -27.128          estimate D2E/DX2                !
 ! D166  D(30,17,20,3)          84.3685         estimate D2E/DX2                !
 ! D167  D(30,17,20,42)        -36.7982         estimate D2E/DX2                !
 ! D168  D(30,17,20,43)       -156.0133         estimate D2E/DX2                !
 ! D169  D(17,18,19,8)          14.32           estimate D2E/DX2                !
 ! D170  D(28,18,19,8)        -106.5788         estimate D2E/DX2                !
 ! D171  D(29,18,19,8)         136.4561         estimate D2E/DX2                !
 ! D172  D(17,18,28,53)        -61.9324         estimate D2E/DX2                !
 ! D173  D(17,18,28,54)       -179.4254         estimate D2E/DX2                !
 ! D174  D(17,18,28,55)         60.2141         estimate D2E/DX2                !
 ! D175  D(19,18,28,53)         54.5242         estimate D2E/DX2                !
 ! D176  D(19,18,28,54)        -62.9688         estimate D2E/DX2                !
 ! D177  D(19,18,28,55)        176.6706         estimate D2E/DX2                !
 ! D178  D(29,18,28,53)        171.609          estimate D2E/DX2                !
 ! D179  D(29,18,28,54)         54.1159         estimate D2E/DX2                !
 ! D180  D(29,18,28,55)        -66.2446         estimate D2E/DX2                !
 ! D181  D(17,18,29,56)        -57.2348         estimate D2E/DX2                !
 ! D182  D(17,18,29,57)       -177.7533         estimate D2E/DX2                !
 ! D183  D(17,18,29,58)         65.0831         estimate D2E/DX2                !
 ! D184  D(19,18,29,56)       -174.4284         estimate D2E/DX2                !
 ! D185  D(19,18,29,57)         65.0531         estimate D2E/DX2                !
 ! D186  D(19,18,29,58)        -52.1104         estimate D2E/DX2                !
 ! D187  D(28,18,29,56)         68.6963         estimate D2E/DX2                !
 ! D188  D(28,18,29,57)        -51.8223         estimate D2E/DX2                !
 ! D189  D(28,18,29,58)       -168.9858         estimate D2E/DX2                !
 ! D190  D(5,22,23,24)          34.4557         estimate D2E/DX2                !
 ! D191  D(5,22,23,25)         157.4574         estimate D2E/DX2                !
 ! D192  D(5,22,23,47)         -80.3605         estimate D2E/DX2                !
 ! D193  D(45,22,23,24)        156.6432         estimate D2E/DX2                !
 ! D194  D(45,22,23,25)        -80.3551         estimate D2E/DX2                !
 ! D195  D(45,22,23,47)         41.8271         estimate D2E/DX2                !
 ! D196  D(46,22,23,24)        -83.9402         estimate D2E/DX2                !
 ! D197  D(46,22,23,25)         39.0615         estimate D2E/DX2                !
 ! D198  D(46,22,23,47)        161.2436         estimate D2E/DX2                !
 ! D199  D(22,23,24,4)         -18.9812         estimate D2E/DX2                !
 ! D200  D(25,23,24,4)        -143.8964         estimate D2E/DX2                !
 ! D201  D(47,23,24,4)          98.3601         estimate D2E/DX2                !
 ! D202  D(22,23,25,26)         55.5929         estimate D2E/DX2                !
 ! D203  D(22,23,25,27)       -126.8234         estimate D2E/DX2                !
 ! D204  D(24,23,25,26)        175.1607         estimate D2E/DX2                !
 ! D205  D(24,23,25,27)         -7.2556         estimate D2E/DX2                !
 ! D206  D(47,23,25,26)        -67.8781         estimate D2E/DX2                !
 ! D207  D(47,23,25,27)        109.7056         estimate D2E/DX2                !
 ! D208  D(23,25,26,48)        -66.467          estimate D2E/DX2                !
 ! D209  D(23,25,26,49)         53.7607         estimate D2E/DX2                !
 ! D210  D(23,25,26,50)        173.4757         estimate D2E/DX2                !
 ! D211  D(27,25,26,48)        115.8449         estimate D2E/DX2                !
 ! D212  D(27,25,26,49)       -123.9274         estimate D2E/DX2                !
 ! D213  D(27,25,26,50)         -4.2124         estimate D2E/DX2                !
 ! D214  D(23,25,27,51)         -0.2064         estimate D2E/DX2                !
 ! D215  D(23,25,27,52)       -178.8939         estimate D2E/DX2                !
 ! D216  D(26,25,27,51)        177.277          estimate D2E/DX2                !
 ! D217  D(26,25,27,52)         -1.4106         estimate D2E/DX2                !
 --------------------------------------------------------------------------------
 Trust Radius=3.00D-01 FncErr=1.00D-07 GrdErr=1.00D-06
 Number of steps in this run=    390 maximum allowed number of steps=    390.
 GradGradGradGradGradGradGradGradGradGradGradGradGradGradGradGradGradGrad

 Stoichiometry    C26H34O5
 Framework group  C1[X(C26H34O5)]
 Deg. of freedom   189
 Full point group                 C1      NOp   1
 Largest Abelian subgroup         C1      NOp   1
 Largest concise Abelian subgroup C1      NOp   1
                         Standard orientation:                         
 ---------------------------------------------------------------------
 Center     Atomic      Atomic             Coordinates (Angstroms)
 Number     Number       Type             X           Y           Z
 ---------------------------------------------------------------------
      1          6           0       -1.539872    0.331468    3.157269
      2          6           0       -1.571997    1.524909    2.545914
      3          6           0       -1.730546    1.646590    1.048445
      4          6           0       -1.535969    0.336479    0.231736
      5          6           0       -1.164874   -0.951386    0.986721
      6          6           0       -1.675135   -0.973020    2.442366
      7          6           0       -0.508352    0.700545   -0.857969
      8          6           0        0.918829    0.520011   -0.472517
      9          6           0        1.324859   -0.387988    0.419710
     10          6           0        0.328653   -1.314163    0.997347
     11          6           0        2.752704   -0.453913    0.801562
     12          8           0        3.230342    0.410845    1.536089
     13          6           0        3.572544   -1.611392    0.244909
     14          6           0        4.537908   -1.064124   -0.816498
     15          6           0        4.288443   -2.318513    1.393421
     16          8           0        0.715327   -2.379845    1.482512
     17          6           0       -0.532213    2.203882   -1.021670
     18          6           0        0.875873    2.504144   -1.580173
     19          8           0        1.750843    1.501222   -1.002102
     20          6           0       -0.771902    2.676568    0.421794
     21          8           0       -0.743537    0.005894   -2.070237
     22          6           0       -1.894023   -2.016321    0.164028
     23          6           0       -3.172647   -1.309160   -0.258468
     24          8           0       -2.798963    0.065732   -0.456411
     25          6           0       -3.835538   -1.888411   -1.489555
     26          6           0       -4.163191   -3.357368   -1.425443
     27          6           0       -4.174301   -1.168350   -2.573607
     28          6           0        0.947708    2.373310   -3.110107
     29          6           0        1.407171    3.888752   -1.193486
     30          1           0       -1.328615    2.556169   -1.687047
     31          1           0       -2.752473    2.014649    0.874376
     32          6           0       -1.543476    2.800219    3.346811
     33          1           0       -1.472429    0.279039    4.242709
     34          1           0       -2.732280   -1.260238    2.495817
     35          1           0       -1.140061   -1.733872    3.024663
     36          1           0        2.891418   -2.328887   -0.229184
     37          1           0        3.974000   -0.474452   -1.550442
     38          1           0        5.255877   -0.373667   -0.356534
     39          1           0        4.769608   -3.240469    1.053031
     40          1           0        3.582067   -2.586697    2.186760
     41          1           0        5.056445   -1.677939    1.840699
     42          1           0       -1.199045    3.685716    0.435909
     43          1           0        0.162228    2.715303    0.995065
     44          1           0       -1.713602    0.003961   -2.191096
     45          1           0       -2.095404   -2.935181    0.726684
     46          1           0       -1.298674   -2.302891   -0.713211
     47          1           0       -3.904335   -1.322455    0.558339
     48          1           0       -3.247746   -3.956210   -1.389797
     49          1           0       -4.758406   -3.574302   -0.532413
     50          1           0       -4.741046   -3.690102   -2.294511
     51          1           0       -3.993285   -0.100350   -2.636504
     52          1           0       -4.665140   -1.625627   -3.427752
     53          1           0        0.723707    1.360643   -3.455373
     54          1           0        1.962976    2.583590   -3.467104
     55          1           0        0.259982    3.069432   -3.600999
     56          1           0        0.728547    4.682456   -1.521789
     57          1           0        2.389681    4.066859   -1.646670
     58          1           0        1.566787    3.982410   -0.114901
     59          1           0       -1.585625    2.610050    4.424721
     60          1           0       -0.627376    3.364617    3.149001
     61          1           0       -2.403852    3.427244    3.091015
     62          6           0        5.296411   -2.154079   -1.558876
     63          1           0        4.607021   -2.871176   -2.015521
     64          1           0        5.971968   -2.697919   -0.892275
     65          1           0        5.902617   -1.712631   -2.356462
 ---------------------------------------------------------------------
 Rotational constants (GHZ):      0.1904553      0.1265950      0.1172738
 Standard basis: 6-31G(d) (6D, 7F)
 There are   533 symmetry adapted basis functions of A   symmetry.
 Integral buffers will be    131072 words long.
 Raffenetti 2 integral format.
 Two-electron integral symmetry is turned on.
   533 basis functions,  1004 primitive gaussians,   533 cartesian basis functions
   115 alpha electrons      115 beta electrons
       nuclear repulsion energy      3510.3868807788 Hartrees.
 NAtoms=   65 NActive=   65 NUniq=   65 SFac= 1.00D+00 NAtFMM=   50 NAOKFM=T Big=T
 One-electron integrals computed using PRISM.
 NBasis=   533 RedAO= T  NBF=   533
 NBsUse=   533 1.00D-06 NBFU=   533
 Harris functional with IExCor=  402 diagonalized for initial guess.
 ExpMin= 1.61D-01 ExpMax= 5.48D+03 ExpMxC= 8.25D+02 IAcc=1 IRadAn=         1 AccDes= 0.00D+00
 HarFok:  IExCor=  402 AccDes= 0.00D+00 IRadAn=         1 IDoV= 1
 ScaDFX=  1.000000  1.000000  1.000000  1.000000
 FoFCou: FMM=F IPFlag=           0 FMFlag=      100000 FMFlg1=        2001
         NFxFlg=           0 DoJE=T BraDBF=F KetDBF=T FulRan=T
         Omega=  0.000000  0.000000  1.000000  0.000000  0.000000 ICntrl=     500 IOpCl=  0
         NMat0=    1 NMatS0=    1 NMatT0=    0 NMatD0=    1 NMtDS0=    0 NMtDT0=    0
         I1Cent=           4 NGrid=           0.
 Petite list used in FoFCou.
 Initial guess orbital symmetries:
       Occupied  (A) (A) (A) (A) (A) (A) (A) (A) (A) (A) (A) (A)
                 (A) (A) (A) (A) (A) (A) (A) (A) (A) (A) (A) (A)
                 (A) (A) (A) (A) (A) (A) (A) (A) (A) (A) (A) (A)
                 (A) (A) (A) (A) (A) (A) (A) (A) (A) (A) (A) (A)
                 (A) (A) (A) (A) (A) (A) (A) (A) (A) (A) (A) (A)
                 (A) (A) (A) (A) (A) (A) (A) (A) (A) (A) (A) (A)
                 (A) (A) (A) (A) (A) (A) (A) (A) (A) (A) (A) (A)
                 (A) (A) (A) (A) (A) (A) (A) (A) (A) (A) (A) (A)
                 (A) (A) (A) (A) (A) (A) (A) (A) (A) (A) (A) (A)
                 (A) (A) (A) (A) (A) (A) (A)
       Virtual   (A) (A) (A) (A) (A) (A) (A) (A) (A) (A) (A) (A)
                 (A) (A) (A) (A) (A) (A) (A) (A) (A) (A) (A) (A)
                 (A) (A) (A) (A) (A) (A) (A) (A) (A) (A) (A) (A)
                 (A) (A) (A) (A) (A) (A) (A) (A) (A) (A) (A) (A)
                 (A) (A) (A) (A) (A) (A) (A) (A) (A) (A) (A) (A)
                 (A) (A) (A) (A) (A) (A) (A) (A) (A) (A) (A) (A)
                 (A) (A) (A) (A) (A) (A) (A) (A) (A) (A) (A) (A)
                 (A) (A) (A) (A) (A) (A) (A) (A) (A) (A) (A) (A)
                 (A) (A) (A) (A) (A) (A) (A) (A) (A) (A) (A) (A)
                 (A) (A) (A) (A) (A) (A) (A) (A) (A) (A) (A) (A)
                 (A) (A) (A) (A) (A) (A) (A) (A) (A) (A) (A) (A)
                 (A) (A) (A) (A) (A) (A) (A) (A) (A) (A) (A) (A)
                 (A) (A) (A) (A) (A) (A) (A) (A) (A) (A) (A) (A)
                 (A) (A) (A) (A) (A) (A) (A) (A) (A) (A) (A) (A)
                 (A) (A) (A) (A) (A) (A) (A) (A) (A) (A) (A) (A)
                 (A) (A) (A) (A) (A) (A) (A) (A) (A) (A) (A) (A)
                 (A) (A) (A) (A) (A) (A) (A) (A) (A) (A) (A) (A)
                 (A) (A) (A) (A) (A) (A) (A) (A) (A) (A) (A) (A)
                 (A) (A) (A) (A) (A) (A) (A) (A) (A) (A) (A) (A)
                 (A) (A) (A) (A) (A) (A) (A) (A) (A) (A) (A) (A)
                 (A) (A) (A) (A) (A) (A) (A) (A) (A) (A) (A) (A)
                 (A) (A) (A) (A) (A) (A) (A) (A) (A) (A) (A) (A)
                 (A) (A) (A) (A) (A) (A) (A) (A) (A) (A) (A) (A)
                 (A) (A) (A) (A) (A) (A) (A) (A) (A) (A) (A) (A)
                 (A) (A) (A) (A) (A) (A) (A) (A) (A) (A) (A) (A)
                 (A) (A) (A) (A) (A) (A) (A) (A) (A) (A) (A) (A)
                 (A) (A) (A) (A) (A) (A) (A) (A) (A) (A) (A) (A)
                 (A) (A) (A) (A) (A) (A) (A) (A) (A) (A) (A) (A)
                 (A) (A) (A) (A) (A) (A) (A) (A) (A) (A) (A) (A)
                 (A) (A) (A) (A) (A) (A) (A) (A) (A) (A) (A) (A)
                 (A) (A) (A) (A) (A) (A) (A) (A) (A) (A) (A) (A)
                 (A) (A) (A) (A) (A) (A) (A) (A) (A) (A) (A) (A)
                 (A) (A) (A) (A) (A) (A) (A) (A) (A) (A) (A) (A)
                 (A) (A) (A) (A) (A) (A) (A) (A) (A) (A) (A) (A)
                 (A) (A) (A) (A) (A) (A) (A) (A) (A) (A)
 The electronic state of the initial guess is 1-A.
 Requested convergence on RMS density matrix=1.00D-08 within 128 cycles.
 Requested convergence on MAX density matrix=1.00D-06.
 Requested convergence on             energy=1.00D-06.
 No special actions if energy rises.
 Integral accuracy reduced to 1.0D-05 until final iterations.
 Initial convergence to 1.0D-05 achieved.  Increase integral accuracy.
 SCF Done:  E(RB3LYP) =  -1387.30443044     A.U. after   16 cycles
             Convg  =    0.4853D-08             -V/T =  2.0091

 **********************************************************************

            Population analysis using the SCF density.

 **********************************************************************

 Orbital symmetries:
       Occupied  (A) (A) (A) (A) (A) (A) (A) (A) (A) (A) (A) (A)
                 (A) (A) (A) (A) (A) (A) (A) (A) (A) (A) (A) (A)
                 (A) (A) (A) (A) (A) (A) (A) (A) (A) (A) (A) (A)
                 (A) (A) (A) (A) (A) (A) (A) (A) (A) (A) (A) (A)
                 (A) (A) (A) (A) (A) (A) (A) (A) (A) (A) (A) (A)
                 (A) (A) (A) (A) (A) (A) (A) (A) (A) (A) (A) (A)
                 (A) (A) (A) (A) (A) (A) (A) (A) (A) (A) (A) (A)
                 (A) (A) (A) (A) (A) (A) (A) (A) (A) (A) (A) (A)
                 (A) (A) (A) (A) (A) (A) (A) (A) (A) (A) (A) (A)
                 (A) (A) (A) (A) (A) (A) (A)
       Virtual   (A) (A) (A) (A) (A) (A) (A) (A) (A) (A) (A) (A)
                 (A) (A) (A) (A) (A) (A) (A) (A) (A) (A) (A) (A)
                 (A) (A) (A) (A) (A) (A) (A) (A) (A) (A) (A) (A)
                 (A) (A) (A) (A) (A) (A) (A) (A) (A) (A) (A) (A)
                 (A) (A) (A) (A) (A) (A) (A) (A) (A) (A) (A) (A)
                 (A) (A) (A) (A) (A) (A) (A) (A) (A) (A) (A) (A)
                 (A) (A) (A) (A) (A) (A) (A) (A) (A) (A) (A) (A)
                 (A) (A) (A) (A) (A) (A) (A) (A) (A) (A) (A) (A)
                 (A) (A) (A) (A) (A) (A) (A) (A) (A) (A) (A) (A)
                 (A) (A) (A) (A) (A) (A) (A) (A) (A) (A) (A) (A)
                 (A) (A) (A) (A) (A) (A) (A) (A) (A) (A) (A) (A)
                 (A) (A) (A) (A) (A) (A) (A) (A) (A) (A) (A) (A)
                 (A) (A) (A) (A) (A) (A) (A) (A) (A) (A) (A) (A)
                 (A) (A) (A) (A) (A) (A) (A) (A) (A) (A) (A) (A)
                 (A) (A) (A) (A) (A) (A) (A) (A) (A) (A) (A) (A)
                 (A) (A) (A) (A) (A) (A) (A) (A) (A) (A) (A) (A)
                 (A) (A) (A) (A) (A) (A) (A) (A) (A) (A) (A) (A)
                 (A) (A) (A) (A) (A) (A) (A) (A) (A) (A) (A) (A)
                 (A) (A) (A) (A) (A) (A) (A) (A) (A) (A) (A) (A)
                 (A) (A) (A) (A) (A) (A) (A) (A) (A) (A) (A) (A)
                 (A) (A) (A) (A) (A) (A) (A) (A) (A) (A) (A) (A)
                 (A) (A) (A) (A) (A) (A) (A) (A) (A) (A) (A) (A)
                 (A) (A) (A) (A) (A) (A) (A) (A) (A) (A) (A) (A)
                 (A) (A) (A) (A) (A) (A) (A) (A) (A) (A) (A) (A)
                 (A) (A) (A) (A) (A) (A) (A) (A) (A) (A) (A) (A)
                 (A) (A) (A) (A) (A) (A) (A) (A) (A) (A) (A) (A)
                 (A) (A) (A) (A) (A) (A) (A) (A) (A) (A) (A) (A)
                 (A) (A) (A) (A) (A) (A) (A) (A) (A) (A) (A) (A)
                 (A) (A) (A) (A) (A) (A) (A) (A) (A) (A) (A) (A)
                 (A) (A) (A) (A) (A) (A) (A) (A) (A) (A) (A) (A)
                 (A) (A) (A) (A) (A) (A) (A) (A) (A) (A) (A) (A)
                 (A) (A) (A) (A) (A) (A) (A) (A) (A) (A) (A) (A)
                 (A) (A) (A) (A) (A) (A) (A) (A) (A) (A) (A) (A)
                 (A) (A) (A) (A) (A) (A) (A) (A) (A) (A) (A) (A)
                 (A) (A) (A) (A) (A) (A) (A) (A) (A) (A)
 The electronic state is 1-A.
 Alpha  occ. eigenvalues --  -19.19286 -19.16755 -19.15160 -19.13572 -19.13064
 Alpha  occ. eigenvalues --  -10.28043 -10.26742 -10.26669 -10.25888 -10.25858
 Alpha  occ. eigenvalues --  -10.25338 -10.25208 -10.21722 -10.20746 -10.20139
 Alpha  occ. eigenvalues --  -10.19952 -10.19737 -10.19378 -10.19277 -10.19268
 Alpha  occ. eigenvalues --  -10.19255 -10.19138 -10.18320 -10.18315 -10.18284
 Alpha  occ. eigenvalues --  -10.18123 -10.18016 -10.17503 -10.17482 -10.16684
 Alpha  occ. eigenvalues --  -10.16129  -1.08210  -1.05869  -1.03378  -1.02244
 Alpha  occ. eigenvalues --   -1.02130  -0.87305  -0.83950  -0.82635  -0.81754
 Alpha  occ. eigenvalues --   -0.80374  -0.79900  -0.76892  -0.74448  -0.73619
 Alpha  occ. eigenvalues --   -0.72262  -0.71534  -0.69322  -0.69276  -0.68047
 Alpha  occ. eigenvalues --   -0.65555  -0.64373  -0.63313  -0.62197  -0.60805
 Alpha  occ. eigenvalues --   -0.59340  -0.58528  -0.57210  -0.54756  -0.53718
 Alpha  occ. eigenvalues --   -0.53102  -0.52113  -0.50983  -0.50527  -0.49093
 Alpha  occ. eigenvalues --   -0.48374  -0.47827  -0.46660  -0.46060  -0.45698
 Alpha  occ. eigenvalues --   -0.45080  -0.44781  -0.44350  -0.43919  -0.43451
 Alpha  occ. eigenvalues --   -0.42858  -0.42485  -0.42159  -0.41836  -0.41494
 Alpha  occ. eigenvalues --   -0.41214  -0.40837  -0.40294  -0.39731  -0.39298
 Alpha  occ. eigenvalues --   -0.39039  -0.38753  -0.38497  -0.38180  -0.37995
 Alpha  occ. eigenvalues --   -0.37443  -0.37193  -0.36913  -0.36801  -0.36526
 Alpha  occ. eigenvalues --   -0.35912  -0.35185  -0.34874  -0.34395  -0.34349
 Alpha  occ. eigenvalues --   -0.34150  -0.33813  -0.33346  -0.32458  -0.32016
 Alpha  occ. eigenvalues --   -0.31855  -0.31354  -0.31105  -0.28038  -0.26526
 Alpha  occ. eigenvalues --   -0.25678  -0.25194  -0.24300  -0.23279  -0.23218
 Alpha virt. eigenvalues --   -0.05087  -0.01529   0.01084   0.02249   0.03890
 Alpha virt. eigenvalues --    0.07223   0.08062   0.09021   0.09233   0.10188
 Alpha virt. eigenvalues --    0.10280   0.10874   0.11586   0.12046   0.12712
 Alpha virt. eigenvalues --    0.12867   0.13144   0.13738   0.13835   0.14174
 Alpha virt. eigenvalues --    0.14388   0.14727   0.15024   0.15541   0.15768
 Alpha virt. eigenvalues --    0.16070   0.16352   0.16558   0.17269   0.17390
 Alpha virt. eigenvalues --    0.17894   0.17998   0.18125   0.18506   0.18763
 Alpha virt. eigenvalues --    0.19107   0.19257   0.19573   0.19988   0.20547
 Alpha virt. eigenvalues --    0.20761   0.21079   0.21555   0.22059   0.22240
 Alpha virt. eigenvalues --    0.22942   0.23610   0.23936   0.24408   0.24799
 Alpha virt. eigenvalues --    0.25229   0.25462   0.25977   0.26492   0.26769
 Alpha virt. eigenvalues --    0.27312   0.27986   0.28307   0.29455   0.29734
 Alpha virt. eigenvalues --    0.30908   0.32052   0.32665   0.33700   0.34504
 Alpha virt. eigenvalues --    0.35334   0.36071   0.36953   0.38405   0.39878
 Alpha virt. eigenvalues --    0.42293   0.45333   0.46926   0.48196   0.48470
 Alpha virt. eigenvalues --    0.50160   0.51155   0.51619   0.51949   0.52239
 Alpha virt. eigenvalues --    0.52565   0.52931   0.53117   0.53720   0.53966
 Alpha virt. eigenvalues --    0.54744   0.54971   0.55199   0.55384   0.56973
 Alpha virt. eigenvalues --    0.57163   0.57476   0.57648   0.58445   0.59228
 Alpha virt. eigenvalues --    0.59616   0.60325   0.61401   0.61716   0.61824
 Alpha virt. eigenvalues --    0.62234   0.62443   0.62622   0.63008   0.64075
 Alpha virt. eigenvalues --    0.64821   0.65302   0.65634   0.66664   0.67119
 Alpha virt. eigenvalues --    0.67948   0.68239   0.68738   0.68901   0.69556
 Alpha virt. eigenvalues --    0.70413   0.70954   0.71600   0.72391   0.73059
 Alpha virt. eigenvalues --    0.74431   0.74509   0.75540   0.75955   0.76990
 Alpha virt. eigenvalues --    0.77372   0.78544   0.78955   0.79688   0.80048
 Alpha virt. eigenvalues --    0.80853   0.80955   0.81223   0.81713   0.82117
 Alpha virt. eigenvalues --    0.83171   0.83417   0.83742   0.84221   0.84828
 Alpha virt. eigenvalues --    0.85485   0.85999   0.86150   0.86717   0.87140
 Alpha virt. eigenvalues --    0.87537   0.87818   0.88071   0.88708   0.89062
 Alpha virt. eigenvalues --    0.89241   0.89818   0.90253   0.90357   0.90630
 Alpha virt. eigenvalues --    0.90824   0.91089   0.91423   0.91718   0.92358
 Alpha virt. eigenvalues --    0.92772   0.93119   0.93616   0.94166   0.94442
 Alpha virt. eigenvalues --    0.95060   0.95796   0.96027   0.96079   0.96642
 Alpha virt. eigenvalues --    0.97102   0.97364   0.98410   0.98927   0.99267
 Alpha virt. eigenvalues --    0.99700   1.01270   1.02256   1.02583   1.03632
 Alpha virt. eigenvalues --    1.04703   1.05629   1.06110   1.06651   1.07310
 Alpha virt. eigenvalues --    1.08612   1.09547   1.09892   1.11013   1.12371
 Alpha virt. eigenvalues --    1.12639   1.13161   1.15095   1.15613   1.16757
 Alpha virt. eigenvalues --    1.17133   1.17947   1.18878   1.19053   1.21006
 Alpha virt. eigenvalues --    1.22187   1.23837   1.24836   1.25088   1.26320
 Alpha virt. eigenvalues --    1.28470   1.29610   1.30713   1.31991   1.33054
 Alpha virt. eigenvalues --    1.34048   1.36292   1.36409   1.38597   1.39893
 Alpha virt. eigenvalues --    1.40125   1.41522   1.43171   1.43292   1.45506
 Alpha virt. eigenvalues --    1.46764   1.48844   1.49928   1.51279   1.53861
 Alpha virt. eigenvalues --    1.55024   1.55250   1.57067   1.57379   1.59104
 Alpha virt. eigenvalues --    1.60156   1.60858   1.62336   1.62561   1.63514
 Alpha virt. eigenvalues --    1.65369   1.65846   1.67201   1.67731   1.69615
 Alpha virt. eigenvalues --    1.70649   1.72318   1.73014   1.73267   1.74060
 Alpha virt. eigenvalues --    1.74881   1.76065   1.76472   1.77575   1.78324
 Alpha virt. eigenvalues --    1.79486   1.80124   1.80761   1.82153   1.82600
 Alpha virt. eigenvalues --    1.82957   1.83279   1.83915   1.84070   1.85702
 Alpha virt. eigenvalues --    1.86755   1.87104   1.87317   1.87894   1.88425
 Alpha virt. eigenvalues --    1.89133   1.89997   1.90343   1.91112   1.91555
 Alpha virt. eigenvalues --    1.92657   1.92917   1.93940   1.94413   1.95756
 Alpha virt. eigenvalues --    1.96104   1.96686   1.97306   1.97811   1.98455
 Alpha virt. eigenvalues --    1.99153   1.99704   1.99773   2.00589   2.01449
 Alpha virt. eigenvalues --    2.02868   2.03433   2.04386   2.05637   2.06241
 Alpha virt. eigenvalues --    2.06613   2.07592   2.08892   2.09745   2.10206
 Alpha virt. eigenvalues --    2.10780   2.11603   2.11903   2.13561   2.13778
 Alpha virt. eigenvalues --    2.15057   2.15496   2.16862   2.17359   2.17903
 Alpha virt. eigenvalues --    2.19551   2.20769   2.21557   2.22791   2.23494
 Alpha virt. eigenvalues --    2.23558   2.24337   2.25908   2.26332   2.27003
 Alpha virt. eigenvalues --    2.28310   2.29182   2.29865   2.31572   2.32112
 Alpha virt. eigenvalues --    2.32219   2.33098   2.33814   2.33940   2.34813
 Alpha virt. eigenvalues --    2.35667   2.35819   2.37569   2.38272   2.38663
 Alpha virt. eigenvalues --    2.41134   2.41255   2.42030   2.42786   2.43569
 Alpha virt. eigenvalues --    2.44246   2.45629   2.46449   2.48745   2.49264
 Alpha virt. eigenvalues --    2.49889   2.50775   2.52934   2.53572   2.55351
 Alpha virt. eigenvalues --    2.56806   2.57324   2.57936   2.59645   2.60667
 Alpha virt. eigenvalues --    2.61564   2.62460   2.64462   2.64729   2.66320
 Alpha virt. eigenvalues --    2.66777   2.68584   2.69840   2.70425   2.70729
 Alpha virt. eigenvalues --    2.72381   2.74061   2.76249   2.77436   2.78430
 Alpha virt. eigenvalues --    2.79599   2.80786   2.81056   2.82118   2.84622
 Alpha virt. eigenvalues --    2.85836   2.92035   2.92201   2.95128   2.96281
 Alpha virt. eigenvalues --    2.98062   3.00047   3.00722   3.02029   3.03020
 Alpha virt. eigenvalues --    3.06013   3.07663   3.12919   3.17497   3.20601
 Alpha virt. eigenvalues --    3.22579   3.29607   4.01534   4.09705   4.10198
 Alpha virt. eigenvalues --    4.13038   4.14946   4.17037   4.18419   4.19469
 Alpha virt. eigenvalues --    4.23341   4.25081   4.27906   4.30634   4.31027
 Alpha virt. eigenvalues --    4.33221   4.36520   4.37798   4.42188   4.42992
 Alpha virt. eigenvalues --    4.46675   4.48890   4.52677   4.55590   4.60250
 Alpha virt. eigenvalues --    4.61782   4.66830   4.71966   4.73294   4.82800
 Alpha virt. eigenvalues --    4.92104   5.03167   5.19031
          Condensed to atoms (all electrons):
 Mulliken atomic charges:
              1
     1  C   -0.193156
     2  C    0.192254
     3  C   -0.187270
     4  C    0.319622
     5  C   -0.041356
     6  C   -0.332783
     7  C    0.210458
     8  C    0.399076
     9  C   -0.095635
    10  C    0.422370
    11  C    0.420128
    12  O   -0.462285
    13  C   -0.134677
    14  C   -0.257524
    15  C   -0.455836
    16  O   -0.506286
    17  C   -0.163175
    18  C    0.312533
    19  O   -0.533413
    20  C   -0.321768
    21  O   -0.663524
    22  C   -0.321909
    23  C    0.109403
    24  O   -0.589211
    25  C    0.189210
    26  C   -0.519003
    27  C   -0.404310
    28  C   -0.462672
    29  C   -0.462322
    30  H    0.142890
    31  H    0.164592
    32  C   -0.517720
    33  H    0.123608
    34  H    0.151101
    35  H    0.177987
    36  H    0.141615
    37  H    0.143747
    38  H    0.150592
    39  H    0.142174
    40  H    0.165235
    41  H    0.156780
    42  H    0.147251
    43  H    0.174774
    44  H    0.413070
    45  H    0.167391
    46  H    0.173714
    47  H    0.144704
    48  H    0.168771
    49  H    0.156413
    50  H    0.161253
    51  H    0.144897
    52  H    0.140028
    53  H    0.183849
    54  H    0.148860
    55  H    0.138680
    56  H    0.147776
    57  H    0.158197
    58  H    0.163931
    59  H    0.157907
    60  H    0.162950
    61  H    0.148821
    62  C   -0.447419
    63  H    0.142488
    64  H    0.149151
    65  H    0.143004
 Sum of Mulliken atomic charges =   0.00000
 Mulliken charges with hydrogens summed into heavy atoms:
              1
     1  C   -0.069548
     2  C    0.192254
     3  C   -0.022678
     4  C    0.319622
     5  C   -0.041356
     6  C   -0.003695
     7  C    0.210458
     8  C    0.399076
     9  C   -0.095635
    10  C    0.422370
    11  C    0.420128
    12  O   -0.462285
    13  C    0.006937
    14  C    0.036815
    15  C    0.008353
    16  O   -0.506286
    17  C   -0.020285
    18  C    0.312533
    19  O   -0.533413
    20  C    0.000257
    21  O   -0.250454
    22  C    0.019195
    23  C    0.254107
    24  O   -0.589211
    25  C    0.189210
    26  C   -0.032566
    27  C   -0.119386
    28  C    0.008718
    29  C    0.007582
    32  C   -0.048042
    62  C   -0.012774
 Sum of Mulliken charges with hydrogens summed into heavy atoms =   0.00000
 Electronic spatial extent (au):  <R**2>=          11572.7245
 Charge=              0.0000 electrons
 Dipole moment (field-independent basis, Debye):
    X=             -4.1620    Y=              1.4051    Z=             -1.6604  Tot=              4.6961
 Quadrupole moment (field-independent basis, Debye-Ang):
   XX=           -184.9755   YY=           -175.7713   ZZ=           -184.4341
   XY=              2.1254   XZ=             -7.0350   YZ=             -0.1799
 Traceless Quadrupole moment (field-independent basis, Debye-Ang):
   XX=             -3.2486   YY=              5.9557   ZZ=             -2.7071
   XY=              2.1254   XZ=             -7.0350   YZ=             -0.1799
 Octapole moment (field-independent basis, Debye-Ang**2):
  XXX=             -5.0091  YYY=             34.4698  ZZZ=              1.2235  XYY=            -24.4271
  XXY=            -39.2000  XXZ=            -28.0842  XZZ=            -24.7580  YZZ=              9.9602
  YYZ=            -23.0482  XYZ=             -8.4151
 Hexadecapole moment (field-independent basis, Debye-Ang**3):
 XXXX=          -7889.5110 YYYY=          -4279.3269 ZZZZ=          -3308.3459 XXXY=             45.0847
 XXXZ=            -10.1203 YYYX=             69.6322 YYYZ=              5.5771 ZZZX=             22.8641
 ZZZY=            -18.2407 XXYY=          -1941.7202 XXZZ=          -1855.6042 YYZZ=          -1268.5394
 XXYZ=            -13.5185 YYXZ=             13.7431 ZZXY=             27.8160
 N-N= 3.510386880779D+03 E-N=-1.024718047923D+04  KE= 1.374785832375D+03
 Calling FoFJK, ICntrl=      2127 FMM=T ISym2X=0 I1Cent= 0 IOpClX= 0 NMat=1 NMatS=1 NMatT=0.
 ***** Axes restored to original set *****
 -------------------------------------------------------------------
 Center     Atomic                   Forces (Hartrees/Bohr)
 Number     Number              X              Y              Z
 -------------------------------------------------------------------
      1        6           0.009802405   -0.000586198    0.000347938
      2        6          -0.012064154   -0.005024441    0.001949423
      3        6          -0.001005928   -0.008009987   -0.000473847
      4        6           0.003433028   -0.004190271    0.010168152
      5        6          -0.011232664   -0.001165353    0.000173123
      6        6          -0.004914808   -0.010883094   -0.000768943
      7        6           0.010518016    0.020661733    0.008421718
      8        6           0.012173812   -0.014178817   -0.015417805
      9        6           0.001915022    0.004263222    0.012104863
     10        6          -0.006340269    0.002367000   -0.021604934
     11        6          -0.003842219   -0.021708818   -0.015354660
     12        8          -0.006488034    0.018697791    0.003293486
     13        6          -0.001346448   -0.005087669    0.000521465
     14        6           0.005944360    0.003193817   -0.001579077
     15        6          -0.007104716   -0.005137636   -0.003464713
     16        8           0.006740193   -0.004375440    0.010139077
     17        6           0.007960161   -0.011265950   -0.005628252
     18        6           0.032048894    0.007879389   -0.000605651
     19        8          -0.027783196    0.002564041    0.026986124
     20        6           0.011296211   -0.005061433   -0.000182576
     21        8          -0.005675567    0.006662904   -0.001972633
     22        6          -0.010340094    0.010877146    0.000385526
     23        6           0.007786786    0.008928226    0.003719059
     24        8          -0.003953788   -0.003614271   -0.008769785
     25        6           0.009605835    0.011417347    0.006275560
     26        6          -0.000186347   -0.000138208   -0.000057896
     27        6          -0.003318255   -0.009249108   -0.003648494
     28        6          -0.003107323    0.007659170   -0.004800559
     29        6          -0.003765190   -0.006474894   -0.008856744
     30        1          -0.001670519    0.001153479   -0.001660841
     31        1          -0.003375936    0.005999185   -0.000029681
     32        6          -0.001258924    0.000846076   -0.001045776
     33        1           0.001366279   -0.000763890   -0.000089188
     34        1          -0.000580786    0.005667904    0.001880812
     35        1           0.000291625    0.007340074   -0.001175922
     36        1           0.001944508   -0.000382100    0.000926754
     37        1           0.000993788   -0.000775517    0.001214725
     38        1          -0.000704716   -0.002477463    0.002611731
     39        1           0.000007380    0.000605512   -0.000225880
     40        1           0.000053400    0.001597669    0.000323470
     41        1           0.001514022    0.000362541    0.000565647
     42        1          -0.001268238   -0.001941265   -0.001331049
     43        1           0.000019047    0.002912302   -0.000317552
     44        1          -0.001921246   -0.002029474   -0.001267828
     45        1           0.001479359   -0.002785146   -0.001629388
     46        1           0.002281426   -0.000808683    0.002543572
     47        1          -0.003883312   -0.001177444    0.002498360
     48        1          -0.003916721   -0.001072113   -0.000062077
     49        1          -0.004196669   -0.000859660   -0.000435842
     50        1           0.001955934   -0.001398128   -0.000677858
     51        1           0.000427933   -0.000925412   -0.000127406
     52        1          -0.001174896    0.000024166   -0.000245004
     53        1          -0.001218970   -0.002601581    0.005510967
     54        1           0.002082792   -0.003873450    0.000392588
     55        1           0.000555379   -0.000850598    0.000174858
     56        1          -0.000726916    0.001285669    0.000744317
     57        1           0.000541856    0.002737921    0.001421072
     58        1          -0.000321747    0.000173827    0.003620972
     59        1          -0.001138720    0.001783145   -0.000636500
     60        1           0.004236812   -0.001593780    0.000263667
     61        1           0.004064675   -0.001082109    0.000147412
     62        6          -0.000301714    0.001937818   -0.003481995
     63        1          -0.001256197    0.001654315   -0.000199060
     64        1          -0.001375473    0.001012913   -0.000457208
     65        1          -0.000280237    0.001283100   -0.001043809
 -------------------------------------------------------------------
 Cartesian Forces:  Max     0.032048894 RMS     0.006663162

 GradGradGradGradGradGradGradGradGradGradGradGradGradGradGradGradGradGrad
 Berny optimization.
 Internal  Forces:  Max     0.020677995 RMS     0.003440345
 Search for a local minimum.
 Step number   1 out of a maximum of  390
 All quantities printed in internal units (Hartrees-Bohrs-Radians)
 Mixed Optimization -- RFO/linear search
 Second derivative matrix not updated -- first step.
 ITU=  0
     Eigenvalues ---    0.00274   0.00295   0.00334   0.00409   0.00424
     Eigenvalues ---    0.00452   0.00484   0.00555   0.00588   0.00607
     Eigenvalues ---    0.00677   0.00681   0.00684   0.00694   0.00753
     Eigenvalues ---    0.01037   0.01083   0.01234   0.01250   0.01423
     Eigenvalues ---    0.01469   0.01623   0.01712   0.01821   0.01930
     Eigenvalues ---    0.02516   0.02819   0.02821   0.03032   0.03125
     Eigenvalues ---    0.03475   0.03599   0.03844   0.04005   0.04035
     Eigenvalues ---    0.04107   0.04327   0.04397   0.04632   0.04638
     Eigenvalues ---    0.04826   0.04842   0.04954   0.05090   0.05246
     Eigenvalues ---    0.05304   0.05385   0.05436   0.05478   0.05485
     Eigenvalues ---    0.05501   0.05536   0.05550   0.05566   0.05629
     Eigenvalues ---    0.05715   0.05898   0.05912   0.06266   0.06616
     Eigenvalues ---    0.06694   0.06874   0.07104   0.07109   0.07189
     Eigenvalues ---    0.07245   0.07258   0.07350   0.07679   0.08379
     Eigenvalues ---    0.08454   0.08472   0.09007   0.09184   0.09838
     Eigenvalues ---    0.10096   0.10656   0.10929   0.11630   0.12300
     Eigenvalues ---    0.13171   0.14639   0.15195   0.15967   0.16000
     Eigenvalues ---    0.16000   0.16000   0.16000   0.16000   0.16000
     Eigenvalues ---    0.16000   0.16000   0.16000   0.16000   0.16000
     Eigenvalues ---    0.16000   0.16000   0.16000   0.16000   0.16000
     Eigenvalues ---    0.16000   0.16000   0.16000   0.16000   0.16000
     Eigenvalues ---    0.16142   0.16854   0.17245   0.17479   0.18370
     Eigenvalues ---    0.19731   0.21535   0.21907   0.22708   0.23505
     Eigenvalues ---    0.24485   0.24929   0.24975   0.24987   0.24999
     Eigenvalues ---    0.25000   0.25000   0.25000   0.25872   0.27254
     Eigenvalues ---    0.27361   0.27723   0.27794   0.28124   0.28287
     Eigenvalues ---    0.28726   0.28769   0.28914   0.29182   0.29706
     Eigenvalues ---    0.30010   0.30239   0.30428   0.30548   0.31006
     Eigenvalues ---    0.31713   0.31735   0.31852   0.33400   0.33677
     Eigenvalues ---    0.33878   0.33967   0.33972   0.33997   0.34012
     Eigenvalues ---    0.34042   0.34050   0.34051   0.34066   0.34066
     Eigenvalues ---    0.34117   0.34135   0.34138   0.34177   0.34180
     Eigenvalues ---    0.34196   0.34200   0.34251   0.34251   0.34267
     Eigenvalues ---    0.34268   0.34280   0.34294   0.34298   0.34315
     Eigenvalues ---    0.34326   0.34350   0.34372   0.34456   0.34628
     Eigenvalues ---    0.34952   0.35121   0.35269   0.35390   0.36363
     Eigenvalues ---    0.37406   0.42939   0.43707   0.51860   0.53353
     Eigenvalues ---    0.54590   0.56148   0.89800   0.90652
 RFO step:  Lambda=-2.14563025D-02 EMin= 2.73906124D-03
 Linear search not attempted -- first point.
 Iteration  1 RMS(Cart)=  0.04406214 RMS(Int)=  0.00066963
 Iteration  2 RMS(Cart)=  0.00102037 RMS(Int)=  0.00024664
 Iteration  3 RMS(Cart)=  0.00000051 RMS(Int)=  0.00024664
 Variable       Old X    -DE/DX   Delta X   Delta X   Delta X     New X
                                 (Linear)    (Quad)   (Total)
    R1        2.53469  -0.00263   0.00000  -0.00523  -0.00527   2.52942
    R2        2.82264   0.00859   0.00000   0.02565   0.02557   2.84821
    R3        2.05753  -0.00002   0.00000  -0.00006  -0.00006   2.05746
    R4        2.85490   0.00340   0.00000   0.00731   0.00735   2.86225
    R5        2.84632   0.00298   0.00000   0.00880   0.00880   2.85513
    R6        2.94049   0.00510   0.00000   0.01151   0.01144   2.95194
    R7        2.91076   0.01110   0.00000   0.03775   0.03771   2.94847
    R8        2.07879  -0.00082   0.00000  -0.00229  -0.00229   2.07649
    R9        2.90693   0.00870   0.00000   0.02862   0.02841   2.93534
   R10        2.91288   0.00628   0.00000   0.02129   0.02142   2.93430
   R11        2.76572  -0.00494   0.00000  -0.01300  -0.01302   2.75271
   R12        2.91517   0.00034   0.00000   0.00386   0.00379   2.91895
   R13        2.90449   0.00596   0.00000   0.01308   0.01302   2.91751
   R14        2.89231   0.01102   0.00000   0.03733   0.03734   2.92965
   R15        2.07260   0.00296   0.00000   0.00817   0.00817   2.08077
   R16        2.07377  -0.00124   0.00000  -0.00343  -0.00343   2.07034
   R17        2.81437   0.00951   0.00000   0.02116   0.02080   2.83516
   R18        2.85804   0.01553   0.00000   0.05601   0.05551   2.91355
   R19        2.67745   0.00475   0.00000   0.01054   0.01054   2.68798
   R20        2.52503   0.01316   0.00000   0.02279   0.02282   2.54785
   R21        2.62902  -0.02068   0.00000  -0.04872  -0.04852   2.58050
   R22        2.79264  -0.00222   0.00000  -0.00997  -0.00978   2.78286
   R23        2.79584   0.01908   0.00000   0.05188   0.05188   2.84772
   R24        2.33025  -0.00947   0.00000  -0.01030  -0.01030   2.31995
   R25        2.32634  -0.01985   0.00000  -0.02139  -0.02139   2.30495
   R26        2.87944   0.00222   0.00000   0.00689   0.00689   2.88633
   R27        2.90183   0.00609   0.00000   0.01961   0.01961   2.92144
   R28        2.88554   0.00665   0.00000   0.02088   0.02088   2.90642
   R29        2.07310  -0.00049   0.00000  -0.00136  -0.00136   2.07174
   R30        2.07386   0.00103   0.00000   0.00285   0.00285   2.07671
   R31        2.07335   0.00002   0.00000   0.00005   0.00005   2.07340
   R32        2.87490   0.00847   0.00000   0.02614   0.02614   2.90104
   R33        2.06784   0.00048   0.00000   0.00131   0.00131   2.06915
   R34        2.07033  -0.00053   0.00000  -0.00146  -0.00146   2.06887
   R35        2.07028  -0.00013   0.00000  -0.00037  -0.00037   2.06991
   R36        2.91826  -0.00105   0.00000   0.00883   0.00908   2.92734
   R37        2.90580   0.00424   0.00000   0.01504   0.01510   2.92091
   R38        2.07103  -0.00153   0.00000  -0.00423  -0.00423   2.06680
[...]
     54          1           0        1.162213    2.846017   -3.610746
     55          1           0       -0.549121    3.313953   -3.632463
     56          1           0       -0.157273    4.892162   -1.602089
     57          1           0        1.552260    4.443341   -1.760823
     58          1           0        0.741707    4.274610   -0.197952
     59          1           0       -1.824125    2.354762    4.519868
     60          1           0       -1.197282    3.314921    3.171001
     61          1           0       -2.925409    2.993181    3.284566
     62          6           0        5.436882   -2.348242   -1.299230
     63          1           0        4.782164   -3.221582   -1.411083
     64          1           0        6.175778   -2.583268   -0.525737
     65          1           0        5.979751   -2.217183   -2.242546
 ---------------------------------------------------------------------
 Rotational constants (GHZ):      0.1797185      0.1291594      0.1161614

 **********************************************************************

            Population analysis using the SCF density.

 **********************************************************************

 Orbital symmetries:
       Occupied  (A) (A) (A) (A) (A) (A) (A) (A) (A) (A) (A) (A)
                 (A) (A) (A) (A) (A) (A) (A) (A) (A) (A) (A) (A)
                 (A) (A) (A) (A) (A) (A) (A) (A) (A) (A) (A) (A)
                 (A) (A) (A) (A) (A) (A) (A) (A) (A) (A) (A) (A)
                 (A) (A) (A) (A) (A) (A) (A) (A) (A) (A) (A) (A)
                 (A) (A) (A) (A) (A) (A) (A) (A) (A) (A) (A) (A)
                 (A) (A) (A) (A) (A) (A) (A) (A) (A) (A) (A) (A)
                 (A) (A) (A) (A) (A) (A) (A) (A) (A) (A) (A) (A)
                 (A) (A) (A) (A) (A) (A) (A) (A) (A) (A) (A) (A)
                 (A) (A) (A) (A) (A) (A) (A)
       Virtual   (A) (A) (A) (A) (A) (A) (A) (A) (A) (A) (A) (A)
                 (A) (A) (A) (A) (A) (A) (A) (A) (A) (A) (A) (A)
                 (A) (A) (A) (A) (A) (A) (A) (A) (A) (A) (A) (A)
                 (A) (A) (A) (A) (A) (A) (A) (A) (A) (A) (A) (A)
                 (A) (A) (A) (A) (A) (A) (A) (A) (A) (A) (A) (A)
                 (A) (A) (A) (A) (A) (A) (A) (A) (A) (A) (A) (A)
                 (A) (A) (A) (A) (A) (A) (A) (A) (A) (A) (A) (A)
                 (A) (A) (A) (A) (A) (A) (A) (A) (A) (A) (A) (A)
                 (A) (A) (A) (A) (A) (A) (A) (A) (A) (A) (A) (A)
                 (A) (A) (A) (A) (A) (A) (A) (A) (A) (A) (A) (A)
                 (A) (A) (A) (A) (A) (A) (A) (A) (A) (A) (A) (A)
                 (A) (A) (A) (A) (A) (A) (A) (A) (A) (A) (A) (A)
                 (A) (A) (A) (A) (A) (A) (A) (A) (A) (A) (A) (A)
                 (A) (A) (A) (A) (A) (A) (A) (A) (A) (A) (A) (A)
                 (A) (A) (A) (A) (A) (A) (A) (A) (A) (A) (A) (A)
                 (A) (A) (A) (A) (A) (A) (A) (A) (A) (A) (A) (A)
                 (A) (A) (A) (A) (A) (A) (A) (A) (A) (A) (A) (A)
                 (A) (A) (A) (A) (A) (A) (A) (A) (A) (A) (A) (A)
                 (A) (A) (A) (A) (A) (A) (A) (A) (A) (A) (A) (A)
                 (A) (A) (A) (A) (A) (A) (A) (A) (A) (A) (A) (A)
                 (A) (A) (A) (A) (A) (A) (A) (A) (A) (A) (A) (A)
                 (A) (A) (A) (A) (A) (A) (A) (A) (A) (A) (A) (A)
                 (A) (A) (A) (A) (A) (A) (A) (A) (A) (A) (A) (A)
                 (A) (A) (A) (A) (A) (A) (A) (A) (A) (A) (A) (A)
                 (A) (A) (A) (A) (A) (A) (A) (A) (A) (A) (A) (A)
                 (A) (A) (A) (A) (A) (A) (A) (A) (A) (A) (A) (A)
                 (A) (A) (A) (A) (A) (A) (A) (A) (A) (A) (A) (A)
                 (A) (A) (A) (A) (A) (A) (A) (A) (A) (A) (A) (A)
                 (A) (A) (A) (A) (A) (A) (A) (A) (A) (A) (A) (A)
                 (A) (A) (A) (A) (A) (A) (A) (A) (A) (A) (A) (A)
                 (A) (A) (A) (A) (A) (A) (A) (A) (A) (A) (A) (A)
                 (A) (A) (A) (A) (A) (A) (A) (A) (A) (A) (A) (A)
                 (A) (A) (A) (A) (A) (A) (A) (A) (A) (A) (A) (A)
                 (A) (A) (A) (A) (A) (A) (A) (A) (A) (A) (A) (A)
                 (A) (A) (A) (A) (A) (A) (A) (A) (A) (A)
 The electronic state is 1-A.
 Alpha  occ. eigenvalues --  -19.19601 -19.16676 -19.15861 -19.12643 -19.12109
 Alpha  occ. eigenvalues --  -10.27429 -10.27147 -10.26616 -10.25992 -10.25807
 Alpha  occ. eigenvalues --  -10.25764 -10.25364 -10.21323 -10.21007 -10.20616
 Alpha  occ. eigenvalues --  -10.20329 -10.19875 -10.19856 -10.19473 -10.19359
 Alpha  occ. eigenvalues --  -10.19100 -10.18784 -10.18723 -10.18518 -10.18464
 Alpha  occ. eigenvalues --  -10.18121 -10.18099 -10.17416 -10.17084 -10.16474
 Alpha  occ. eigenvalues --  -10.15611  -1.09313  -1.06049  -1.02889  -1.02622
 Alpha  occ. eigenvalues --   -1.01955  -0.86757  -0.83599  -0.82474  -0.81363
 Alpha  occ. eigenvalues --   -0.80269  -0.78937  -0.76653  -0.74321  -0.73168
 Alpha  occ. eigenvalues --   -0.71748  -0.71077  -0.69893  -0.69665  -0.67960
 Alpha  occ. eigenvalues --   -0.65289  -0.64064  -0.63211  -0.61798  -0.60636
 Alpha  occ. eigenvalues --   -0.59418  -0.58128  -0.56895  -0.54441  -0.53909
 Alpha  occ. eigenvalues --   -0.52636  -0.52103  -0.50738  -0.50331  -0.49218
 Alpha  occ. eigenvalues --   -0.47981  -0.47452  -0.46727  -0.46209  -0.45847
 Alpha  occ. eigenvalues --   -0.44979  -0.44499  -0.44102  -0.43427  -0.43260
 Alpha  occ. eigenvalues --   -0.43096  -0.42261  -0.41889  -0.41539  -0.41256
 Alpha  occ. eigenvalues --   -0.40907  -0.40787  -0.40420  -0.40021  -0.39348
 Alpha  occ. eigenvalues --   -0.39058  -0.38764  -0.38675  -0.38067  -0.37602
 Alpha  occ. eigenvalues --   -0.37446  -0.37191  -0.36992  -0.36887  -0.36643
 Alpha  occ. eigenvalues --   -0.36251  -0.35088  -0.34827  -0.34471  -0.34364
 Alpha  occ. eigenvalues --   -0.33877  -0.33762  -0.33433  -0.32771  -0.31926
 Alpha  occ. eigenvalues --   -0.31222  -0.30953  -0.30489  -0.28340  -0.26483
 Alpha  occ. eigenvalues --   -0.26068  -0.24592  -0.23971  -0.23428  -0.22362
 Alpha virt. eigenvalues --   -0.04795  -0.00997   0.00824   0.02224   0.06053
 Alpha virt. eigenvalues --    0.07267   0.08295   0.08886   0.09522   0.09984
 Alpha virt. eigenvalues --    0.10693   0.10907   0.11336   0.12090   0.12579
 Alpha virt. eigenvalues --    0.12803   0.12904   0.14053   0.14112   0.14590
 Alpha virt. eigenvalues --    0.14886   0.14939   0.15088   0.15663   0.16046
 Alpha virt. eigenvalues --    0.16223   0.16478   0.16615   0.17245   0.17352
 Alpha virt. eigenvalues --    0.17867   0.18170   0.18280   0.18407   0.18762
 Alpha virt. eigenvalues --    0.19068   0.19198   0.19356   0.19623   0.20329
 Alpha virt. eigenvalues --    0.20505   0.20981   0.21350   0.22018   0.22809
 Alpha virt. eigenvalues --    0.23030   0.23369   0.23681   0.24046   0.24652
 Alpha virt. eigenvalues --    0.24823   0.25308   0.26222   0.26403   0.26961
 Alpha virt. eigenvalues --    0.27420   0.27673   0.28563   0.29134   0.29954
 Alpha virt. eigenvalues --    0.30214   0.31449   0.32591   0.33208   0.33765
 Alpha virt. eigenvalues --    0.34792   0.35813   0.36543   0.38022   0.39821
 Alpha virt. eigenvalues --    0.41669   0.45394   0.46437   0.48270   0.48960
 Alpha virt. eigenvalues --    0.49373   0.50893   0.51359   0.51547   0.52052
 Alpha virt. eigenvalues --    0.52432   0.52705   0.53286   0.53462   0.53849
 Alpha virt. eigenvalues --    0.53996   0.54407   0.55104   0.55574   0.56504
 Alpha virt. eigenvalues --    0.57004   0.57398   0.57837   0.58200   0.59236
 Alpha virt. eigenvalues --    0.59528   0.60348   0.60841   0.61437   0.61604
 Alpha virt. eigenvalues --    0.62384   0.62514   0.62661   0.63692   0.64566
 Alpha virt. eigenvalues --    0.64884   0.65767   0.65967   0.66433   0.67228
 Alpha virt. eigenvalues --    0.67885   0.68440   0.68703   0.69265   0.69505
 Alpha virt. eigenvalues --    0.70082   0.70347   0.70964   0.72356   0.73192
 Alpha virt. eigenvalues --    0.73818   0.74232   0.74912   0.76239   0.76563
 Alpha virt. eigenvalues --    0.76991   0.77661   0.78657   0.79621   0.80048
 Alpha virt. eigenvalues --    0.80935   0.81145   0.81633   0.81920   0.82277
 Alpha virt. eigenvalues --    0.83422   0.83641   0.83992   0.84676   0.85146
 Alpha virt. eigenvalues --    0.85822   0.85931   0.86385   0.86545   0.87015
 Alpha virt. eigenvalues --    0.87309   0.87901   0.88139   0.88562   0.88783
 Alpha virt. eigenvalues --    0.89278   0.89597   0.89841   0.90240   0.90695
 Alpha virt. eigenvalues --    0.90831   0.91288   0.91523   0.92423   0.92542
 Alpha virt. eigenvalues --    0.92788   0.93703   0.93929   0.94287   0.94501
 Alpha virt. eigenvalues --    0.95038   0.95826   0.96336   0.97149   0.97277
 Alpha virt. eigenvalues --    0.97482   0.98196   0.98526   0.99005   0.99767
 Alpha virt. eigenvalues --    1.00255   1.00959   1.01508   1.02738   1.03172
 Alpha virt. eigenvalues --    1.04189   1.05687   1.06226   1.07161   1.07831
 Alpha virt. eigenvalues --    1.08177   1.09766   1.11860   1.12380   1.12807
 Alpha virt. eigenvalues --    1.13524   1.14646   1.15482   1.16312   1.16972
 Alpha virt. eigenvalues --    1.17643   1.19265   1.19708   1.20270   1.21155
 Alpha virt. eigenvalues --    1.22848   1.23613   1.25361   1.25994   1.27522
 Alpha virt. eigenvalues --    1.28442   1.29965   1.31418   1.31586   1.32854
 Alpha virt. eigenvalues --    1.33720   1.35947   1.36988   1.38296   1.39281
 Alpha virt. eigenvalues --    1.39904   1.42299   1.42437   1.43718   1.45989
 Alpha virt. eigenvalues --    1.47293   1.47941   1.49919   1.51876   1.52177
 Alpha virt. eigenvalues --    1.55154   1.55713   1.56238   1.57030   1.58971
 Alpha virt. eigenvalues --    1.59669   1.61022   1.61537   1.62574   1.62927
 Alpha virt. eigenvalues --    1.63748   1.65696   1.66695   1.67870   1.68132
 Alpha virt. eigenvalues --    1.70211   1.72058   1.73207   1.73485   1.73744
 Alpha virt. eigenvalues --    1.74751   1.75063   1.75304   1.77106   1.77711
 Alpha virt. eigenvalues --    1.78527   1.79418   1.80540   1.81048   1.81599
 Alpha virt. eigenvalues --    1.82025   1.83020   1.83859   1.84480   1.85052
 Alpha virt. eigenvalues --    1.85772   1.86059   1.86818   1.87121   1.87849
 Alpha virt. eigenvalues --    1.87970   1.89424   1.90038   1.90395   1.91259
 Alpha virt. eigenvalues --    1.92426   1.92908   1.94224   1.94655   1.94882
 Alpha virt. eigenvalues --    1.95819   1.96868   1.97434   1.98155   1.98553
 Alpha virt. eigenvalues --    1.98821   1.99109   1.99324   1.99776   2.01116
 Alpha virt. eigenvalues --    2.01943   2.03708   2.04149   2.05024   2.05754
 Alpha virt. eigenvalues --    2.05933   2.07074   2.07618   2.08879   2.09591
 Alpha virt. eigenvalues --    2.10078   2.10525   2.11886   2.12890   2.13101
 Alpha virt. eigenvalues --    2.14331   2.15206   2.16238   2.16909   2.17890
 Alpha virt. eigenvalues --    2.19109   2.19662   2.20715   2.21614   2.22348
 Alpha virt. eigenvalues --    2.23894   2.24981   2.25748   2.25801   2.26359
 Alpha virt. eigenvalues --    2.27654   2.28972   2.29960   2.30987   2.31831
 Alpha virt. eigenvalues --    2.32807   2.33261   2.33329   2.33884   2.34676
 Alpha virt. eigenvalues --    2.35576   2.35946   2.36179   2.38487   2.39024
 Alpha virt. eigenvalues --    2.39975   2.41021   2.41558   2.42037   2.42786
 Alpha virt. eigenvalues --    2.43705   2.45670   2.46637   2.47206   2.48923
 Alpha virt. eigenvalues --    2.49681   2.50171   2.52125   2.53094   2.54296
 Alpha virt. eigenvalues --    2.55617   2.56210   2.56593   2.58353   2.60135
 Alpha virt. eigenvalues --    2.60446   2.62697   2.63273   2.64324   2.65904
 Alpha virt. eigenvalues --    2.66525   2.68691   2.69319   2.69539   2.70772
 Alpha virt. eigenvalues --    2.71273   2.72727   2.74679   2.75943   2.76967
 Alpha virt. eigenvalues --    2.78312   2.79528   2.80675   2.81803   2.83779
 Alpha virt. eigenvalues --    2.84673   2.89711   2.91947   2.93885   2.97747
 Alpha virt. eigenvalues --    2.97856   2.99813   3.00738   3.01683   3.02544
 Alpha virt. eigenvalues --    3.04936   3.07338   3.11981   3.18195   3.21229
 Alpha virt. eigenvalues --    3.25901   3.29032   4.04636   4.06522   4.08860
 Alpha virt. eigenvalues --    4.13075   4.13935   4.16195   4.17744   4.19080
 Alpha virt. eigenvalues --    4.22990   4.25504   4.26811   4.28716   4.30575
 Alpha virt. eigenvalues --    4.31916   4.35328   4.37806   4.39598   4.43288
 Alpha virt. eigenvalues --    4.45584   4.49599   4.52366   4.55434   4.57986
 Alpha virt. eigenvalues --    4.65372   4.66561   4.69799   4.74501   4.82682
 Alpha virt. eigenvalues --    4.89961   5.01006   5.15206
          Condensed to atoms (all electrons):
 Mulliken atomic charges:
              1
     1  C   -0.187627
     2  C    0.193089
     3  C   -0.189309
     4  C    0.321841
     5  C   -0.052795
     6  C   -0.332201
     7  C    0.196912
     8  C    0.402597
     9  C   -0.098804
    10  C    0.422616
    11  C    0.421256
    12  O   -0.465411
    13  C   -0.129664
    14  C   -0.254245
    15  C   -0.460129
    16  O   -0.513550
    17  C   -0.164731
    18  C    0.301712
    19  O   -0.506569
    20  C   -0.324744
    21  O   -0.661723
    22  C   -0.325866
    23  C    0.106919
    24  O   -0.589642
    25  C    0.186187
    26  C   -0.519360
    27  C   -0.408858
    28  C   -0.469316
    29  C   -0.456883
    30  H    0.142990
    31  H    0.166470
    32  C   -0.520146
    33  H    0.122765
    34  H    0.144850
    35  H    0.184461
    36  H    0.138572
    37  H    0.132047
    38  H    0.151398
    39  H    0.139311
    40  H    0.164882
    41  H    0.156723
    42  H    0.151492
    43  H    0.171853
    44  H    0.416327
    45  H    0.165094
    46  H    0.172287
    47  H    0.146229
    48  H    0.169664
    49  H    0.159259
    50  H    0.162039
    51  H    0.153805
    52  H    0.139952
    53  H    0.191444
    54  H    0.159509
    55  H    0.143000
    56  H    0.148071
    57  H    0.167753
    58  H    0.167000
    59  H    0.158161
    60  H    0.159153
    61  H    0.150301
    62  C   -0.448233
    63  H    0.140354
    64  H    0.147992
    65  H    0.141469
 Sum of Mulliken atomic charges =   0.00000
 Mulliken charges with hydrogens summed into heavy atoms:
              1
     1  C   -0.064862
     2  C    0.193089
     3  C   -0.022839
     4  C    0.321841
     5  C   -0.052795
     6  C   -0.002890
     7  C    0.196912
     8  C    0.402597
     9  C   -0.098804
    10  C    0.422616
    11  C    0.421256
    12  O   -0.465411
    13  C    0.008908
    14  C    0.029200
    15  C    0.000787
    16  O   -0.513550
    17  C   -0.021741
    18  C    0.301712
    19  O   -0.506569
    20  C   -0.001398
    21  O   -0.245396
    22  C    0.011514
    23  C    0.253148
    24  O   -0.589642
    25  C    0.186187
    26  C   -0.028398
    27  C   -0.115100
    28  C    0.024637
    29  C    0.025940
    32  C   -0.052531
    62  C   -0.018418
 Sum of Mulliken charges with hydrogens summed into heavy atoms =   0.00000
 Electronic spatial extent (au):  <R**2>=          11689.9526
 Charge=              0.0000 electrons
 Dipole moment (field-independent basis, Debye):
    X=             -5.1355    Y=              0.6631    Z=             -1.6825  Tot=              5.4446
 Quadrupole moment (field-independent basis, Debye-Ang):
   XX=           -191.3718   YY=           -170.9747   ZZ=           -182.6926
   XY=             -1.7028   XZ=             -3.6387   YZ=              0.1127
 Traceless Quadrupole moment (field-independent basis, Debye-Ang):
   XX=             -9.6921   YY=             10.7050   ZZ=             -1.0129
   XY=             -1.7028   XZ=             -3.6387   YZ=              0.1127
 Octapole moment (field-independent basis, Debye-Ang**2):
  XXX=            -10.5794  YYY=             20.5479  ZZZ=             -4.7277  XYY=            -42.8912
  XXY=            -29.7558  XXZ=            -22.8668  XZZ=            -17.2580  YZZ=             16.4790
  YYZ=            -27.8654  XYZ=             -4.4676
 Hexadecapole moment (field-independent basis, Debye-Ang**3):
 XXXX=          -7726.9362 YYYY=          -4541.5889 ZZZZ=          -3372.9126 XXXY=            -43.9779
 XXXZ=             21.4766 YYYX=             98.8236 YYYZ=            -26.7034 ZZZX=             23.5339
 ZZZY=             -7.7471 XXYY=          -2009.2830 XXZZ=          -1801.9087 YYZZ=          -1318.2548
 XXYZ=             -3.0377 YYXZ=              6.3194 ZZXY=             44.9462
 N-N= 3.495705326841D+03 E-N=-1.021775903145D+04  KE= 1.374456651407D+03
 1\1\GINC-B0606\FOpt\RB3LYP\6-31G(d)\C26H34O5\CAOFEI\24-Mar-2021\0\\# o
 pt rb3lyp/6-31g(d) geom=connectivity\\Title Card Required\\0,1\C,-0.05
 73112237,-0.0031859515,-0.0296805412\C,1.2782446731,-0.0626115722,0.02
 80676884\C,2.120650832,1.1956642413,0.049079211\C,1.3733149031,2.51753
 09244,-0.3087939422\C,-0.1034126554,2.4385698838,-0.7709580755\C,-0.84
 83183875,1.2752002957,-0.0752653159\C,2.2925326257,3.2118504161,-1.346
 6025974\C,1.9930187148,2.8041661269,-2.7768697723\C,0.7528975653,2.514
 6794198,-3.2545034951\C,-0.3468942424,2.334306044,-2.3020799227\C,0.52
 5062641,2.2263908321,-4.7180897393\O,1.3040573239,1.5214902705,-5.3378
 367121\C,-0.6539269336,2.8997757083,-5.427887576\C,-0.0683685307,3.902
 3040803,-6.4534673647\C,-1.5471098859,1.8274564262,-6.0728014789\O,-1.
 4838390915,2.0624038417,-2.6823553456\C,3.7066799193,2.6069174655,-1.2
 167563944\C,4.3140141433,2.8572208442,-2.6183643911\O,3.1138153024,2.7
 834240643,-3.4979230227\C,3.3787597121,1.1408099574,-0.8661414443\O,2.
 2113049116,4.6241011996,-1.2908416199\C,-0.6565577992,3.8010897272,-0.
 2783546074\C,0.0841956097,4.0035545847,1.0530246109\O,1.3575494276,3.3
 560547661,0.8746528072\C,0.2502442869,5.4416883797,1.498431689\C,-1.02
 55833112,6.244748991,1.5654371448\C,1.4362204049,5.9436320736,1.858824
 0509\C,4.9200913329,4.2540580829,-2.7686955232\C,5.2750807532,1.789607
 4023,-3.1342633131\H,4.2887770081,3.0944288326,-0.428497859\H,2.472427
 6527,1.3496186495,1.079371048\C,2.0125295992,-1.3750885841,0.148801342
 9\H,-0.6283042396,-0.9303930097,-0.0049355993\H,-1.1159322715,1.567991
 6304,0.9510769654\H,-1.7921656427,1.1285155412,-0.607797385\H,-1.24388
 55704,3.4523662174,-4.690648795\H,0.6480950326,4.5573372969,-5.9378266
 784\H,0.5107648167,3.3411627048,-7.1968296895\H,-2.3819724318,2.282755
 1983,-6.615200091\H,-1.9651654335,1.1723653931,-5.3024035533\H,-0.9653
 512421,1.2179735596,-6.772385906\H,4.2152031372,0.6252227415,-0.385793
 3825\H,3.1390120703,0.5838107122,-1.7785514656\H,2.1305010945,4.844322
 3111,-0.3423869207\H,-1.7437655511,3.7776518911,-0.1663882858\H,-0.394
 3695563,4.5983490651,-0.9809538455\H,-0.453244355,3.4696117816,1.85398
 24152\H,-1.4836122085,6.3607277271,0.5750537764\H,-1.7716236602,5.7490
 386294,2.2017201119\H,-0.842991963,7.2422951773,1.974617085\H,2.336683
 7947,5.3379265612,1.8595320637\H,1.5330709358,6.9737904175,2.190863257
 \H,4.2284434012,5.0203185581,-2.4145642772\H,5.1583013601,4.443050505,
 -3.8204423465\H,5.8490157557,4.3212771268,-2.1906617913\H,6.1708763407
 ,1.7590520834,-2.5038952903\H,5.5836051559,2.0281336059,-4.1567256782\
 H,4.8186326316,0.7974965291,-3.1426324555\H,1.3127693094,-2.2149148751
 ,0.1982405722\H,2.6869208801,-1.5509969704,-0.6990893033\H,2.634640464
 2,-1.3995425906,1.0550955652\C,-1.1212885181,4.7746346735,-7.145051746
 9\H,-1.7144824386,5.3373710945,-6.4133845294\H,-1.8149682397,4.1801733
 191,-7.7491385956\H,-0.6430601401,5.5001679699,-7.8133537393\\Version=
 EM64L-G09RevB.01\State=1-A\HF=-1387.3213258\RMSD=7.695e-09\RMSF=4.245e
 -06\Dipole=0.8697691,0.5525133,1.8779532\Quadrupole=5.4152997,1.109356
 6,-6.5246563,-4.2969968,-2.053343,-2.7572281\PG=C01 [X(C26H34O5)]\\@


 MODELS ARE TO BE USED, NOT BELIEVED.

    -- PARAPHRASED BY H. THIEL IN "PRINCIPLES OF ECONOMETRICS"
 Job cpu time:  0 days  5 hours 49 minutes 25.8 seconds.
 File lengths (MBytes):  RWF=    186 Int=      0 D2E=      0 Chk=     20 Scr=      1
 Normal termination of Gaussian 09 at Wed Mar 24 13:55:49 2021.
