 Entering Gaussian System, Link 0=g09
 Initial command:
 /public/software/g09/g09/l1.exe /tmp/Gau-31794.inp -scrdir=/tmp/
 Entering Link 1 = /public/software/g09/g09/l1.exe PID=     31795.
  
 Copyright (c) 1988,1990,1992,1993,1995,1998,2003,2009,2010,
            Gaussian, Inc.  All Rights Reserved.
  
 This is part of the Gaussian(R) 09 program.  It is based on
 the Gaussian(R) 03 system (copyright 2003, Gaussian, Inc.),
 the Gaussian(R) 98 system (copyright 1998, Gaussian, Inc.),
 the Gaussian(R) 94 system (copyright 1995, Gaussian, Inc.),
 the Gaussian 92(TM) system (copyright 1992, Gaussian, Inc.),
 the Gaussian 90(TM) system (copyright 1990, Gaussian, Inc.),
 the Gaussian 88(TM) system (copyright 1988, Gaussian, Inc.),
 the Gaussian 86(TM) system (copyright 1986, Carnegie Mellon
 University), and the Gaussian 82(TM) system (copyright 1983,
 Carnegie Mellon University). Gaussian is a federally registered
 trademark of Gaussian, Inc.
  
 This software contains proprietary and confidential information,
 including trade secrets, belonging to Gaussian, Inc.
  
 This software is provided under written license and may be
 used, copied, transmitted, or stored only in accord with that
 written license.
  
 The following legend is applicable only to US Government
 contracts under FAR:
  
                    RESTRICTED RIGHTS LEGEND
  
 Use, reproduction and disclosure by the US Government is
 subject to restrictions as set forth in subparagraphs (a)
 and (c) of the Commercial Computer Software - Restricted
 Rights clause in FAR 52.227-19.
  
 Gaussian, Inc.
 340 Quinnipiac St., Bldg. 40, Wallingford CT 06492
  
  
 ---------------------------------------------------------------
 Warning -- This program may not be used in any manner that
 competes with the business of Gaussian, Inc. or will provide
 assistance to any competitor of Gaussian, Inc.  The licensee
 of this program is prohibited from giving any competitor of
 Gaussian, Inc. access to this program.  By using this program,
 the user acknowledges that Gaussian, Inc. is engaged in the
 business of creating and licensing software in the field of
 computational chemistry and represents and warrants to the
 licensee that it is not a competitor of Gaussian, Inc. and that
 it will not use this program in any manner prohibited above.
 ---------------------------------------------------------------
  

 Cite this work as:
 Gaussian 09, Revision B.01,
 M. J. Frisch, G. W. Trucks, H. B. Schlegel, G. E. Scuseria, 
 M. A. Robb, J. R. Cheeseman, G. Scalmani, V. Barone, B. Mennucci, 
 G. A. Petersson, H. Nakatsuji, M. Caricato, X. Li, H. P. Hratchian, 
 A. F. Izmaylov, J. Bloino, G. Zheng, J. L. Sonnenberg, M. Hada, 
 M. Ehara, K. Toyota, R. Fukuda, J. Hasegawa, M. Ishida, T. Nakajima, 
 Y. Honda, O. Kitao, H. Nakai, T. Vreven, J. A. Montgomery, Jr., 
 J. E. Peralta, F. Ogliaro, M. Bearpark, J. J. Heyd, E. Brothers, 
 K. N. Kudin, V. N. Staroverov, T. Keith, R. Kobayashi, J. Normand, 
 K. Raghavachari, A. Rendell, J. C. Burant, S. S. Iyengar, J. Tomasi, 
 M. Cossi, N. Rega, J. M. Millam, M. Klene, J. E. Knox, J. B. Cross, 
 V. Bakken, C. Adamo, J. Jaramillo, R. Gomperts, R. E. Stratmann, 
 O. Yazyev, A. J. Austin, R. Cammi, C. Pomelli, J. W. Ochterski, 
 R. L. Martin, K. Morokuma, V. G. Zakrzewski, G. A. Voth, 
 P. Salvador, J. J. Dannenberg, S. Dapprich, A. D. Daniels, 
 O. Farkas, J. B. Foresman, J. V. Ortiz, J. Cioslowski, 
 and D. J. Fox, Gaussian, Inc., Wallingford CT, 2010.
 
 ******************************************
 Gaussian 09:  EM64L-G09RevB.01 12-Aug-2010
                24-Mar-2021 
 ******************************************
 %mem=600MW
 %nprocshared=10
 Will use up to   10 processors via shared memory.
 ---------------------------------------
 # opt rb3lyp/6-31g(d) geom=connectivity
 ---------------------------------------
 1/14=-1,18=20,19=15,26=3,38=1,57=2/1,3;
 2/9=110,12=2,17=6,18=5,40=1/2;
 3/5=1,6=6,7=1,11=2,16=1,25=1,30=1,71=1,74=-5,116=1/1,2,3;
 4//1;
 5/5=2,38=5/2;
 6/7=2,8=2,9=2,10=2,28=1/1;
 7//1,2,3,16;
 1/14=-1,18=20,19=15/3(2);
 2/9=110/2;
 99//99;
 2/9=110/2;
 3/5=1,6=6,7=1,11=2,16=1,25=1,30=1,71=1,74=-5,116=1/1,2,3;
 4/5=5,16=3/1;
 5/5=2,38=5/2;
 7//1,2,3,16;
 1/14=-1,18=20,19=15/3(-5);
 2/9=110/2;
 6/7=2,8=2,9=2,10=2,19=2,28=1/1;
 99/9=1/99;
 -------------------
 Title Card Required
 -------------------
 Symbolic Z-matrix:
 Charge =  0 Multiplicity = 1
 C                     0.        0.        0. 
 C                     1.3417    0.        0. 
 C                     2.1325    1.2888    0. 
 C                     1.3332    2.5795   -0.3443 
 C                    -0.1536    2.4379   -0.7 
 C                    -0.8237    1.2476    0.0174 
 C                     2.1513    3.2691   -1.4531 
 C                     1.8087    2.8592   -2.8459 
 C                     0.5976    2.4259   -3.2152 
 C                    -0.4777    2.3445   -2.1988 
 C                     0.3705    1.9762   -4.616 
 O                     0.6341    2.7166   -5.5625 
 C                    -0.1488    0.5529   -4.8145 
 C                    -1.4697    0.538    -5.601 
 C                     0.9534   -0.3022   -5.4336 
 O                    -1.642     2.1968   -2.5781 
 C                     3.5639    2.7313   -1.3717 
 C                     4.085     2.9352   -2.809 
 O                     2.9307    2.7566   -3.6668 
 C                     3.3252    1.266    -0.9723 
 O                     2.1009    4.6817   -1.3556 
 C                    -0.7262    3.7572   -0.1783 
 C                     0.0882    4.0107    1.0845 
 O                     1.3918    3.4531    0.8256 
 C                     0.2578    5.4351    1.5616 
 C                     1.1571    5.6047    2.7601 
 C                    -0.3482    6.5066    1.0218 
 C                     4.6493    4.3446   -3.0483 
 C                     5.1534    1.9161   -3.2212 
 H                     4.1826    3.2451   -0.6271 
 H                     2.5475    1.398     1.0129 
 C                     2.1124   -1.2895    0.1048 
 H                    -0.5464   -0.9399    0.0564 
 H                    -1.0418    1.4763    1.0675 
 H                    -1.7964    1.0201   -0.436 
 H                    -0.3645    0.1285   -3.8255 
 H                    -1.9602   -0.4296   -5.4357 
 H                    -2.1449    1.3017   -5.1962 
 H                     0.6045   -1.3254   -5.6054 
 H                     1.8211   -0.349    -4.7655 
 H                     1.306     0.1096   -6.3851 
 H                     4.2191    0.8381   -0.5044 
 H                     3.0877    0.6421   -1.8426 
 H                     2.1648    4.8918   -0.4026 
 H                    -1.8019    3.7179    0.0272 
 H                    -0.5711    4.5455   -0.9251 
 H                    -0.3404    3.4335    1.9132 
 H                     0.8088    4.9781    3.5878 
 H                     2.185     5.3196    2.5141 
 H                     1.179     6.6397    3.118 
 H                    -1.0209    6.4377    0.1739 
 H                    -0.19      7.5047    1.4213 
 H                     3.8945    5.1258   -2.9269 
 H                     5.0066    4.4458   -4.0801 
 H                     5.4846    4.5578   -2.3735 
 H                     6.0105    1.9397   -2.5406 
 H                     5.5138    2.1221   -4.2361 
 H                     4.758     0.8963   -3.2577 
 H                     1.4535   -2.1508    0.2592 
 H                     2.6867   -1.4752   -0.8078 
 H                     2.8041   -1.2496    0.9526 
 C                    -1.3507    0.7477   -7.1051 
 H                    -0.7773   -0.0551   -7.578 
 H                    -0.8779    1.7029   -7.3472 
 H                    -2.3475    0.7479   -7.5587 
 

 GradGradGradGradGradGradGradGradGradGradGradGradGradGradGradGradGradGrad
 Berny optimization.
 Initialization pass.
                           ----------------------------
                           !    Initial Parameters    !
                           ! (Angstroms and Degrees)  !
 --------------------------                            --------------------------
 ! Name  Definition              Value          Derivative Info.                !
 --------------------------------------------------------------------------------
 ! R1    R(1,2)                  1.3417         estimate D2E/DX2                !
 ! R2    R(1,6)                  1.4951         estimate D2E/DX2                !
 ! R3    R(1,33)                 1.0886         estimate D2E/DX2                !
 ! R4    R(2,3)                  1.5121         estimate D2E/DX2                !
 ! R5    R(2,32)                 1.5059         estimate D2E/DX2                !
 ! R6    R(3,4)                  1.5567         estimate D2E/DX2                !
 ! R7    R(3,20)                 1.539          estimate D2E/DX2                !
 ! R8    R(3,31)                 1.1001         estimate D2E/DX2                !
 ! R9    R(4,5)                  1.5353         estimate D2E/DX2                !
 ! R10   R(4,7)                  1.5409         estimate D2E/DX2                !
 ! R11   R(4,24)                 1.4613         estimate D2E/DX2                !
 ! R12   R(5,6)                  1.5429         estimate D2E/DX2                !
 ! R13   R(5,10)                 1.5363         estimate D2E/DX2                !
 ! R14   R(5,22)                 1.5299         estimate D2E/DX2                !
 ! R15   R(6,34)                 1.0966         estimate D2E/DX2                !
 ! R16   R(6,35)                 1.097          estimate D2E/DX2                !
 ! R17   R(7,8)                  1.4917         estimate D2E/DX2                !
 ! R18   R(7,17)                 1.5137         estimate D2E/DX2                !
 ! R19   R(7,21)                 1.4169         estimate D2E/DX2                !
 ! R20   R(8,9)                  1.3382         estimate D2E/DX2                !
 ! R21   R(8,19)                 1.394          estimate D2E/DX2                !
 ! R22   R(9,10)                 1.4819         estimate D2E/DX2                !
 ! R23   R(9,11)                 1.4886         estimate D2E/DX2                !
 ! R24   R(10,16)                1.2334         estimate D2E/DX2                !
 ! R25   R(11,12)                1.2303         estimate D2E/DX2                !
 ! R26   R(11,13)                1.528          estimate D2E/DX2                !
 ! R27   R(13,14)                1.5374         estimate D2E/DX2                !
 ! R28   R(13,15)                1.5262         estimate D2E/DX2                !
 ! R29   R(13,36)                1.0976         estimate D2E/DX2                !
 ! R30   R(14,37)                1.0973         estimate D2E/DX2                !
 ! R31   R(14,38)                1.0968         estimate D2E/DX2                !
 ! R32   R(14,62)                1.5233         estimate D2E/DX2                !
 ! R33   R(15,39)                1.0946         estimate D2E/DX2                !
 ! R34   R(15,40)                1.0961         estimate D2E/DX2                !
 ! R35   R(15,41)                1.0951         estimate D2E/DX2                !
 ! R36   R(17,18)                1.5424         estimate D2E/DX2                !
 ! R37   R(17,20)                1.5374         estimate D2E/DX2                !
 ! R38   R(17,30)                1.096          estimate D2E/DX2                !
 ! R39   R(18,19)                1.4492         estimate D2E/DX2                !
 ! R40   R(18,28)                1.5369         estimate D2E/DX2                !
 ! R41   R(18,29)                1.533          estimate D2E/DX2                !
 ! R42   R(20,42)                1.0959         estimate D2E/DX2                !
 ! R43   R(20,43)                1.0968         estimate D2E/DX2                !
 ! R44   R(21,44)                0.978          estimate D2E/DX2                !
 ! R45   R(22,23)                1.5239         estimate D2E/DX2                !
 ! R46   R(22,45)                1.0959         estimate D2E/DX2                !
 ! R47   R(22,46)                1.0969         estimate D2E/DX2                !
 ! R48   R(23,24)                1.4413         estimate D2E/DX2                !
 ! R49   R(23,25)                1.5117         estimate D2E/DX2                !
 ! R50   R(23,47)                1.0971         estimate D2E/DX2                !
 ! R51   R(25,26)                1.5079         estimate D2E/DX2                !
 ! R52   R(25,27)                1.3441         estimate D2E/DX2                !
 ! R53   R(26,48)                1.095          estimate D2E/DX2                !
 ! R54   R(26,49)                1.0947         estimate D2E/DX2                !
 ! R55   R(26,50)                1.0954         estimate D2E/DX2                !
 ! R56   R(27,51)                1.0845         estimate D2E/DX2                !
 ! R57   R(27,52)                1.0867         estimate D2E/DX2                !
 ! R58   R(28,53)                1.093          estimate D2E/DX2                !
 ! R59   R(28,54)                1.0966         estimate D2E/DX2                !
 ! R60   R(28,55)                1.0948         estimate D2E/DX2                !
 ! R61   R(29,56)                1.0947         estimate D2E/DX2                !
 ! R62   R(29,57)                1.0965         estimate D2E/DX2                !
 ! R63   R(29,58)                1.0944         estimate D2E/DX2                !
 ! R64   R(32,59)                1.0954         estimate D2E/DX2                !
 ! R65   R(32,60)                1.0941         estimate D2E/DX2                !
 ! R66   R(32,61)                1.0949         estimate D2E/DX2                !
 ! R67   R(62,63)                1.094          estimate D2E/DX2                !
 ! R68   R(62,64)                1.093          estimate D2E/DX2                !
 ! R69   R(62,65)                1.0952         estimate D2E/DX2                !
 ! A1    A(2,1,6)              123.4313         estimate D2E/DX2                !
 ! A2    A(2,1,33)             120.1264         estimate D2E/DX2                !
 ! A3    A(6,1,33)             116.3164         estimate D2E/DX2                !
 ! A4    A(1,2,3)              121.533          estimate D2E/DX2                !
 ! A5    A(1,2,32)             120.7827         estimate D2E/DX2                !
 ! A6    A(3,2,32)             117.5287         estimate D2E/DX2                !
 ! A7    A(2,3,4)              115.9866         estimate D2E/DX2                !
 ! A8    A(2,3,20)             113.122          estimate D2E/DX2                !
 ! A9    A(2,3,31)             106.3743         estimate D2E/DX2                !
 ! A10   A(4,3,20)             105.6927         estimate D2E/DX2                !
 ! A11   A(4,3,31)             108.3637         estimate D2E/DX2                !
 ! A12   A(20,3,31)            106.9077         estimate D2E/DX2                !
 ! A13   A(3,4,5)              118.1647         estimate D2E/DX2                !
 ! A14   A(3,4,7)              104.9282         estimate D2E/DX2                !
 ! A15   A(3,4,24)             107.3387         estimate D2E/DX2                !
 ! A16   A(5,4,7)              112.875          estimate D2E/DX2                !
 ! A17   A(5,4,24)             106.228          estimate D2E/DX2                !
 ! A18   A(7,4,24)             106.6943         estimate D2E/DX2                !
 ! A19   A(4,5,6)              112.5831         estimate D2E/DX2                !
 ! A20   A(4,5,10)             115.8448         estimate D2E/DX2                !
 ! A21   A(4,5,22)             101.7658         estimate D2E/DX2                !
 ! A22   A(6,5,10)             108.3668         estimate D2E/DX2                !
 ! A23   A(6,5,22)             110.131          estimate D2E/DX2                !
 ! A24   A(10,5,22)            107.8275         estimate D2E/DX2                !
 ! A25   A(1,6,5)              113.5205         estimate D2E/DX2                !
 ! A26   A(1,6,34)             107.1422         estimate D2E/DX2                !
 ! A27   A(1,6,35)             108.0977         estimate D2E/DX2                !
 ! A28   A(5,6,34)             111.7608         estimate D2E/DX2                !
 ! A29   A(5,6,35)             110.6653         estimate D2E/DX2                !
 ! A30   A(34,6,35)            105.2285         estimate D2E/DX2                !
 ! A31   A(4,7,8)              115.2745         estimate D2E/DX2                !
 ! A32   A(4,7,17)             107.3238         estimate D2E/DX2                !
 ! A33   A(4,7,21)             112.1969         estimate D2E/DX2                !
 ! A34   A(8,7,17)              99.6081         estimate D2E/DX2                !
 ! A35   A(8,7,21)             109.2709         estimate D2E/DX2                !
 ! A36   A(17,7,21)            112.564          estimate D2E/DX2                !
 ! A37   A(7,8,9)              123.6742         estimate D2E/DX2                !
 ! A38   A(7,8,19)             112.6556         estimate D2E/DX2                !
 ! A39   A(9,8,19)             122.8242         estimate D2E/DX2                !
 ! A40   A(8,9,10)             119.0257         estimate D2E/DX2                !
 ! A41   A(8,9,11)             119.7059         estimate D2E/DX2                !
 ! A42   A(10,9,11)            121.2063         estimate D2E/DX2                !
 ! A43   A(5,10,9)             120.8458         estimate D2E/DX2                !
 ! A44   A(5,10,16)            120.4273         estimate D2E/DX2                !
 ! A45   A(9,10,16)            118.7266         estimate D2E/DX2                !
 ! A46   A(9,11,12)            120.628          estimate D2E/DX2                !
 ! A47   A(9,11,13)            117.0953         estimate D2E/DX2                !
 ! A48   A(12,11,13)           122.239          estimate D2E/DX2                !
 ! A49   A(11,13,14)           111.5602         estimate D2E/DX2                !
 ! A50   A(11,13,15)           109.2165         estimate D2E/DX2                !
 ! A51   A(11,13,36)           108.0527         estimate D2E/DX2                !
 ! A52   A(14,13,15)           114.05           estimate D2E/DX2                !
 ! A53   A(14,13,36)           106.7601         estimate D2E/DX2                !
 ! A54   A(15,13,36)           106.9052         estimate D2E/DX2                !
 ! A55   A(13,14,37)           108.3926         estimate D2E/DX2                !
 ! A56   A(13,14,38)           109.4727         estimate D2E/DX2                !
 ! A57   A(13,14,62)           115.8921         estimate D2E/DX2                !
 ! A58   A(37,14,38)           106.4514         estimate D2E/DX2                !
 ! A59   A(37,14,62)           107.7606         estimate D2E/DX2                !
 ! A60   A(38,14,62)           108.4608         estimate D2E/DX2                !
 ! A61   A(13,15,39)           110.9282         estimate D2E/DX2                !
 ! A62   A(13,15,40)           110.3873         estimate D2E/DX2                !
 ! A63   A(13,15,41)           111.9806         estimate D2E/DX2                !
 ! A64   A(39,15,40)           107.9433         estimate D2E/DX2                !
 ! A65   A(39,15,41)           108.5276         estimate D2E/DX2                !
 ! A66   A(40,15,41)           106.9036         estimate D2E/DX2                !
 ! A67   A(7,17,18)            102.6038         estimate D2E/DX2                !
 ! A68   A(7,17,20)            101.9878         estimate D2E/DX2                !
 ! A69   A(7,17,30)            113.3771         estimate D2E/DX2                !
 ! A70   A(18,17,20)           114.8689         estimate D2E/DX2                !
 ! A71   A(18,17,30)           112.3584         estimate D2E/DX2                !
 ! A72   A(20,17,30)           110.9751         estimate D2E/DX2                !
 ! A73   A(17,18,19)           105.4379         estimate D2E/DX2                !
 ! A74   A(17,18,28)           112.9776         estimate D2E/DX2                !
 ! A75   A(17,18,29)           113.463          estimate D2E/DX2                !
 ! A76   A(19,18,28)           108.2586         estimate D2E/DX2                !
 ! A77   A(19,18,29)           108.3031         estimate D2E/DX2                !
 ! A78   A(28,18,29)           108.1722         estimate D2E/DX2                !
 ! A79   A(8,19,18)            106.4665         estimate D2E/DX2                !
 ! A80   A(3,20,17)            105.6845         estimate D2E/DX2                !
 ! A81   A(3,20,42)            111.6032         estimate D2E/DX2                !
 ! A82   A(3,20,43)            109.9933         estimate D2E/DX2                !
 ! A83   A(17,20,42)           110.8796         estimate D2E/DX2                !
 ! A84   A(17,20,43)           111.6924         estimate D2E/DX2                !
 ! A85   A(42,20,43)           107.0545         estimate D2E/DX2                !
 ! A86   A(7,21,44)            106.1957         estimate D2E/DX2                !
 ! A87   A(5,22,23)            103.0625         estimate D2E/DX2                !
 ! A88   A(5,22,45)            113.6037         estimate D2E/DX2                !
 ! A89   A(5,22,46)            109.5512         estimate D2E/DX2                !
 ! A90   A(23,22,45)           112.0346         estimate D2E/DX2                !
 ! A91   A(23,22,46)           111.6583         estimate D2E/DX2                !
 ! A92   A(45,22,46)           106.9923         estimate D2E/DX2                !
 ! A93   A(22,23,24)           105.6738         estimate D2E/DX2                !
 ! A94   A(22,23,25)           118.5701         estimate D2E/DX2                !
 ! A95   A(22,23,47)           109.2474         estimate D2E/DX2                !
 ! A96   A(24,23,25)           108.6477         estimate D2E/DX2                !
 ! A97   A(24,23,47)           106.5883         estimate D2E/DX2                !
 ! A98   A(25,23,47)           107.5277         estimate D2E/DX2                !
 ! A99   A(4,24,23)            109.8058         estimate D2E/DX2                !
 ! A100  A(23,25,26)           115.0695         estimate D2E/DX2                !
 ! A101  A(23,25,27)           125.0149         estimate D2E/DX2                !
 ! A102  A(26,25,27)           119.8939         estimate D2E/DX2                !
 ! A103  A(25,26,48)           110.2866         estimate D2E/DX2                !
 ! A104  A(25,26,49)           110.6149         estimate D2E/DX2                !
 ! A105  A(25,26,50)           112.203          estimate D2E/DX2                !
 ! A106  A(48,26,49)           108.6328         estimate D2E/DX2                !
 ! A107  A(48,26,50)           107.4627         estimate D2E/DX2                !
 ! A108  A(49,26,50)           107.5019         estimate D2E/DX2                !
 ! A109  A(25,27,51)           122.8861         estimate D2E/DX2                !
 ! A110  A(25,27,52)           121.2595         estimate D2E/DX2                !
 ! A111  A(51,27,52)           115.854          estimate D2E/DX2                !
 ! A112  A(18,28,53)           112.6169         estimate D2E/DX2                !
 ! A113  A(18,28,54)           110.534          estimate D2E/DX2                !
 ! A114  A(18,28,55)           111.2695         estimate D2E/DX2                !
 ! A115  A(53,28,54)           105.2807         estimate D2E/DX2                !
 ! A116  A(53,28,55)           108.6169         estimate D2E/DX2                !
 ! A117  A(54,28,55)           108.2635         estimate D2E/DX2                !
 ! A118  A(18,29,56)           111.3566         estimate D2E/DX2                !
 ! A119  A(18,29,57)           110.6745         estimate D2E/DX2                !
 ! A120  A(18,29,58)           112.1262         estimate D2E/DX2                !
 ! A121  A(56,29,57)           108.3037         estimate D2E/DX2                !
 ! A122  A(56,29,58)           108.8871         estimate D2E/DX2                !
 ! A123  A(57,29,58)           105.245          estimate D2E/DX2                !
 ! A124  A(2,32,59)            112.0409         estimate D2E/DX2                !
 ! A125  A(2,32,60)            110.8495         estimate D2E/DX2                !
 ! A126  A(2,32,61)            110.2428         estimate D2E/DX2                !
 ! A127  A(59,32,60)           107.4487         estimate D2E/DX2                !
 ! A128  A(59,32,61)           107.4292         estimate D2E/DX2                !
 ! A129  A(60,32,61)           108.689          estimate D2E/DX2                !
 ! A130  A(14,62,63)           111.5142         estimate D2E/DX2                !
 ! A131  A(14,62,64)           111.8897         estimate D2E/DX2                !
 ! A132  A(14,62,65)           109.7483         estimate D2E/DX2                !
 ! A133  A(63,62,64)           108.5925         estimate D2E/DX2                !
 ! A134  A(63,62,65)           107.3462         estimate D2E/DX2                !
 ! A135  A(64,62,65)           107.5676         estimate D2E/DX2                !
 ! D1    D(6,1,2,3)             -0.799          estimate D2E/DX2                !
 ! D2    D(6,1,2,32)           174.5546         estimate D2E/DX2                !
 ! D3    D(33,1,2,3)          -176.566          estimate D2E/DX2                !
 ! D4    D(33,1,2,32)           -1.2123         estimate D2E/DX2                !
 ! D5    D(2,1,6,5)             31.2509         estimate D2E/DX2                !
 ! D6    D(2,1,6,34)           -92.6232         estimate D2E/DX2                !
 ! D7    D(2,1,6,35)           154.423          estimate D2E/DX2                !
 ! D8    D(33,1,6,5)          -152.8334         estimate D2E/DX2                !
 ! D9    D(33,1,6,34)           83.2925         estimate D2E/DX2                !
 ! D10   D(33,1,6,35)          -29.6613         estimate D2E/DX2                !
 ! D11   D(1,2,3,4)            -14.2438         estimate D2E/DX2                !
 ! D12   D(1,2,3,20)          -136.6092         estimate D2E/DX2                !
 ! D13   D(1,2,3,31)           106.3217         estimate D2E/DX2                !
 ! D14   D(32,2,3,4)           170.2572         estimate D2E/DX2                !
 ! D15   D(32,2,3,20)           47.8919         estimate D2E/DX2                !
 ! D16   D(32,2,3,31)          -69.1772         estimate D2E/DX2                !
 ! D17   D(1,2,32,59)           -4.7527         estimate D2E/DX2                !
 ! D18   D(1,2,32,60)          115.2706         estimate D2E/DX2                !
 ! D19   D(1,2,32,61)         -124.3379         estimate D2E/DX2                !
 ! D20   D(3,2,32,59)          170.7818         estimate D2E/DX2                !
 ! D21   D(3,2,32,60)          -69.1949         estimate D2E/DX2                !
 ! D22   D(3,2,32,61)           51.1967         estimate D2E/DX2                !
 ! D23   D(2,3,4,5)             -2.167          estimate D2E/DX2                !
 ! D24   D(2,3,4,7)           -128.9706         estimate D2E/DX2                !
 ! D25   D(2,3,4,24)           117.7828         estimate D2E/DX2                !
 ! D26   D(20,3,4,5)           124.0411         estimate D2E/DX2                !
 ! D27   D(20,3,4,7)            -2.7626         estimate D2E/DX2                !
 ! D28   D(20,3,4,24)         -116.0091         estimate D2E/DX2                !
 ! D29   D(31,3,4,5)          -121.6558         estimate D2E/DX2                !
 ! D30   D(31,3,4,7)           111.5405         estimate D2E/DX2                !
 ! D31   D(31,3,4,24)           -1.7061         estimate D2E/DX2                !
 ! D32   D(2,3,20,17)          152.7849         estimate D2E/DX2                !
 ! D33   D(2,3,20,42)          -86.5946         estimate D2E/DX2                !
 ! D34   D(2,3,20,43)           32.0742         estimate D2E/DX2                !
 ! D35   D(4,3,20,17)           24.8445         estimate D2E/DX2                !
 ! D36   D(4,3,20,42)          145.465          estimate D2E/DX2                !
 ! D37   D(4,3,20,43)          -95.8662         estimate D2E/DX2                !
 ! D38   D(31,3,20,17)         -90.4602         estimate D2E/DX2                !
 ! D39   D(31,3,20,42)          30.1603         estimate D2E/DX2                !
 ! D40   D(31,3,20,43)         148.8291         estimate D2E/DX2                !
 ! D41   D(3,4,5,6)             30.5856         estimate D2E/DX2                !
 ! D42   D(3,4,5,10)           -94.9111         estimate D2E/DX2                !
 ! D43   D(3,4,5,22)           148.4498         estimate D2E/DX2                !
 ! D44   D(7,4,5,6)            153.4762         estimate D2E/DX2                !
 ! D45   D(7,4,5,10)            27.9796         estimate D2E/DX2                !
 ! D46   D(7,4,5,22)           -88.6595         estimate D2E/DX2                !
 ! D47   D(24,4,5,6)           -89.9389         estimate D2E/DX2                !
 ! D48   D(24,4,5,10)          144.5644         estimate D2E/DX2                !
 ! D49   D(24,4,5,22)           27.9253         estimate D2E/DX2                !
 ! D50   D(3,4,7,8)             89.1221         estimate D2E/DX2                !
 ! D51   D(3,4,7,17)           -20.7927         estimate D2E/DX2                !
 ! D52   D(3,4,7,21)          -144.945          estimate D2E/DX2                !
 ! D53   D(5,4,7,8)            -40.8694         estimate D2E/DX2                !
 ! D54   D(5,4,7,17)          -150.7842         estimate D2E/DX2                !
 ! D55   D(5,4,7,21)            85.0635         estimate D2E/DX2                !
 ! D56   D(24,4,7,8)          -157.1772         estimate D2E/DX2                !
 ! D57   D(24,4,7,17)           92.908          estimate D2E/DX2                !
 ! D58   D(24,4,7,21)          -31.2443         estimate D2E/DX2                !
 ! D59   D(3,4,24,23)         -135.8559         estimate D2E/DX2                !
 ! D60   D(5,4,24,23)           -8.5647         estimate D2E/DX2                !
 ! D61   D(7,4,24,23)          112.0963         estimate D2E/DX2                !
 ! D62   D(4,5,6,1)            -44.1821         estimate D2E/DX2                !
 ! D63   D(4,5,6,34)            77.1402         estimate D2E/DX2                !
 ! D64   D(4,5,6,35)          -165.9341         estimate D2E/DX2                !
 ! D65   D(10,5,6,1)            85.2799         estimate D2E/DX2                !
 ! D66   D(10,5,6,34)         -153.3977         estimate D2E/DX2                !
 ! D67   D(10,5,6,35)          -36.4721         estimate D2E/DX2                !
 ! D68   D(22,5,6,1)          -156.9919         estimate D2E/DX2                !
 ! D69   D(22,5,6,34)          -35.6695         estimate D2E/DX2                !
 ! D70   D(22,5,6,35)           81.2561         estimate D2E/DX2                !
 ! D71   D(4,5,10,9)            -1.5706         estimate D2E/DX2                !
 ! D72   D(4,5,10,16)          178.2631         estimate D2E/DX2                !
 ! D73   D(6,5,10,9)          -129.1909         estimate D2E/DX2                !
 ! D74   D(6,5,10,16)           50.6428         estimate D2E/DX2                !
 ! D75   D(22,5,10,9)          111.6192         estimate D2E/DX2                !
 ! D76   D(22,5,10,16)         -68.5471         estimate D2E/DX2                !
 ! D77   D(4,5,22,23)          -36.0571         estimate D2E/DX2                !
 ! D78   D(4,5,22,45)         -157.5021         estimate D2E/DX2                !
 ! D79   D(4,5,22,46)           82.9194         estimate D2E/DX2                !
 ! D80   D(6,5,22,23)           83.5558         estimate D2E/DX2                !
 ! D81   D(6,5,22,45)          -37.8892         estimate D2E/DX2                !
 ! D82   D(6,5,22,46)         -157.4677         estimate D2E/DX2                !
 ! D83   D(10,5,22,23)        -158.383          estimate D2E/DX2                !
 ! D84   D(10,5,22,45)          80.172          estimate D2E/DX2                !
 ! D85   D(10,5,22,46)         -39.4065         estimate D2E/DX2                !
 ! D86   D(4,7,8,9)             28.1455         estimate D2E/DX2                !
 ! D87   D(4,7,8,19)          -141.5662         estimate D2E/DX2                !
 ! D88   D(17,7,8,9)           142.5959         estimate D2E/DX2                !
 ! D89   D(17,7,8,19)          -27.1158         estimate D2E/DX2                !
 ! D90   D(21,7,8,9)           -99.275          estimate D2E/DX2                !
 ! D91   D(21,7,8,19)           91.0133         estimate D2E/DX2                !
 ! D92   D(4,7,17,18)          154.9691         estimate D2E/DX2                !
 ! D93   D(4,7,17,20)           35.7591         estimate D2E/DX2                !
 ! D94   D(4,7,17,30)          -83.6113         estimate D2E/DX2                !
 ! D95   D(8,7,17,18)           34.5441         estimate D2E/DX2                !
 ! D96   D(8,7,17,20)          -84.6659         estimate D2E/DX2                !
 ! D97   D(8,7,17,30)          155.9638         estimate D2E/DX2                !
 ! D98   D(21,7,17,18)         -81.1025         estimate D2E/DX2                !
 ! D99   D(21,7,17,20)         159.6875         estimate D2E/DX2                !
 ! D100  D(21,7,17,30)          40.3172         estimate D2E/DX2                !
 ! D101  D(4,7,21,44)           40.5355         estimate D2E/DX2                !
 ! D102  D(8,7,21,44)          169.6711         estimate D2E/DX2                !
 ! D103  D(17,7,21,44)         -80.6499         estimate D2E/DX2                !
 ! D104  D(7,8,9,10)             0.1457         estimate D2E/DX2                !
 ! D105  D(7,8,9,11)          -177.0237         estimate D2E/DX2                !
 ! D106  D(19,8,9,10)          168.8346         estimate D2E/DX2                !
 ! D107  D(19,8,9,11)           -8.3348         estimate D2E/DX2                !
 ! D108  D(7,8,19,18)            6.865          estimate D2E/DX2                !
 ! D109  D(9,8,19,18)         -162.9474         estimate D2E/DX2                !
 ! D110  D(8,9,10,5)           -13.9401         estimate D2E/DX2                !
 ! D111  D(8,9,10,16)          166.2234         estimate D2E/DX2                !
 ! D112  D(11,9,10,5)          163.1853         estimate D2E/DX2                !
 ! D113  D(11,9,10,16)         -16.6512         estimate D2E/DX2                !
 ! D114  D(8,9,11,12)          -54.9788         estimate D2E/DX2                !
 ! D115  D(8,9,11,13)          122.8368         estimate D2E/DX2                !
 ! D116  D(10,9,11,12)         127.9151         estimate D2E/DX2                !
 ! D117  D(10,9,11,13)         -54.2693         estimate D2E/DX2                !
 ! D118  D(9,11,13,14)         122.7592         estimate D2E/DX2                !
 ! D119  D(9,11,13,15)        -110.2437         estimate D2E/DX2                !
 ! D120  D(9,11,13,36)           5.7009         estimate D2E/DX2                !
 ! D121  D(12,11,13,14)        -59.4631         estimate D2E/DX2                !
 ! D122  D(12,11,13,15)         67.534          estimate D2E/DX2                !
 ! D123  D(12,11,13,36)       -176.5214         estimate D2E/DX2                !
 ! D124  D(11,13,14,37)       -161.6658         estimate D2E/DX2                !
 ! D125  D(11,13,14,38)        -45.9361         estimate D2E/DX2                !
 ! D126  D(11,13,14,62)         77.0867         estimate D2E/DX2                !
 ! D127  D(15,13,14,37)         74.0098         estimate D2E/DX2                !
 ! D128  D(15,13,14,38)       -170.2605         estimate D2E/DX2                !
 ! D129  D(15,13,14,62)        -47.2377         estimate D2E/DX2                !
 ! D130  D(36,13,14,37)        -43.8273         estimate D2E/DX2                !
 ! D131  D(36,13,14,38)         71.9024         estimate D2E/DX2                !
 ! D132  D(36,13,14,62)       -165.0747         estimate D2E/DX2                !
 ! D133  D(11,13,15,39)       -178.9515         estimate D2E/DX2                !
 ! D134  D(11,13,15,40)         61.4443         estimate D2E/DX2                !
 ! D135  D(11,13,15,41)        -57.5365         estimate D2E/DX2                !
 ! D136  D(14,13,15,39)        -53.3806         estimate D2E/DX2                !
 ! D137  D(14,13,15,40)       -172.9847         estimate D2E/DX2                !
 ! D138  D(14,13,15,41)         68.0344         estimate D2E/DX2                !
 ! D139  D(36,13,15,39)         64.3731         estimate D2E/DX2                !
 ! D140  D(36,13,15,40)        -55.231          estimate D2E/DX2                !
 ! D141  D(36,13,15,41)       -174.2118         estimate D2E/DX2                !
 ! D142  D(13,14,62,63)         62.8272         estimate D2E/DX2                !
 ! D143  D(13,14,62,64)        -59.0247         estimate D2E/DX2                !
 ! D144  D(13,14,62,65)       -178.3556         estimate D2E/DX2                !
 ! D145  D(37,14,62,63)        -58.758          estimate D2E/DX2                !
 ! D146  D(37,14,62,64)        179.3901         estimate D2E/DX2                !
 ! D147  D(37,14,62,65)         60.0592         estimate D2E/DX2                !
 ! D148  D(38,14,62,63)       -173.6203         estimate D2E/DX2                !
 ! D149  D(38,14,62,64)         64.5278         estimate D2E/DX2                !
 ! D150  D(38,14,62,65)        -54.8031         estimate D2E/DX2                !
 ! D151  D(7,17,18,19)         -32.9421         estimate D2E/DX2                !
 ! D152  D(7,17,18,28)          85.1013         estimate D2E/DX2                !
 ! D153  D(7,17,18,29)        -151.3033         estimate D2E/DX2                !
 ! D154  D(20,17,18,19)         76.8269         estimate D2E/DX2                !
 ! D155  D(20,17,18,28)       -165.1298         estimate D2E/DX2                !
 ! D156  D(20,17,18,29)        -41.5344         estimate D2E/DX2                !
 ! D157  D(30,17,18,19)       -155.0556         estimate D2E/DX2                !
 ! D158  D(30,17,18,28)        -37.0122         estimate D2E/DX2                !
 ! D159  D(30,17,18,29)         86.5832         estimate D2E/DX2                !
 ! D160  D(7,17,20,3)          -37.1467         estimate D2E/DX2                !
 ! D161  D(7,17,20,42)        -158.238          estimate D2E/DX2                !
 ! D162  D(7,17,20,43)          82.4505         estimate D2E/DX2                !
 ! D163  D(18,17,20,3)        -147.2854         estimate D2E/DX2                !
 ! D164  D(18,17,20,42)         91.6233         estimate D2E/DX2                !
 ! D165  D(18,17,20,43)        -27.6882         estimate D2E/DX2                !
 ! D166  D(30,17,20,3)          83.9052         estimate D2E/DX2                !
 ! D167  D(30,17,20,42)        -37.1861         estimate D2E/DX2                !
 ! D168  D(30,17,20,43)       -156.4976         estimate D2E/DX2                !
 ! D169  D(17,18,19,8)          16.4815         estimate D2E/DX2                !
 ! D170  D(28,18,19,8)        -104.6874         estimate D2E/DX2                !
 ! D171  D(29,18,19,8)         138.2452         estimate D2E/DX2                !
 ! D172  D(17,18,28,53)        -62.498          estimate D2E/DX2                !
 ! D173  D(17,18,28,54)       -179.9444         estimate D2E/DX2                !
 ! D174  D(17,18,28,55)         59.7297         estimate D2E/DX2                !
 ! D175  D(19,18,28,53)         53.8839         estimate D2E/DX2                !
 ! D176  D(19,18,28,54)        -63.5625         estimate D2E/DX2                !
 ! D177  D(19,18,28,55)        176.1116         estimate D2E/DX2                !
 ! D178  D(29,18,28,53)        171.0355         estimate D2E/DX2                !
 ! D179  D(29,18,28,54)         53.5891         estimate D2E/DX2                !
 ! D180  D(29,18,28,55)        -66.7367         estimate D2E/DX2                !
 ! D181  D(17,18,29,56)        -57.6625         estimate D2E/DX2                !
 ! D182  D(17,18,29,57)       -178.1916         estimate D2E/DX2                !
 ! D183  D(17,18,29,58)         64.6263         estimate D2E/DX2                !
 ! D184  D(19,18,29,56)       -174.3563         estimate D2E/DX2                !
 ! D185  D(19,18,29,57)         65.1146         estimate D2E/DX2                !
 ! D186  D(19,18,29,58)        -52.0675         estimate D2E/DX2                !
 ! D187  D(28,18,29,56)         68.5207         estimate D2E/DX2                !
 ! D188  D(28,18,29,57)        -52.0084         estimate D2E/DX2                !
 ! D189  D(28,18,29,58)       -169.1905         estimate D2E/DX2                !
 ! D190  D(5,22,23,24)          32.1076         estimate D2E/DX2                !
 ! D191  D(5,22,23,25)         154.1763         estimate D2E/DX2                !
 ! D192  D(5,22,23,47)         -82.2259         estimate D2E/DX2                !
 ! D193  D(45,22,23,24)        154.6103         estimate D2E/DX2                !
 ! D194  D(45,22,23,25)        -83.321          estimate D2E/DX2                !
 ! D195  D(45,22,23,47)         40.2768         estimate D2E/DX2                !
 ! D196  D(46,22,23,24)        -85.3937         estimate D2E/DX2                !
 ! D197  D(46,22,23,25)         36.675          estimate D2E/DX2                !
 ! D198  D(46,22,23,47)        160.2728         estimate D2E/DX2                !
 ! D199  D(22,23,24,4)         -14.7836         estimate D2E/DX2                !
 ! D200  D(25,23,24,4)        -143.0204         estimate D2E/DX2                !
 ! D201  D(47,23,24,4)         101.3734         estimate D2E/DX2                !
 ! D202  D(22,23,25,26)       -175.8571         estimate D2E/DX2                !
 ! D203  D(22,23,25,27)          5.8476         estimate D2E/DX2                !
 ! D204  D(24,23,25,26)        -55.2982         estimate D2E/DX2                !
 ! D205  D(24,23,25,27)        126.4065         estimate D2E/DX2                !
 ! D206  D(47,23,25,26)         59.6982         estimate D2E/DX2                !
 ! D207  D(47,23,25,27)       -118.5971         estimate D2E/DX2                !
 ! D208  D(23,25,26,48)        -55.3365         estimate D2E/DX2                !
 ! D209  D(23,25,26,49)         64.8612         estimate D2E/DX2                !
 ! D210  D(23,25,26,50)       -175.1003         estimate D2E/DX2                !
 ! D211  D(27,25,26,48)        123.053          estimate D2E/DX2                !
 ! D212  D(27,25,26,49)       -116.7492         estimate D2E/DX2                !
 ! D213  D(27,25,26,50)          3.2893         estimate D2E/DX2                !
 ! D214  D(23,25,27,51)         -0.425          estimate D2E/DX2                !
 ! D215  D(23,25,27,52)        179.3427         estimate D2E/DX2                !
 ! D216  D(26,25,27,51)       -178.6439         estimate D2E/DX2                !
 ! D217  D(26,25,27,52)          1.1239         estimate D2E/DX2                !
 --------------------------------------------------------------------------------
 Trust Radius=3.00D-01 FncErr=1.00D-07 GrdErr=1.00D-06
 Number of steps in this run=    390 maximum allowed number of steps=    390.
 GradGradGradGradGradGradGradGradGradGradGradGradGradGradGradGradGradGrad

 Stoichiometry    C26H34O5
 Framework group  C1[X(C26H34O5)]
 Deg. of freedom   189
 Full point group                 C1      NOp   1
 Largest Abelian subgroup         C1      NOp   1
 Largest concise Abelian subgroup C1      NOp   1
                         Standard orientation:                         
 ---------------------------------------------------------------------
 Center     Atomic      Atomic             Coordinates (Angstroms)
 Number     Number       Type             X           Y           Z
 ---------------------------------------------------------------------
      1          6           0       -0.360118   -1.663017    2.753883
      2          6           0       -0.498056   -0.345460    2.966428
      3          6           0       -1.184259    0.550355    1.959943
      4          6           0       -1.405924   -0.058459    0.544478
      5          6           0       -0.874657   -1.473046    0.272732
      6          6           0       -0.876259   -2.359327    1.535671
      7          6           0       -0.841274    0.991270   -0.432001
      8          6           0        0.607829    0.846212   -0.755023
      9          6           0        1.259589   -0.322386   -0.733077
     10          6           0        0.516956   -1.553202   -0.373142
     11          6           0        2.722514   -0.356389   -1.006463
     12          8           0        3.177991    0.126798   -2.042132
     13          6           0        3.618018   -0.965353    0.071541
     14          6           0        4.450575   -2.134379   -0.479646
     15          6           0        4.449000    0.139821    0.717594
     16          8           0        1.038628   -2.647772   -0.599095
     17          6           0       -0.805472    2.315291    0.300789
     18          6           0        0.305774    3.082508   -0.444506
     19          8           0        1.260567    2.073677   -0.857733
     20          6           0       -0.443465    1.879557    1.730015
     21          8           0       -1.584608    1.056424   -1.636449
     22          6           0       -1.892540   -1.999165   -0.741027
     23          6           0       -3.202731   -1.383865   -0.264604
     24          8           0       -2.847984   -0.112690    0.314696
     25          6           0       -4.307132   -1.164073   -1.273213
     26          6           0       -5.530281   -0.462577   -0.738688
     27          6           0       -4.274334   -1.571160   -2.553813
     28          6           0       -0.203879    3.806453   -1.700796
     29          6           0        1.035752    4.105254    0.433603
     30          1           0       -1.763251    2.847810    0.283715
     31          1           0       -2.166496    0.801233    2.387009
     32          6           0       -0.063970    0.274809    4.268199
     33          1           0        0.087738   -2.295833    3.518157
     34          1           0       -1.882120   -2.725224    1.774297
     35          1           0       -0.271845   -3.260928    1.376697
     36          1           0        2.972028   -1.379262    0.856488
     37          1           0        4.810180   -2.732792    0.366965
     38          1           0        3.806535   -2.793412   -1.074527
     39          1           0        5.115781   -0.269187    1.483297
     40          1           0        3.795831    0.877586    1.197725
     41          1           0        5.053941    0.680827   -0.017673
     42          1           0       -0.744880    2.640749    2.458590
     43          1           0        0.637039    1.731886    1.847421
     44          1           0       -2.525575    0.981718   -1.380646
     45          1           0       -1.943728   -3.092977   -0.784161
     46          1           0       -1.623529   -1.650971   -1.745804
     47          1           0       -3.614531   -1.994589    0.548439
     48          1           0       -5.926274   -0.998852    0.130004
     49          1           0       -5.286402    0.560948   -0.436536
     50          1           0       -6.332193   -0.404231   -1.482550
     51          1           0       -3.429223   -2.098537   -2.982612
     52          1           0       -5.109423   -1.389230   -3.224901
     53          1           0       -0.599406    3.117528   -2.451579
     54          1           0        0.616783    4.336557   -2.198812
     55          1           0       -0.981624    4.535354   -1.451092
     56          1           0        0.339668    4.837065    0.855875
     57          1           0        1.792086    4.645316   -0.148324
     58          1           0        1.587059    3.628623    1.250027
     59          1           0        0.272614   -0.477344    4.989866
     60          1           0        0.764501    0.971838    4.110307
     61          1           0       -0.897335    0.818178    4.725429
     62          6           0        5.659022   -1.750492   -1.323886
     63          1           0        6.391604   -1.183833   -0.741537
     64          1           0        5.374411   -1.157964   -2.197079
     65          1           0        6.159217   -2.654659   -1.686722
 ---------------------------------------------------------------------
 Rotational constants (GHZ):      0.2077440      0.1259016      0.1148986
 Standard basis: 6-31G(d) (6D, 7F)
 There are   533 symmetry adapted basis functions of A   symmetry.
 Integral buffers will be    131072 words long.
 Raffenetti 2 integral format.
 Two-electron integral symmetry is turned on.
   533 basis functions,  1004 primitive gaussians,   533 cartesian basis functions
   115 alpha electrons      115 beta electrons
       nuclear repulsion energy      3524.8141461412 Hartrees.
 NAtoms=   65 NActive=   65 NUniq=   65 SFac= 1.00D+00 NAtFMM=   50 NAOKFM=T Big=T
 One-electron integrals computed using PRISM.
 NBasis=   533 RedAO= T  NBF=   533
 NBsUse=   533 1.00D-06 NBFU=   533
 Harris functional with IExCor=  402 diagonalized for initial guess.
 ExpMin= 1.61D-01 ExpMax= 5.48D+03 ExpMxC= 8.25D+02 IAcc=1 IRadAn=         1 AccDes= 0.00D+00
 HarFok:  IExCor=  402 AccDes= 0.00D+00 IRadAn=         1 IDoV= 1
 ScaDFX=  1.000000  1.000000  1.000000  1.000000
 FoFCou: FMM=F IPFlag=           0 FMFlag=      100000 FMFlg1=        2001
         NFxFlg=           0 DoJE=T BraDBF=F KetDBF=T FulRan=T
         Omega=  0.000000  0.000000  1.000000  0.000000  0.000000 ICntrl=     500 IOpCl=  0
         NMat0=    1 NMatS0=    1 NMatT0=    0 NMatD0=    1 NMtDS0=    0 NMtDT0=    0
         I1Cent=           4 NGrid=           0.
 Petite list used in FoFCou.
 Initial guess orbital symmetries:
       Occupied  (A) (A) (A) (A) (A) (A) (A) (A) (A) (A) (A) (A)
                 (A) (A) (A) (A) (A) (A) (A) (A) (A) (A) (A) (A)
                 (A) (A) (A) (A) (A) (A) (A) (A) (A) (A) (A) (A)
                 (A) (A) (A) (A) (A) (A) (A) (A) (A) (A) (A) (A)
                 (A) (A) (A) (A) (A) (A) (A) (A) (A) (A) (A) (A)
                 (A) (A) (A) (A) (A) (A) (A) (A) (A) (A) (A) (A)
                 (A) (A) (A) (A) (A) (A) (A) (A) (A) (A) (A) (A)
                 (A) (A) (A) (A) (A) (A) (A) (A) (A) (A) (A) (A)
                 (A) (A) (A) (A) (A) (A) (A) (A) (A) (A) (A) (A)
                 (A) (A) (A) (A) (A) (A) (A)
       Virtual   (A) (A) (A) (A) (A) (A) (A) (A) (A) (A) (A) (A)
                 (A) (A) (A) (A) (A) (A) (A) (A) (A) (A) (A) (A)
                 (A) (A) (A) (A) (A) (A) (A) (A) (A) (A) (A) (A)
                 (A) (A) (A) (A) (A) (A) (A) (A) (A) (A) (A) (A)
                 (A) (A) (A) (A) (A) (A) (A) (A) (A) (A) (A) (A)
                 (A) (A) (A) (A) (A) (A) (A) (A) (A) (A) (A) (A)
                 (A) (A) (A) (A) (A) (A) (A) (A) (A) (A) (A) (A)
                 (A) (A) (A) (A) (A) (A) (A) (A) (A) (A) (A) (A)
                 (A) (A) (A) (A) (A) (A) (A) (A) (A) (A) (A) (A)
                 (A) (A) (A) (A) (A) (A) (A) (A) (A) (A) (A) (A)
                 (A) (A) (A) (A) (A) (A) (A) (A) (A) (A) (A) (A)
                 (A) (A) (A) (A) (A) (A) (A) (A) (A) (A) (A) (A)
                 (A) (A) (A) (A) (A) (A) (A) (A) (A) (A) (A) (A)
                 (A) (A) (A) (A) (A) (A) (A) (A) (A) (A) (A) (A)
                 (A) (A) (A) (A) (A) (A) (A) (A) (A) (A) (A) (A)
                 (A) (A) (A) (A) (A) (A) (A) (A) (A) (A) (A) (A)
                 (A) (A) (A) (A) (A) (A) (A) (A) (A) (A) (A) (A)
                 (A) (A) (A) (A) (A) (A) (A) (A) (A) (A) (A) (A)
                 (A) (A) (A) (A) (A) (A) (A) (A) (A) (A) (A) (A)
                 (A) (A) (A) (A) (A) (A) (A) (A) (A) (A) (A) (A)
                 (A) (A) (A) (A) (A) (A) (A) (A) (A) (A) (A) (A)
                 (A) (A) (A) (A) (A) (A) (A) (A) (A) (A) (A) (A)
                 (A) (A) (A) (A) (A) (A) (A) (A) (A) (A) (A) (A)
                 (A) (A) (A) (A) (A) (A) (A) (A) (A) (A) (A) (A)
                 (A) (A) (A) (A) (A) (A) (A) (A) (A) (A) (A) (A)
                 (A) (A) (A) (A) (A) (A) (A) (A) (A) (A) (A) (A)
                 (A) (A) (A) (A) (A) (A) (A) (A) (A) (A) (A) (A)
                 (A) (A) (A) (A) (A) (A) (A) (A) (A) (A) (A) (A)
                 (A) (A) (A) (A) (A) (A) (A) (A) (A) (A) (A) (A)
                 (A) (A) (A) (A) (A) (A) (A) (A) (A) (A) (A) (A)
                 (A) (A) (A) (A) (A) (A) (A) (A) (A) (A) (A) (A)
                 (A) (A) (A) (A) (A) (A) (A) (A) (A) (A) (A) (A)
                 (A) (A) (A) (A) (A) (A) (A) (A) (A) (A) (A) (A)
                 (A) (A) (A) (A) (A) (A) (A) (A) (A) (A) (A) (A)
                 (A) (A) (A) (A) (A) (A) (A) (A) (A) (A)
 The electronic state of the initial guess is 1-A.
 Requested convergence on RMS density matrix=1.00D-08 within 128 cycles.
 Requested convergence on MAX density matrix=1.00D-06.
 Requested convergence on             energy=1.00D-06.
 No special actions if energy rises.
 Integral accuracy reduced to 1.0D-05 until final iterations.
 Initial convergence to 1.0D-05 achieved.  Increase integral accuracy.
 SCF Done:  E(RB3LYP) =  -1387.30299740     A.U. after   16 cycles
             Convg  =    0.5104D-08             -V/T =  2.0091

 **********************************************************************

            Population analysis using the SCF density.

 **********************************************************************

 Orbital symmetries:
       Occupied  (A) (A) (A) (A) (A) (A) (A) (A) (A) (A) (A) (A)
                 (A) (A) (A) (A) (A) (A) (A) (A) (A) (A) (A) (A)
                 (A) (A) (A) (A) (A) (A) (A) (A) (A) (A) (A) (A)
                 (A) (A) (A) (A) (A) (A) (A) (A) (A) (A) (A) (A)
                 (A) (A) (A) (A) (A) (A) (A) (A) (A) (A) (A) (A)
                 (A) (A) (A) (A) (A) (A) (A) (A) (A) (A) (A) (A)
                 (A) (A) (A) (A) (A) (A) (A) (A) (A) (A) (A) (A)
                 (A) (A) (A) (A) (A) (A) (A) (A) (A) (A) (A) (A)
                 (A) (A) (A) (A) (A) (A) (A) (A) (A) (A) (A) (A)
                 (A) (A) (A) (A) (A) (A) (A)
       Virtual   (A) (A) (A) (A) (A) (A) (A) (A) (A) (A) (A) (A)
                 (A) (A) (A) (A) (A) (A) (A) (A) (A) (A) (A) (A)
                 (A) (A) (A) (A) (A) (A) (A) (A) (A) (A) (A) (A)
                 (A) (A) (A) (A) (A) (A) (A) (A) (A) (A) (A) (A)
                 (A) (A) (A) (A) (A) (A) (A) (A) (A) (A) (A) (A)
                 (A) (A) (A) (A) (A) (A) (A) (A) (A) (A) (A) (A)
                 (A) (A) (A) (A) (A) (A) (A) (A) (A) (A) (A) (A)
                 (A) (A) (A) (A) (A) (A) (A) (A) (A) (A) (A) (A)
                 (A) (A) (A) (A) (A) (A) (A) (A) (A) (A) (A) (A)
                 (A) (A) (A) (A) (A) (A) (A) (A) (A) (A) (A) (A)
                 (A) (A) (A) (A) (A) (A) (A) (A) (A) (A) (A) (A)
                 (A) (A) (A) (A) (A) (A) (A) (A) (A) (A) (A) (A)
                 (A) (A) (A) (A) (A) (A) (A) (A) (A) (A) (A) (A)
                 (A) (A) (A) (A) (A) (A) (A) (A) (A) (A) (A) (A)
                 (A) (A) (A) (A) (A) (A) (A) (A) (A) (A) (A) (A)
                 (A) (A) (A) (A) (A) (A) (A) (A) (A) (A) (A) (A)
                 (A) (A) (A) (A) (A) (A) (A) (A) (A) (A) (A) (A)
                 (A) (A) (A) (A) (A) (A) (A) (A) (A) (A) (A) (A)
                 (A) (A) (A) (A) (A) (A) (A) (A) (A) (A) (A) (A)
                 (A) (A) (A) (A) (A) (A) (A) (A) (A) (A) (A) (A)
                 (A) (A) (A) (A) (A) (A) (A) (A) (A) (A) (A) (A)
                 (A) (A) (A) (A) (A) (A) (A) (A) (A) (A) (A) (A)
                 (A) (A) (A) (A) (A) (A) (A) (A) (A) (A) (A) (A)
                 (A) (A) (A) (A) (A) (A) (A) (A) (A) (A) (A) (A)
                 (A) (A) (A) (A) (A) (A) (A) (A) (A) (A) (A) (A)
                 (A) (A) (A) (A) (A) (A) (A) (A) (A) (A) (A) (A)
                 (A) (A) (A) (A) (A) (A) (A) (A) (A) (A) (A) (A)
                 (A) (A) (A) (A) (A) (A) (A) (A) (A) (A) (A) (A)
                 (A) (A) (A) (A) (A) (A) (A) (A) (A) (A) (A) (A)
                 (A) (A) (A) (A) (A) (A) (A) (A) (A) (A) (A) (A)
                 (A) (A) (A) (A) (A) (A) (A) (A) (A) (A) (A) (A)
                 (A) (A) (A) (A) (A) (A) (A) (A) (A) (A) (A) (A)
                 (A) (A) (A) (A) (A) (A) (A) (A) (A) (A) (A) (A)
                 (A) (A) (A) (A) (A) (A) (A) (A) (A) (A) (A) (A)
                 (A) (A) (A) (A) (A) (A) (A) (A) (A) (A)
 The electronic state is 1-A.
 Alpha  occ. eigenvalues --  -19.19454 -19.16878 -19.15395 -19.13672 -19.12803
 Alpha  occ. eigenvalues --  -10.28027 -10.27227 -10.26589 -10.26075 -10.25963
 Alpha  occ. eigenvalues --  -10.25630 -10.25125 -10.21729 -10.20660 -10.20551
 Alpha  occ. eigenvalues --  -10.20159 -10.19759 -10.19721 -10.19602 -10.19576
 Alpha  occ. eigenvalues --  -10.19308 -10.18822 -10.18775 -10.18732 -10.18642
 Alpha  occ. eigenvalues --  -10.18441 -10.18278 -10.17449 -10.17149 -10.16761
 Alpha  occ. eigenvalues --  -10.15205  -1.08343  -1.06065  -1.03412  -1.02377
 Alpha  occ. eigenvalues --   -1.01998  -0.87606  -0.84021  -0.82677  -0.81803
 Alpha  occ. eigenvalues --   -0.80551  -0.79692  -0.76959  -0.74591  -0.73813
 Alpha  occ. eigenvalues --   -0.72331  -0.71356  -0.69485  -0.69236  -0.68078
 Alpha  occ. eigenvalues --   -0.65808  -0.64401  -0.63679  -0.62092  -0.61031
 Alpha  occ. eigenvalues --   -0.59521  -0.58496  -0.57444  -0.54832  -0.53710
 Alpha  occ. eigenvalues --   -0.52938  -0.52073  -0.51054  -0.50567  -0.49232
 Alpha  occ. eigenvalues --   -0.48379  -0.47938  -0.46731  -0.46194  -0.45938
 Alpha  occ. eigenvalues --   -0.45173  -0.44976  -0.44569  -0.43650  -0.43553
 Alpha  occ. eigenvalues --   -0.43001  -0.42362  -0.42147  -0.41926  -0.41791
 Alpha  occ. eigenvalues --   -0.41189  -0.40841  -0.40457  -0.39749  -0.39261
 Alpha  occ. eigenvalues --   -0.39052  -0.38603  -0.38459  -0.38242  -0.37861
 Alpha  occ. eigenvalues --   -0.37521  -0.37136  -0.37101  -0.36914  -0.36785
 Alpha  occ. eigenvalues --   -0.36603  -0.36369  -0.34915  -0.34724  -0.34071
 Alpha  occ. eigenvalues --   -0.33746  -0.33399  -0.32764  -0.32521  -0.32157
 Alpha  occ. eigenvalues --   -0.31632  -0.31188  -0.31034  -0.27977  -0.26624
 Alpha  occ. eigenvalues --   -0.26068  -0.25476  -0.24541  -0.23756  -0.22925
 Alpha virt. eigenvalues --   -0.05603  -0.02098   0.00347   0.01748   0.04904
 Alpha virt. eigenvalues --    0.06790   0.07603   0.08787   0.08880   0.10154
 Alpha virt. eigenvalues --    0.10434   0.10536   0.11438   0.11920   0.12468
 Alpha virt. eigenvalues --    0.12772   0.13119   0.13492   0.13766   0.14107
 Alpha virt. eigenvalues --    0.14143   0.14741   0.15082   0.15824   0.16023
 Alpha virt. eigenvalues --    0.16286   0.16611   0.16892   0.17507   0.17524
 Alpha virt. eigenvalues --    0.17923   0.18228   0.18477   0.18752   0.19198
 Alpha virt. eigenvalues --    0.19514   0.19807   0.19951   0.20018   0.20107
 Alpha virt. eigenvalues --    0.20662   0.20842   0.21333   0.21689   0.22385
 Alpha virt. eigenvalues --    0.22740   0.22820   0.23336   0.23801   0.24542
 Alpha virt. eigenvalues --    0.24843   0.25121   0.25656   0.26518   0.26837
 Alpha virt. eigenvalues --    0.27152   0.27602   0.28198   0.29144   0.30262
 Alpha virt. eigenvalues --    0.31063   0.31826   0.32231   0.33065   0.34017
 Alpha virt. eigenvalues --    0.34357   0.36334   0.37982   0.38721   0.39493
 Alpha virt. eigenvalues --    0.41894   0.44829   0.46681   0.48256   0.48501
 Alpha virt. eigenvalues --    0.49945   0.50703   0.51344   0.51672   0.51920
 Alpha virt. eigenvalues --    0.52334   0.52610   0.53234   0.53490   0.53811
 Alpha virt. eigenvalues --    0.54165   0.54696   0.55240   0.56040   0.56559
 Alpha virt. eigenvalues --    0.57236   0.57428   0.57721   0.58282   0.58916
 Alpha virt. eigenvalues --    0.59410   0.59959   0.60181   0.60613   0.61567
 Alpha virt. eigenvalues --    0.62161   0.62588   0.63076   0.63469   0.64622
 Alpha virt. eigenvalues --    0.64776   0.65831   0.66580   0.67041   0.67606
 Alpha virt. eigenvalues --    0.67869   0.68281   0.68545   0.68919   0.69302
 Alpha virt. eigenvalues --    0.69706   0.70415   0.71817   0.72796   0.73050
 Alpha virt. eigenvalues --    0.73764   0.75054   0.75139   0.75528   0.76302
 Alpha virt. eigenvalues --    0.76580   0.78240   0.78676   0.79297   0.80220
 Alpha virt. eigenvalues --    0.80493   0.80862   0.81276   0.81518   0.82229
 Alpha virt. eigenvalues --    0.82570   0.82761   0.83770   0.84574   0.84742
 Alpha virt. eigenvalues --    0.85666   0.85806   0.86141   0.86588   0.87032
 Alpha virt. eigenvalues --    0.87589   0.87792   0.88420   0.88654   0.88848
 Alpha virt. eigenvalues --    0.89022   0.89445   0.89783   0.90733   0.90874
 Alpha virt. eigenvalues --    0.91094   0.91708   0.91909   0.92014   0.92271
 Alpha virt. eigenvalues --    0.92499   0.92841   0.93757   0.93889   0.94271
 Alpha virt. eigenvalues --    0.95162   0.95491   0.96307   0.96447   0.97359
 Alpha virt. eigenvalues --    0.97555   0.98381   0.98605   0.98982   0.99908
 Alpha virt. eigenvalues --    1.00980   1.01171   1.02414   1.03535   1.04268
 Alpha virt. eigenvalues --    1.04825   1.05306   1.06248   1.07625   1.07826
 Alpha virt. eigenvalues --    1.08665   1.10256   1.11280   1.11905   1.12308
 Alpha virt. eigenvalues --    1.13431   1.13877   1.14636   1.16457   1.17085
 Alpha virt. eigenvalues --    1.17631   1.18497   1.18555   1.19788   1.21139
 Alpha virt. eigenvalues --    1.21281   1.23110   1.23610   1.25103   1.25695
 Alpha virt. eigenvalues --    1.26435   1.29841   1.30375   1.30965   1.32467
 Alpha virt. eigenvalues --    1.35240   1.36186   1.37374   1.37957   1.39549
 Alpha virt. eigenvalues --    1.40225   1.40841   1.43001   1.43655   1.44761
 Alpha virt. eigenvalues --    1.47139   1.48483   1.50253   1.51406   1.53031
 Alpha virt. eigenvalues --    1.53913   1.55414   1.55858   1.56557   1.58121
 Alpha virt. eigenvalues --    1.60461   1.60710   1.62271   1.62574   1.63956
 Alpha virt. eigenvalues --    1.65963   1.66116   1.67053   1.67232   1.69148
 Alpha virt. eigenvalues --    1.70290   1.71021   1.72937   1.73081   1.73699
 Alpha virt. eigenvalues --    1.74847   1.75352   1.76925   1.77705   1.78519
 Alpha virt. eigenvalues --    1.79189   1.80367   1.80686   1.81130   1.81226
 Alpha virt. eigenvalues --    1.82203   1.82728   1.83251   1.84132   1.84909
 Alpha virt. eigenvalues --    1.85688   1.86257   1.87167   1.87737   1.88164
 Alpha virt. eigenvalues --    1.88542   1.89789   1.89934   1.91074   1.91167
 Alpha virt. eigenvalues --    1.92567   1.93049   1.93653   1.93963   1.94625
 Alpha virt. eigenvalues --    1.95916   1.96128   1.97327   1.98268   1.98946
 Alpha virt. eigenvalues --    1.99491   1.99951   2.00235   2.01542   2.02786
 Alpha virt. eigenvalues --    2.02967   2.03441   2.04197   2.05340   2.06499
 Alpha virt. eigenvalues --    2.06825   2.08194   2.08608   2.09166   2.09404
 Alpha virt. eigenvalues --    2.11414   2.12250   2.12690   2.13436   2.13724
 Alpha virt. eigenvalues --    2.14162   2.15669   2.16414   2.16964   2.18676
 Alpha virt. eigenvalues --    2.18750   2.20046   2.21372   2.22345   2.23300
 Alpha virt. eigenvalues --    2.23642   2.24683   2.25314   2.26229   2.27769
 Alpha virt. eigenvalues --    2.28223   2.28783   2.30703   2.31058   2.31624
 Alpha virt. eigenvalues --    2.32157   2.33164   2.33979   2.34787   2.35170
 Alpha virt. eigenvalues --    2.36122   2.36776   2.37093   2.38233   2.38578
 Alpha virt. eigenvalues --    2.39609   2.41159   2.41682   2.42769   2.44149
 Alpha virt. eigenvalues --    2.44378   2.45097   2.46358   2.48149   2.48801
 Alpha virt. eigenvalues --    2.49734   2.50610   2.51499   2.52729   2.54288
 Alpha virt. eigenvalues --    2.56603   2.57370   2.58391   2.58761   2.60347
 Alpha virt. eigenvalues --    2.61291   2.61962   2.63551   2.65189   2.65830
 Alpha virt. eigenvalues --    2.67749   2.68599   2.69122   2.70665   2.70904
 Alpha virt. eigenvalues --    2.71127   2.74039   2.74896   2.77509   2.78331
 Alpha virt. eigenvalues --    2.79202   2.80231   2.81980   2.82351   2.85413
 Alpha virt. eigenvalues --    2.86942   2.89129   2.90730   2.94896   2.95143
 Alpha virt. eigenvalues --    2.95892   3.00360   3.01141   3.01643   3.02339
 Alpha virt. eigenvalues --    3.05968   3.06476   3.12260   3.18791   3.20944
 Alpha virt. eigenvalues --    3.24370   3.29304   4.01143   4.08731   4.11226
 Alpha virt. eigenvalues --    4.13273   4.14178   4.17019   4.19481   4.20769
 Alpha virt. eigenvalues --    4.22311   4.24402   4.25438   4.27969   4.29794
 Alpha virt. eigenvalues --    4.32215   4.35025   4.37923   4.38035   4.42637
 Alpha virt. eigenvalues --    4.46110   4.48481   4.53043   4.56701   4.60996
 Alpha virt. eigenvalues --    4.63778   4.65124   4.69399   4.73268   4.81467
 Alpha virt. eigenvalues --    4.90374   4.99415   5.16649
          Condensed to atoms (all electrons):
 Mulliken atomic charges:
              1
     1  C   -0.196722
     2  C    0.185696
     3  C   -0.184975
     4  C    0.320896
     5  C   -0.051740
     6  C   -0.330167
     7  C    0.212001
     8  C    0.398777
     9  C   -0.088570
    10  C    0.425484
    11  C    0.425311
    12  O   -0.456724
    13  C   -0.139510
    14  C   -0.258968
    15  C   -0.455290
    16  O   -0.505022
    17  C   -0.159543
    18  C    0.311360
    19  O   -0.522903
    20  C   -0.319095
    21  O   -0.657144
    22  C   -0.327006
    23  C    0.106541
    24  O   -0.585929
    25  C    0.175876
    26  C   -0.504802
    27  C   -0.390307
    28  C   -0.461096
    29  C   -0.463713
    30  H    0.143045
    31  H    0.165548
    32  C   -0.516727
    33  H    0.123600
    34  H    0.153109
    35  H    0.178403
    36  H    0.131995
    37  H    0.126630
    38  H    0.161883
    39  H    0.144906
    40  H    0.138016
    41  H    0.171397
    42  H    0.149027
    43  H    0.160605
    44  H    0.412010
    45  H    0.168054
    46  H    0.176218
    47  H    0.136396
    48  H    0.154298
    49  H    0.165299
    50  H    0.154304
    51  H    0.150928
    52  H    0.143403
    53  H    0.188372
    54  H    0.153221
    55  H    0.136866
    56  H    0.149642
    57  H    0.161752
    58  H    0.154268
    59  H    0.158498
    60  H    0.157906
    61  H    0.151482
    62  C   -0.451464
    63  H    0.135007
    64  H    0.175908
    65  H    0.133475
 Sum of Mulliken atomic charges =   0.00000
 Mulliken charges with hydrogens summed into heavy atoms:
              1
     1  C   -0.073122
     2  C    0.185696
     3  C   -0.019427
     4  C    0.320896
     5  C   -0.051740
     6  C    0.001345
     7  C    0.212001
     8  C    0.398777
     9  C   -0.088570
    10  C    0.425484
    11  C    0.425311
    12  O   -0.456724
    13  C   -0.007515
    14  C    0.029545
    15  C   -0.000971
    16  O   -0.505022
    17  C   -0.016499
    18  C    0.311360
    19  O   -0.522903
    20  C   -0.009463
    21  O   -0.245134
    22  C    0.017265
    23  C    0.242937
    24  O   -0.585929
    25  C    0.175876
    26  C   -0.030901
    27  C   -0.095975
    28  C    0.017364
    29  C    0.001949
    32  C   -0.048840
    62  C   -0.007074
 Sum of Mulliken charges with hydrogens summed into heavy atoms =   0.00000
 Electronic spatial extent (au):  <R**2>=          11450.1000
 Charge=              0.0000 electrons
 Dipole moment (field-independent basis, Debye):
    X=             -4.4600    Y=              1.8957    Z=              4.4355  Tot=              6.5695
 Quadrupole moment (field-independent basis, Debye-Ang):
   XX=           -183.6534   YY=           -179.0168   ZZ=           -187.3287
   XY=              1.8925   XZ=             11.0584   YZ=              1.3633
 Traceless Quadrupole moment (field-independent basis, Debye-Ang):
   XX=             -0.3204   YY=              4.3162   ZZ=             -3.9958
   XY=              1.8925   XZ=             11.0584   YZ=              1.3633
 Octapole moment (field-independent basis, Debye-Ang**2):
  XXX=            -59.3702  YYY=             53.5035  ZZZ=              8.5053  XYY=            -15.1650
  XXY=             -6.5442  XXZ=              8.4207  XZZ=            -23.6908  YZZ=             -6.9850
  YYZ=              5.5412  XYZ=             -3.1534
 Hexadecapole moment (field-independent basis, Debye-Ang**3):
 XXXX=          -8252.7204 YYYY=          -3959.6935 ZZZZ=          -2977.5700 XXXY=            -17.8560
 XXXZ=            175.4369 YYYX=             17.8587 YYYZ=            -50.0732 ZZZX=             49.5457
 ZZZY=              6.4623 XXYY=          -2058.8671 XXZZ=          -1916.4085 YYZZ=          -1147.7950
 XXYZ=              3.1960 YYXZ=            -17.9835 ZZXY=             -4.6628
 N-N= 3.524814146141D+03 E-N=-1.027583727264D+04  KE= 1.374762306248D+03
 Calling FoFJK, ICntrl=      2127 FMM=T ISym2X=0 I1Cent= 0 IOpClX= 0 NMat=1 NMatS=1 NMatT=0.
 ***** Axes restored to original set *****
 -------------------------------------------------------------------
 Center     Atomic                   Forces (Hartrees/Bohr)
 Number     Number              X              Y              Z
 -------------------------------------------------------------------
      1        6           0.008838075   -0.000001248    0.000581519
      2        6          -0.012068551   -0.004761272    0.002448329
      3        6          -0.001196358   -0.007810103   -0.000536748
      4        6           0.001692504   -0.004156707    0.011398749
      5        6          -0.011521432   -0.003531077    0.001622068
      6        6          -0.004661987   -0.010294817   -0.000592250
      7        6           0.012278354    0.019470314    0.009870655
      8        6           0.018255697   -0.009471519   -0.020004335
      9        6          -0.006123796    0.001890812    0.006562112
     10        6          -0.005909671   -0.002898018   -0.021178983
     11        6          -0.005718606    0.008062744   -0.019584447
     12        8          -0.001879112   -0.011785095    0.012725420
     13        6          -0.003254357    0.000787523    0.007008063
     14        6          -0.006619278    0.000851705   -0.004869904
     15        6           0.007609449   -0.001553655   -0.003731606
     16        8           0.008305821   -0.001236480    0.009498330
     17        6           0.008173695   -0.010922067   -0.005507143
     18        6           0.030801516    0.007061541    0.000879974
     19        8          -0.030564313    0.004552533    0.027648759
     20        6           0.011686070   -0.004416161    0.001035012
     21        8          -0.006450593    0.006819403   -0.004446838
     22        6          -0.006863204    0.014129388    0.001016260
     23        6          -0.005165210    0.007839013    0.001027932
     24        8           0.002030574   -0.006806836   -0.009741208
     25        6          -0.002810550    0.015159502    0.000174103
     26        6           0.001327992    0.001619547    0.000370918
     27        6           0.000939762   -0.009973384   -0.001103728
     28        6          -0.002913402    0.007755511   -0.005317942
     29        6          -0.003365762   -0.006005003   -0.009212632
     30        1          -0.001943013    0.000964939   -0.001451859
     31        1          -0.003328379    0.005868884   -0.000108748
     32        6          -0.001209626    0.000892289   -0.001379086
     33        1           0.001559114   -0.001073974   -0.000165213
     34        1          -0.000136349    0.005620609    0.001625428
     35        1           0.000919025    0.007428113   -0.002133439
     36        1          -0.000035622    0.002294972    0.000315562
     37        1           0.000358583   -0.001080552    0.002785267
     38        1           0.001245915   -0.001411031    0.003298771
     39        1          -0.000516702   -0.000986282   -0.000051128
     40        1           0.000591654   -0.001120259    0.000337377
     41        1          -0.001491429    0.000030468    0.000279408
     42        1          -0.001268925   -0.002114188   -0.001602134
     43        1           0.000398826    0.002727434   -0.000346983
     44        1          -0.002076425   -0.004140462   -0.002119123
     45        1           0.001381912   -0.002986390   -0.000988989
     46        1           0.002061517    0.000638960    0.003412363
     47        1          -0.001711280   -0.001148095    0.002933814
     48        1           0.002480792   -0.002631291    0.001855498
     49        1           0.000912247   -0.003257182    0.002510814
     50        1          -0.001365014   -0.000224109   -0.001741999
     51        1          -0.000193004   -0.000405376   -0.001350297
     52        1          -0.000107811   -0.000629171    0.001089031
     53        1          -0.001277765   -0.002718922    0.005416179
     54        1           0.001888942   -0.003862754    0.000601088
     55        1           0.000525870   -0.000934492    0.000376124
     56        1          -0.000751537    0.001140353    0.000606366
     57        1           0.000448936    0.002811211    0.001476501
     58        1          -0.000302191   -0.000218408    0.003749206
     59        1          -0.001097617    0.001725607   -0.000567598
     60        1           0.004535087   -0.001808611    0.000387063
     61        1           0.004027760   -0.001137482    0.000050100
     62        6          -0.000988426    0.002211394   -0.005324557
     63        1           0.001063359   -0.000086551   -0.001504349
     64        1           0.001539865   -0.000175114    0.000462364
     65        1          -0.000991613   -0.000580635   -0.000773265
 -------------------------------------------------------------------
 Cartesian Forces:  Max     0.030801516 RMS     0.006664538

 GradGradGradGradGradGradGradGradGradGradGradGradGradGradGradGradGradGrad
 Berny optimization.
 Internal  Forces:  Max     0.023707097 RMS     0.003385888
 Search for a local minimum.
 Step number   1 out of a maximum of  390
 All quantities printed in internal units (Hartrees-Bohrs-Radians)
 Mixed Optimization -- RFO/linear search
 Second derivative matrix not updated -- first step.
 ITU=  0
     Eigenvalues ---    0.00271   0.00278   0.00330   0.00395   0.00419
     Eigenvalues ---    0.00432   0.00458   0.00552   0.00603   0.00611
     Eigenvalues ---    0.00631   0.00661   0.00684   0.00688   0.00717
     Eigenvalues ---    0.00916   0.01079   0.01237   0.01245   0.01375
     Eigenvalues ---    0.01469   0.01608   0.01709   0.01789   0.01913
     Eigenvalues ---    0.02492   0.02828   0.02828   0.03036   0.03121
     Eigenvalues ---    0.03245   0.03601   0.03603   0.03731   0.04039
     Eigenvalues ---    0.04119   0.04320   0.04415   0.04579   0.04663
     Eigenvalues ---    0.04730   0.04771   0.04924   0.05098   0.05241
     Eigenvalues ---    0.05304   0.05381   0.05417   0.05429   0.05445
     Eigenvalues ---    0.05502   0.05505   0.05546   0.05625   0.05634
     Eigenvalues ---    0.05715   0.05925   0.05948   0.06290   0.06654
     Eigenvalues ---    0.06703   0.06858   0.07089   0.07115   0.07166
     Eigenvalues ---    0.07247   0.07249   0.07337   0.07622   0.08377
     Eigenvalues ---    0.08810   0.08868   0.09003   0.09139   0.09745
     Eigenvalues ---    0.10098   0.10632   0.10835   0.11616   0.12584
     Eigenvalues ---    0.13125   0.14678   0.15165   0.15961   0.16000
     Eigenvalues ---    0.16000   0.16000   0.16000   0.16000   0.16000
     Eigenvalues ---    0.16000   0.16000   0.16000   0.16000   0.16000
     Eigenvalues ---    0.16000   0.16000   0.16000   0.16000   0.16000
     Eigenvalues ---    0.16000   0.16000   0.16000   0.16000   0.16000
     Eigenvalues ---    0.16496   0.17287   0.17402   0.18143   0.18313
     Eigenvalues ---    0.19658   0.21533   0.21978   0.22769   0.23560
     Eigenvalues ---    0.24516   0.24911   0.24968   0.24984   0.24987
     Eigenvalues ---    0.24994   0.25000   0.25000   0.25951   0.27186
     Eigenvalues ---    0.27444   0.27706   0.27841   0.28224   0.28303
     Eigenvalues ---    0.28637   0.28751   0.28794   0.29152   0.29607
     Eigenvalues ---    0.29776   0.30051   0.30277   0.30489   0.31178
     Eigenvalues ---    0.31558   0.31720   0.31765   0.33052   0.33599
     Eigenvalues ---    0.33676   0.33947   0.33978   0.34006   0.34013
     Eigenvalues ---    0.34028   0.34033   0.34037   0.34058   0.34062
     Eigenvalues ---    0.34070   0.34116   0.34129   0.34135   0.34144
     Eigenvalues ---    0.34200   0.34201   0.34224   0.34229   0.34241
     Eigenvalues ---    0.34252   0.34266   0.34274   0.34275   0.34285
     Eigenvalues ---    0.34311   0.34338   0.34351   0.34464   0.34473
     Eigenvalues ---    0.34970   0.35201   0.35361   0.35452   0.36521
     Eigenvalues ---    0.37153   0.42937   0.43300   0.51780   0.53235
     Eigenvalues ---    0.54263   0.56286   0.89684   0.90978
 RFO step:  Lambda=-2.09698357D-02 EMin= 2.71293241D-03
 Linear search not attempted -- first point.
 Iteration  1 RMS(Cart)=  0.05808735 RMS(Int)=  0.00076402
 Iteration  2 RMS(Cart)=  0.00151830 RMS(Int)=  0.00022501
 Iteration  3 RMS(Cart)=  0.00000069 RMS(Int)=  0.00022501
 Variable       Old X    -DE/DX   Delta X   Delta X   Delta X     New X
                                 (Linear)    (Quad)   (Total)
    R1        2.53545  -0.00210   0.00000  -0.00441  -0.00443   2.53101
    R2        2.82531   0.00829   0.00000   0.02506   0.02500   2.85031
    R3        2.05724   0.00014   0.00000   0.00037   0.00037   2.05761
    R4        2.85741   0.00341   0.00000   0.00717   0.00720   2.86461
    R5        2.84576   0.00337   0.00000   0.00995   0.00995   2.85571
    R6        2.94175   0.00472   0.00000   0.01069   0.01069   2.95244
    R7        2.90823   0.01123   0.00000   0.03902   0.03901   2.94724
    R8        2.07880  -0.00077   0.00000  -0.00216  -0.00216   2.07664
    R9        2.90130   0.00854   0.00000   0.02700   0.02684   2.92814
   R10        2.91182   0.00814   0.00000   0.02674   0.02679   2.93861
   R11        2.76138  -0.00487   0.00000  -0.01165  -0.01166   2.74972
   R12        2.91564  -0.00109   0.00000  -0.00091  -0.00098   2.91466
   R13        2.90315   0.00612   0.00000   0.01359   0.01353   2.91668
   R14        2.89109   0.01303   0.00000   0.04235   0.04232   2.93341
   R15        2.07232   0.00276   0.00000   0.00762   0.00762   2.07994
   R16        2.07308  -0.00147   0.00000  -0.00408  -0.00408   2.06901
   R17        2.81898   0.00968   0.00000   0.02080   0.02040   2.83938
   R18        2.86048   0.01476   0.00000   0.05376   0.05326   2.91375
   R19        2.67747   0.00252   0.00000   0.00560   0.00560   2.68307
   R20        2.52891   0.01612   0.00000   0.02807   0.02813   2.55704
   R21        2.63431  -0.02371   0.00000  -0.05593  -0.05575   2.57857
   R22        2.80035  -0.00418   0.00000  -0.01510  -0.01503   2.78531
   R23        2.81312   0.01088   0.00000   0.03047   0.03047   2.84359
   R24        2.33079  -0.01061   0.00000  -0.01156  -0.01156   2.31923
   R25        2.32485  -0.01728   0.00000  -0.01857  -0.01857   2.30628
   R26        2.88755   0.00147   0.00000   0.00465   0.00465   2.89219
   R27        2.90525   0.00681   0.00000   0.02208   0.02208   2.92734
   R28        2.88412   0.00778   0.00000   0.02442   0.02442   2.90855
   R29        2.07420  -0.00060   0.00000  -0.00166  -0.00166   2.07254
   R30        2.07368   0.00121   0.00000   0.00335   0.00335   2.07703
   R31        2.07267  -0.00053   0.00000  -0.00147  -0.00147   2.07121
   R32        2.87863   0.00729   0.00000   0.02269   0.02269   2.90131
   R33        2.06852   0.00109   0.00000   0.00301   0.00301   2.07153
   R34        2.07134   0.00072   0.00000   0.00199   0.00199   2.07333
   R35        2.06945  -0.00071   0.00000  -0.00196  -0.00196   2.06749
   R36        2.91469  -0.00107   0.00000   0.00923   0.00950   2.92419
   R37        2.90527   0.00424   0.00000   0.01516   0.01516   2.92043
   R38        2.07113  -0.00163   0.00000  -0.00450  -0.00450   2.06663
[...]
     54          1           0        0.720232    3.712291   -2.992127
     55          1           0       -0.894765    4.249704   -2.486508
     56          1           0        0.082015    5.100477   -0.239790
     57          1           0        1.661427    4.629723   -0.896665
     58          1           0        1.157245    4.037882    0.693193
     59          1           0       -0.513471    0.854851    5.073291
     60          1           0       -0.122501    2.173413    3.957741
     61          1           0       -1.800226    1.872100    4.398925
     62          6           0        5.278465   -2.105096   -1.519835
     63          1           0        6.210151   -1.613684   -1.217964
     64          1           0        4.805286   -1.474233   -2.278055
     65          1           0        5.547994   -3.058988   -1.988886
 ---------------------------------------------------------------------
 Rotational constants (GHZ):      0.1943683      0.1257822      0.1136330

 **********************************************************************

            Population analysis using the SCF density.

 **********************************************************************

 Orbital symmetries:
       Occupied  (A) (A) (A) (A) (A) (A) (A) (A) (A) (A) (A) (A)
                 (A) (A) (A) (A) (A) (A) (A) (A) (A) (A) (A) (A)
                 (A) (A) (A) (A) (A) (A) (A) (A) (A) (A) (A) (A)
                 (A) (A) (A) (A) (A) (A) (A) (A) (A) (A) (A) (A)
                 (A) (A) (A) (A) (A) (A) (A) (A) (A) (A) (A) (A)
                 (A) (A) (A) (A) (A) (A) (A) (A) (A) (A) (A) (A)
                 (A) (A) (A) (A) (A) (A) (A) (A) (A) (A) (A) (A)
                 (A) (A) (A) (A) (A) (A) (A) (A) (A) (A) (A) (A)
                 (A) (A) (A) (A) (A) (A) (A) (A) (A) (A) (A) (A)
                 (A) (A) (A) (A) (A) (A) (A)
       Virtual   (A) (A) (A) (A) (A) (A) (A) (A) (A) (A) (A) (A)
                 (A) (A) (A) (A) (A) (A) (A) (A) (A) (A) (A) (A)
                 (A) (A) (A) (A) (A) (A) (A) (A) (A) (A) (A) (A)
                 (A) (A) (A) (A) (A) (A) (A) (A) (A) (A) (A) (A)
                 (A) (A) (A) (A) (A) (A) (A) (A) (A) (A) (A) (A)
                 (A) (A) (A) (A) (A) (A) (A) (A) (A) (A) (A) (A)
                 (A) (A) (A) (A) (A) (A) (A) (A) (A) (A) (A) (A)
                 (A) (A) (A) (A) (A) (A) (A) (A) (A) (A) (A) (A)
                 (A) (A) (A) (A) (A) (A) (A) (A) (A) (A) (A) (A)
                 (A) (A) (A) (A) (A) (A) (A) (A) (A) (A) (A) (A)
                 (A) (A) (A) (A) (A) (A) (A) (A) (A) (A) (A) (A)
                 (A) (A) (A) (A) (A) (A) (A) (A) (A) (A) (A) (A)
                 (A) (A) (A) (A) (A) (A) (A) (A) (A) (A) (A) (A)
                 (A) (A) (A) (A) (A) (A) (A) (A) (A) (A) (A) (A)
                 (A) (A) (A) (A) (A) (A) (A) (A) (A) (A) (A) (A)
                 (A) (A) (A) (A) (A) (A) (A) (A) (A) (A) (A) (A)
                 (A) (A) (A) (A) (A) (A) (A) (A) (A) (A) (A) (A)
                 (A) (A) (A) (A) (A) (A) (A) (A) (A) (A) (A) (A)
                 (A) (A) (A) (A) (A) (A) (A) (A) (A) (A) (A) (A)
                 (A) (A) (A) (A) (A) (A) (A) (A) (A) (A) (A) (A)
                 (A) (A) (A) (A) (A) (A) (A) (A) (A) (A) (A) (A)
                 (A) (A) (A) (A) (A) (A) (A) (A) (A) (A) (A) (A)
                 (A) (A) (A) (A) (A) (A) (A) (A) (A) (A) (A) (A)
                 (A) (A) (A) (A) (A) (A) (A) (A) (A) (A) (A) (A)
                 (A) (A) (A) (A) (A) (A) (A) (A) (A) (A) (A) (A)
                 (A) (A) (A) (A) (A) (A) (A) (A) (A) (A) (A) (A)
                 (A) (A) (A) (A) (A) (A) (A) (A) (A) (A) (A) (A)
                 (A) (A) (A) (A) (A) (A) (A) (A) (A) (A) (A) (A)
                 (A) (A) (A) (A) (A) (A) (A) (A) (A) (A) (A) (A)
                 (A) (A) (A) (A) (A) (A) (A) (A) (A) (A) (A) (A)
                 (A) (A) (A) (A) (A) (A) (A) (A) (A) (A) (A) (A)
                 (A) (A) (A) (A) (A) (A) (A) (A) (A) (A) (A) (A)
                 (A) (A) (A) (A) (A) (A) (A) (A) (A) (A) (A) (A)
                 (A) (A) (A) (A) (A) (A) (A) (A) (A) (A) (A) (A)
                 (A) (A) (A) (A) (A) (A) (A) (A) (A) (A)
 The electronic state is 1-A.
 Alpha  occ. eigenvalues --  -19.19865 -19.16812 -19.15897 -19.12743 -19.11648
 Alpha  occ. eigenvalues --  -10.27753 -10.27214 -10.26698 -10.25914 -10.25873
 Alpha  occ. eigenvalues --  -10.25760 -10.25255 -10.21421 -10.20856 -10.20690
 Alpha  occ. eigenvalues --  -10.20580 -10.20135 -10.19687 -10.19562 -10.19266
 Alpha  occ. eigenvalues --  -10.19062 -10.19025 -10.18954 -10.18942 -10.18826
 Alpha  occ. eigenvalues --  -10.18438 -10.18058 -10.17334 -10.16268 -10.15919
 Alpha  occ. eigenvalues --  -10.15023  -1.09591  -1.06036  -1.02997  -1.02559
 Alpha  occ. eigenvalues --   -1.01598  -0.86861  -0.83685  -0.82451  -0.81433
 Alpha  occ. eigenvalues --   -0.80367  -0.78431  -0.76674  -0.74406  -0.73296
 Alpha  occ. eigenvalues --   -0.71803  -0.70499  -0.69968  -0.69553  -0.67991
 Alpha  occ. eigenvalues --   -0.65423  -0.63970  -0.63500  -0.61483  -0.60700
 Alpha  occ. eigenvalues --   -0.59537  -0.58054  -0.57044  -0.54554  -0.53561
 Alpha  occ. eigenvalues --   -0.52764  -0.51739  -0.50770  -0.50428  -0.49298
 Alpha  occ. eigenvalues --   -0.48235  -0.47152  -0.46580  -0.46316  -0.45760
 Alpha  occ. eigenvalues --   -0.45323  -0.44598  -0.44140  -0.43465  -0.43366
 Alpha  occ. eigenvalues --   -0.42592  -0.42238  -0.42052  -0.41642  -0.41588
 Alpha  occ. eigenvalues --   -0.40889  -0.40610  -0.40242  -0.39978  -0.39302
 Alpha  occ. eigenvalues --   -0.39149  -0.38431  -0.38186  -0.37899  -0.37683
 Alpha  occ. eigenvalues --   -0.37460  -0.37302  -0.37045  -0.36729  -0.36484
 Alpha  occ. eigenvalues --   -0.36296  -0.35632  -0.35116  -0.34481  -0.34210
 Alpha  occ. eigenvalues --   -0.33751  -0.33650  -0.32717  -0.32487  -0.32133
 Alpha  occ. eigenvalues --   -0.31381  -0.30369  -0.30015  -0.28155  -0.26736
 Alpha  occ. eigenvalues --   -0.26408  -0.24565  -0.24327  -0.23517  -0.22140
 Alpha virt. eigenvalues --   -0.05188  -0.01317   0.00256   0.01874   0.06313
 Alpha virt. eigenvalues --    0.07860   0.08445   0.08878   0.09541   0.10372
 Alpha virt. eigenvalues --    0.10716   0.10987   0.11195   0.11991   0.12543
 Alpha virt. eigenvalues --    0.12955   0.13174   0.13531   0.13950   0.14078
 Alpha virt. eigenvalues --    0.14650   0.15031   0.15082   0.16112   0.16375
 Alpha virt. eigenvalues --    0.16607   0.16848   0.16997   0.17128   0.17262
 Alpha virt. eigenvalues --    0.17666   0.18157   0.18361   0.18775   0.18950
 Alpha virt. eigenvalues --    0.19255   0.19651   0.20156   0.20379   0.20440
 Alpha virt. eigenvalues --    0.20763   0.21080   0.21709   0.21886   0.22333
 Alpha virt. eigenvalues --    0.22574   0.22971   0.23481   0.23559   0.24285
 Alpha virt. eigenvalues --    0.24864   0.25160   0.25424   0.26496   0.26801
 Alpha virt. eigenvalues --    0.27412   0.27562   0.28031   0.29053   0.29786
 Alpha virt. eigenvalues --    0.30856   0.31600   0.32269   0.32536   0.33488
 Alpha virt. eigenvalues --    0.34082   0.36058   0.37699   0.39506   0.40369
 Alpha virt. eigenvalues --    0.41990   0.45220   0.46629   0.48224   0.48508
 Alpha virt. eigenvalues --    0.49204   0.50483   0.51143   0.51375   0.51935
 Alpha virt. eigenvalues --    0.52042   0.52686   0.53208   0.53467   0.53655
 Alpha virt. eigenvalues --    0.54061   0.54426   0.55281   0.55544   0.56390
 Alpha virt. eigenvalues --    0.57172   0.57465   0.57738   0.58397   0.58717
 Alpha virt. eigenvalues --    0.59575   0.60143   0.60504   0.61228   0.62020
 Alpha virt. eigenvalues --    0.62278   0.62586   0.62956   0.63181   0.64013
 Alpha virt. eigenvalues --    0.65414   0.65940   0.66513   0.66728   0.67496
 Alpha virt. eigenvalues --    0.68054   0.68420   0.68937   0.69151   0.69579
 Alpha virt. eigenvalues --    0.70091   0.70612   0.71719   0.71995   0.73104
 Alpha virt. eigenvalues --    0.74213   0.74776   0.75417   0.75785   0.76224
 Alpha virt. eigenvalues --    0.76671   0.77757   0.78634   0.79355   0.79973
 Alpha virt. eigenvalues --    0.80168   0.80763   0.81298   0.82160   0.82571
 Alpha virt. eigenvalues --    0.82966   0.83660   0.84049   0.84584   0.85268
 Alpha virt. eigenvalues --    0.85846   0.86288   0.86665   0.87089   0.87376
 Alpha virt. eigenvalues --    0.87756   0.87981   0.88312   0.88745   0.89047
 Alpha virt. eigenvalues --    0.89339   0.89825   0.90297   0.90471   0.90504
 Alpha virt. eigenvalues --    0.90989   0.91220   0.91333   0.92299   0.92744
 Alpha virt. eigenvalues --    0.93325   0.93513   0.93810   0.94474   0.94607
 Alpha virt. eigenvalues --    0.95190   0.95737   0.96146   0.96761   0.97226
 Alpha virt. eigenvalues --    0.97398   0.98051   0.98438   0.98728   1.00483
 Alpha virt. eigenvalues --    1.00739   1.01810   1.02408   1.03194   1.03337
 Alpha virt. eigenvalues --    1.04254   1.05473   1.06178   1.07934   1.08624
 Alpha virt. eigenvalues --    1.09023   1.10153   1.10854   1.12219   1.12844
 Alpha virt. eigenvalues --    1.13267   1.14719   1.15135   1.15736   1.16742
 Alpha virt. eigenvalues --    1.17835   1.18916   1.19547   1.21037   1.21088
 Alpha virt. eigenvalues --    1.22586   1.23130   1.25607   1.25961   1.27335
 Alpha virt. eigenvalues --    1.28338   1.29538   1.30568   1.31050   1.33559
 Alpha virt. eigenvalues --    1.35134   1.35663   1.37482   1.38450   1.39157
 Alpha virt. eigenvalues --    1.40279   1.41289   1.43771   1.44842   1.45187
 Alpha virt. eigenvalues --    1.45994   1.48796   1.49257   1.51568   1.52836
 Alpha virt. eigenvalues --    1.53257   1.53859   1.55708   1.56733   1.58319
 Alpha virt. eigenvalues --    1.59677   1.60211   1.61411   1.62356   1.63376
 Alpha virt. eigenvalues --    1.65107   1.65675   1.66753   1.67403   1.68826
 Alpha virt. eigenvalues --    1.69616   1.71627   1.72164   1.73046   1.73172
 Alpha virt. eigenvalues --    1.74544   1.74991   1.76253   1.77577   1.78035
 Alpha virt. eigenvalues --    1.78727   1.78850   1.79973   1.80114   1.80407
 Alpha virt. eigenvalues --    1.82589   1.82850   1.83242   1.84304   1.85264
 Alpha virt. eigenvalues --    1.85708   1.86413   1.86548   1.86907   1.88075
 Alpha virt. eigenvalues --    1.88684   1.89532   1.89795   1.90069   1.91403
 Alpha virt. eigenvalues --    1.92108   1.92735   1.93714   1.94788   1.94993
 Alpha virt. eigenvalues --    1.95634   1.96672   1.97318   1.97779   1.98163
 Alpha virt. eigenvalues --    1.98392   1.99623   1.99965   2.00411   2.01287
 Alpha virt. eigenvalues --    2.01655   2.01842   2.03969   2.04517   2.05660
 Alpha virt. eigenvalues --    2.06376   2.07842   2.08657   2.09391   2.09830
 Alpha virt. eigenvalues --    2.11144   2.11322   2.11746   2.12701   2.13859
 Alpha virt. eigenvalues --    2.13955   2.14561   2.16109   2.16619   2.17760
 Alpha virt. eigenvalues --    2.18701   2.19176   2.19855   2.21229   2.22369
 Alpha virt. eigenvalues --    2.23926   2.24160   2.24779   2.26337   2.27371
 Alpha virt. eigenvalues --    2.28484   2.28687   2.30121   2.30899   2.31433
 Alpha virt. eigenvalues --    2.32658   2.33521   2.33958   2.34136   2.34722
 Alpha virt. eigenvalues --    2.35525   2.36333   2.37349   2.38251   2.39431
 Alpha virt. eigenvalues --    2.40107   2.40877   2.41710   2.43233   2.43724
 Alpha virt. eigenvalues --    2.43901   2.45980   2.46095   2.48131   2.48849
 Alpha virt. eigenvalues --    2.49369   2.50129   2.52028   2.52585   2.54389
 Alpha virt. eigenvalues --    2.55068   2.56795   2.58204   2.58476   2.60247
 Alpha virt. eigenvalues --    2.60764   2.63074   2.63643   2.64704   2.65441
 Alpha virt. eigenvalues --    2.67039   2.67677   2.68350   2.69286   2.70517
 Alpha virt. eigenvalues --    2.71081   2.72067   2.73819   2.75916   2.76853
 Alpha virt. eigenvalues --    2.77358   2.79337   2.81499   2.82573   2.84469
 Alpha virt. eigenvalues --    2.86608   2.88652   2.89534   2.94534   2.95701
 Alpha virt. eigenvalues --    2.96727   3.00097   3.00734   3.01758   3.03542
 Alpha virt. eigenvalues --    3.05956   3.07572   3.11738   3.18239   3.21068
 Alpha virt. eigenvalues --    3.26395   3.29893   4.03231   4.05000   4.08642
 Alpha virt. eigenvalues --    4.12069   4.13236   4.13725   4.17222   4.19020
 Alpha virt. eigenvalues --    4.22573   4.23594   4.24768   4.27641   4.30079
 Alpha virt. eigenvalues --    4.32103   4.33880   4.36749   4.38082   4.43117
 Alpha virt. eigenvalues --    4.45319   4.49302   4.53137   4.55816   4.60724
 Alpha virt. eigenvalues --    4.64586   4.66593   4.70568   4.72678   4.80852
 Alpha virt. eigenvalues --    4.89503   5.01975   5.17263
          Condensed to atoms (all electrons):
 Mulliken atomic charges:
              1
     1  C   -0.190678
     2  C    0.191629
     3  C   -0.188373
     4  C    0.323465
     5  C   -0.051808
     6  C   -0.334384
     7  C    0.197253
     8  C    0.399740
     9  C   -0.073797
    10  C    0.409118
    11  C    0.416415
    12  O   -0.469283
    13  C   -0.137044
    14  C   -0.264521
    15  C   -0.451227
    16  O   -0.512436
    17  C   -0.162749
    18  C    0.298939
    19  O   -0.493090
    20  C   -0.321679
    21  O   -0.653320
    22  C   -0.324353
    23  C    0.094335
    24  O   -0.591314
    25  C    0.182533
    26  C   -0.507830
    27  C   -0.393372
    28  C   -0.468011
    29  C   -0.459426
    30  H    0.145296
    31  H    0.165099
    32  C   -0.519575
    33  H    0.122627
    34  H    0.147252
    35  H    0.183362
    36  H    0.136997
    37  H    0.127109
    38  H    0.162329
    39  H    0.135365
    40  H    0.133734
    41  H    0.171027
    42  H    0.152210
    43  H    0.162186
    44  H    0.414318
    45  H    0.168784
    46  H    0.172098
    47  H    0.138243
    48  H    0.156106
    49  H    0.170649
    50  H    0.154908
    51  H    0.154435
    52  H    0.142944
    53  H    0.194192
    54  H    0.164644
    55  H    0.141870
    56  H    0.150352
    57  H    0.170578
    58  H    0.159558
    59  H    0.158238
    60  H    0.156626
    61  H    0.151879
    62  C   -0.447770
    63  H    0.138640
    64  H    0.166786
    65  H    0.132170
 Sum of Mulliken atomic charges =   0.00000
 Mulliken charges with hydrogens summed into heavy atoms:
              1
     1  C   -0.068051
     2  C    0.191629
     3  C   -0.023273
     4  C    0.323465
     5  C   -0.051808
     6  C   -0.003770
     7  C    0.197253
     8  C    0.399740
     9  C   -0.073797
    10  C    0.409118
    11  C    0.416415
    12  O   -0.469283
    13  C   -0.000047
    14  C    0.024917
    15  C   -0.011101
    16  O   -0.512436
    17  C   -0.017452
    18  C    0.298939
    19  O   -0.493090
    20  C   -0.007284
    21  O   -0.239001
    22  C    0.016529
    23  C    0.232578
    24  O   -0.591314
    25  C    0.182533
    26  C   -0.026167
    27  C   -0.095993
    28  C    0.032695
    29  C    0.021062
    32  C   -0.052831
    62  C   -0.010175
 Sum of Mulliken charges with hydrogens summed into heavy atoms =   0.00000
 Electronic spatial extent (au):  <R**2>=          11676.8899
 Charge=              0.0000 electrons
 Dipole moment (field-independent basis, Debye):
    X=             -5.5556    Y=              2.4378    Z=              2.4200  Tot=              6.5318
 Quadrupole moment (field-independent basis, Debye-Ang):
   XX=           -188.4900   YY=           -175.3109   ZZ=           -183.5599
   XY=              1.7294   XZ=              8.1749   YZ=              2.6095
 Traceless Quadrupole moment (field-independent basis, Debye-Ang):
   XX=             -6.0364   YY=              7.1427   ZZ=             -1.1063
   XY=              1.7294   XZ=              8.1749   YZ=              2.6095
 Octapole moment (field-independent basis, Debye-Ang**2):
  XXX=            -68.8288  YYY=             64.8181  ZZZ=              2.5512  XYY=            -20.8176
  XXY=            -16.0753  XXZ=              3.8977  XZZ=            -17.8747  YZZ=             -2.9786
  YYZ=            -14.9195  XYZ=             -0.5179
 Hexadecapole moment (field-independent basis, Debye-Ang**3):
 XXXX=          -8172.3881 YYYY=          -4237.5321 ZZZZ=          -3140.4535 XXXY=              8.4124
 XXXZ=            167.2228 YYYX=             27.1984 YYYZ=            -51.4950 ZZZX=             36.7554
 ZZZY=             -7.5822 XXYY=          -2084.7109 XXZZ=          -1899.7696 YYZZ=          -1205.6609
 XXYZ=             20.7483 YYXZ=            -10.2826 ZZXY=             14.7744
 N-N= 3.500668174229D+03 E-N=-1.022771444538D+04  KE= 1.374452979457D+03
 1\1\GINC-B0606\FOpt\RB3LYP\6-31G(d)\C26H34O5\CAOFEI\24-Mar-2021\0\\# o
 pt rb3lyp/6-31g(d) geom=connectivity\\Title Card Required\\0,1\C,0.290
 8084878,-0.1061936884,0.26534628\C,1.6237699973,-0.0035488012,0.321141
 5204\C,2.3164357166,1.3369596863,0.1916646178\C,1.427867747,2.52007530
 56,-0.3065694021\C,-0.039197665,2.2346912502,-0.7156519551\C,-0.642565
 1173,1.0596117506,0.093814232\C,2.2499848936,3.1708545928,-1.449766761
 8\C,1.9772386564,2.5683536147,-2.8169862616\C,0.7723126936,2.064709974
 9,-3.2226941124\C,-0.3022763083,1.9688682484,-2.2246567985\C,0.5970498
 672,1.5895812525,-4.6423856375\O,1.2841629426,2.0821938396,-5.52657345
 47\C,-0.383705927,0.4585163326,-4.9730339172\C,-1.6747930143,1.0174859
 393,-5.6350971839\C,0.3226671577,-0.5857665958,-5.854784385\O,-1.45452
 21126,1.6799187509,-2.538202524\C,3.723372043,2.7466370379,-1.27595268
 52\C,4.2839363815,2.8771323352,-2.7100352328\O,3.0913070278,2.55459162
 24,-3.5428092243\C,3.5702470228,1.3128062199,-0.7313449081\O,2.0148776
 603,4.5623828099,-1.5477891429\C,-0.742349514,3.5641715755,-0.32962055
 22\C,-0.0166086663,3.9699156448,0.9487305513\O,1.3530560258,3.51058713
 26,0.7510659163\C,0.0227656374,5.4323383758,1.3409345193\C,0.842440175
 5,5.7355201204,2.5723615398\C,-0.6469251568,6.3797484158,0.6771491437\
 C,4.7216128914,4.3014538136,-3.0581735208\C,5.3574749279,1.8687591527,
 -3.1110303661\H,4.2504391383,3.3966201126,-0.5709426375\H,2.6497168291
 ,1.6440444548,1.193250455\C,2.5031710339,-1.200219634,0.5886786182\H,-
 0.1691550095,-1.0845430741,0.3994506837\H,-0.9478880687,1.4182749276,1
 .088370337\H,-1.5638189457,0.7540103624,-0.4104962843\H,-0.6984643116,
 -0.0180746855,-4.0408895519\H,-2.3770626961,0.1765882789,-5.7235331048
 \H,-2.1330636555,1.7239098102,-4.935809006\H,-0.3847365247,-1.36779733
 47,-6.1551660745\H,1.1463838339,-1.0673034221,-5.3143377419\H,0.739844
 5811,-0.1258198451,-6.7538621554\H,4.4633023877,0.962848409,-0.2058478
 56\H,3.3920531059,0.6170865099,-1.5587913304\H,1.8930537259,4.84976257
 56,-0.6207066276\H,-1.8176763397,3.4265714563,-0.1907374127\H,-0.58337
 22896,4.3109929617,-1.1120674941\H,-0.4207614864,3.4064773226,1.804702
 8405\H,0.4534875285,5.1915572127,3.4441815834\H,1.8817775912,5.4131621
 349,2.441578171\H,0.8340066224,6.8041618101,2.80578065\H,-1.251869356,
 6.1692721594,-0.1989197566\H,-0.6195224905,7.4165777544,1.0028884339\H
 ,3.9504674186,5.0251407981,-2.788991075\H,4.9215652038,4.3748062297,-4
 .1318038659\H,5.6431971989,4.5493444935,-2.518898748\H,6.2612300782,2.
 0306823034,-2.5131249443\H,5.6168010384,2.0012059947,-4.1658432142\H,5
 .0279238159,0.8366951575,-2.9703253096\H,1.9046697027,-2.105260439,0.7
 308126354\H,3.207686885,-1.3896465866,-0.2314552134\H,3.1095612732,-1.
 0508881054,1.4935979208\C,-1.4999021795,1.6764568004,-7.0077020279\H,-
 1.1480055894,0.9644808841,-7.7626260861\H,-0.7804704535,2.4998365534,-
 6.9723812079\H,-2.459714068,2.0762299487,-7.356283897\\Version=EM64L-G
 09RevB.01\State=1-A\HF=-1387.3193332\RMSD=4.190e-09\RMSF=3.737e-06\Dip
 ole=1.1946487,-0.0272437,2.275062\Quadrupole=4.7012619,3.6401084,-8.34
 13704,-2.1980575,-1.432646,2.7418304\PG=C01 [X(C26H34O5)]\\@


 UNLESS WE CHANGE DIRECTIONS, WE WILL WIND UP WHERE WE ARE HEADED.
     -- CONFUCIUS
 Job cpu time:  0 days  5 hours 13 minutes  8.7 seconds.
 File lengths (MBytes):  RWF=    186 Int=      0 D2E=      0 Chk=     20 Scr=      1
 Normal termination of Gaussian 09 at Wed Mar 24 15:48:08 2021.
