 Entering Gaussian System, Link 0=g09
 Initial command:
 /public/software/g09/g09/l1.exe /tmp/Gau-2646.inp -scrdir=/tmp/
 Entering Link 1 = /public/software/g09/g09/l1.exe PID=      2647.
  
 Copyright (c) 1988,1990,1992,1993,1995,1998,2003,2009,2010,
            Gaussian, Inc.  All Rights Reserved.
  
 This is part of the Gaussian(R) 09 program.  It is based on
 the Gaussian(R) 03 system (copyright 2003, Gaussian, Inc.),
 the Gaussian(R) 98 system (copyright 1998, Gaussian, Inc.),
 the Gaussian(R) 94 system (copyright 1995, Gaussian, Inc.),
 the Gaussian 92(TM) system (copyright 1992, Gaussian, Inc.),
 the Gaussian 90(TM) system (copyright 1990, Gaussian, Inc.),
 the Gaussian 88(TM) system (copyright 1988, Gaussian, Inc.),
 the Gaussian 86(TM) system (copyright 1986, Carnegie Mellon
 University), and the Gaussian 82(TM) system (copyright 1983,
 Carnegie Mellon University). Gaussian is a federally registered
 trademark of Gaussian, Inc.
  
 This software contains proprietary and confidential information,
 including trade secrets, belonging to Gaussian, Inc.
  
 This software is provided under written license and may be
 used, copied, transmitted, or stored only in accord with that
 written license.
  
 The following legend is applicable only to US Government
 contracts under FAR:
  
                    RESTRICTED RIGHTS LEGEND
  
 Use, reproduction and disclosure by the US Government is
 subject to restrictions as set forth in subparagraphs (a)
 and (c) of the Commercial Computer Software - Restricted
 Rights clause in FAR 52.227-19.
  
 Gaussian, Inc.
 340 Quinnipiac St., Bldg. 40, Wallingford CT 06492
  
  
 ---------------------------------------------------------------
 Warning -- This program may not be used in any manner that
 competes with the business of Gaussian, Inc. or will provide
 assistance to any competitor of Gaussian, Inc.  The licensee
 of this program is prohibited from giving any competitor of
 Gaussian, Inc. access to this program.  By using this program,
 the user acknowledges that Gaussian, Inc. is engaged in the
 business of creating and licensing software in the field of
 computational chemistry and represents and warrants to the
 licensee that it is not a competitor of Gaussian, Inc. and that
 it will not use this program in any manner prohibited above.
 ---------------------------------------------------------------
  

 Cite this work as:
 Gaussian 09, Revision B.01,
 M. J. Frisch, G. W. Trucks, H. B. Schlegel, G. E. Scuseria, 
 M. A. Robb, J. R. Cheeseman, G. Scalmani, V. Barone, B. Mennucci, 
 G. A. Petersson, H. Nakatsuji, M. Caricato, X. Li, H. P. Hratchian, 
 A. F. Izmaylov, J. Bloino, G. Zheng, J. L. Sonnenberg, M. Hada, 
 M. Ehara, K. Toyota, R. Fukuda, J. Hasegawa, M. Ishida, T. Nakajima, 
 Y. Honda, O. Kitao, H. Nakai, T. Vreven, J. A. Montgomery, Jr., 
 J. E. Peralta, F. Ogliaro, M. Bearpark, J. J. Heyd, E. Brothers, 
 K. N. Kudin, V. N. Staroverov, T. Keith, R. Kobayashi, J. Normand, 
 K. Raghavachari, A. Rendell, J. C. Burant, S. S. Iyengar, J. Tomasi, 
 M. Cossi, N. Rega, J. M. Millam, M. Klene, J. E. Knox, J. B. Cross, 
 V. Bakken, C. Adamo, J. Jaramillo, R. Gomperts, R. E. Stratmann, 
 O. Yazyev, A. J. Austin, R. Cammi, C. Pomelli, J. W. Ochterski, 
 R. L. Martin, K. Morokuma, V. G. Zakrzewski, G. A. Voth, 
 P. Salvador, J. J. Dannenberg, S. Dapprich, A. D. Daniels, 
 O. Farkas, J. B. Foresman, J. V. Ortiz, J. Cioslowski, 
 and D. J. Fox, Gaussian, Inc., Wallingford CT, 2010.
 
 ******************************************
 Gaussian 09:  EM64L-G09RevB.01 12-Aug-2010
                24-Mar-2021 
 ******************************************
 %mem=600MW
 %nprocshared=10
 Will use up to   10 processors via shared memory.
 ---------------------------------------
 # opt rb3lyp/6-31g(d) geom=connectivity
 ---------------------------------------
 1/14=-1,18=20,19=15,26=3,38=1,57=2/1,3;
 2/9=110,12=2,17=6,18=5,40=1/2;
 3/5=1,6=6,7=1,11=2,16=1,25=1,30=1,71=1,74=-5,116=1/1,2,3;
 4//1;
 5/5=2,38=5/2;
 6/7=2,8=2,9=2,10=2,28=1/1;
 7//1,2,3,16;
 1/14=-1,18=20,19=15/3(2);
 2/9=110/2;
 99//99;
 2/9=110/2;
 3/5=1,6=6,7=1,11=2,16=1,25=1,30=1,71=1,74=-5,116=1/1,2,3;
 4/5=5,16=3/1;
 5/5=2,38=5/2;
 7//1,2,3,16;
 1/14=-1,18=20,19=15/3(-5);
 2/9=110/2;
 6/7=2,8=2,9=2,10=2,19=2,28=1/1;
 99/9=1/99;
 -------------------
 Title Card Required
 -------------------
 Symbolic Z-matrix:
 Charge =  0 Multiplicity = 1
 C                     0.        0.        0. 
 C                     1.34      0.        0. 
 C                     2.1239    1.2835    0. 
 C                     1.372     2.5531    0.4977 
 C                    -0.1729    2.4945    0.5947 
 C                    -0.8136    1.2498   -0.0565 
 C                     1.9256    3.6923   -0.3829 
 C                     1.0213    4.1574   -1.4717 
 C                    -0.3086    4.1993   -1.3469 
 C                    -0.8734    3.6909   -0.0772 
 C                    -1.1694    4.6696   -2.456 
 O                    -1.2202    4.026    -3.5046 
 C                    -1.9893    5.9348   -2.2288 
 C                    -1.6355    7.0126   -3.2645 
 C                    -3.4736    5.5793   -2.3199 
 O                    -1.9456    4.1319    0.3343 
 C                     3.072     3.1338   -1.2038 
 C                     3.0589    4.0124   -2.4686 
 O                     1.6875    4.4347   -2.656 
 C                     2.6603    1.6649   -1.384 
 O                     2.3179    4.8159    0.3926 
 C                    -0.4355    2.548     2.1132 
 C                     0.8959    2.191     2.7481 
 O                     1.8438    2.7974    1.8593 
 C                     1.1735    2.6632    4.1556 
 C                     2.583     2.4371    4.6394 
 C                     0.2615    3.2151    4.9746 
 C                     3.9174    5.2765   -2.307 
 C                     3.5094    3.2741   -3.7319 
 H                     4.0352    3.192    -0.6818 
 H                     2.9902    1.1299    0.6617 
 C                     2.132    -1.2772   -0.0074 
 H                    -0.5467   -0.9407   -0.0248 
 H                    -1.7862    1.0529    0.4137 
 H                    -1.0417    1.4301   -1.1159 
 H                    -1.7876    6.3264   -1.2247 
 H                    -1.7283    6.6145   -4.2824 
 H                    -2.348     7.8425   -3.181 
 H                    -4.0964    6.4498   -2.0892 
 H                    -3.7333    4.7823   -1.6156 
 H                    -3.7397    5.2284   -3.3234 
 H                     3.5145    1.0461   -1.6789 
 H                     1.8798    1.5421   -2.1451 
 H                     2.4686    4.4734    1.2994 
 H                    -1.2351    1.8798    2.4502 
 H                    -0.7221    3.5667    2.403 
 H                     1.0442    1.104     2.7205 
 H                     2.8524    1.3802    4.5422 
 H                     3.2915    3.0333    4.0555 
 H                     2.7085    2.7133    5.6919 
 H                    -0.77      3.3751    4.6795 
 H                     0.5225    3.5244    5.9828 
 H                     3.5715    5.9081   -1.4836 
 H                     3.8559    5.9021   -3.2053 
 H                     4.9687    5.0246   -2.1336 
 H                     4.5168    2.8616   -3.6167 
 H                     3.5102    3.9493   -4.5958 
 H                     2.8224    2.4636   -3.9961 
 H                     1.4865   -2.1618   -0.0078 
 H                     2.7667   -1.3287   -0.8976 
 H                     2.7706   -1.3326    0.8802 
 C                    -0.2322    7.5737   -3.0804 
 H                     0.5302    6.8149   -3.2744 
 H                    -0.0905    7.957    -2.065 
 H                    -0.0633    8.3985   -3.7802 
 

 GradGradGradGradGradGradGradGradGradGradGradGradGradGradGradGradGradGrad
 Berny optimization.
 Initialization pass.
                           ----------------------------
                           !    Initial Parameters    !
                           ! (Angstroms and Degrees)  !
 --------------------------                            --------------------------
 ! Name  Definition              Value          Derivative Info.                !
 --------------------------------------------------------------------------------
 ! R1    R(1,2)                  1.34           estimate D2E/DX2                !
 ! R2    R(1,6)                  1.4924         estimate D2E/DX2                !
 ! R3    R(1,33)                 1.0883         estimate D2E/DX2                !
 ! R4    R(2,3)                  1.504          estimate D2E/DX2                !
 ! R5    R(2,32)                 1.5029         estimate D2E/DX2                !
 ! R6    R(3,4)                  1.5572         estimate D2E/DX2                !
 ! R7    R(3,20)                 1.5325         estimate D2E/DX2                !
 ! R8    R(3,31)                 1.1009         estimate D2E/DX2                !
 ! R9    R(4,5)                  1.5491         estimate D2E/DX2                !
 ! R10   R(4,7)                  1.5426         estimate D2E/DX2                !
 ! R11   R(4,24)                 1.4616         estimate D2E/DX2                !
 ! R12   R(5,6)                  1.544          estimate D2E/DX2                !
 ! R13   R(5,10)                 1.5406         estimate D2E/DX2                !
 ! R14   R(5,22)                 1.542          estimate D2E/DX2                !
 ! R15   R(6,34)                 1.0981         estimate D2E/DX2                !
 ! R16   R(6,35)                 1.0986         estimate D2E/DX2                !
 ! R17   R(7,8)                  1.4898         estimate D2E/DX2                !
 ! R18   R(7,17)                 1.5166         estimate D2E/DX2                !
 ! R19   R(7,21)                 1.4205         estimate D2E/DX2                !
 ! R20   R(8,9)                  1.3364         estimate D2E/DX2                !
 ! R21   R(8,19)                 1.3868         estimate D2E/DX2                !
 ! R22   R(9,10)                 1.4797         estimate D2E/DX2                !
 ! R23   R(9,11)                 1.4806         estimate D2E/DX2                !
 ! R24   R(10,16)                1.2302         estimate D2E/DX2                !
 ! R25   R(11,12)                1.2314         estimate D2E/DX2                !
 ! R26   R(11,13)                1.5247         estimate D2E/DX2                !
 ! R27   R(13,14)                1.5361         estimate D2E/DX2                !
 ! R28   R(13,15)                1.529          estimate D2E/DX2                !
 ! R29   R(13,36)                1.0965         estimate D2E/DX2                !
 ! R30   R(14,37)                1.0969         estimate D2E/DX2                !
 ! R31   R(14,38)                1.097          estimate D2E/DX2                !
 ! R32   R(14,62)                1.5225         estimate D2E/DX2                !
 ! R33   R(15,39)                1.0949         estimate D2E/DX2                !
 ! R34   R(15,40)                1.0948         estimate D2E/DX2                !
 ! R35   R(15,41)                1.0959         estimate D2E/DX2                !
 ! R36   R(17,18)                1.5401         estimate D2E/DX2                !
 ! R37   R(17,20)                1.5361         estimate D2E/DX2                !
 ! R38   R(17,30)                1.0971         estimate D2E/DX2                !
 ! R39   R(18,19)                1.4471         estimate D2E/DX2                !
 ! R40   R(18,28)                1.5366         estimate D2E/DX2                !
 ! R41   R(18,29)                1.531          estimate D2E/DX2                !
 ! R42   R(20,42)                1.0952         estimate D2E/DX2                !
 ! R43   R(20,43)                1.0971         estimate D2E/DX2                !
 ! R44   R(21,44)                0.981          estimate D2E/DX2                !
 ! R45   R(22,23)                1.5176         estimate D2E/DX2                !
 ! R46   R(22,45)                1.0952         estimate D2E/DX2                !
 ! R47   R(22,46)                1.0972         estimate D2E/DX2                !
 ! R48   R(23,24)                1.4339         estimate D2E/DX2                !
 ! R49   R(23,25)                1.5103         estimate D2E/DX2                !
 ! R50   R(23,47)                1.0974         estimate D2E/DX2                !
 ! R51   R(24,44)                1.8743         estimate D2E/DX2                !
 ! R52   R(25,26)                1.5073         estimate D2E/DX2                !
 ! R53   R(25,27)                1.3443         estimate D2E/DX2                !
 ! R54   R(26,48)                1.095          estimate D2E/DX2                !
 ! R55   R(26,49)                1.0947         estimate D2E/DX2                !
 ! R56   R(26,50)                1.0954         estimate D2E/DX2                !
 ! R57   R(27,51)                1.0847         estimate D2E/DX2                !
 ! R58   R(27,52)                1.0864         estimate D2E/DX2                !
 ! R59   R(28,53)                1.0939         estimate D2E/DX2                !
 ! R60   R(28,54)                1.0964         estimate D2E/DX2                !
 ! R61   R(28,55)                1.0949         estimate D2E/DX2                !
 ! R62   R(29,56)                1.0947         estimate D2E/DX2                !
 ! R63   R(29,57)                1.0965         estimate D2E/DX2                !
 ! R64   R(29,58)                1.0948         estimate D2E/DX2                !
 ! R65   R(32,59)                1.0951         estimate D2E/DX2                !
 ! R66   R(32,60)                1.0945         estimate D2E/DX2                !
 ! R67   R(32,61)                1.0949         estimate D2E/DX2                !
 ! R68   R(62,63)                1.093          estimate D2E/DX2                !
 ! R69   R(62,64)                1.0945         estimate D2E/DX2                !
 ! R70   R(62,65)                1.0948         estimate D2E/DX2                !
 ! A1    A(2,1,6)              123.0368         estimate D2E/DX2                !
 ! A2    A(2,1,33)             120.1549         estimate D2E/DX2                !
 ! A3    A(6,1,33)             116.6894         estimate D2E/DX2                !
 ! A4    A(1,2,3)              121.4146         estimate D2E/DX2                !
 ! A5    A(1,2,32)             121.8029         estimate D2E/DX2                !
 ! A6    A(3,2,32)             116.7818         estimate D2E/DX2                !
 ! A7    A(2,3,4)              116.3669         estimate D2E/DX2                !
 ! A8    A(2,3,20)             113.255          estimate D2E/DX2                !
 ! A9    A(2,3,31)             106.9233         estimate D2E/DX2                !
 ! A10   A(4,3,20)             104.7576         estimate D2E/DX2                !
 ! A11   A(4,3,31)             107.5544         estimate D2E/DX2                !
 ! A12   A(20,3,31)            107.5843         estimate D2E/DX2                !
 ! A13   A(3,4,5)              118.0813         estimate D2E/DX2                !
 ! A14   A(3,4,7)              104.262          estimate D2E/DX2                !
 ! A15   A(3,4,24)             106.1501         estimate D2E/DX2                !
 ! A16   A(5,4,7)              114.9349         estimate D2E/DX2                !
 ! A17   A(5,4,24)             105.6597         estimate D2E/DX2                !
 ! A18   A(7,4,24)             107.0086         estimate D2E/DX2                !
 ! A19   A(4,5,6)              114.7049         estimate D2E/DX2                !
 ! A20   A(4,5,10)             113.3771         estimate D2E/DX2                !
 ! A21   A(4,5,22)             103.3088         estimate D2E/DX2                !
 ! A22   A(6,5,10)             104.6801         estimate D2E/DX2                !
 ! A23   A(6,5,22)             111.8793         estimate D2E/DX2                !
 ! A24   A(10,5,22)            108.9721         estimate D2E/DX2                !
 ! A25   A(1,6,5)              115.6543         estimate D2E/DX2                !
 ! A26   A(1,6,34)             108.4511         estimate D2E/DX2                !
 ! A27   A(1,6,35)             106.6875         estimate D2E/DX2                !
 ! A28   A(5,6,34)             109.3599         estimate D2E/DX2                !
 ! A29   A(5,6,35)             111.1359         estimate D2E/DX2                !
 ! A30   A(34,6,35)            104.9783         estimate D2E/DX2                !
 ! A31   A(4,7,8)              115.4614         estimate D2E/DX2                !
 ! A32   A(4,7,17)             107.9571         estimate D2E/DX2                !
 ! A33   A(4,7,21)             111.8142         estimate D2E/DX2                !
 ! A34   A(8,7,17)             100.2654         estimate D2E/DX2                !
 ! A35   A(8,7,21)             108.6438         estimate D2E/DX2                !
 ! A36   A(17,7,21)            112.2123         estimate D2E/DX2                !
 ! A37   A(7,8,9)              123.0639         estimate D2E/DX2                !
 ! A38   A(7,8,19)             113.2622         estimate D2E/DX2                !
 ! A39   A(9,8,19)             123.4713         estimate D2E/DX2                !
 ! A40   A(8,9,10)             116.6919         estimate D2E/DX2                !
 ! A41   A(8,9,11)             121.2353         estimate D2E/DX2                !
 ! A42   A(10,9,11)            122.0039         estimate D2E/DX2                !
 ! A43   A(5,10,9)             117.8708         estimate D2E/DX2                !
 ! A44   A(5,10,16)            121.9233         estimate D2E/DX2                !
 ! A45   A(9,10,16)            119.7699         estimate D2E/DX2                !
 ! A46   A(9,11,12)            119.7252         estimate D2E/DX2                !
 ! A47   A(9,11,13)            117.6841         estimate D2E/DX2                !
 ! A48   A(12,11,13)           122.5762         estimate D2E/DX2                !
 ! A49   A(11,13,14)           110.9725         estimate D2E/DX2                !
 ! A50   A(11,13,15)           108.6764         estimate D2E/DX2                !
 ! A51   A(11,13,36)           109.5062         estimate D2E/DX2                !
 ! A52   A(14,13,15)           110.2772         estimate D2E/DX2                !
 ! A53   A(14,13,36)           108.9345         estimate D2E/DX2                !
 ! A54   A(15,13,36)           108.4319         estimate D2E/DX2                !
 ! A55   A(13,14,37)           110.582          estimate D2E/DX2                !
 ! A56   A(13,14,38)           109.2631         estimate D2E/DX2                !
 ! A57   A(13,14,62)           112.9145         estimate D2E/DX2                !
 ! A58   A(37,14,38)           106.8731         estimate D2E/DX2                !
 ! A59   A(37,14,62)           108.9015         estimate D2E/DX2                !
 ! A60   A(38,14,62)           108.0982         estimate D2E/DX2                !
 ! A61   A(13,15,39)           110.7796         estimate D2E/DX2                !
 ! A62   A(13,15,40)           111.1735         estimate D2E/DX2                !
 ! A63   A(13,15,41)           111.3908         estimate D2E/DX2                !
 ! A64   A(39,15,40)           107.9558         estimate D2E/DX2                !
 ! A65   A(39,15,41)           108.0224         estimate D2E/DX2                !
 ! A66   A(40,15,41)           107.3598         estimate D2E/DX2                !
 ! A67   A(7,17,18)            103.1801         estimate D2E/DX2                !
 ! A68   A(7,17,20)            102.3012         estimate D2E/DX2                !
 ! A69   A(7,17,30)            112.7415         estimate D2E/DX2                !
 ! A70   A(18,17,20)           116.5456         estimate D2E/DX2                !
 ! A71   A(18,17,30)           111.5898         estimate D2E/DX2                !
 ! A72   A(20,17,30)           109.9895         estimate D2E/DX2                !
 ! A73   A(17,18,19)           106.3134         estimate D2E/DX2                !
 ! A74   A(17,18,28)           112.2225         estimate D2E/DX2                !
 ! A75   A(17,18,29)           113.581          estimate D2E/DX2                !
 ! A76   A(19,18,28)           107.6389         estimate D2E/DX2                !
 ! A77   A(19,18,29)           108.2234         estimate D2E/DX2                !
 ! A78   A(28,18,29)           108.6084         estimate D2E/DX2                !
 ! A79   A(8,19,18)            106.6367         estimate D2E/DX2                !
 ! A80   A(3,20,17)            103.0528         estimate D2E/DX2                !
 ! A81   A(3,20,42)            112.0573         estimate D2E/DX2                !
 ! A82   A(3,20,43)            110.4663         estimate D2E/DX2                !
 ! A83   A(17,20,42)           111.274          estimate D2E/DX2                !
 ! A84   A(17,20,43)           112.2781         estimate D2E/DX2                !
 ! A85   A(42,20,43)           107.7481         estimate D2E/DX2                !
 ! A86   A(7,21,44)            105.7188         estimate D2E/DX2                !
 ! A87   A(5,22,23)            104.7391         estimate D2E/DX2                !
 ! A88   A(5,22,45)            113.9663         estimate D2E/DX2                !
 ! A89   A(5,22,46)            109.6821         estimate D2E/DX2                !
 ! A90   A(23,22,45)           111.6085         estimate D2E/DX2                !
 ! A91   A(23,22,46)           109.698          estimate D2E/DX2                !
 ! A92   A(45,22,46)           107.1267         estimate D2E/DX2                !
 ! A93   A(22,23,24)           102.7762         estimate D2E/DX2                !
 ! A94   A(22,23,25)           118.5269         estimate D2E/DX2                !
 ! A95   A(22,23,47)           109.94           estimate D2E/DX2                !
 ! A96   A(24,23,25)           108.8997         estimate D2E/DX2                !
 ! A97   A(24,23,47)           108.2978         estimate D2E/DX2                !
 ! A98   A(25,23,47)           107.9556         estimate D2E/DX2                !
 ! A99   A(4,24,23)            107.059          estimate D2E/DX2                !
 ! A100  A(23,25,26)           115.0939         estimate D2E/DX2                !
 ! A101  A(23,25,27)           124.85           estimate D2E/DX2                !
 ! A102  A(26,25,27)           120.0299         estimate D2E/DX2                !
 ! A103  A(25,26,48)           110.2647         estimate D2E/DX2                !
 ! A104  A(25,26,49)           110.6296         estimate D2E/DX2                !
 ! A105  A(25,26,50)           112.1936         estimate D2E/DX2                !
 ! A106  A(48,26,49)           108.608          estimate D2E/DX2                !
 ! A107  A(48,26,50)           107.4867         estimate D2E/DX2                !
 ! A108  A(49,26,50)           107.5199         estimate D2E/DX2                !
 ! A109  A(25,27,51)           122.6796         estimate D2E/DX2                !
 ! A110  A(25,27,52)           121.2848         estimate D2E/DX2                !
 ! A111  A(51,27,52)           116.0351         estimate D2E/DX2                !
 ! A112  A(18,28,53)           112.179          estimate D2E/DX2                !
 ! A113  A(18,28,54)           110.6038         estimate D2E/DX2                !
 ! A114  A(18,28,55)           111.3371         estimate D2E/DX2                !
 ! A115  A(53,28,54)           105.6365         estimate D2E/DX2                !
 ! A116  A(53,28,55)           108.4973         estimate D2E/DX2                !
 ! A117  A(54,28,55)           108.3545         estimate D2E/DX2                !
 ! A118  A(18,29,56)           111.4493         estimate D2E/DX2                !
 ! A119  A(18,29,57)           110.6947         estimate D2E/DX2                !
 ! A120  A(18,29,58)           111.8064         estimate D2E/DX2                !
 ! A121  A(56,29,57)           108.3184         estimate D2E/DX2                !
 ! A122  A(56,29,58)           108.899          estimate D2E/DX2                !
 ! A123  A(57,29,58)           105.4381         estimate D2E/DX2                !
 ! A124  A(2,32,59)            112.078          estimate D2E/DX2                !
 ! A125  A(2,32,60)            110.4626         estimate D2E/DX2                !
 ! A126  A(2,32,61)            110.2669         estimate D2E/DX2                !
 ! A127  A(59,32,60)           107.6689         estimate D2E/DX2                !
 ! A128  A(59,32,61)           107.6521         estimate D2E/DX2                !
 ! A129  A(60,32,61)           108.5874         estimate D2E/DX2                !
 ! A130  A(14,62,63)           111.4447         estimate D2E/DX2                !
 ! A131  A(14,62,64)           111.1346         estimate D2E/DX2                !
 ! A132  A(14,62,65)           110.033          estimate D2E/DX2                !
 ! A133  A(63,62,64)           108.5099         estimate D2E/DX2                !
 ! A134  A(63,62,65)           107.5754         estimate D2E/DX2                !
 ! A135  A(64,62,65)           108.0104         estimate D2E/DX2                !
 ! D1    D(6,1,2,3)              2.5884         estimate D2E/DX2                !
 ! D2    D(6,1,2,32)          -177.0796         estimate D2E/DX2                !
 ! D3    D(33,1,2,3)           178.4898         estimate D2E/DX2                !
 ! D4    D(33,1,2,32)           -1.1782         estimate D2E/DX2                !
 ! D5    D(2,1,6,5)            -30.5178         estimate D2E/DX2                !
 ! D6    D(2,1,6,34)          -153.7426         estimate D2E/DX2                !
 ! D7    D(2,1,6,35)            93.6473         estimate D2E/DX2                !
 ! D8    D(33,1,6,5)           153.4485         estimate D2E/DX2                !
 ! D9    D(33,1,6,34)           30.2237         estimate D2E/DX2                !
 ! D10   D(33,1,6,35)          -82.3863         estimate D2E/DX2                !
 ! D11   D(1,2,3,4)             20.8987         estimate D2E/DX2                !
 ! D12   D(1,2,3,20)          -100.5988         estimate D2E/DX2                !
 ! D13   D(1,2,3,31)           141.0769         estimate D2E/DX2                !
 ! D14   D(32,2,3,4)          -159.4173         estimate D2E/DX2                !
 ! D15   D(32,2,3,20)           79.0852         estimate D2E/DX2                !
 ! D16   D(32,2,3,31)          -39.2392         estimate D2E/DX2                !
 ! D17   D(1,2,32,59)           -0.2668         estimate D2E/DX2                !
 ! D18   D(1,2,32,60)          119.7956         estimate D2E/DX2                !
 ! D19   D(1,2,32,61)         -120.1742         estimate D2E/DX2                !
 ! D20   D(3,2,32,59)         -179.9494         estimate D2E/DX2                !
 ! D21   D(3,2,32,60)          -59.8871         estimate D2E/DX2                !
 ! D22   D(3,2,32,61)           60.1431         estimate D2E/DX2                !
 ! D23   D(2,3,4,5)            -15.6551         estimate D2E/DX2                !
 ! D24   D(2,3,4,7)           -144.606          estimate D2E/DX2                !
 ! D25   D(2,3,4,24)           102.5747         estimate D2E/DX2                !
 ! D26   D(20,3,4,5)           110.2378         estimate D2E/DX2                !
 ! D27   D(20,3,4,7)           -18.713          estimate D2E/DX2                !
 ! D28   D(20,3,4,24)         -131.5324         estimate D2E/DX2                !
 ! D29   D(31,3,4,5)          -135.4942         estimate D2E/DX2                !
 ! D30   D(31,3,4,7)            95.555          estimate D2E/DX2                !
 ! D31   D(31,3,4,24)          -17.2644         estimate D2E/DX2                !
 ! D32   D(2,3,20,17)          165.5241         estimate D2E/DX2                !
 ! D33   D(2,3,20,42)          -74.7532         estimate D2E/DX2                !
 ! D34   D(2,3,20,43)           45.3982         estimate D2E/DX2                !
 ! D35   D(4,3,20,17)           37.7115         estimate D2E/DX2                !
 ! D36   D(4,3,20,42)          157.4342         estimate D2E/DX2                !
 ! D37   D(4,3,20,43)          -82.4144         estimate D2E/DX2                !
 ! D38   D(31,3,20,17)         -76.5355         estimate D2E/DX2                !
 ! D39   D(31,3,20,42)          43.1872         estimate D2E/DX2                !
 ! D40   D(31,3,20,43)         163.3386         estimate D2E/DX2                !
 ! D41   D(3,4,5,6)            -10.3688         estimate D2E/DX2                !
 ! D42   D(3,4,5,10)          -130.5517         estimate D2E/DX2                !
 ! D43   D(3,4,5,22)           111.6599         estimate D2E/DX2                !
 ! D44   D(7,4,5,6)            113.4096         estimate D2E/DX2                !
 ! D45   D(7,4,5,10)            -6.7734         estimate D2E/DX2                !
 ! D46   D(7,4,5,22)          -124.5618         estimate D2E/DX2                !
 ! D47   D(24,4,5,6)          -128.8575         estimate D2E/DX2                !
 ! D48   D(24,4,5,10)          110.9596         estimate D2E/DX2                !
 ! D49   D(24,4,5,22)           -6.8288         estimate D2E/DX2                !
 ! D50   D(3,4,7,8)            103.7589         estimate D2E/DX2                !
 ! D51   D(3,4,7,17)            -7.452          estimate D2E/DX2                !
 ! D52   D(3,4,7,21)          -131.3537         estimate D2E/DX2                !
 ! D53   D(5,4,7,8)            -27.0698         estimate D2E/DX2                !
 ! D54   D(5,4,7,17)          -138.2807         estimate D2E/DX2                !
 ! D55   D(5,4,7,21)            97.8176         estimate D2E/DX2                !
 ! D56   D(24,4,7,8)          -144.0384         estimate D2E/DX2                !
 ! D57   D(24,4,7,17)          104.7506         estimate D2E/DX2                !
 ! D58   D(24,4,7,21)          -19.1511         estimate D2E/DX2                !
 ! D59   D(3,4,24,23)          -95.6813         estimate D2E/DX2                !
 ! D60   D(5,4,24,23)           30.4852         estimate D2E/DX2                !
 ! D61   D(7,4,24,23)          153.4154         estimate D2E/DX2                !
 ! D62   D(4,5,6,1)             32.5078         estimate D2E/DX2                !
 ! D63   D(4,5,6,34)           155.2531         estimate D2E/DX2                !
 ! D64   D(4,5,6,35)           -89.3088         estimate D2E/DX2                !
 ! D65   D(10,5,6,1)           157.3987         estimate D2E/DX2                !
 ! D66   D(10,5,6,34)          -79.856          estimate D2E/DX2                !
 ! D67   D(10,5,6,35)           35.5821         estimate D2E/DX2                !
 ! D68   D(22,5,6,1)           -84.7378         estimate D2E/DX2                !
 ! D69   D(22,5,6,34)           38.0075         estimate D2E/DX2                !
 ! D70   D(22,5,6,35)          153.4456         estimate D2E/DX2                !
 ! D71   D(4,5,10,9)            38.7439         estimate D2E/DX2                !
 ! D72   D(4,5,10,16)         -148.8557         estimate D2E/DX2                !
 ! D73   D(6,5,10,9)           -86.9833         estimate D2E/DX2                !
 ! D74   D(6,5,10,16)           85.4171         estimate D2E/DX2                !
 ! D75   D(22,5,10,9)          153.1874         estimate D2E/DX2                !
 ! D76   D(22,5,10,16)         -34.4123         estimate D2E/DX2                !
 ! D77   D(4,5,22,23)          -17.3269         estimate D2E/DX2                !
 ! D78   D(4,5,22,45)         -139.5802         estimate D2E/DX2                !
 ! D79   D(4,5,22,46)          100.3355         estimate D2E/DX2                !
 ! D80   D(6,5,22,23)          106.5775         estimate D2E/DX2                !
 ! D81   D(6,5,22,45)          -15.6759         estimate D2E/DX2                !
 ! D82   D(6,5,22,46)         -135.7602         estimate D2E/DX2                !
 ! D83   D(10,5,22,23)        -138.1557         estimate D2E/DX2                !
 ! D84   D(10,5,22,45)          99.591          estimate D2E/DX2                !
 ! D85   D(10,5,22,46)         -20.4933         estimate D2E/DX2                !
 ! D86   D(4,7,8,9)             34.7356         estimate D2E/DX2                !
 ! D87   D(4,7,8,19)          -140.2511         estimate D2E/DX2                !
 ! D88   D(17,7,8,9)           150.4102         estimate D2E/DX2                !
 ! D89   D(17,7,8,19)          -24.5766         estimate D2E/DX2                !
 ! D90   D(21,7,8,9)           -91.7779         estimate D2E/DX2                !
 ! D91   D(21,7,8,19)           93.2353         estimate D2E/DX2                !
 ! D92   D(4,7,17,18)          151.8614         estimate D2E/DX2                !
 ! D93   D(4,7,17,20)           30.472          estimate D2E/DX2                !
 ! D94   D(4,7,17,30)          -87.6126         estimate D2E/DX2                !
 ! D95   D(8,7,17,18)           30.6656         estimate D2E/DX2                !
 ! D96   D(8,7,17,20)          -90.7238         estimate D2E/DX2                !
 ! D97   D(8,7,17,30)          151.1916         estimate D2E/DX2                !
 ! D98   D(21,7,17,18)         -84.4775         estimate D2E/DX2                !
 ! D99   D(21,7,17,20)         154.1331         estimate D2E/DX2                !
 ! D100  D(21,7,17,30)          36.0485         estimate D2E/DX2                !
 ! D101  D(4,7,21,44)           21.5751         estimate D2E/DX2                !
 ! D102  D(8,7,21,44)          150.1655         estimate D2E/DX2                !
 ! D103  D(17,7,21,44)         -99.9013         estimate D2E/DX2                !
 ! D104  D(7,8,9,10)            -2.9842         estimate D2E/DX2                !
 ! D105  D(7,8,9,11)           179.9773         estimate D2E/DX2                !
 ! D106  D(19,8,9,10)          171.493          estimate D2E/DX2                !
 ! D107  D(19,8,9,11)           -5.5456         estimate D2E/DX2                !
 ! D108  D(7,8,19,18)            6.8124         estimate D2E/DX2                !
 ! D109  D(9,8,19,18)         -168.1509         estimate D2E/DX2                !
 ! D110  D(8,9,10,5)           -35.1116         estimate D2E/DX2                !
 ! D111  D(8,9,10,16)          152.3184         estimate D2E/DX2                !
 ! D112  D(11,9,10,5)          141.9024         estimate D2E/DX2                !
 ! D113  D(11,9,10,16)         -30.6676         estimate D2E/DX2                !
 ! D114  D(8,9,11,12)           65.1559         estimate D2E/DX2                !
 ! D115  D(8,9,11,13)         -116.1888         estimate D2E/DX2                !
 ! D116  D(10,9,11,12)        -111.7239         estimate D2E/DX2                !
 ! D117  D(10,9,11,13)          66.9313         estimate D2E/DX2                !
 ! D118  D(9,11,13,14)         121.1521         estimate D2E/DX2                !
 ! D119  D(9,11,13,15)        -117.4251         estimate D2E/DX2                !
 ! D120  D(9,11,13,36)           0.857          estimate D2E/DX2                !
 ! D121  D(12,11,13,14)        -60.2337         estimate D2E/DX2                !
 ! D122  D(12,11,13,15)         61.1891         estimate D2E/DX2                !
 ! D123  D(12,11,13,36)        179.4712         estimate D2E/DX2                !
 ! D124  D(11,13,14,37)         53.515          estimate D2E/DX2                !
 ! D125  D(11,13,14,38)        170.8804         estimate D2E/DX2                !
 ! D126  D(11,13,14,62)        -68.789          estimate D2E/DX2                !
 ! D127  D(15,13,14,37)        -66.9636         estimate D2E/DX2                !
 ! D128  D(15,13,14,38)         50.4017         estimate D2E/DX2                !
 ! D129  D(15,13,14,62)        170.7323         estimate D2E/DX2                !
 ! D130  D(36,13,14,37)        174.1489         estimate D2E/DX2                !
 ! D131  D(36,13,14,38)        -68.4857         estimate D2E/DX2                !
 ! D132  D(36,13,14,62)         51.8449         estimate D2E/DX2                !
 ! D133  D(11,13,15,39)        175.8558         estimate D2E/DX2                !
 ! D134  D(11,13,15,40)         55.8171         estimate D2E/DX2                !
 ! D135  D(11,13,15,41)        -63.8771         estimate D2E/DX2                !
 ! D136  D(14,13,15,39)        -62.2967         estimate D2E/DX2                !
 ! D137  D(14,13,15,40)        177.6647         estimate D2E/DX2                !
 ! D138  D(14,13,15,41)         57.9705         estimate D2E/DX2                !
 ! D139  D(36,13,15,39)         56.8969         estimate D2E/DX2                !
 ! D140  D(36,13,15,40)        -63.1417         estimate D2E/DX2                !
 ! D141  D(36,13,15,41)        177.1641         estimate D2E/DX2                !
 ! D142  D(13,14,62,63)         65.9687         estimate D2E/DX2                !
 ! D143  D(13,14,62,64)        -55.1972         estimate D2E/DX2                !
 ! D144  D(13,14,62,65)       -174.7868         estimate D2E/DX2                !
 ! D145  D(37,14,62,63)        -57.2722         estimate D2E/DX2                !
 ! D146  D(37,14,62,64)       -178.4381         estimate D2E/DX2                !
 ! D147  D(37,14,62,65)         61.9723         estimate D2E/DX2                !
 ! D148  D(38,14,62,63)       -173.0363         estimate D2E/DX2                !
 ! D149  D(38,14,62,64)         65.7977         estimate D2E/DX2                !
 ! D150  D(38,14,62,65)        -53.7919         estimate D2E/DX2                !
 ! D151  D(7,17,18,19)         -28.9403         estimate D2E/DX2                !
 ! D152  D(7,17,18,28)          88.4878         estimate D2E/DX2                !
 ! D153  D(7,17,18,29)        -147.8402         estimate D2E/DX2                !
 ! D154  D(20,17,18,19)         82.2578         estimate D2E/DX2                !
 ! D155  D(20,17,18,28)       -160.3142         estimate D2E/DX2                !
 ! D156  D(20,17,18,29)        -36.6422         estimate D2E/DX2                !
 ! D157  D(30,17,18,19)       -150.2497         estimate D2E/DX2                !
 ! D158  D(30,17,18,28)        -32.8217         estimate D2E/DX2                !
 ! D159  D(30,17,18,29)         90.8504         estimate D2E/DX2                !
 ! D160  D(7,17,20,3)          -41.7708         estimate D2E/DX2                !
 ! D161  D(7,17,20,42)        -162.0326         estimate D2E/DX2                !
 ! D162  D(7,17,20,43)          77.1018         estimate D2E/DX2                !
 ! D163  D(18,17,20,3)        -153.4745         estimate D2E/DX2                !
 ! D164  D(18,17,20,42)         86.2636         estimate D2E/DX2                !
 ! D165  D(18,17,20,43)        -34.602          estimate D2E/DX2                !
 ! D166  D(30,17,20,3)          78.2519         estimate D2E/DX2                !
 ! D167  D(30,17,20,42)        -42.0099         estimate D2E/DX2                !
 ! D168  D(30,17,20,43)       -162.8755         estimate D2E/DX2                !
 ! D169  D(17,18,19,8)          14.1326         estimate D2E/DX2                !
 ! D170  D(28,18,19,8)        -106.3031         estimate D2E/DX2                !
 ! D171  D(29,18,19,8)         136.4899         estimate D2E/DX2                !
 ! D172  D(17,18,28,53)        -59.9798         estimate D2E/DX2                !
 ! D173  D(17,18,28,54)       -177.6397         estimate D2E/DX2                !
 ! D174  D(17,18,28,55)         61.8277         estimate D2E/DX2                !
 ! D175  D(19,18,28,53)         56.6551         estimate D2E/DX2                !
 ! D176  D(19,18,28,54)        -61.0048         estimate D2E/DX2                !
 ! D177  D(19,18,28,55)        178.4627         estimate D2E/DX2                !
 ! D178  D(29,18,28,53)        173.6115         estimate D2E/DX2                !
 ! D179  D(29,18,28,54)         55.9516         estimate D2E/DX2                !
 ! D180  D(29,18,28,55)        -64.581          estimate D2E/DX2                !
 ! D181  D(17,18,29,56)        -57.7231         estimate D2E/DX2                !
 ! D182  D(17,18,29,57)       -178.3467         estimate D2E/DX2                !
 ! D183  D(17,18,29,58)         64.4188         estimate D2E/DX2                !
 ! D184  D(19,18,29,56)       -175.5226         estimate D2E/DX2                !
 ! D185  D(19,18,29,57)         63.8538         estimate D2E/DX2                !
 ! D186  D(19,18,29,58)        -53.3807         estimate D2E/DX2                !
 ! D187  D(28,18,29,56)         67.896          estimate D2E/DX2                !
 ! D188  D(28,18,29,57)        -52.7276         estimate D2E/DX2                !
 ! D189  D(28,18,29,58)       -169.9621         estimate D2E/DX2                !
 ! D190  D(5,22,23,24)          35.8407         estimate D2E/DX2                !
 ! D191  D(5,22,23,25)         155.9261         estimate D2E/DX2                !
 ! D192  D(5,22,23,47)         -79.2923         estimate D2E/DX2                !
 ! D193  D(45,22,23,24)        159.6185         estimate D2E/DX2                !
 ! D194  D(45,22,23,25)        -80.2961         estimate D2E/DX2                !
 ! D195  D(45,22,23,47)         44.4855         estimate D2E/DX2                !
 ! D196  D(46,22,23,24)        -81.8107         estimate D2E/DX2                !
 ! D197  D(46,22,23,25)         38.2746         estimate D2E/DX2                !
 ! D198  D(46,22,23,47)        163.0563         estimate D2E/DX2                !
 ! D199  D(22,23,24,4)         -41.4812         estimate D2E/DX2                !
 ! D200  D(25,23,24,4)        -168.0107         estimate D2E/DX2                !
 ! D201  D(47,23,24,4)          74.8334         estimate D2E/DX2                !
 ! D202  D(22,23,25,26)       -171.7414         estimate D2E/DX2                !
 ! D203  D(22,23,25,27)         10.1309         estimate D2E/DX2                !
 ! D204  D(24,23,25,26)        -54.8599         estimate D2E/DX2                !
 ! D205  D(24,23,25,27)        127.0123         estimate D2E/DX2                !
 ! D206  D(47,23,25,26)         62.5134         estimate D2E/DX2                !
 ! D207  D(47,23,25,27)       -115.6144         estimate D2E/DX2                !
 ! D208  D(23,25,26,48)        -55.0929         estimate D2E/DX2                !
 ! D209  D(23,25,26,49)         65.069          estimate D2E/DX2                !
 ! D210  D(23,25,26,50)       -174.8659         estimate D2E/DX2                !
 ! D211  D(27,25,26,48)        123.1325         estimate D2E/DX2                !
 ! D212  D(27,25,26,49)       -116.7056         estimate D2E/DX2                !
 ! D213  D(27,25,26,50)          3.3595         estimate D2E/DX2                !
 ! D214  D(23,25,27,51)         -0.4407         estimate D2E/DX2                !
 ! D215  D(23,25,27,52)        179.2784         estimate D2E/DX2                !
 ! D216  D(26,25,27,51)       -178.4822         estimate D2E/DX2                !
 ! D217  D(26,25,27,52)          1.2368         estimate D2E/DX2                !
 --------------------------------------------------------------------------------
 Trust Radius=3.00D-01 FncErr=1.00D-07 GrdErr=1.00D-06
 Number of steps in this run=    390 maximum allowed number of steps=    390.
 GradGradGradGradGradGradGradGradGradGradGradGradGradGradGradGradGradGrad

 Stoichiometry    C26H34O5
 Framework group  C1[X(C26H34O5)]
 Deg. of freedom   189
 Full point group                 C1      NOp   1
 Largest Abelian subgroup         C1      NOp   1
 Largest concise Abelian subgroup C1      NOp   1
                         Standard orientation:                         
 ---------------------------------------------------------------------
 Center     Atomic      Atomic             Coordinates (Angstroms)
 Number     Number       Type             X           Y           Z
 ---------------------------------------------------------------------
      1          6           0       -2.053961    0.051277    2.810088
      2          6           0       -2.441783    1.149105    2.146788
      3          6           0       -1.919394    1.459223    0.770995
      4          6           0       -1.338177    0.260023   -0.034641
      5          6           0       -0.998845   -1.040146    0.736054
      6          6           0       -1.046038   -0.909766    2.273783
      7          6           0       -0.165361    0.869401   -0.830171
      8          6           0        1.193819    0.565320   -0.301280
      9          6           0        1.508506   -0.598935    0.274434
     10          6           0        0.412006   -1.579813    0.433099
     11          6           0        2.873531   -0.858336    0.785979
     12          8           0        3.307974   -0.196855    1.729412
     13          6           0        3.677057   -1.973694    0.126503
     14          6           0        4.989512   -1.432755   -0.460310
     15          6           0        3.968220   -3.051141    1.171566
     16          8           0        0.667605   -2.782914    0.458461
     17          6           0       -0.200462    2.373185   -0.636693
     18          6           0        1.275687    2.782306   -0.796175
     19          8           0        2.061280    1.645372   -0.366735
     20          6           0       -0.802106    2.508183    0.770231
     21          8           0       -0.211263    0.503245   -2.201885
     22          6           0       -2.043524   -2.046144    0.212340
     23          6           0       -3.118888   -1.187862   -0.428065
     24          8           0       -2.365001   -0.113384   -1.005430
     25          6           0       -3.991286   -1.802830   -1.496629
     26          6           0       -4.898215   -0.837116   -2.215482
     27          6           0       -4.026436   -3.111896   -1.800289
     28          6           0        1.642573    3.075871   -2.259151
     29          6           0        1.672630    3.988855    0.058599
     30          1           0       -0.841237    2.880146   -1.368830
     31          1           0       -2.761740    1.870116    0.193470
     32          6           0       -3.410977    2.132240    2.740648
     33          1           0       -2.426073   -0.140520    3.814658
     34          1           0       -1.236179   -1.896244    2.717083
     35          1           0       -0.071122   -0.601204    2.675274
     36          1           0        3.085589   -2.423570   -0.679740
     37          1           0        5.556137   -0.884917    0.302596
     38          1           0        5.616850   -2.273956   -0.779984
     39          1           0        4.481634   -3.904680    0.716869
     40          1           0        3.043848   -3.418068    1.629379
     41          1           0        4.601632   -2.664865    1.978122
     42          1           0       -1.186856    3.519025    0.942578
     43          1           0       -0.070542    2.289967    1.558094
     44          1           0       -1.142704    0.251326   -2.378681
     45          1           0       -2.457821   -2.700778    0.986441
     46          1           0       -1.585731   -2.692832   -0.546668
     47          1           0       -3.775427   -0.770974    0.346199
     48          1           0       -5.519434   -0.293189   -1.496251
     49          1           0       -4.312289   -0.112149   -2.789484
     50          1           0       -5.571713   -1.344327   -2.914718
     51          1           0       -3.410639   -3.847377   -1.293794
     52          1           0       -4.686222   -3.493991   -2.574202
     53          1           0        1.486771    2.207723   -2.906142
     54          1           0        2.707014    3.323267   -2.347808
     55          1           0        1.059717    3.913627   -2.655632
     56          1           0        1.052876    4.861982   -0.169079
     57          1           0        2.721900    4.256855   -0.112943
     58          1           0        1.598736    3.770925    1.128985
     59          1           0       -3.740254    1.832497    3.741107
     60          1           0       -2.949442    3.121072    2.825192
     61          1           0       -4.301461    2.215581    2.109139
     62          6           0        4.771267   -0.522457   -1.661019
     63          1           0        4.254817    0.397770   -1.376191
     64          1           0        4.183746   -1.025124   -2.435732
     65          1           0        5.734733   -0.239417   -2.097096
 ---------------------------------------------------------------------
 Rotational constants (GHZ):      0.2089540      0.1266582      0.1087957
 Standard basis: 6-31G(d) (6D, 7F)
 There are   533 symmetry adapted basis functions of A   symmetry.
 Integral buffers will be    131072 words long.
 Raffenetti 2 integral format.
 Two-electron integral symmetry is turned on.
   533 basis functions,  1004 primitive gaussians,   533 cartesian basis functions
   115 alpha electrons      115 beta electrons
       nuclear repulsion energy      3508.4927820403 Hartrees.
 NAtoms=   65 NActive=   65 NUniq=   65 SFac= 1.00D+00 NAtFMM=   50 NAOKFM=T Big=T
 One-electron integrals computed using PRISM.
 NBasis=   533 RedAO= T  NBF=   533
 NBsUse=   533 1.00D-06 NBFU=   533
 Harris functional with IExCor=  402 diagonalized for initial guess.
 ExpMin= 1.61D-01 ExpMax= 5.48D+03 ExpMxC= 8.25D+02 IAcc=1 IRadAn=         1 AccDes= 0.00D+00
 HarFok:  IExCor=  402 AccDes= 0.00D+00 IRadAn=         1 IDoV= 1
 ScaDFX=  1.000000  1.000000  1.000000  1.000000
 FoFCou: FMM=F IPFlag=           0 FMFlag=      100000 FMFlg1=        2001
         NFxFlg=           0 DoJE=T BraDBF=F KetDBF=T FulRan=T
         Omega=  0.000000  0.000000  1.000000  0.000000  0.000000 ICntrl=     500 IOpCl=  0
         NMat0=    1 NMatS0=    1 NMatT0=    0 NMatD0=    1 NMtDS0=    0 NMtDT0=    0
         I1Cent=           4 NGrid=           0.
 Petite list used in FoFCou.
 Initial guess orbital symmetries:
       Occupied  (A) (A) (A) (A) (A) (A) (A) (A) (A) (A) (A) (A)
                 (A) (A) (A) (A) (A) (A) (A) (A) (A) (A) (A) (A)
                 (A) (A) (A) (A) (A) (A) (A) (A) (A) (A) (A) (A)
                 (A) (A) (A) (A) (A) (A) (A) (A) (A) (A) (A) (A)
                 (A) (A) (A) (A) (A) (A) (A) (A) (A) (A) (A) (A)
                 (A) (A) (A) (A) (A) (A) (A) (A) (A) (A) (A) (A)
                 (A) (A) (A) (A) (A) (A) (A) (A) (A) (A) (A) (A)
                 (A) (A) (A) (A) (A) (A) (A) (A) (A) (A) (A) (A)
                 (A) (A) (A) (A) (A) (A) (A) (A) (A) (A) (A) (A)
                 (A) (A) (A) (A) (A) (A) (A)
       Virtual   (A) (A) (A) (A) (A) (A) (A) (A) (A) (A) (A) (A)
                 (A) (A) (A) (A) (A) (A) (A) (A) (A) (A) (A) (A)
                 (A) (A) (A) (A) (A) (A) (A) (A) (A) (A) (A) (A)
                 (A) (A) (A) (A) (A) (A) (A) (A) (A) (A) (A) (A)
                 (A) (A) (A) (A) (A) (A) (A) (A) (A) (A) (A) (A)
                 (A) (A) (A) (A) (A) (A) (A) (A) (A) (A) (A) (A)
                 (A) (A) (A) (A) (A) (A) (A) (A) (A) (A) (A) (A)
                 (A) (A) (A) (A) (A) (A) (A) (A) (A) (A) (A) (A)
                 (A) (A) (A) (A) (A) (A) (A) (A) (A) (A) (A) (A)
                 (A) (A) (A) (A) (A) (A) (A) (A) (A) (A) (A) (A)
                 (A) (A) (A) (A) (A) (A) (A) (A) (A) (A) (A) (A)
                 (A) (A) (A) (A) (A) (A) (A) (A) (A) (A) (A) (A)
                 (A) (A) (A) (A) (A) (A) (A) (A) (A) (A) (A) (A)
                 (A) (A) (A) (A) (A) (A) (A) (A) (A) (A) (A) (A)
                 (A) (A) (A) (A) (A) (A) (A) (A) (A) (A) (A) (A)
                 (A) (A) (A) (A) (A) (A) (A) (A) (A) (A) (A) (A)
                 (A) (A) (A) (A) (A) (A) (A) (A) (A) (A) (A) (A)
                 (A) (A) (A) (A) (A) (A) (A) (A) (A) (A) (A) (A)
                 (A) (A) (A) (A) (A) (A) (A) (A) (A) (A) (A) (A)
                 (A) (A) (A) (A) (A) (A) (A) (A) (A) (A) (A) (A)
                 (A) (A) (A) (A) (A) (A) (A) (A) (A) (A) (A) (A)
                 (A) (A) (A) (A) (A) (A) (A) (A) (A) (A) (A) (A)
                 (A) (A) (A) (A) (A) (A) (A) (A) (A) (A) (A) (A)
                 (A) (A) (A) (A) (A) (A) (A) (A) (A) (A) (A) (A)
                 (A) (A) (A) (A) (A) (A) (A) (A) (A) (A) (A) (A)
                 (A) (A) (A) (A) (A) (A) (A) (A) (A) (A) (A) (A)
                 (A) (A) (A) (A) (A) (A) (A) (A) (A) (A) (A) (A)
                 (A) (A) (A) (A) (A) (A) (A) (A) (A) (A) (A) (A)
                 (A) (A) (A) (A) (A) (A) (A) (A) (A) (A) (A) (A)
                 (A) (A) (A) (A) (A) (A) (A) (A) (A) (A) (A) (A)
                 (A) (A) (A) (A) (A) (A) (A) (A) (A) (A) (A) (A)
                 (A) (A) (A) (A) (A) (A) (A) (A) (A) (A) (A) (A)
                 (A) (A) (A) (A) (A) (A) (A) (A) (A) (A) (A) (A)
                 (A) (A) (A) (A) (A) (A) (A) (A) (A) (A) (A) (A)
                 (A) (A) (A) (A) (A) (A) (A) (A) (A) (A)
 The electronic state of the initial guess is 1-A.
 Requested convergence on RMS density matrix=1.00D-08 within 128 cycles.
 Requested convergence on MAX density matrix=1.00D-06.
 Requested convergence on             energy=1.00D-06.
 No special actions if energy rises.
 Integral accuracy reduced to 1.0D-05 until final iterations.
 Initial convergence to 1.0D-05 achieved.  Increase integral accuracy.
 SCF Done:  E(RB3LYP) =  -1387.30204695     A.U. after   16 cycles
             Convg  =    0.4331D-08             -V/T =  2.0091

 **********************************************************************

            Population analysis using the SCF density.

 **********************************************************************

 Orbital symmetries:
       Occupied  (A) (A) (A) (A) (A) (A) (A) (A) (A) (A) (A) (A)
                 (A) (A) (A) (A) (A) (A) (A) (A) (A) (A) (A) (A)
                 (A) (A) (A) (A) (A) (A) (A) (A) (A) (A) (A) (A)
                 (A) (A) (A) (A) (A) (A) (A) (A) (A) (A) (A) (A)
                 (A) (A) (A) (A) (A) (A) (A) (A) (A) (A) (A) (A)
                 (A) (A) (A) (A) (A) (A) (A) (A) (A) (A) (A) (A)
                 (A) (A) (A) (A) (A) (A) (A) (A) (A) (A) (A) (A)
                 (A) (A) (A) (A) (A) (A) (A) (A) (A) (A) (A) (A)
                 (A) (A) (A) (A) (A) (A) (A) (A) (A) (A) (A) (A)
                 (A) (A) (A) (A) (A) (A) (A)
       Virtual   (A) (A) (A) (A) (A) (A) (A) (A) (A) (A) (A) (A)
                 (A) (A) (A) (A) (A) (A) (A) (A) (A) (A) (A) (A)
                 (A) (A) (A) (A) (A) (A) (A) (A) (A) (A) (A) (A)
                 (A) (A) (A) (A) (A) (A) (A) (A) (A) (A) (A) (A)
                 (A) (A) (A) (A) (A) (A) (A) (A) (A) (A) (A) (A)
                 (A) (A) (A) (A) (A) (A) (A) (A) (A) (A) (A) (A)
                 (A) (A) (A) (A) (A) (A) (A) (A) (A) (A) (A) (A)
                 (A) (A) (A) (A) (A) (A) (A) (A) (A) (A) (A) (A)
                 (A) (A) (A) (A) (A) (A) (A) (A) (A) (A) (A) (A)
                 (A) (A) (A) (A) (A) (A) (A) (A) (A) (A) (A) (A)
                 (A) (A) (A) (A) (A) (A) (A) (A) (A) (A) (A) (A)
                 (A) (A) (A) (A) (A) (A) (A) (A) (A) (A) (A) (A)
                 (A) (A) (A) (A) (A) (A) (A) (A) (A) (A) (A) (A)
                 (A) (A) (A) (A) (A) (A) (A) (A) (A) (A) (A) (A)
                 (A) (A) (A) (A) (A) (A) (A) (A) (A) (A) (A) (A)
                 (A) (A) (A) (A) (A) (A) (A) (A) (A) (A) (A) (A)
                 (A) (A) (A) (A) (A) (A) (A) (A) (A) (A) (A) (A)
                 (A) (A) (A) (A) (A) (A) (A) (A) (A) (A) (A) (A)
                 (A) (A) (A) (A) (A) (A) (A) (A) (A) (A) (A) (A)
                 (A) (A) (A) (A) (A) (A) (A) (A) (A) (A) (A) (A)
                 (A) (A) (A) (A) (A) (A) (A) (A) (A) (A) (A) (A)
                 (A) (A) (A) (A) (A) (A) (A) (A) (A) (A) (A) (A)
                 (A) (A) (A) (A) (A) (A) (A) (A) (A) (A) (A) (A)
                 (A) (A) (A) (A) (A) (A) (A) (A) (A) (A) (A) (A)
                 (A) (A) (A) (A) (A) (A) (A) (A) (A) (A) (A) (A)
                 (A) (A) (A) (A) (A) (A) (A) (A) (A) (A) (A) (A)
                 (A) (A) (A) (A) (A) (A) (A) (A) (A) (A) (A) (A)
                 (A) (A) (A) (A) (A) (A) (A) (A) (A) (A) (A) (A)
                 (A) (A) (A) (A) (A) (A) (A) (A) (A) (A) (A) (A)
                 (A) (A) (A) (A) (A) (A) (A) (A) (A) (A) (A) (A)
                 (A) (A) (A) (A) (A) (A) (A) (A) (A) (A) (A) (A)
                 (A) (A) (A) (A) (A) (A) (A) (A) (A) (A) (A) (A)
                 (A) (A) (A) (A) (A) (A) (A) (A) (A) (A) (A) (A)
                 (A) (A) (A) (A) (A) (A) (A) (A) (A) (A) (A) (A)
                 (A) (A) (A) (A) (A) (A) (A) (A) (A) (A)
 The electronic state is 1-A.
 Alpha  occ. eigenvalues --  -19.19309 -19.16999 -19.14557 -19.13678 -19.13226
 Alpha  occ. eigenvalues --  -10.27892 -10.26883 -10.26607 -10.26319 -10.25790
 Alpha  occ. eigenvalues --  -10.25591 -10.24813 -10.21946 -10.20440 -10.20406
 Alpha  occ. eigenvalues --  -10.19935 -10.19904 -10.19790 -10.19762 -10.19206
 Alpha  occ. eigenvalues --  -10.18959 -10.18930 -10.18791 -10.18510 -10.18456
 Alpha  occ. eigenvalues --  -10.18377 -10.17990 -10.17524 -10.17125 -10.16177
 Alpha  occ. eigenvalues --  -10.15986  -1.08327  -1.06291  -1.03504  -1.02339
 Alpha  occ. eigenvalues --   -1.01856  -0.87646  -0.83929  -0.82629  -0.81612
 Alpha  occ. eigenvalues --   -0.80405  -0.79714  -0.77026  -0.74436  -0.73584
 Alpha  occ. eigenvalues --   -0.72525  -0.71779  -0.69501  -0.69085  -0.68275
 Alpha  occ. eigenvalues --   -0.65306  -0.63902  -0.63695  -0.61764  -0.61173
 Alpha  occ. eigenvalues --   -0.59283  -0.59127  -0.57207  -0.54833  -0.53670
 Alpha  occ. eigenvalues --   -0.52922  -0.51741  -0.51044  -0.50628  -0.49676
 Alpha  occ. eigenvalues --   -0.48523  -0.48047  -0.46563  -0.46364  -0.45652
 Alpha  occ. eigenvalues --   -0.45241  -0.44454  -0.44212  -0.43435  -0.42996
 Alpha  occ. eigenvalues --   -0.42853  -0.42591  -0.42240  -0.41749  -0.41554
 Alpha  occ. eigenvalues --   -0.40899  -0.40558  -0.40414  -0.40143  -0.39695
 Alpha  occ. eigenvalues --   -0.39652  -0.39299  -0.38696  -0.38357  -0.38290
 Alpha  occ. eigenvalues --   -0.37704  -0.37424  -0.36802  -0.36703  -0.36022
 Alpha  occ. eigenvalues --   -0.35685  -0.35294  -0.34802  -0.34661  -0.34241
 Alpha  occ. eigenvalues --   -0.33688  -0.33083  -0.33022  -0.32766  -0.32007
 Alpha  occ. eigenvalues --   -0.31962  -0.31817  -0.30799  -0.27944  -0.26967
 Alpha  occ. eigenvalues --   -0.25824  -0.25149  -0.24110  -0.23737  -0.23190
 Alpha virt. eigenvalues --   -0.04800  -0.01672   0.00650   0.01421   0.03243
 Alpha virt. eigenvalues --    0.06420   0.08353   0.08891   0.09363   0.10255
 Alpha virt. eigenvalues --    0.10683   0.11399   0.11613   0.11874   0.12408
 Alpha virt. eigenvalues --    0.12763   0.13004   0.13540   0.13691   0.14098
 Alpha virt. eigenvalues --    0.14115   0.14848   0.14990   0.15375   0.15605
 Alpha virt. eigenvalues --    0.15963   0.16281   0.16585   0.16751   0.17663
 Alpha virt. eigenvalues --    0.17891   0.17977   0.18396   0.18961   0.19059
 Alpha virt. eigenvalues --    0.19569   0.19593   0.20007   0.20186   0.20570
 Alpha virt. eigenvalues --    0.20870   0.21060   0.21405   0.21449   0.21681
 Alpha virt. eigenvalues --    0.22648   0.23551   0.23905   0.24285   0.24994
 Alpha virt. eigenvalues --    0.25409   0.25703   0.26313   0.26627   0.26979
 Alpha virt. eigenvalues --    0.27258   0.27596   0.28216   0.28420   0.30118
 Alpha virt. eigenvalues --    0.31086   0.32531   0.32870   0.34058   0.34410
 Alpha virt. eigenvalues --    0.34948   0.36037   0.36534   0.38706   0.39523
 Alpha virt. eigenvalues --    0.41024   0.44598   0.46172   0.48253   0.48406
 Alpha virt. eigenvalues --    0.49825   0.50297   0.50470   0.51260   0.51861
 Alpha virt. eigenvalues --    0.52207   0.52400   0.53005   0.53403   0.54039
 Alpha virt. eigenvalues --    0.54474   0.54625   0.55187   0.55656   0.56076
 Alpha virt. eigenvalues --    0.56758   0.57439   0.57833   0.58132   0.58675
 Alpha virt. eigenvalues --    0.59282   0.60324   0.60473   0.61355   0.61508
 Alpha virt. eigenvalues --    0.62829   0.63387   0.64114   0.64543   0.64854
 Alpha virt. eigenvalues --    0.65004   0.65597   0.66099   0.66322   0.66873
 Alpha virt. eigenvalues --    0.67543   0.67854   0.68503   0.68791   0.69767
 Alpha virt. eigenvalues --    0.70630   0.71010   0.71682   0.72503   0.73528
 Alpha virt. eigenvalues --    0.73918   0.75088   0.75231   0.75596   0.76543
 Alpha virt. eigenvalues --    0.76817   0.77477   0.78071   0.78623   0.79215
 Alpha virt. eigenvalues --    0.79676   0.80431   0.81011   0.82020   0.82395
 Alpha virt. eigenvalues --    0.82866   0.83518   0.83962   0.84422   0.84554
 Alpha virt. eigenvalues --    0.85379   0.85760   0.86220   0.87123   0.87200
 Alpha virt. eigenvalues --    0.87456   0.88090   0.88347   0.88625   0.89052
 Alpha virt. eigenvalues --    0.89793   0.90008   0.90445   0.90746   0.90995
 Alpha virt. eigenvalues --    0.91122   0.91309   0.91616   0.92191   0.92424
 Alpha virt. eigenvalues --    0.93041   0.93634   0.93987   0.94362   0.94828
 Alpha virt. eigenvalues --    0.95312   0.95863   0.96205   0.96294   0.96520
 Alpha virt. eigenvalues --    0.97079   0.98115   0.98358   0.99031   0.99702
 Alpha virt. eigenvalues --    0.99839   1.00573   1.01355   1.02045   1.02478
 Alpha virt. eigenvalues --    1.03583   1.04527   1.05017   1.05656   1.07075
 Alpha virt. eigenvalues --    1.08160   1.09631   1.10194   1.11638   1.11741
 Alpha virt. eigenvalues --    1.13082   1.13884   1.14196   1.15649   1.16272
 Alpha virt. eigenvalues --    1.16809   1.17077   1.17475   1.19038   1.21481
 Alpha virt. eigenvalues --    1.21998   1.23738   1.24836   1.25965   1.27676
 Alpha virt. eigenvalues --    1.29155   1.30164   1.30902   1.31377   1.33182
 Alpha virt. eigenvalues --    1.33348   1.35444   1.38016   1.38963   1.40578
 Alpha virt. eigenvalues --    1.41459   1.42487   1.44640   1.45424   1.47476
 Alpha virt. eigenvalues --    1.48446   1.49919   1.50834   1.51469   1.52391
 Alpha virt. eigenvalues --    1.53437   1.54292   1.56243   1.56492   1.58697
 Alpha virt. eigenvalues --    1.59405   1.59952   1.62052   1.63656   1.64226
 Alpha virt. eigenvalues --    1.64893   1.66307   1.66864   1.68106   1.69029
 Alpha virt. eigenvalues --    1.70629   1.71987   1.73257   1.73830   1.75000
 Alpha virt. eigenvalues --    1.75393   1.75899   1.76668   1.77378   1.78758
 Alpha virt. eigenvalues --    1.79509   1.79946   1.80484   1.81624   1.81811
 Alpha virt. eigenvalues --    1.83391   1.84126   1.84523   1.85174   1.85736
 Alpha virt. eigenvalues --    1.87076   1.87189   1.87985   1.88802   1.89113
 Alpha virt. eigenvalues --    1.89414   1.90306   1.90721   1.91482   1.91947
 Alpha virt. eigenvalues --    1.92395   1.92852   1.94089   1.95091   1.95871
 Alpha virt. eigenvalues --    1.96318   1.96833   1.97125   1.98346   1.99196
 Alpha virt. eigenvalues --    1.99310   1.99844   2.00299   2.01232   2.01480
 Alpha virt. eigenvalues --    2.02288   2.02846   2.03627   2.04741   2.05487
 Alpha virt. eigenvalues --    2.06360   2.07902   2.08721   2.09467   2.10523
 Alpha virt. eigenvalues --    2.11066   2.11366   2.12397   2.14221   2.14598
 Alpha virt. eigenvalues --    2.15012   2.15863   2.16100   2.17173   2.18371
 Alpha virt. eigenvalues --    2.18780   2.19104   2.20301   2.21546   2.22803
 Alpha virt. eigenvalues --    2.23541   2.24509   2.25570   2.26036   2.27593
 Alpha virt. eigenvalues --    2.27959   2.28700   2.29188   2.29995   2.31344
 Alpha virt. eigenvalues --    2.32324   2.32793   2.33446   2.33974   2.34361
 Alpha virt. eigenvalues --    2.35983   2.37344   2.38791   2.39197   2.39827
 Alpha virt. eigenvalues --    2.40761   2.41607   2.42181   2.42584   2.43764
 Alpha virt. eigenvalues --    2.44326   2.45691   2.46562   2.47925   2.48815
 Alpha virt. eigenvalues --    2.49608   2.51322   2.52439   2.52973   2.56236
 Alpha virt. eigenvalues --    2.57005   2.57676   2.58433   2.59724   2.60976
 Alpha virt. eigenvalues --    2.62553   2.63516   2.63937   2.65281   2.66315
 Alpha virt. eigenvalues --    2.67699   2.67839   2.69639   2.71225   2.72463
 Alpha virt. eigenvalues --    2.73015   2.73824   2.76170   2.76612   2.78739
 Alpha virt. eigenvalues --    2.79384   2.80320   2.81230   2.81705   2.86632
 Alpha virt. eigenvalues --    2.88636   2.89739   2.93040   2.94521   2.95231
 Alpha virt. eigenvalues --    2.97614   2.99558   3.01062   3.01516   3.02903
 Alpha virt. eigenvalues --    3.06499   3.07193   3.12692   3.16656   3.22510
 Alpha virt. eigenvalues --    3.23578   3.29262   3.99582   4.09039   4.11589
 Alpha virt. eigenvalues --    4.13208   4.15429   4.16642   4.18077   4.19614
 Alpha virt. eigenvalues --    4.22131   4.23261   4.25472   4.29049   4.31954
 Alpha virt. eigenvalues --    4.32531   4.34818   4.35779   4.43002   4.44209
 Alpha virt. eigenvalues --    4.45574   4.46119   4.51624   4.57562   4.63354
 Alpha virt. eigenvalues --    4.66088   4.67701   4.69567   4.75674   4.78056
 Alpha virt. eigenvalues --    4.89970   4.96589   5.27024
          Condensed to atoms (all electrons):
 Mulliken atomic charges:
              1
     1  C   -0.194927
     2  C    0.195493
     3  C   -0.190969
     4  C    0.320437
     5  C   -0.028453
     6  C   -0.329414
     7  C    0.202191
     8  C    0.413950
     9  C   -0.098436
    10  C    0.392219
    11  C    0.414625
    12  O   -0.464097
    13  C   -0.131765
    14  C   -0.251697
    15  C   -0.456671
    16  O   -0.489920
    17  C   -0.156071
    18  C    0.306260
    19  O   -0.526975
    20  C   -0.308324
    21  O   -0.670756
    22  C   -0.310807
    23  C    0.098249
    24  O   -0.584396
    25  C    0.189221
    26  C   -0.504718
    27  C   -0.395126
    28  C   -0.461021
    29  C   -0.462540
    30  H    0.145406
    31  H    0.149419
    32  C   -0.519492
    33  H    0.125767
    34  H    0.163114
    35  H    0.176374
    36  H    0.146390
    37  H    0.152212
    38  H    0.131075
    39  H    0.140771
    40  H    0.163470
    41  H    0.156343
    42  H    0.149002
    43  H    0.167745
    44  H    0.417933
    45  H    0.151863
    46  H    0.176357
    47  H    0.137019
    48  H    0.150198
    49  H    0.166879
    50  H    0.153410
    51  H    0.148869
    52  H    0.141480
    53  H    0.184494
    54  H    0.151396
    55  H    0.139150
    56  H    0.147299
    57  H    0.159697
    58  H    0.161809
    59  H    0.158181
    60  H    0.158084
    61  H    0.153378
    62  C   -0.464682
    63  H    0.163778
    64  H    0.142133
    65  H    0.138114
 Sum of Mulliken atomic charges =   0.00000
 Mulliken charges with hydrogens summed into heavy atoms:
              1
     1  C   -0.069160
     2  C    0.195493
     3  C   -0.041551
     4  C    0.320437
     5  C   -0.028453
     6  C    0.010074
     7  C    0.202191
     8  C    0.413950
     9  C   -0.098436
    10  C    0.392219
    11  C    0.414625
    12  O   -0.464097
    13  C    0.014625
    14  C    0.031589
    15  C    0.003913
    16  O   -0.489920
    17  C   -0.010665
    18  C    0.306260
    19  O   -0.526975
    20  C    0.008423
    21  O   -0.252822
    22  C    0.017413
    23  C    0.235268
    24  O   -0.584396
    25  C    0.189221
    26  C   -0.034230
    27  C   -0.104777
    28  C    0.014019
    29  C    0.006264
    32  C   -0.049849
    62  C   -0.020656
 Sum of Mulliken charges with hydrogens summed into heavy atoms =   0.00000
 Electronic spatial extent (au):  <R**2>=          11650.7536
 Charge=              0.0000 electrons
 Dipole moment (field-independent basis, Debye):
    X=             -4.5459    Y=              2.7578    Z=             -0.3246  Tot=              5.3269
 Quadrupole moment (field-independent basis, Debye-Ang):
   XX=           -182.2604   YY=           -178.7546   ZZ=           -185.9381
   XY=             -0.3954   XZ=             -6.6781   YZ=             -0.0913
 Traceless Quadrupole moment (field-independent basis, Debye-Ang):
   XX=              0.0573   YY=              3.5631   ZZ=             -3.6204
   XY=             -0.3954   XZ=             -6.6781   YZ=             -0.0913
 Octapole moment (field-independent basis, Debye-Ang**2):
  XXX=            -23.2501  YYY=             51.1118  ZZZ=              1.7605  XYY=             -2.1711
  XXY=            -15.3014  XXZ=            -36.3749  XZZ=            -30.1842  YZZ=             -5.8983
  YYZ=            -12.1851  XYZ=             -7.6429
 Hexadecapole moment (field-independent basis, Debye-Ang**3):
 XXXX=          -8592.7360 YYYY=          -4366.5246 ZZZZ=          -2570.2760 XXXY=            -44.0422
 XXXZ=              2.2793 YYYX=             52.5789 YYYZ=              0.5380 ZZZX=              8.9510
 ZZZY=            -17.8609 XXYY=          -2114.6375 XXZZ=          -1861.5217 YYZZ=          -1146.2780
 XXYZ=             35.7901 YYXZ=             15.0971 ZZXY=             20.9611
 N-N= 3.508492782040D+03 E-N=-1.024336617008D+04  KE= 1.374841460164D+03
 Calling FoFJK, ICntrl=      2127 FMM=T ISym2X=0 I1Cent= 0 IOpClX= 0 NMat=1 NMatS=1 NMatT=0.
 ***** Axes restored to original set *****
 -------------------------------------------------------------------
 Center     Atomic                   Forces (Hartrees/Bohr)
 Number     Number              X              Y              Z
 -------------------------------------------------------------------
      1        6           0.009827126   -0.000285030    0.000717583
      2        6          -0.009381940   -0.006231030    0.003175590
      3        6          -0.006118428   -0.009955448   -0.003111715
      4        6           0.010574896   -0.007527894    0.012575143
      5        6          -0.008425441    0.005430790    0.005199276
      6        6          -0.009312558   -0.008488863   -0.005235123
      7        6           0.020607600    0.015677174    0.013146177
      8        6          -0.001727606   -0.005120065   -0.028927282
      9        6           0.006257432   -0.007077624    0.008764588
     10        6          -0.013853933    0.017453254   -0.007079162
     11        6          -0.011101265   -0.006033727   -0.018507769
     12        8           0.000593004    0.012593896    0.014245127
     13        6          -0.006092107    0.001907605   -0.004863712
     14        6           0.004249727    0.003897360   -0.001612505
     15        6          -0.009219452   -0.005651122    0.000666564
     16        8           0.006408191   -0.009957500    0.003644578
     17        6           0.003390513   -0.006647803   -0.011585372
     18        6           0.030841239    0.004736795   -0.011623664
     19        8          -0.014488188   -0.008897259    0.033959321
     20        6           0.009638626   -0.001871956   -0.005547782
     21        8          -0.003362417    0.005075518    0.004642145
     22        6          -0.006207906    0.000715809    0.011445890
     23        6          -0.004671430    0.004168817    0.007317781
     24        8           0.000634659    0.002305539   -0.011708364
     25        6          -0.002244776    0.006590632    0.013275974
     26        6           0.001156379    0.001397489    0.001129180
     27        6           0.001309144   -0.004377334   -0.010516082
     28        6          -0.001642884    0.008581820    0.001602523
     29        6          -0.008204382   -0.000875574   -0.008031554
     30        1          -0.002972084    0.001772356    0.000062926
     31        1          -0.001827898    0.006010995    0.000603261
     32        6          -0.002516709   -0.000402134    0.000096923
     33        1           0.000510652   -0.000618523    0.000033984
     34        1           0.000349417    0.005145186   -0.000487236
     35        1          -0.000621178    0.004431701   -0.001542074
     36        1           0.001428494   -0.001870671   -0.000588129
     37        1          -0.002581674   -0.002736967    0.001427266
     38        1          -0.003086172   -0.001640379    0.001034670
     39        1           0.000402120    0.000971625    0.000395159
     40        1          -0.000169614    0.001137793    0.001240197
     41        1           0.002076633    0.000598847   -0.000468003
     42        1          -0.001986597   -0.001494855   -0.001481537
     43        1           0.000390083    0.001146257    0.000687719
     44        1          -0.003041801    0.000730771   -0.003897785
     45        1          -0.000122126    0.000579559   -0.003061975
     46        1           0.000340834   -0.002412731   -0.001304431
     47        1           0.001118054   -0.003365120   -0.000573110
     48        1           0.003336474   -0.001288066   -0.001936000
     49        1           0.002290925   -0.002405690   -0.001677425
     50        1          -0.002035096    0.000270089   -0.000661986
     51        1          -0.000887941    0.000815286   -0.000767282
     52        1           0.000534516   -0.001278751    0.000069915
     53        1           0.000067423   -0.004488126    0.003375705
     54        1           0.000574722   -0.003353825   -0.002157626
     55        1           0.000194913   -0.000821216   -0.000395506
     56        1          -0.000013316    0.000790058    0.001412454
     57        1           0.001719408    0.001484788    0.002005398
     58        1           0.001091277   -0.001519394    0.002636747
     59        1          -0.000684605    0.000907369   -0.000314297
     60        1           0.003958998   -0.001524454   -0.000023311
     61        1           0.004232171   -0.001133422    0.000076831
     62        6           0.003234441    0.002884403   -0.003001460
     63        1           0.002150315   -0.000778246    0.000890914
     64        1           0.001306590    0.000673406    0.001154187
     65        1           0.001804529    0.001247807   -0.000022439
 -------------------------------------------------------------------
 Cartesian Forces:  Max     0.033959321 RMS     0.006790349

 GradGradGradGradGradGradGradGradGradGradGradGradGradGradGradGradGradGrad
 Berny optimization.
 Internal  Forces:  Max     0.019778210 RMS     0.003432464
 Search for a local minimum.
 Step number   1 out of a maximum of  390
 All quantities printed in internal units (Hartrees-Bohrs-Radians)
 Mixed Optimization -- RFO/linear search
 Second derivative matrix not updated -- first step.
 ITU=  0
     Eigenvalues ---    0.00282   0.00289   0.00356   0.00382   0.00440
     Eigenvalues ---    0.00468   0.00469   0.00563   0.00582   0.00629
     Eigenvalues ---    0.00666   0.00670   0.00728   0.00729   0.00889
     Eigenvalues ---    0.01022   0.01168   0.01254   0.01307   0.01449
     Eigenvalues ---    0.01494   0.01690   0.01740   0.01823   0.02090
     Eigenvalues ---    0.02624   0.02826   0.02826   0.03091   0.03194
     Eigenvalues ---    0.03525   0.03701   0.03794   0.04070   0.04187
     Eigenvalues ---    0.04243   0.04273   0.04367   0.04494   0.04652
     Eigenvalues ---    0.04726   0.04842   0.04972   0.05148   0.05287
     Eigenvalues ---    0.05318   0.05339   0.05407   0.05472   0.05496
     Eigenvalues ---    0.05504   0.05524   0.05531   0.05571   0.05618
     Eigenvalues ---    0.05639   0.05704   0.05860   0.05945   0.06137
     Eigenvalues ---    0.06552   0.06775   0.07091   0.07094   0.07145
     Eigenvalues ---    0.07188   0.07255   0.07307   0.07425   0.08054
     Eigenvalues ---    0.08333   0.08381   0.08952   0.09419   0.09489
     Eigenvalues ---    0.10035   0.10224   0.11418   0.11942   0.12233
     Eigenvalues ---    0.12591   0.13316   0.14572   0.15402   0.15874
     Eigenvalues ---    0.15965   0.16000   0.16000   0.16000   0.16000
     Eigenvalues ---    0.16000   0.16000   0.16000   0.16000   0.16000
     Eigenvalues ---    0.16000   0.16000   0.16000   0.16000   0.16000
     Eigenvalues ---    0.16000   0.16000   0.16000   0.16000   0.16000
     Eigenvalues ---    0.16000   0.16337   0.16614   0.17661   0.18135
     Eigenvalues ---    0.19822   0.21028   0.21926   0.22393   0.22553
     Eigenvalues ---    0.23507   0.24732   0.24964   0.24985   0.24992
     Eigenvalues ---    0.24994   0.25000   0.25000   0.26122   0.26696
     Eigenvalues ---    0.26980   0.27100   0.27325   0.27683   0.28371
     Eigenvalues ---    0.28824   0.28870   0.28939   0.29331   0.29516
     Eigenvalues ---    0.29922   0.30128   0.30250   0.30927   0.31318
     Eigenvalues ---    0.31626   0.31934   0.32080   0.33226   0.33586
     Eigenvalues ---    0.33840   0.33894   0.33969   0.33992   0.34005
     Eigenvalues ---    0.34010   0.34018   0.34026   0.34075   0.34077
     Eigenvalues ---    0.34083   0.34142   0.34202   0.34215   0.34221
     Eigenvalues ---    0.34233   0.34239   0.34249   0.34255   0.34257
     Eigenvalues ---    0.34258   0.34259   0.34266   0.34275   0.34280
     Eigenvalues ---    0.34292   0.34297   0.34369   0.34467   0.34498
     Eigenvalues ---    0.34917   0.35009   0.35233   0.35427   0.36731
     Eigenvalues ---    0.37173   0.41069   0.44475   0.50196   0.53602
     Eigenvalues ---    0.54326   0.56256   0.90503   0.90997
 RFO step:  Lambda=-2.15240949D-02 EMin= 2.82031780D-03
 Linear search not attempted -- first point.
 Iteration  1 RMS(Cart)=  0.03912025 RMS(Int)=  0.00065207
 Iteration  2 RMS(Cart)=  0.00098875 RMS(Int)=  0.00024585
 Iteration  3 RMS(Cart)=  0.00000058 RMS(Int)=  0.00024585
 Variable       Old X    -DE/DX   Delta X   Delta X   Delta X     New X
                                 (Linear)    (Quad)   (Total)
    R1        2.53223  -0.00169   0.00000  -0.00377  -0.00387   2.52836
    R2        2.82015   0.00879   0.00000   0.02529   0.02516   2.84531
    R3        2.05660   0.00028   0.00000   0.00075   0.00075   2.05735
    R4        2.84206   0.00524   0.00000   0.01314   0.01317   2.85523
    R5        2.83998   0.00446   0.00000   0.01304   0.01304   2.85301
    R6        2.94272   0.00694   0.00000   0.01799   0.01795   2.96067
    R7        2.89606   0.01054   0.00000   0.03576   0.03568   2.93174
    R8        2.08034  -0.00191   0.00000  -0.00536  -0.00536   2.07499
    R9        2.92728   0.01329   0.00000   0.04217   0.04208   2.96936
   R10        2.91515   0.00782   0.00000   0.03011   0.03042   2.94557
   R11        2.76200  -0.00627   0.00000  -0.01768  -0.01772   2.74428
   R12        2.91768   0.00588   0.00000   0.02176   0.02173   2.93940
   R13        2.91136   0.00493   0.00000   0.00928   0.00894   2.92030
   R14        2.91390   0.00691   0.00000   0.02346   0.02346   2.93735
   R15        2.07510  -0.00144   0.00000  -0.00400  -0.00400   2.07110
   R16        2.07601   0.00234   0.00000   0.00651   0.00651   2.08252
   R17        2.81535   0.01141   0.00000   0.02648   0.02630   2.84165
   R18        2.86593   0.01460   0.00000   0.05227   0.05180   2.91773
   R19        2.68433   0.00258   0.00000   0.00651   0.00655   2.69087
   R20        2.52543   0.01387   0.00000   0.02438   0.02455   2.54998
   R21        2.62072  -0.01978   0.00000  -0.04569  -0.04541   2.57531
   R22        2.79629   0.00098   0.00000  -0.00120  -0.00104   2.79525
   R23        2.79798   0.01700   0.00000   0.04639   0.04639   2.84437
   R24        2.32477  -0.00794   0.00000  -0.00852  -0.00852   2.31625
   R25        2.32702  -0.01874   0.00000  -0.02022  -0.02022   2.30680
   R26        2.88119   0.00241   0.00000   0.00751   0.00751   2.88870
   R27        2.90275   0.00420   0.00000   0.01353   0.01353   2.91628
   R28        2.88938   0.00729   0.00000   0.02301   0.02301   2.91239
   R29        2.07203  -0.00094   0.00000  -0.00260  -0.00260   2.06943
   R30        2.07286  -0.00012   0.00000  -0.00032  -0.00032   2.07254
   R31        2.07299   0.00084   0.00000   0.00233   0.00233   2.07532
   R32        2.87709   0.00919   0.00000   0.02848   0.02848   2.90557
   R33        2.06912   0.00063   0.00000   0.00172   0.00172   2.07084
   R34        2.06896   0.00001   0.00000   0.00003   0.00003   2.06899
   R35        2.07091  -0.00027   0.00000  -0.00074  -0.00074   2.07017
   R36        2.91032  -0.00021   0.00000   0.01145   0.01159   2.92191
   R37        2.90283   0.00551   0.00000   0.01807   0.01804   2.92087
[...]
     56          1           0        0.452526    5.191731   -0.301960
     57          1           0        2.138930    4.660012   -0.149905
     58          1           0        0.946267    4.160154    1.058494
     59          1           0       -4.005544    1.285598    3.765908
     60          1           0       -3.615129    2.714974    2.793254
     61          1           0       -4.677256    1.476235    2.132918
     62          6           0        5.293075   -1.486826   -1.516093
     63          1           0        4.895063   -0.497691   -1.765965
     64          1           0        4.746916   -2.231943   -2.108220
     65          1           0        6.341665   -1.512156   -1.834761
 ---------------------------------------------------------------------
 Rotational constants (GHZ):      0.1955301      0.1287840      0.1062888

 **********************************************************************

            Population analysis using the SCF density.

 **********************************************************************

 Orbital symmetries:
       Occupied  (A) (A) (A) (A) (A) (A) (A) (A) (A) (A) (A) (A)
                 (A) (A) (A) (A) (A) (A) (A) (A) (A) (A) (A) (A)
                 (A) (A) (A) (A) (A) (A) (A) (A) (A) (A) (A) (A)
                 (A) (A) (A) (A) (A) (A) (A) (A) (A) (A) (A) (A)
                 (A) (A) (A) (A) (A) (A) (A) (A) (A) (A) (A) (A)
                 (A) (A) (A) (A) (A) (A) (A) (A) (A) (A) (A) (A)
                 (A) (A) (A) (A) (A) (A) (A) (A) (A) (A) (A) (A)
                 (A) (A) (A) (A) (A) (A) (A) (A) (A) (A) (A) (A)
                 (A) (A) (A) (A) (A) (A) (A) (A) (A) (A) (A) (A)
                 (A) (A) (A) (A) (A) (A) (A)
       Virtual   (A) (A) (A) (A) (A) (A) (A) (A) (A) (A) (A) (A)
                 (A) (A) (A) (A) (A) (A) (A) (A) (A) (A) (A) (A)
                 (A) (A) (A) (A) (A) (A) (A) (A) (A) (A) (A) (A)
                 (A) (A) (A) (A) (A) (A) (A) (A) (A) (A) (A) (A)
                 (A) (A) (A) (A) (A) (A) (A) (A) (A) (A) (A) (A)
                 (A) (A) (A) (A) (A) (A) (A) (A) (A) (A) (A) (A)
                 (A) (A) (A) (A) (A) (A) (A) (A) (A) (A) (A) (A)
                 (A) (A) (A) (A) (A) (A) (A) (A) (A) (A) (A) (A)
                 (A) (A) (A) (A) (A) (A) (A) (A) (A) (A) (A) (A)
                 (A) (A) (A) (A) (A) (A) (A) (A) (A) (A) (A) (A)
                 (A) (A) (A) (A) (A) (A) (A) (A) (A) (A) (A) (A)
                 (A) (A) (A) (A) (A) (A) (A) (A) (A) (A) (A) (A)
                 (A) (A) (A) (A) (A) (A) (A) (A) (A) (A) (A) (A)
                 (A) (A) (A) (A) (A) (A) (A) (A) (A) (A) (A) (A)
                 (A) (A) (A) (A) (A) (A) (A) (A) (A) (A) (A) (A)
                 (A) (A) (A) (A) (A) (A) (A) (A) (A) (A) (A) (A)
                 (A) (A) (A) (A) (A) (A) (A) (A) (A) (A) (A) (A)
                 (A) (A) (A) (A) (A) (A) (A) (A) (A) (A) (A) (A)
                 (A) (A) (A) (A) (A) (A) (A) (A) (A) (A) (A) (A)
                 (A) (A) (A) (A) (A) (A) (A) (A) (A) (A) (A) (A)
                 (A) (A) (A) (A) (A) (A) (A) (A) (A) (A) (A) (A)
                 (A) (A) (A) (A) (A) (A) (A) (A) (A) (A) (A) (A)
                 (A) (A) (A) (A) (A) (A) (A) (A) (A) (A) (A) (A)
                 (A) (A) (A) (A) (A) (A) (A) (A) (A) (A) (A) (A)
                 (A) (A) (A) (A) (A) (A) (A) (A) (A) (A) (A) (A)
                 (A) (A) (A) (A) (A) (A) (A) (A) (A) (A) (A) (A)
                 (A) (A) (A) (A) (A) (A) (A) (A) (A) (A) (A) (A)
                 (A) (A) (A) (A) (A) (A) (A) (A) (A) (A) (A) (A)
                 (A) (A) (A) (A) (A) (A) (A) (A) (A) (A) (A) (A)
                 (A) (A) (A) (A) (A) (A) (A) (A) (A) (A) (A) (A)
                 (A) (A) (A) (A) (A) (A) (A) (A) (A) (A) (A) (A)
                 (A) (A) (A) (A) (A) (A) (A) (A) (A) (A) (A) (A)
                 (A) (A) (A) (A) (A) (A) (A) (A) (A) (A) (A) (A)
                 (A) (A) (A) (A) (A) (A) (A) (A) (A) (A) (A) (A)
                 (A) (A) (A) (A) (A) (A) (A) (A) (A) (A)
 The electronic state is 1-A.
 Alpha  occ. eigenvalues --  -19.19957 -19.17179 -19.15200 -19.13233 -19.11314
 Alpha  occ. eigenvalues --  -10.27431 -10.27282 -10.26634 -10.26227 -10.26072
 Alpha  occ. eigenvalues --  -10.25641 -10.25006 -10.21524 -10.20710 -10.20609
 Alpha  occ. eigenvalues --  -10.20448 -10.20380 -10.20168 -10.20002 -10.19321
 Alpha  occ. eigenvalues --  -10.19058 -10.18997 -10.18996 -10.18639 -10.18574
 Alpha  occ. eigenvalues --  -10.18311 -10.18173 -10.16946 -10.16468 -10.16050
 Alpha  occ. eigenvalues --  -10.15402  -1.09608  -1.06627  -1.03294  -1.02408
 Alpha  occ. eigenvalues --   -1.01363  -0.87124  -0.83779  -0.82186  -0.81379
 Alpha  occ. eigenvalues --   -0.80172  -0.78558  -0.76761  -0.74153  -0.73151
 Alpha  occ. eigenvalues --   -0.72236  -0.71032  -0.70105  -0.69194  -0.68298
 Alpha  occ. eigenvalues --   -0.64985  -0.63998  -0.63207  -0.61562  -0.60814
 Alpha  occ. eigenvalues --   -0.59214  -0.58504  -0.56847  -0.54680  -0.53466
 Alpha  occ. eigenvalues --   -0.52688  -0.51657  -0.51288  -0.49920  -0.49566
 Alpha  occ. eigenvalues --   -0.48135  -0.47275  -0.47002  -0.46617  -0.46060
 Alpha  occ. eigenvalues --   -0.45243  -0.44365  -0.44087  -0.43464  -0.42832
 Alpha  occ. eigenvalues --   -0.42485  -0.41865  -0.41797  -0.41518  -0.41270
 Alpha  occ. eigenvalues --   -0.40816  -0.40611  -0.40350  -0.39965  -0.39884
 Alpha  occ. eigenvalues --   -0.39379  -0.39191  -0.38931  -0.38481  -0.38150
 Alpha  occ. eigenvalues --   -0.37615  -0.37255  -0.37044  -0.36696  -0.36353
 Alpha  occ. eigenvalues --   -0.35882  -0.35287  -0.34851  -0.34358  -0.34192
 Alpha  occ. eigenvalues --   -0.33746  -0.33217  -0.32929  -0.32533  -0.31858
 Alpha  occ. eigenvalues --   -0.31409  -0.30946  -0.30489  -0.28258  -0.27378
 Alpha  occ. eigenvalues --   -0.25901  -0.24585  -0.24222  -0.23407  -0.21981
 Alpha virt. eigenvalues --   -0.04883  -0.01115   0.00911   0.00951   0.05700
 Alpha virt. eigenvalues --    0.07409   0.08182   0.08593   0.09530   0.09980
 Alpha virt. eigenvalues --    0.10495   0.11374   0.11666   0.11850   0.12256
 Alpha virt. eigenvalues --    0.12797   0.12915   0.13424   0.13614   0.14014
 Alpha virt. eigenvalues --    0.14194   0.14917   0.15033   0.15337   0.15661
 Alpha virt. eigenvalues --    0.15922   0.16338   0.16562   0.16741   0.17516
 Alpha virt. eigenvalues --    0.17787   0.18103   0.18487   0.18907   0.19101
 Alpha virt. eigenvalues --    0.19653   0.19790   0.20072   0.20369   0.20759
 Alpha virt. eigenvalues --    0.20967   0.21255   0.21422   0.21883   0.22221
 Alpha virt. eigenvalues --    0.22467   0.23292   0.23811   0.24322   0.24565
 Alpha virt. eigenvalues --    0.24907   0.25304   0.26219   0.26585   0.26624
 Alpha virt. eigenvalues --    0.27319   0.27784   0.28132   0.28885   0.30068
 Alpha virt. eigenvalues --    0.30553   0.32092   0.32218   0.33737   0.34122
 Alpha virt. eigenvalues --    0.35026   0.35231   0.38160   0.38301   0.39970
 Alpha virt. eigenvalues --    0.41548   0.44221   0.45674   0.47912   0.48219
 Alpha virt. eigenvalues --    0.49391   0.50066   0.50288   0.50735   0.51391
 Alpha virt. eigenvalues --    0.51733   0.51956   0.52604   0.53032   0.53421
 Alpha virt. eigenvalues --    0.53817   0.54367   0.54815   0.55203   0.55420
 Alpha virt. eigenvalues --    0.56422   0.57160   0.57715   0.58364   0.58919
 Alpha virt. eigenvalues --    0.59267   0.59885   0.60331   0.60700   0.61783
 Alpha virt. eigenvalues --    0.62250   0.63112   0.63244   0.63827   0.64885
 Alpha virt. eigenvalues --    0.65258   0.65468   0.66015   0.66856   0.67553
 Alpha virt. eigenvalues --    0.67753   0.68395   0.69386   0.69625   0.70106
 Alpha virt. eigenvalues --    0.70651   0.70745   0.71666   0.72302   0.72656
 Alpha virt. eigenvalues --    0.73452   0.74100   0.75434   0.75748   0.76484
 Alpha virt. eigenvalues --    0.76931   0.77607   0.78477   0.78617   0.79148
 Alpha virt. eigenvalues --    0.80444   0.80815   0.81101   0.81634   0.82299
 Alpha virt. eigenvalues --    0.82722   0.83242   0.83899   0.84462   0.84821
 Alpha virt. eigenvalues --    0.85434   0.85786   0.86154   0.86565   0.87097
 Alpha virt. eigenvalues --    0.87797   0.88255   0.88817   0.89079   0.89257
 Alpha virt. eigenvalues --    0.89387   0.89859   0.90042   0.90289   0.90622
 Alpha virt. eigenvalues --    0.91188   0.91349   0.91897   0.92337   0.92766
 Alpha virt. eigenvalues --    0.93333   0.93726   0.94196   0.94322   0.94584
 Alpha virt. eigenvalues --    0.94902   0.95648   0.96082   0.96242   0.96513
 Alpha virt. eigenvalues --    0.97103   0.97853   0.98167   0.98728   0.99370
 Alpha virt. eigenvalues --    1.00277   1.01154   1.01809   1.02377   1.02766
 Alpha virt. eigenvalues --    1.04379   1.04908   1.05671   1.07411   1.08092
 Alpha virt. eigenvalues --    1.08743   1.10294   1.10888   1.11355   1.12469
 Alpha virt. eigenvalues --    1.13326   1.14226   1.14824   1.15427   1.16522
 Alpha virt. eigenvalues --    1.17041   1.18845   1.19017   1.20353   1.21953
 Alpha virt. eigenvalues --    1.23104   1.23600   1.25339   1.26731   1.29405
 Alpha virt. eigenvalues --    1.30126   1.30493   1.32001   1.32744   1.33689
 Alpha virt. eigenvalues --    1.35358   1.35975   1.38232   1.38975   1.40051
 Alpha virt. eigenvalues --    1.40767   1.43153   1.44086   1.44630   1.45836
 Alpha virt. eigenvalues --    1.48185   1.49283   1.50885   1.51734   1.53205
 Alpha virt. eigenvalues --    1.53265   1.54716   1.56228   1.56873   1.57667
 Alpha virt. eigenvalues --    1.59174   1.60770   1.61087   1.63589   1.63948
 Alpha virt. eigenvalues --    1.64332   1.66126   1.66457   1.67507   1.68331
 Alpha virt. eigenvalues --    1.70296   1.71524   1.72605   1.73752   1.74486
 Alpha virt. eigenvalues --    1.75078   1.75486   1.76250   1.76879   1.78344
 Alpha virt. eigenvalues --    1.79098   1.79323   1.80653   1.80787   1.81627
 Alpha virt. eigenvalues --    1.82387   1.83194   1.83722   1.84147   1.84946
 Alpha virt. eigenvalues --    1.85765   1.86187   1.86867   1.87633   1.87887
 Alpha virt. eigenvalues --    1.88529   1.89519   1.89941   1.90111   1.91417
 Alpha virt. eigenvalues --    1.91789   1.92676   1.93209   1.93863   1.94979
 Alpha virt. eigenvalues --    1.95180   1.96040   1.96771   1.97035   1.98060
 Alpha virt. eigenvalues --    1.98347   1.98591   1.99065   2.00079   2.00743
 Alpha virt. eigenvalues --    2.02225   2.02878   2.03129   2.04537   2.04856
 Alpha virt. eigenvalues --    2.06261   2.06400   2.07548   2.08013   2.09236
 Alpha virt. eigenvalues --    2.10009   2.11010   2.11264   2.12756   2.13839
 Alpha virt. eigenvalues --    2.13967   2.15037   2.16171   2.16651   2.18336
 Alpha virt. eigenvalues --    2.18660   2.18705   2.20134   2.20769   2.22480
 Alpha virt. eigenvalues --    2.23554   2.24256   2.25046   2.25407   2.26448
 Alpha virt. eigenvalues --    2.27529   2.29030   2.29448   2.30073   2.31145
 Alpha virt. eigenvalues --    2.32536   2.32745   2.33218   2.34154   2.35388
 Alpha virt. eigenvalues --    2.35803   2.37889   2.38432   2.38998   2.40249
 Alpha virt. eigenvalues --    2.41069   2.42021   2.42377   2.42732   2.44117
 Alpha virt. eigenvalues --    2.44984   2.45428   2.46483   2.47945   2.48552
 Alpha virt. eigenvalues --    2.49521   2.50141   2.51328   2.53571   2.55148
 Alpha virt. eigenvalues --    2.55528   2.56846   2.58055   2.58659   2.60367
 Alpha virt. eigenvalues --    2.62159   2.62583   2.64137   2.65116   2.66602
 Alpha virt. eigenvalues --    2.66921   2.67589   2.69601   2.70978   2.71807
 Alpha virt. eigenvalues --    2.72621   2.73612   2.75233   2.75991   2.76506
 Alpha virt. eigenvalues --    2.78109   2.79476   2.80364   2.82344   2.83340
 Alpha virt. eigenvalues --    2.87912   2.89147   2.93172   2.94702   2.95070
 Alpha virt. eigenvalues --    2.97421   2.98561   2.99265   3.01531   3.03528
 Alpha virt. eigenvalues --    3.04290   3.06082   3.11039   3.13238   3.21268
 Alpha virt. eigenvalues --    3.23986   3.30071   3.99511   4.08352   4.09979
 Alpha virt. eigenvalues --    4.11520   4.14634   4.15892   4.17912   4.19021
 Alpha virt. eigenvalues --    4.21585   4.24216   4.26096   4.27303   4.28930
 Alpha virt. eigenvalues --    4.31604   4.33155   4.35778   4.37911   4.42734
 Alpha virt. eigenvalues --    4.46327   4.48393   4.52050   4.56515   4.61413
 Alpha virt. eigenvalues --    4.65393   4.66796   4.70263   4.74220   4.76964
 Alpha virt. eigenvalues --    4.89015   4.94522   5.24352
          Condensed to atoms (all electrons):
 Mulliken atomic charges:
              1
     1  C   -0.194101
     2  C    0.199218
     3  C   -0.198837
     4  C    0.315199
     5  C   -0.024753
     6  C   -0.330735
     7  C    0.192481
     8  C    0.400344
     9  C   -0.069532
    10  C    0.381730
    11  C    0.410972
    12  O   -0.479527
    13  C   -0.152449
    14  C   -0.241796
    15  C   -0.459001
    16  O   -0.489601
    17  C   -0.151952
    18  C    0.290642
    19  O   -0.483378
    20  C   -0.310730
    21  O   -0.666435
    22  C   -0.336435
    23  C    0.104891
    24  O   -0.584445
    25  C    0.187447
    26  C   -0.506188
    27  C   -0.393266
    28  C   -0.468233
    29  C   -0.460382
    30  H    0.148478
    31  H    0.147427
    32  C   -0.521327
    33  H    0.125642
    34  H    0.161678
    35  H    0.164727
    36  H    0.164145
    37  H    0.149189
    38  H    0.120280
    39  H    0.147284
    40  H    0.147665
    41  H    0.150764
    42  H    0.152222
    43  H    0.162841
    44  H    0.422924
    45  H    0.148140
    46  H    0.190373
    47  H    0.135517
    48  H    0.151075
    49  H    0.168905
    50  H    0.154300
    51  H    0.152379
    52  H    0.139481
    53  H    0.195182
    54  H    0.164275
    55  H    0.144265
    56  H    0.149523
    57  H    0.171584
    58  H    0.161703
    59  H    0.158794
    60  H    0.156699
    61  H    0.155143
    62  C   -0.453841
    63  H    0.158013
    64  H    0.137190
    65  H    0.136214
 Sum of Mulliken atomic charges =   0.00000
 Mulliken charges with hydrogens summed into heavy atoms:
              1
     1  C   -0.068459
     2  C    0.199218
     3  C   -0.051410
     4  C    0.315199
     5  C   -0.024753
     6  C   -0.004330
     7  C    0.192481
     8  C    0.400344
     9  C   -0.069532
    10  C    0.381730
    11  C    0.410972
    12  O   -0.479527
    13  C    0.011696
    14  C    0.027673
    15  C   -0.013287
    16  O   -0.489601
    17  C   -0.003473
    18  C    0.290642
    19  O   -0.483378
    20  C    0.004333
    21  O   -0.243511
    22  C    0.002077
    23  C    0.240408
    24  O   -0.584445
    25  C    0.187447
    26  C   -0.031908
    27  C   -0.101405
    28  C    0.035489
    29  C    0.022428
    32  C   -0.050693
    62  C   -0.022424
 Sum of Mulliken charges with hydrogens summed into heavy atoms =   0.00000
 Electronic spatial extent (au):  <R**2>=          11865.5728
 Charge=              0.0000 electrons
 Dipole moment (field-independent basis, Debye):
    X=             -5.8435    Y=              2.6408    Z=              0.9125  Tot=              6.4772
 Quadrupole moment (field-independent basis, Debye-Ang):
   XX=           -189.9835   YY=           -175.8063   ZZ=           -181.5397
   XY=             -2.2556   XZ=             -1.6476   YZ=             -1.9816
 Traceless Quadrupole moment (field-independent basis, Debye-Ang):
   XX=             -7.5403   YY=              6.6369   ZZ=              0.9034
   XY=             -2.2556   XZ=             -1.6476   YZ=             -1.9816
 Octapole moment (field-independent basis, Debye-Ang**2):
  XXX=            -63.6457  YYY=             63.6791  ZZZ=              0.6578  XYY=            -10.4120
  XXY=            -18.7013  XXZ=            -16.0025  XZZ=            -13.0709  YZZ=             -3.6818
  YYZ=            -18.5242  XYZ=            -15.8047
 Hexadecapole moment (field-independent basis, Debye-Ang**3):
 XXXX=          -8623.4665 YYYY=          -4688.7658 ZZZZ=          -2598.0949 XXXY=            -72.6412
 XXXZ=             21.8385 YYYX=             78.6366 YYYZ=            -24.1323 ZZZX=             21.8795
 ZZZY=             -9.9420 XXYY=          -2189.7348 XXZZ=          -1804.6077 YYZZ=          -1216.5203
 XXYZ=             17.4367 YYXZ=             21.2622 ZZXY=             38.9463
 N-N= 3.489353234158D+03 E-N=-1.020503591040D+04  KE= 1.374461809423D+03
 1\1\GINC-B0803\FOpt\RB3LYP\6-31G(d)\C26H34O5\CAOFEI\24-Mar-2021\0\\# o
 pt rb3lyp/6-31g(d) geom=connectivity\\Title Card Required\\0,1\C,-0.17
 55782921,0.1616319435,-0.1539740039\C,1.1377326834,-0.0424867458,0.006
 8186879\C,2.0923577673,1.1293365655,-0.0123498344\C,1.5049988241,2.502
 2458034,0.4525958811\C,-0.0521861232,2.6319731957,0.4844067414\C,-0.76
 31399791,1.5325915176,-0.3600146239\C,2.2106338978,3.5576851377,-0.450
 5348424\C,1.3176044769,4.0664031197,-1.5787193966\C,0.0109276851,4.426
 9504937,-1.3844936649\C,-0.5679689336,3.9918661006,-0.0925135561\C,-0.
 7361878355,5.1996303831,-2.4314291633\O,-0.30214071,5.2459612688,-3.57
 51638452\C,-2.0461711568,5.9173163876,-2.0787392674\C,-2.2126528372,7.
 1947787584,-2.9207749499\C,-3.2164612233,4.9385513689,-2.3182408894\O,
 -1.5130231999,4.5427197568,0.4577693692\C,3.3078069187,2.8386932347,-1
 .2637505015\C,3.3988644792,3.6858612391,-2.5502370087\O,2.0082095733,4
 .1937026902,-2.7034938831\C,2.7343556773,1.4140254441,-1.3965619989\O,
 2.6459094805,4.6821029414,0.2854921513\C,-0.4031390297,2.5188261027,1.
 9921853507\C,0.9272317401,2.2612973413,2.7056483937\O,1.9294837894,2.7
 765879106,1.794453406\C,1.1638892794,2.8627296063,4.0738800758\C,2.572
 1174996,2.7214080635,4.599634813\C,0.1870220579,3.4177746773,4.7964223
 488\C,4.313693188,4.9023262639,-2.3894520283\C,3.7082196725,2.92855225
 11,-3.8375226147\H,4.2564152794,2.8332981803,-0.7190525893\H,2.9151802
 524,0.9308106664,0.688085358\C,1.7397618333,-1.4129748434,0.1778045815
 \H,-0.8575683484,-0.6872736959,-0.1675456886\H,-1.8278345645,1.5416862
 313,-0.1012747986\H,-0.7134259267,1.7984466491,-1.425462473\H,-2.03516
 24583,6.1730942287,-1.0165028337\H,-2.1600115042,6.9302755459,-3.98275
 64576\H,-3.221371762,7.5891576943,-2.7372779795\H,-4.1686663767,5.4261
 44969,-2.0805175006\H,-3.1359484076,4.0473332998,-1.6877350731\H,-3.24
 60058904,4.6221850239,-3.3675057439\H,3.4929010462,0.6714217278,-1.662
 3132837\H,1.9611385255,1.3767129193,-2.1732548119\H,2.5428864038,4.424
 608399,1.2244543826\H,-1.1174253516,1.7142703867,2.1858707071\H,-0.863
 825827,3.4562437674,2.3094603196\H,1.0977464185,1.1745903995,2.7839655
 768\H,2.8769000708,1.6660424311,4.6286160554\H,3.2908088093,3.23578145
 71,3.9515666005\H,2.6620184858,3.130378161,5.610209237\H,-0.8319702256
 ,3.5113028296,4.4357145903\H,0.3791586093,3.797246627,5.7967746941\H,4
 .0866005021,5.4444185755,-1.4686767224\H,4.1880101695,5.5770685387,-3.
 242075564\H,5.3608427949,4.5803667246,-2.3556132377\H,4.7174094474,2.5
 052025483,-3.7872172567\H,3.6642013458,3.6105667034,-4.6920530295\H,2.
 9979751937,2.1172415744,-4.0148118781\H,0.9733995581,-2.1942276036,0.1
 596237698\H,2.4650201997,-1.6346968662,-0.6172861048\H,2.2860595647,-1
 .4919012614,1.1280550205\C,-1.1778688081,8.2818358065,-2.6106316726\H,
 -0.1642530312,7.9392229506,-2.843950314\H,-1.2042140495,8.5674723653,-
 1.5514710243\H,-1.3671913485,9.1843040677,-3.2034560017\\Version=EM64L
 -G09RevB.01\State=1-A\HF=-1387.3198428\RMSD=6.702e-09\RMSF=3.478e-06\D
 ipole=1.3417475,-2.0023256,0.8272344\Quadrupole=3.9324955,-0.4120596,-
 3.520436,0.2425508,-3.6473237,2.6871698\PG=C01 [X(C26H34O5)]\\@


 Where a calculator on the ENIAC is equipped with 18,000
 vacuum tubes and weighs 30 tons, computers inthe future
 may  have only 1,000 vacuum tubes and weigh only 1 1/2 tons.
              ---Popular Mechanics, March 1949
 Job cpu time:  0 days 10 hours 13 minutes  9.8 seconds.
 File lengths (MBytes):  RWF=    186 Int=      0 D2E=      0 Chk=     20 Scr=      1
 Normal termination of Gaussian 09 at Wed Mar 24 15:23:34 2021.
