 Entering Gaussian System, Link 0=g09
 Initial command:
 /public/software/g09/g09/l1.exe /tmp/Gau-29528.inp -scrdir=/tmp/
 Entering Link 1 = /public/software/g09/g09/l1.exe PID=     29529.
  
 Copyright (c) 1988,1990,1992,1993,1995,1998,2003,2009,2010,
            Gaussian, Inc.  All Rights Reserved.
  
 This is part of the Gaussian(R) 09 program.  It is based on
 the Gaussian(R) 03 system (copyright 2003, Gaussian, Inc.),
 the Gaussian(R) 98 system (copyright 1998, Gaussian, Inc.),
 the Gaussian(R) 94 system (copyright 1995, Gaussian, Inc.),
 the Gaussian 92(TM) system (copyright 1992, Gaussian, Inc.),
 the Gaussian 90(TM) system (copyright 1990, Gaussian, Inc.),
 the Gaussian 88(TM) system (copyright 1988, Gaussian, Inc.),
 the Gaussian 86(TM) system (copyright 1986, Carnegie Mellon
 University), and the Gaussian 82(TM) system (copyright 1983,
 Carnegie Mellon University). Gaussian is a federally registered
 trademark of Gaussian, Inc.
  
 This software contains proprietary and confidential information,
 including trade secrets, belonging to Gaussian, Inc.
  
 This software is provided under written license and may be
 used, copied, transmitted, or stored only in accord with that
 written license.
  
 The following legend is applicable only to US Government
 contracts under FAR:
  
                    RESTRICTED RIGHTS LEGEND
  
 Use, reproduction and disclosure by the US Government is
 subject to restrictions as set forth in subparagraphs (a)
 and (c) of the Commercial Computer Software - Restricted
 Rights clause in FAR 52.227-19.
  
 Gaussian, Inc.
 340 Quinnipiac St., Bldg. 40, Wallingford CT 06492
  
  
 ---------------------------------------------------------------
 Warning -- This program may not be used in any manner that
 competes with the business of Gaussian, Inc. or will provide
 assistance to any competitor of Gaussian, Inc.  The licensee
 of this program is prohibited from giving any competitor of
 Gaussian, Inc. access to this program.  By using this program,
 the user acknowledges that Gaussian, Inc. is engaged in the
 business of creating and licensing software in the field of
 computational chemistry and represents and warrants to the
 licensee that it is not a competitor of Gaussian, Inc. and that
 it will not use this program in any manner prohibited above.
 ---------------------------------------------------------------
  

 Cite this work as:
 Gaussian 09, Revision B.01,
 M. J. Frisch, G. W. Trucks, H. B. Schlegel, G. E. Scuseria, 
 M. A. Robb, J. R. Cheeseman, G. Scalmani, V. Barone, B. Mennucci, 
 G. A. Petersson, H. Nakatsuji, M. Caricato, X. Li, H. P. Hratchian, 
 A. F. Izmaylov, J. Bloino, G. Zheng, J. L. Sonnenberg, M. Hada, 
 M. Ehara, K. Toyota, R. Fukuda, J. Hasegawa, M. Ishida, T. Nakajima, 
 Y. Honda, O. Kitao, H. Nakai, T. Vreven, J. A. Montgomery, Jr., 
 J. E. Peralta, F. Ogliaro, M. Bearpark, J. J. Heyd, E. Brothers, 
 K. N. Kudin, V. N. Staroverov, T. Keith, R. Kobayashi, J. Normand, 
 K. Raghavachari, A. Rendell, J. C. Burant, S. S. Iyengar, J. Tomasi, 
 M. Cossi, N. Rega, J. M. Millam, M. Klene, J. E. Knox, J. B. Cross, 
 V. Bakken, C. Adamo, J. Jaramillo, R. Gomperts, R. E. Stratmann, 
 O. Yazyev, A. J. Austin, R. Cammi, C. Pomelli, J. W. Ochterski, 
 R. L. Martin, K. Morokuma, V. G. Zakrzewski, G. A. Voth, 
 P. Salvador, J. J. Dannenberg, S. Dapprich, A. D. Daniels, 
 O. Farkas, J. B. Foresman, J. V. Ortiz, J. Cioslowski, 
 and D. J. Fox, Gaussian, Inc., Wallingford CT, 2010.
 
 ******************************************
 Gaussian 09:  EM64L-G09RevB.01 12-Aug-2010
                24-Mar-2021 
 ******************************************
 %mem=600MW
 %nprocshared=10
 Will use up to   10 processors via shared memory.
 ---------------------------------------
 # opt rb3lyp/6-31g(d) geom=connectivity
 ---------------------------------------
 1/14=-1,18=20,19=15,26=3,38=1,57=2/1,3;
 2/9=110,12=2,17=6,18=5,40=1/2;
 3/5=1,6=6,7=1,11=2,16=1,25=1,30=1,71=1,74=-5,116=1/1,2,3;
 4//1;
 5/5=2,38=5/2;
 6/7=2,8=2,9=2,10=2,28=1/1;
 7//1,2,3,16;
 1/14=-1,18=20,19=15/3(2);
 2/9=110/2;
 99//99;
 2/9=110/2;
 3/5=1,6=6,7=1,11=2,16=1,25=1,30=1,71=1,74=-5,116=1/1,2,3;
 4/5=5,16=3/1;
 5/5=2,38=5/2;
 7//1,2,3,16;
 1/14=-1,18=20,19=15/3(-5);
 2/9=110/2;
 6/7=2,8=2,9=2,10=2,19=2,28=1/1;
 99/9=1/99;
 -------------------
 Title Card Required
 -------------------
 Symbolic Z-matrix:
 Charge =  0 Multiplicity = 1
 C                     0.        0.        0. 
 C                     1.3398    0.        0. 
 C                     2.1232    1.2838    0. 
 C                     1.3726    2.5535    0.5 
 C                    -0.1712    2.4974    0.5915 
 C                    -0.8114    1.2504   -0.0566 
 C                     1.9297    3.694    -0.3758 
 C                     1.022     4.1738   -1.4583 
 C                    -0.3077    4.2427   -1.3291 
 C                    -0.8807    3.6883   -0.0801 
 C                    -1.1625    4.7738   -2.4261 
 O                    -0.8733    5.825    -2.9976 
 C                    -2.3623    3.9305   -2.8576 
 C                    -3.5642    4.8096   -3.2346 
 C                    -1.9302    3.0711   -4.0457 
 O                    -1.9821    4.0799    0.3066 
 C                     3.0717    3.132    -1.2022 
 C                     3.0561    4.0099   -2.4658 
 O                     1.6785    4.4033   -2.661 
 C                     2.6547    1.6655   -1.3848 
 O                     2.3404    4.8047    0.4075 
 C                    -0.4389    2.5557    2.1092 
 C                     0.887     2.1896    2.7492 
 O                     1.8419    2.7889    1.8636 
 C                     1.1623    2.6602    4.1576 
 C                     2.5687    2.4264    4.6467 
 C                     0.2506    3.2183    4.9727 
 C                     3.8944    5.2874   -2.3028 
 C                     3.5262    3.2752   -3.7243 
 H                     4.0374    3.1865   -0.6845 
 H                     2.9913    1.1297    0.6593 
 C                     2.1325   -1.2769   -0.0032 
 H                    -0.5467   -0.9408   -0.021 
 H                    -1.7851    1.0546    0.4117 
 H                    -1.0366    1.4291   -1.1167 
 H                    -2.6643    3.2607   -2.0461 
 H                    -3.2831    5.5431   -4. 
 H                    -4.3513    4.1825   -3.671 
 H                    -2.7467    2.4197   -4.3738 
 H                    -1.0784    2.4354   -3.7794 
 H                    -1.6247    3.6909   -4.8961 
 H                     3.5056    1.0445   -1.6846 
 H                     1.8707    1.5475   -2.1433 
 H                     2.4707    4.4612    1.3166 
 H                    -1.2454    1.8949    2.4446 
 H                    -0.7185    3.5777    2.3947 
 H                     1.028     1.1017    2.7224 
 H                     2.8324    1.368     4.551 
 H                     3.2827    3.0183    4.0652 
 H                     2.6918    2.7024    5.6995 
 H                    -0.7786    3.3854    4.6734 
 H                     0.5099    3.5271    5.9815 
 H                     3.5315    5.92     -1.4877 
 H                     3.8336    5.9062   -3.2059 
 H                     4.9473    5.0515   -2.1172 
 H                     4.5397    2.88     -3.6017 
 H                     3.5208    3.9476   -4.5903 
 H                     2.8547    2.4524   -3.99 
 H                     1.4873   -2.1618   -0.0031 
 H                     2.7688   -1.3298   -0.8922 
 H                     2.7695   -1.3303    0.8856 
 C                    -4.149     5.5435   -2.0349 
 H                    -3.4234    6.2333   -1.5935 
 H                    -4.4683    4.8374   -1.2617 
 H                    -5.0232    6.1271   -2.3409 
 

 GradGradGradGradGradGradGradGradGradGradGradGradGradGradGradGradGradGrad
 Berny optimization.
 Initialization pass.
                           ----------------------------
                           !    Initial Parameters    !
                           ! (Angstroms and Degrees)  !
 --------------------------                            --------------------------
 ! Name  Definition              Value          Derivative Info.                !
 --------------------------------------------------------------------------------
 ! R1    R(1,2)                  1.3398         estimate D2E/DX2                !
 ! R2    R(1,6)                  1.4917         estimate D2E/DX2                !
 ! R3    R(1,33)                 1.0883         estimate D2E/DX2                !
 ! R4    R(2,3)                  1.5039         estimate D2E/DX2                !
 ! R5    R(2,32)                 1.5029         estimate D2E/DX2                !
 ! R6    R(3,4)                  1.5574         estimate D2E/DX2                !
 ! R7    R(3,20)                 1.5316         estimate D2E/DX2                !
 ! R8    R(3,31)                 1.1009         estimate D2E/DX2                !
 ! R9    R(4,5)                  1.5475         estimate D2E/DX2                !
 ! R10   R(4,7)                  1.5421         estimate D2E/DX2                !
 ! R11   R(4,24)                 1.4612         estimate D2E/DX2                !
 ! R12   R(5,6)                  1.5443         estimate D2E/DX2                !
 ! R13   R(5,10)                 1.5404         estimate D2E/DX2                !
 ! R14   R(5,22)                 1.5422         estimate D2E/DX2                !
 ! R15   R(6,34)                 1.0981         estimate D2E/DX2                !
 ! R16   R(6,35)                 1.0984         estimate D2E/DX2                !
 ! R17   R(7,8)                  1.492          estimate D2E/DX2                !
 ! R18   R(7,17)                 1.5175         estimate D2E/DX2                !
 ! R19   R(7,21)                 1.4198         estimate D2E/DX2                !
 ! R20   R(8,9)                  1.3377         estimate D2E/DX2                !
 ! R21   R(8,19)                 1.3893         estimate D2E/DX2                !
 ! R22   R(9,10)                 1.4818         estimate D2E/DX2                !
 ! R23   R(9,11)                 1.4887         estimate D2E/DX2                !
 ! R24   R(10,16)                1.2312         estimate D2E/DX2                !
 ! R25   R(11,12)                1.231          estimate D2E/DX2                !
 ! R26   R(11,13)                1.5287         estimate D2E/DX2                !
 ! R27   R(13,14)                1.5361         estimate D2E/DX2                !
 ! R28   R(13,15)                1.5287         estimate D2E/DX2                !
 ! R29   R(13,36)                1.0947         estimate D2E/DX2                !
 ! R30   R(14,37)                1.0968         estimate D2E/DX2                !
 ! R31   R(14,38)                1.0969         estimate D2E/DX2                !
 ! R32   R(14,62)                1.5231         estimate D2E/DX2                !
 ! R33   R(15,39)                1.0948         estimate D2E/DX2                !
 ! R34   R(15,40)                1.0957         estimate D2E/DX2                !
 ! R35   R(15,41)                1.0957         estimate D2E/DX2                !
 ! R36   R(17,18)                1.5387         estimate D2E/DX2                !
 ! R37   R(17,20)                1.5355         estimate D2E/DX2                !
 ! R38   R(17,30)                1.0971         estimate D2E/DX2                !
 ! R39   R(18,19)                1.4459         estimate D2E/DX2                !
 ! R40   R(18,28)                1.5367         estimate D2E/DX2                !
 ! R41   R(18,29)                1.5312         estimate D2E/DX2                !
 ! R42   R(20,42)                1.0952         estimate D2E/DX2                !
 ! R43   R(20,43)                1.0972         estimate D2E/DX2                !
 ! R44   R(21,44)                0.9805         estimate D2E/DX2                !
 ! R45   R(22,23)                1.5171         estimate D2E/DX2                !
 ! R46   R(22,45)                1.0953         estimate D2E/DX2                !
 ! R47   R(22,46)                1.0973         estimate D2E/DX2                !
 ! R48   R(23,24)                1.4336         estimate D2E/DX2                !
 ! R49   R(23,25)                1.5102         estimate D2E/DX2                !
 ! R50   R(23,47)                1.0973         estimate D2E/DX2                !
 ! R51   R(24,44)                1.8685         estimate D2E/DX2                !
 ! R52   R(25,26)                1.5073         estimate D2E/DX2                !
 ! R53   R(25,27)                1.3443         estimate D2E/DX2                !
 ! R54   R(26,48)                1.0949         estimate D2E/DX2                !
 ! R55   R(26,49)                1.0947         estimate D2E/DX2                !
 ! R56   R(26,50)                1.0953         estimate D2E/DX2                !
 ! R57   R(27,51)                1.0848         estimate D2E/DX2                !
 ! R58   R(27,52)                1.0864         estimate D2E/DX2                !
 ! R59   R(28,53)                1.0937         estimate D2E/DX2                !
 ! R60   R(28,54)                1.0964         estimate D2E/DX2                !
 ! R61   R(28,55)                1.0948         estimate D2E/DX2                !
 ! R62   R(29,56)                1.0947         estimate D2E/DX2                !
 ! R63   R(29,57)                1.0964         estimate D2E/DX2                !
 ! R64   R(29,58)                1.0948         estimate D2E/DX2                !
 ! R65   R(32,59)                1.0951         estimate D2E/DX2                !
 ! R66   R(32,60)                1.0945         estimate D2E/DX2                !
 ! R67   R(32,61)                1.0948         estimate D2E/DX2                !
 ! R68   R(62,63)                1.0941         estimate D2E/DX2                !
 ! R69   R(62,64)                1.0947         estimate D2E/DX2                !
 ! R70   R(62,65)                1.0947         estimate D2E/DX2                !
 ! A1    A(2,1,6)              122.9533         estimate D2E/DX2                !
 ! A2    A(2,1,33)             120.1547         estimate D2E/DX2                !
 ! A3    A(6,1,33)             116.7857         estimate D2E/DX2                !
 ! A4    A(1,2,3)              121.3924         estimate D2E/DX2                !
 ! A5    A(1,2,32)             121.8319         estimate D2E/DX2                !
 ! A6    A(3,2,32)             116.7755         estimate D2E/DX2                !
 ! A7    A(2,3,4)              116.4154         estimate D2E/DX2                !
 ! A8    A(2,3,20)             113.1721         estimate D2E/DX2                !
 ! A9    A(2,3,31)             106.933          estimate D2E/DX2                !
 ! A10   A(4,3,20)             104.7346         estimate D2E/DX2                !
 ! A11   A(4,3,31)             107.5708         estimate D2E/DX2                !
 ! A12   A(20,3,31)            107.6204         estimate D2E/DX2                !
 ! A13   A(3,4,5)              118.0486         estimate D2E/DX2                !
 ! A14   A(3,4,7)              104.2708         estimate D2E/DX2                !
 ! A15   A(3,4,24)             106.0307         estimate D2E/DX2                !
 ! A16   A(5,4,7)              114.8836         estimate D2E/DX2                !
 ! A17   A(5,4,24)             105.7278         estimate D2E/DX2                !
 ! A18   A(7,4,24)             107.1467         estimate D2E/DX2                !
 ! A19   A(4,5,6)              114.7093         estimate D2E/DX2                !
 ! A20   A(4,5,10)             113.9346         estimate D2E/DX2                !
 ! A21   A(4,5,22)             103.2957         estimate D2E/DX2                !
 ! A22   A(6,5,10)             104.4992         estimate D2E/DX2                !
 ! A23   A(6,5,22)             111.8119         estimate D2E/DX2                !
 ! A24   A(10,5,22)            108.6563         estimate D2E/DX2                !
 ! A25   A(1,6,5)              115.8141         estimate D2E/DX2                !
 ! A26   A(1,6,34)             108.4631         estimate D2E/DX2                !
 ! A27   A(1,6,35)             106.5305         estimate D2E/DX2                !
 ! A28   A(5,6,34)             109.4272         estimate D2E/DX2                !
 ! A29   A(5,6,35)             111.0181         estimate D2E/DX2                !
 ! A30   A(34,6,35)            104.9998         estimate D2E/DX2                !
 ! A31   A(4,7,8)              115.4746         estimate D2E/DX2                !
 ! A32   A(4,7,17)             107.8928         estimate D2E/DX2                !
 ! A33   A(4,7,21)             111.6991         estimate D2E/DX2                !
 ! A34   A(8,7,17)             100.4758         estimate D2E/DX2                !
 ! A35   A(8,7,21)             108.947          estimate D2E/DX2                !
 ! A36   A(17,7,21)            111.8673         estimate D2E/DX2                !
 ! A37   A(7,8,9)              123.4514         estimate D2E/DX2                !
 ! A38   A(7,8,19)             113.1874         estimate D2E/DX2                !
 ! A39   A(9,8,19)             123.0112         estimate D2E/DX2                !
 ! A40   A(8,9,10)             116.52           estimate D2E/DX2                !
 ! A41   A(8,9,11)             121.1952         estimate D2E/DX2                !
 ! A42   A(10,9,11)            122.1792         estimate D2E/DX2                !
 ! A43   A(5,10,9)             118.5977         estimate D2E/DX2                !
 ! A44   A(5,10,16)            121.3989         estimate D2E/DX2                !
 ! A45   A(9,10,16)            119.4491         estimate D2E/DX2                !
 ! A46   A(9,11,12)            120.789          estimate D2E/DX2                !
 ! A47   A(9,11,13)            117.5074         estimate D2E/DX2                !
 ! A48   A(12,11,13)           121.6303         estimate D2E/DX2                !
 ! A49   A(11,13,14)           111.5726         estimate D2E/DX2                !
 ! A50   A(11,13,15)           107.9184         estimate D2E/DX2                !
 ! A51   A(11,13,36)           110.1701         estimate D2E/DX2                !
 ! A52   A(14,13,15)           110.6195         estimate D2E/DX2                !
 ! A53   A(14,13,36)           108.4362         estimate D2E/DX2                !
 ! A54   A(15,13,36)           108.068          estimate D2E/DX2                !
 ! A55   A(13,14,37)           110.7009         estimate D2E/DX2                !
 ! A56   A(13,14,38)           109.385          estimate D2E/DX2                !
 ! A57   A(13,14,62)           112.5113         estimate D2E/DX2                !
 ! A58   A(37,14,38)           106.7747         estimate D2E/DX2                !
 ! A59   A(37,14,62)           109.0168         estimate D2E/DX2                !
 ! A60   A(38,14,62)           108.2597         estimate D2E/DX2                !
 ! A61   A(13,15,39)           110.8915         estimate D2E/DX2                !
 ! A62   A(13,15,40)           110.9167         estimate D2E/DX2                !
 ! A63   A(13,15,41)           111.3458         estimate D2E/DX2                !
 ! A64   A(39,15,40)           107.9031         estimate D2E/DX2                !
 ! A65   A(39,15,41)           108.1733         estimate D2E/DX2                !
 ! A66   A(40,15,41)           107.4604         estimate D2E/DX2                !
 ! A67   A(7,17,18)            103.1957         estimate D2E/DX2                !
 ! A68   A(7,17,20)            102.3616         estimate D2E/DX2                !
 ! A69   A(7,17,30)            112.7708         estimate D2E/DX2                !
 ! A70   A(18,17,20)           116.3904         estimate D2E/DX2                !
 ! A71   A(18,17,30)           111.5987         estimate D2E/DX2                !
 ! A72   A(20,17,30)           110.0359         estimate D2E/DX2                !
 ! A73   A(17,18,19)           106.0071         estimate D2E/DX2                !
 ! A74   A(17,18,28)           112.4378         estimate D2E/DX2                !
 ! A75   A(17,18,29)           113.4582         estimate D2E/DX2                !
 ! A76   A(19,18,28)           107.9321         estimate D2E/DX2                !
 ! A77   A(19,18,29)           108.1857         estimate D2E/DX2                !
 ! A78   A(28,18,29)           108.5778         estimate D2E/DX2                !
 ! A79   A(8,19,18)            106.7623         estimate D2E/DX2                !
 ! A80   A(3,20,17)            102.9871         estimate D2E/DX2                !
 ! A81   A(3,20,42)            112.073          estimate D2E/DX2                !
 ! A82   A(3,20,43)            110.5036         estimate D2E/DX2                !
 ! A83   A(17,20,42)           111.2893         estimate D2E/DX2                !
 ! A84   A(17,20,43)           112.2692         estimate D2E/DX2                !
 ! A85   A(42,20,43)           107.7533         estimate D2E/DX2                !
 ! A86   A(7,21,44)            106.0151         estimate D2E/DX2                !
 ! A87   A(5,22,23)            104.7332         estimate D2E/DX2                !
 ! A88   A(5,22,45)            113.9768         estimate D2E/DX2                !
 ! A89   A(5,22,46)            109.6011         estimate D2E/DX2                !
 ! A90   A(23,22,45)           111.6399         estimate D2E/DX2                !
 ! A91   A(23,22,46)           109.7351         estimate D2E/DX2                !
 ! A92   A(45,22,46)           107.134          estimate D2E/DX2                !
 ! A93   A(22,23,24)           102.7474         estimate D2E/DX2                !
 ! A94   A(22,23,25)           118.5237         estimate D2E/DX2                !
 ! A95   A(22,23,47)           109.9522         estimate D2E/DX2                !
 ! A96   A(24,23,25)           108.9291         estimate D2E/DX2                !
 ! A97   A(24,23,47)           108.2864         estimate D2E/DX2                !
 ! A98   A(25,23,47)           107.9557         estimate D2E/DX2                !
 ! A99   A(4,24,23)            107.1699         estimate D2E/DX2                !
 ! A100  A(23,25,26)           115.1106         estimate D2E/DX2                !
 ! A101  A(23,25,27)           124.8339         estimate D2E/DX2                !
 ! A102  A(26,25,27)           120.031          estimate D2E/DX2                !
 ! A103  A(25,26,48)           110.2608         estimate D2E/DX2                !
 ! A104  A(25,26,49)           110.6317         estimate D2E/DX2                !
 ! A105  A(25,26,50)           112.1901         estimate D2E/DX2                !
 ! A106  A(48,26,49)           108.6117         estimate D2E/DX2                !
 ! A107  A(48,26,50)           107.4885         estimate D2E/DX2                !
 ! A108  A(49,26,50)           107.52           estimate D2E/DX2                !
 ! A109  A(25,27,51)           122.6916         estimate D2E/DX2                !
 ! A110  A(25,27,52)           121.2768         estimate D2E/DX2                !
 ! A111  A(51,27,52)           116.0313         estimate D2E/DX2                !
 ! A112  A(18,28,53)           112.2644         estimate D2E/DX2                !
 ! A113  A(18,28,54)           110.5832         estimate D2E/DX2                !
 ! A114  A(18,28,55)           111.3146         estimate D2E/DX2                !
 ! A115  A(53,28,54)           105.6051         estimate D2E/DX2                !
 ! A116  A(53,28,55)           108.504          estimate D2E/DX2                !
 ! A117  A(54,28,55)           108.334          estimate D2E/DX2                !
 ! A118  A(18,29,56)           111.4326         estimate D2E/DX2                !
 ! A119  A(18,29,57)           110.6959         estimate D2E/DX2                !
 ! A120  A(18,29,58)           111.8255         estimate D2E/DX2                !
 ! A121  A(56,29,57)           108.3255         estimate D2E/DX2                !
 ! A122  A(56,29,58)           108.8884         estimate D2E/DX2                !
 ! A123  A(57,29,58)           105.4386         estimate D2E/DX2                !
 ! A124  A(2,32,59)            112.0713         estimate D2E/DX2                !
 ! A125  A(2,32,60)            110.4512         estimate D2E/DX2                !
 ! A126  A(2,32,61)            110.279          estimate D2E/DX2                !
 ! A127  A(59,32,60)           107.6691         estimate D2E/DX2                !
 ! A128  A(59,32,61)           107.6562         estimate D2E/DX2                !
 ! A129  A(60,32,61)           108.5894         estimate D2E/DX2                !
 ! A130  A(14,62,63)           111.5253         estimate D2E/DX2                !
 ! A131  A(14,62,64)           110.9485         estimate D2E/DX2                !
 ! A132  A(14,62,65)           110.0783         estimate D2E/DX2                !
 ! A133  A(63,62,64)           108.3692         estimate D2E/DX2                !
 ! A134  A(63,62,65)           107.8331         estimate D2E/DX2                !
 ! A135  A(64,62,65)           107.9607         estimate D2E/DX2                !
 ! D1    D(6,1,2,3)              2.5918         estimate D2E/DX2                !
 ! D2    D(6,1,2,32)          -177.2647         estimate D2E/DX2                !
 ! D3    D(33,1,2,3)           178.7213         estimate D2E/DX2                !
 ! D4    D(33,1,2,32)           -1.1351         estimate D2E/DX2                !
 ! D5    D(2,1,6,5)            -30.4159         estimate D2E/DX2                !
 ! D6    D(2,1,6,34)          -153.8539         estimate D2E/DX2                !
 ! D7    D(2,1,6,35)            93.582          estimate D2E/DX2                !
 ! D8    D(33,1,6,5)           153.3328         estimate D2E/DX2                !
 ! D9    D(33,1,6,34)           29.8949         estimate D2E/DX2                !
 ! D10   D(33,1,6,35)          -82.6692         estimate D2E/DX2                !
 ! D11   D(1,2,3,4)             21.0064         estimate D2E/DX2                !
 ! D12   D(1,2,3,20)          -100.4286         estimate D2E/DX2                !
 ! D13   D(1,2,3,31)           141.2441         estimate D2E/DX2                !
 ! D14   D(32,2,3,4)          -159.1302         estimate D2E/DX2                !
 ! D15   D(32,2,3,20)           79.4347         estimate D2E/DX2                !
 ! D16   D(32,2,3,31)          -38.8925         estimate D2E/DX2                !
 ! D17   D(1,2,32,59)           -0.1308         estimate D2E/DX2                !
 ! D18   D(1,2,32,60)          119.9196         estimate D2E/DX2                !
 ! D19   D(1,2,32,61)         -120.0474         estimate D2E/DX2                !
 ! D20   D(3,2,32,59)         -179.9936         estimate D2E/DX2                !
 ! D21   D(3,2,32,60)          -59.9432         estimate D2E/DX2                !
 ! D22   D(3,2,32,61)           60.0899         estimate D2E/DX2                !
 ! D23   D(2,3,4,5)            -16.0022         estimate D2E/DX2                !
 ! D24   D(2,3,4,7)           -144.8662         estimate D2E/DX2                !
 ! D25   D(2,3,4,24)           102.2045         estimate D2E/DX2                !
 ! D26   D(20,3,4,5)           109.797          estimate D2E/DX2                !
 ! D27   D(20,3,4,7)           -19.067          estimate D2E/DX2                !
 ! D28   D(20,3,4,24)         -131.9964         estimate D2E/DX2                !
 ! D29   D(31,3,4,5)          -135.8978         estimate D2E/DX2                !
 ! D30   D(31,3,4,7)            95.2383         estimate D2E/DX2                !
 ! D31   D(31,3,4,24)          -17.6911         estimate D2E/DX2                !
 ! D32   D(2,3,20,17)          165.7565         estimate D2E/DX2                !
 ! D33   D(2,3,20,42)          -74.5341         estimate D2E/DX2                !
 ! D34   D(2,3,20,43)           45.6602         estimate D2E/DX2                !
 ! D35   D(4,3,20,17)           37.9543         estimate D2E/DX2                !
 ! D36   D(4,3,20,42)          157.6637         estimate D2E/DX2                !
 ! D37   D(4,3,20,43)          -82.142          estimate D2E/DX2                !
 ! D38   D(31,3,20,17)         -76.3161         estimate D2E/DX2                !
 ! D39   D(31,3,20,42)          43.3933         estimate D2E/DX2                !
 ! D40   D(31,3,20,43)         163.5875         estimate D2E/DX2                !
 ! D41   D(3,4,5,6)             -9.9008         estimate D2E/DX2                !
 ! D42   D(3,4,5,10)          -130.2832         estimate D2E/DX2                !
 ! D43   D(3,4,5,22)           112.038          estimate D2E/DX2                !
 ! D44   D(7,4,5,6)            113.8116         estimate D2E/DX2                !
 ! D45   D(7,4,5,10)            -6.5708         estimate D2E/DX2                !
 ! D46   D(7,4,5,22)          -124.2497         estimate D2E/DX2                !
 ! D47   D(24,4,5,6)          -128.2676         estimate D2E/DX2                !
 ! D48   D(24,4,5,10)          111.35           estimate D2E/DX2                !
 ! D49   D(24,4,5,22)           -6.3289         estimate D2E/DX2                !
 ! D50   D(3,4,7,8)            104.3226         estimate D2E/DX2                !
 ! D51   D(3,4,7,17)            -7.113          estimate D2E/DX2                !
 ! D52   D(3,4,7,21)          -130.4602         estimate D2E/DX2                !
 ! D53   D(5,4,7,8)            -26.4322         estimate D2E/DX2                !
 ! D54   D(5,4,7,17)          -137.8678         estimate D2E/DX2                !
 ! D55   D(5,4,7,21)            98.785          estimate D2E/DX2                !
 ! D56   D(24,4,7,8)          -143.5495         estimate D2E/DX2                !
 ! D57   D(24,4,7,17)          105.0149         estimate D2E/DX2                !
 ! D58   D(24,4,7,21)          -18.3323         estimate D2E/DX2                !
 ! D59   D(3,4,24,23)          -96.0642         estimate D2E/DX2                !
 ! D60   D(5,4,24,23)           30.0352         estimate D2E/DX2                !
 ! D61   D(7,4,24,23)          153.0162         estimate D2E/DX2                !
 ! D62   D(4,5,6,1)             32.1959         estimate D2E/DX2                !
 ! D63   D(4,5,6,34)           155.1278         estimate D2E/DX2                !
 ! D64   D(4,5,6,35)           -89.4354         estimate D2E/DX2                !
 ! D65   D(10,5,6,1)           157.6653         estimate D2E/DX2                !
 ! D66   D(10,5,6,34)          -79.4028         estimate D2E/DX2                !
 ! D67   D(10,5,6,35)           36.034          estimate D2E/DX2                !
 ! D68   D(22,5,6,1)           -84.9871         estimate D2E/DX2                !
 ! D69   D(22,5,6,34)           37.9449         estimate D2E/DX2                !
 ! D70   D(22,5,6,35)          153.3816         estimate D2E/DX2                !
 ! D71   D(4,5,10,9)            36.7087         estimate D2E/DX2                !
 ! D72   D(4,5,10,16)         -151.8783         estimate D2E/DX2                !
 ! D73   D(6,5,10,9)           -89.2477         estimate D2E/DX2                !
 ! D74   D(6,5,10,16)           82.1653         estimate D2E/DX2                !
 ! D75   D(22,5,10,9)          151.2551         estimate D2E/DX2                !
 ! D76   D(22,5,10,16)         -37.3319         estimate D2E/DX2                !
 ! D77   D(4,5,22,23)          -17.6978         estimate D2E/DX2                !
 ! D78   D(4,5,22,45)         -139.9924         estimate D2E/DX2                !
 ! D79   D(4,5,22,46)           99.9653         estimate D2E/DX2                !
 ! D80   D(6,5,22,23)          106.1662         estimate D2E/DX2                !
 ! D81   D(6,5,22,45)          -16.1284         estimate D2E/DX2                !
 ! D82   D(6,5,22,46)         -136.1707         estimate D2E/DX2                !
 ! D83   D(10,5,22,23)        -139.0149         estimate D2E/DX2                !
 ! D84   D(10,5,22,45)          98.6906         estimate D2E/DX2                !
 ! D85   D(10,5,22,46)         -21.3518         estimate D2E/DX2                !
 ! D86   D(4,7,8,9)             35.5375         estimate D2E/DX2                !
 ! D87   D(4,7,8,19)          -137.8423         estimate D2E/DX2                !
 ! D88   D(17,7,8,9)           151.2711         estimate D2E/DX2                !
 ! D89   D(17,7,8,19)          -22.1087         estimate D2E/DX2                !
 ! D90   D(21,7,8,9)           -91.0869         estimate D2E/DX2                !
 ! D91   D(21,7,8,19)           95.5333         estimate D2E/DX2                !
 ! D92   D(4,7,17,18)          151.5397         estimate D2E/DX2                !
 ! D93   D(4,7,17,20)           30.2905         estimate D2E/DX2                !
 ! D94   D(4,7,17,30)          -87.8986         estimate D2E/DX2                !
 ! D95   D(8,7,17,18)           30.2525         estimate D2E/DX2                !
 ! D96   D(8,7,17,20)          -90.9967         estimate D2E/DX2                !
 ! D97   D(8,7,17,30)          150.8142         estimate D2E/DX2                !
 ! D98   D(21,7,17,18)         -85.2154         estimate D2E/DX2                !
 ! D99   D(21,7,17,20)         153.5354         estimate D2E/DX2                !
 ! D100  D(21,7,17,30)          35.3463         estimate D2E/DX2                !
 ! D101  D(4,7,21,44)           19.9216         estimate D2E/DX2                !
 ! D102  D(8,7,21,44)          148.68           estimate D2E/DX2                !
 ! D103  D(17,7,21,44)        -101.1434         estimate D2E/DX2                !
 ! D104  D(7,8,9,10)            -5.7849         estimate D2E/DX2                !
 ! D105  D(7,8,9,11)           177.8721         estimate D2E/DX2                !
 ! D106  D(19,8,9,10)          166.9549         estimate D2E/DX2                !
 ! D107  D(19,8,9,11)           -9.3882         estimate D2E/DX2                !
 ! D108  D(7,8,19,18)            3.3509         estimate D2E/DX2                !
 ! D109  D(9,8,19,18)         -170.0623         estimate D2E/DX2                !
 ! D110  D(8,9,10,5)           -31.5796         estimate D2E/DX2                !
 ! D111  D(8,9,10,16)          156.8362         estimate D2E/DX2                !
 ! D112  D(11,9,10,5)          144.7244         estimate D2E/DX2                !
 ! D113  D(11,9,10,16)         -26.8598         estimate D2E/DX2                !
 ! D114  D(8,9,11,12)          -47.1757         estimate D2E/DX2                !
 ! D115  D(8,9,11,13)          129.7597         estimate D2E/DX2                !
 ! D116  D(10,9,11,12)         136.6907         estimate D2E/DX2                !
 ! D117  D(10,9,11,13)         -46.3739         estimate D2E/DX2                !
 ! D118  D(9,11,13,14)         143.6709         estimate D2E/DX2                !
 ! D119  D(9,11,13,15)         -94.6048         estimate D2E/DX2                !
 ! D120  D(9,11,13,36)          23.172          estimate D2E/DX2                !
 ! D121  D(12,11,13,14)        -39.4211         estimate D2E/DX2                !
 ! D122  D(12,11,13,15)         82.3032         estimate D2E/DX2                !
 ! D123  D(12,11,13,36)       -159.9201         estimate D2E/DX2                !
 ! D124  D(11,13,14,37)         54.6681         estimate D2E/DX2                !
 ! D125  D(11,13,14,38)        172.0573         estimate D2E/DX2                !
 ! D126  D(11,13,14,62)        -67.5862         estimate D2E/DX2                !
 ! D127  D(15,13,14,37)        -65.4805         estimate D2E/DX2                !
 ! D128  D(15,13,14,38)         51.9087         estimate D2E/DX2                !
 ! D129  D(15,13,14,62)        172.2652         estimate D2E/DX2                !
 ! D130  D(36,13,14,37)        176.1777         estimate D2E/DX2                !
 ! D131  D(36,13,14,38)        -66.4331         estimate D2E/DX2                !
 ! D132  D(36,13,14,62)         53.9234         estimate D2E/DX2                !
 ! D133  D(11,13,15,39)        178.0633         estimate D2E/DX2                !
 ! D134  D(11,13,15,40)         58.1865         estimate D2E/DX2                !
 ! D135  D(11,13,15,41)        -61.4329         estimate D2E/DX2                !
 ! D136  D(14,13,15,39)        -59.6244         estimate D2E/DX2                !
 ! D137  D(14,13,15,40)       -179.5012         estimate D2E/DX2                !
 ! D138  D(14,13,15,41)         60.8794         estimate D2E/DX2                !
 ! D139  D(36,13,15,39)         58.9414         estimate D2E/DX2                !
 ! D140  D(36,13,15,40)        -60.9353         estimate D2E/DX2                !
 ! D141  D(36,13,15,41)        179.4452         estimate D2E/DX2                !
 ! D142  D(13,14,62,63)         62.4427         estimate D2E/DX2                !
 ! D143  D(13,14,62,64)        -58.4706         estimate D2E/DX2                !
 ! D144  D(13,14,62,65)       -177.909          estimate D2E/DX2                !
 ! D145  D(37,14,62,63)        -60.7581         estimate D2E/DX2                !
 ! D146  D(37,14,62,64)        178.3286         estimate D2E/DX2                !
 ! D147  D(37,14,62,65)         58.8901         estimate D2E/DX2                !
 ! D148  D(38,14,62,63)       -176.5544         estimate D2E/DX2                !
 ! D149  D(38,14,62,64)         62.5324         estimate D2E/DX2                !
 ! D150  D(38,14,62,65)        -56.9061         estimate D2E/DX2                !
 ! D151  D(7,17,18,19)         -30.4011         estimate D2E/DX2                !
 ! D152  D(7,17,18,28)          87.3096         estimate D2E/DX2                !
 ! D153  D(7,17,18,29)        -148.9841         estimate D2E/DX2                !
 ! D154  D(20,17,18,19)         80.8103         estimate D2E/DX2                !
 ! D155  D(20,17,18,28)       -161.479          estimate D2E/DX2                !
 ! D156  D(20,17,18,29)        -37.7727         estimate D2E/DX2                !
 ! D157  D(30,17,18,19)       -151.7595         estimate D2E/DX2                !
 ! D158  D(30,17,18,28)        -34.0488         estimate D2E/DX2                !
 ! D159  D(30,17,18,29)         89.6575         estimate D2E/DX2                !
 ! D160  D(7,17,20,3)          -41.822          estimate D2E/DX2                !
 ! D161  D(7,17,20,42)        -162.0715         estimate D2E/DX2                !
 ! D162  D(7,17,20,43)          77.0515         estimate D2E/DX2                !
 ! D163  D(18,17,20,3)        -153.5148         estimate D2E/DX2                !
 ! D164  D(18,17,20,42)         86.2356         estimate D2E/DX2                !
 ! D165  D(18,17,20,43)        -34.6414         estimate D2E/DX2                !
 ! D166  D(30,17,20,3)          78.2893         estimate D2E/DX2                !
 ! D167  D(30,17,20,42)        -41.9602         estimate D2E/DX2                !
 ! D168  D(30,17,20,43)       -162.8372         estimate D2E/DX2                !
 ! D169  D(17,18,19,8)          17.058          estimate D2E/DX2                !
 ! D170  D(28,18,19,8)        -103.6182         estimate D2E/DX2                !
 ! D171  D(29,18,19,8)         139.0738         estimate D2E/DX2                !
 ! D172  D(17,18,28,53)        -60.3428         estimate D2E/DX2                !
 ! D173  D(17,18,28,54)       -178.0042         estimate D2E/DX2                !
 ! D174  D(17,18,28,55)         61.5181         estimate D2E/DX2                !
 ! D175  D(19,18,28,53)         56.2218         estimate D2E/DX2                !
 ! D176  D(19,18,28,54)        -61.4396         estimate D2E/DX2                !
 ! D177  D(19,18,28,55)        178.0827         estimate D2E/DX2                !
 ! D178  D(29,18,28,53)        173.2761         estimate D2E/DX2                !
 ! D179  D(29,18,28,54)         55.6146         estimate D2E/DX2                !
 ! D180  D(29,18,28,55)        -64.863          estimate D2E/DX2                !
 ! D181  D(17,18,29,56)        -57.9777         estimate D2E/DX2                !
 ! D182  D(17,18,29,57)       -178.5999         estimate D2E/DX2                !
 ! D183  D(17,18,29,58)         64.1522         estimate D2E/DX2                !
 ! D184  D(19,18,29,56)       -175.2977         estimate D2E/DX2                !
 ! D185  D(19,18,29,57)         64.0802         estimate D2E/DX2                !
 ! D186  D(19,18,29,58)        -53.1677         estimate D2E/DX2                !
 ! D187  D(28,18,29,56)         67.8106         estimate D2E/DX2                !
 ! D188  D(28,18,29,57)        -52.8116         estimate D2E/DX2                !
 ! D189  D(28,18,29,58)       -170.0595         estimate D2E/DX2                !
 ! D190  D(5,22,23,24)          35.9269         estimate D2E/DX2                !
 ! D191  D(5,22,23,25)         156.026          estimate D2E/DX2                !
 ! D192  D(5,22,23,47)         -79.1836         estimate D2E/DX2                !
 ! D193  D(45,22,23,24)        159.732          estimate D2E/DX2                !
 ! D194  D(45,22,23,25)        -80.1689         estimate D2E/DX2                !
 ! D195  D(45,22,23,47)         44.6215         estimate D2E/DX2                !
 ! D196  D(46,22,23,24)        -81.6447         estimate D2E/DX2                !
 ! D197  D(46,22,23,25)         38.4544         estimate D2E/DX2                !
 ! D198  D(46,22,23,47)        163.2449         estimate D2E/DX2                !
 ! D199  D(22,23,24,4)         -41.249          estimate D2E/DX2                !
 ! D200  D(25,23,24,4)        -167.7734         estimate D2E/DX2                !
 ! D201  D(47,23,24,4)          75.0608         estimate D2E/DX2                !
 ! D202  D(22,23,25,26)       -171.6527         estimate D2E/DX2                !
 ! D203  D(22,23,25,27)         10.1532         estimate D2E/DX2                !
 ! D204  D(24,23,25,26)        -54.7883         estimate D2E/DX2                !
 ! D205  D(24,23,25,27)        127.0176         estimate D2E/DX2                !
 ! D206  D(47,23,25,26)         62.5875         estimate D2E/DX2                !
 ! D207  D(47,23,25,27)       -115.6066         estimate D2E/DX2                !
 ! D208  D(23,25,26,48)        -55.1206         estimate D2E/DX2                !
 ! D209  D(23,25,26,49)         65.0448         estimate D2E/DX2                !
 ! D210  D(23,25,26,50)       -174.8909         estimate D2E/DX2                !
 ! D211  D(27,25,26,48)        123.1673         estimate D2E/DX2                !
 ! D212  D(27,25,26,49)       -116.6673         estimate D2E/DX2                !
 ! D213  D(27,25,26,50)          3.397          estimate D2E/DX2                !
 ! D214  D(23,25,27,51)         -0.462          estimate D2E/DX2                !
 ! D215  D(23,25,27,52)        179.346          estimate D2E/DX2                !
 ! D216  D(26,25,27,51)       -178.5731         estimate D2E/DX2                !
 ! D217  D(26,25,27,52)          1.2348         estimate D2E/DX2                !
 --------------------------------------------------------------------------------
 Trust Radius=3.00D-01 FncErr=1.00D-07 GrdErr=1.00D-06
 Number of steps in this run=    390 maximum allowed number of steps=    390.
 GradGradGradGradGradGradGradGradGradGradGradGradGradGradGradGradGradGrad

 Stoichiometry    C26H34O5
 Framework group  C1[X(C26H34O5)]
 Deg. of freedom   189
 Full point group                 C1      NOp   1
 Largest Abelian subgroup         C1      NOp   1
 Largest concise Abelian subgroup C1      NOp   1
                         Standard orientation:                         
 ---------------------------------------------------------------------
 Center     Atomic      Atomic             Coordinates (Angstroms)
 Number     Number       Type             X           Y           Z
 ---------------------------------------------------------------------
      1          6           0       -1.283621   -0.542783    2.880729
      2          6           0       -1.900908    0.598138    2.545587
      3          6           0       -1.760474    1.190052    1.170169
      4          6           0       -1.317284    0.216011    0.038636
      5          6           0       -0.700842   -1.143011    0.448388
      6          6           0       -0.376347   -1.277494    1.952221
      7          6           0       -0.430538    1.079880   -0.880895
      8          6           0        1.037799    0.842769   -0.763854
      9          6           0        1.574368   -0.360897   -0.534019
     10          6           0        0.626401   -1.467064   -0.263015
     11          6           0        3.049923   -0.548412   -0.472910
     12          8           0        3.782697   -0.065977   -1.336374
     13          6           0        3.617274   -1.295917    0.733828
     14          6           0        4.814816   -2.174494    0.342030
     15          6           0        4.029480   -0.258650    1.778348
     16          8           0        0.978585   -2.629371   -0.465445
     17          6           0       -0.517534    2.515814   -0.397707
     18          6           0        0.839594    3.109409   -0.814222
     19          8           0        1.783508    2.014950   -0.771401
     20          6           0       -0.752600    2.341743    1.109707
     21          8           0       -0.810281    0.956478   -2.243413
     22          6           0       -1.764342   -2.165071   -0.001987
     23          6           0       -3.028281   -1.347966   -0.192878
     24          8           0       -2.528361   -0.108540   -0.711710
     25          6           0       -4.093827   -1.874836   -1.124470
     26          6           0       -5.222919   -0.918315   -1.410933
     27          6           0       -4.105454   -3.108540   -1.658230
     28          6           0        0.822363    3.663525   -2.247394
     29          6           0        1.339100    4.208408    0.127741
     30          1           0       -1.353785    3.065265   -0.847539
     31          1           0       -2.746078    1.594840    0.893127
     32          6           0       -2.762256    1.349631    3.521392
     33          1           0       -1.382420   -0.942284    3.888233
     34          1           0       -0.377435   -2.339162    2.232569
     35          1           0        0.642098   -0.927448    2.168322
     36          1           0        2.848068   -1.936626    1.176754
     37          1           0        5.581787   -1.579331   -0.168278
     38          1           0        5.280362   -2.580672    1.248403
     39          1           0        4.412766   -0.744862    2.681306
     40          1           0        3.176524    0.365210    2.067932
     41          1           0        4.808549    0.408233    1.392369
     42          1           0       -1.148219    3.258898    1.558999
     43          1           0        0.167054    2.076190    1.646010
     44          1           0       -1.729016    0.613939   -2.238227
     45          1           0       -1.918143   -2.987883    0.704354
     46          1           0       -1.463937   -2.611768   -0.958223
     47          1           0       -3.496749   -1.150210    0.779519
     48          1           0       -5.681485   -0.581906   -0.475277
     49          1           0       -4.857267   -0.042025   -1.955633
     50          1           0       -6.010928   -1.378136   -2.017006
     51          1           0       -3.327470   -3.838826   -1.462841
     52          1           0       -4.908337   -3.431377   -2.315061
     53          1           0        0.586981    2.892793   -2.986877
     54          1           0        1.811809    4.045995   -2.524722
     55          1           0        0.097208    4.477258   -2.350759
     56          1           0        0.620097    5.030742    0.199836
     57          1           0        2.294387    4.615588   -0.224026
     58          1           0        1.538910    3.823204    1.132829
     59          1           0       -2.810658    0.851985    4.495731
     60          1           0       -2.367546    2.357723    3.682485
     61          1           0       -3.784969    1.432161    3.139512
     62          6           0        4.414706   -3.340487   -0.552539
     63          1           0        3.997997   -2.992957   -1.502660
     64          1           0        3.669820   -3.973847   -0.060232
     65          1           0        5.289276   -3.959687   -0.776523
 ---------------------------------------------------------------------
 Rotational constants (GHZ):      0.1976018      0.1311914      0.1092182
 Standard basis: 6-31G(d) (6D, 7F)
 There are   533 symmetry adapted basis functions of A   symmetry.
 Integral buffers will be    131072 words long.
 Raffenetti 2 integral format.
 Two-electron integral symmetry is turned on.
   533 basis functions,  1004 primitive gaussians,   533 cartesian basis functions
   115 alpha electrons      115 beta electrons
       nuclear repulsion energy      3508.7163658967 Hartrees.
 NAtoms=   65 NActive=   65 NUniq=   65 SFac= 1.00D+00 NAtFMM=   50 NAOKFM=T Big=T
 One-electron integrals computed using PRISM.
 NBasis=   533 RedAO= T  NBF=   533
 NBsUse=   533 1.00D-06 NBFU=   533
 Harris functional with IExCor=  402 diagonalized for initial guess.
 ExpMin= 1.61D-01 ExpMax= 5.48D+03 ExpMxC= 8.25D+02 IAcc=1 IRadAn=         1 AccDes= 0.00D+00
 HarFok:  IExCor=  402 AccDes= 0.00D+00 IRadAn=         1 IDoV= 1
 ScaDFX=  1.000000  1.000000  1.000000  1.000000
 FoFCou: FMM=F IPFlag=           0 FMFlag=      100000 FMFlg1=        2001
         NFxFlg=           0 DoJE=T BraDBF=F KetDBF=T FulRan=T
         Omega=  0.000000  0.000000  1.000000  0.000000  0.000000 ICntrl=     500 IOpCl=  0
         NMat0=    1 NMatS0=    1 NMatT0=    0 NMatD0=    1 NMtDS0=    0 NMtDT0=    0
         I1Cent=           4 NGrid=           0.
 Petite list used in FoFCou.
 Initial guess orbital symmetries:
       Occupied  (A) (A) (A) (A) (A) (A) (A) (A) (A) (A) (A) (A)
                 (A) (A) (A) (A) (A) (A) (A) (A) (A) (A) (A) (A)
                 (A) (A) (A) (A) (A) (A) (A) (A) (A) (A) (A) (A)
                 (A) (A) (A) (A) (A) (A) (A) (A) (A) (A) (A) (A)
                 (A) (A) (A) (A) (A) (A) (A) (A) (A) (A) (A) (A)
                 (A) (A) (A) (A) (A) (A) (A) (A) (A) (A) (A) (A)
                 (A) (A) (A) (A) (A) (A) (A) (A) (A) (A) (A) (A)
                 (A) (A) (A) (A) (A) (A) (A) (A) (A) (A) (A) (A)
                 (A) (A) (A) (A) (A) (A) (A) (A) (A) (A) (A) (A)
                 (A) (A) (A) (A) (A) (A) (A)
       Virtual   (A) (A) (A) (A) (A) (A) (A) (A) (A) (A) (A) (A)
                 (A) (A) (A) (A) (A) (A) (A) (A) (A) (A) (A) (A)
                 (A) (A) (A) (A) (A) (A) (A) (A) (A) (A) (A) (A)
                 (A) (A) (A) (A) (A) (A) (A) (A) (A) (A) (A) (A)
                 (A) (A) (A) (A) (A) (A) (A) (A) (A) (A) (A) (A)
                 (A) (A) (A) (A) (A) (A) (A) (A) (A) (A) (A) (A)
                 (A) (A) (A) (A) (A) (A) (A) (A) (A) (A) (A) (A)
                 (A) (A) (A) (A) (A) (A) (A) (A) (A) (A) (A) (A)
                 (A) (A) (A) (A) (A) (A) (A) (A) (A) (A) (A) (A)
                 (A) (A) (A) (A) (A) (A) (A) (A) (A) (A) (A) (A)
                 (A) (A) (A) (A) (A) (A) (A) (A) (A) (A) (A) (A)
                 (A) (A) (A) (A) (A) (A) (A) (A) (A) (A) (A) (A)
                 (A) (A) (A) (A) (A) (A) (A) (A) (A) (A) (A) (A)
                 (A) (A) (A) (A) (A) (A) (A) (A) (A) (A) (A) (A)
                 (A) (A) (A) (A) (A) (A) (A) (A) (A) (A) (A) (A)
                 (A) (A) (A) (A) (A) (A) (A) (A) (A) (A) (A) (A)
                 (A) (A) (A) (A) (A) (A) (A) (A) (A) (A) (A) (A)
                 (A) (A) (A) (A) (A) (A) (A) (A) (A) (A) (A) (A)
                 (A) (A) (A) (A) (A) (A) (A) (A) (A) (A) (A) (A)
                 (A) (A) (A) (A) (A) (A) (A) (A) (A) (A) (A) (A)
                 (A) (A) (A) (A) (A) (A) (A) (A) (A) (A) (A) (A)
                 (A) (A) (A) (A) (A) (A) (A) (A) (A) (A) (A) (A)
                 (A) (A) (A) (A) (A) (A) (A) (A) (A) (A) (A) (A)
                 (A) (A) (A) (A) (A) (A) (A) (A) (A) (A) (A) (A)
                 (A) (A) (A) (A) (A) (A) (A) (A) (A) (A) (A) (A)
                 (A) (A) (A) (A) (A) (A) (A) (A) (A) (A) (A) (A)
                 (A) (A) (A) (A) (A) (A) (A) (A) (A) (A) (A) (A)
                 (A) (A) (A) (A) (A) (A) (A) (A) (A) (A) (A) (A)
                 (A) (A) (A) (A) (A) (A) (A) (A) (A) (A) (A) (A)
                 (A) (A) (A) (A) (A) (A) (A) (A) (A) (A) (A) (A)
                 (A) (A) (A) (A) (A) (A) (A) (A) (A) (A) (A) (A)
                 (A) (A) (A) (A) (A) (A) (A) (A) (A) (A) (A) (A)
                 (A) (A) (A) (A) (A) (A) (A) (A) (A) (A) (A) (A)
                 (A) (A) (A) (A) (A) (A) (A) (A) (A) (A) (A) (A)
                 (A) (A) (A) (A) (A) (A) (A) (A) (A) (A)
 The electronic state of the initial guess is 1-A.
 Requested convergence on RMS density matrix=1.00D-08 within 128 cycles.
 Requested convergence on MAX density matrix=1.00D-06.
 Requested convergence on             energy=1.00D-06.
 No special actions if energy rises.
 Integral accuracy reduced to 1.0D-05 until final iterations.
 Initial convergence to 1.0D-05 achieved.  Increase integral accuracy.
 SCF Done:  E(RB3LYP) =  -1387.30194824     A.U. after   16 cycles
             Convg  =    0.4370D-08             -V/T =  2.0091

 **********************************************************************

            Population analysis using the SCF density.

 **********************************************************************

 Orbital symmetries:
       Occupied  (A) (A) (A) (A) (A) (A) (A) (A) (A) (A) (A) (A)
                 (A) (A) (A) (A) (A) (A) (A) (A) (A) (A) (A) (A)
                 (A) (A) (A) (A) (A) (A) (A) (A) (A) (A) (A) (A)
                 (A) (A) (A) (A) (A) (A) (A) (A) (A) (A) (A) (A)
                 (A) (A) (A) (A) (A) (A) (A) (A) (A) (A) (A) (A)
                 (A) (A) (A) (A) (A) (A) (A) (A) (A) (A) (A) (A)
                 (A) (A) (A) (A) (A) (A) (A) (A) (A) (A) (A) (A)
                 (A) (A) (A) (A) (A) (A) (A) (A) (A) (A) (A) (A)
                 (A) (A) (A) (A) (A) (A) (A) (A) (A) (A) (A) (A)
                 (A) (A) (A) (A) (A) (A) (A)
       Virtual   (A) (A) (A) (A) (A) (A) (A) (A) (A) (A) (A) (A)
                 (A) (A) (A) (A) (A) (A) (A) (A) (A) (A) (A) (A)
                 (A) (A) (A) (A) (A) (A) (A) (A) (A) (A) (A) (A)
                 (A) (A) (A) (A) (A) (A) (A) (A) (A) (A) (A) (A)
                 (A) (A) (A) (A) (A) (A) (A) (A) (A) (A) (A) (A)
                 (A) (A) (A) (A) (A) (A) (A) (A) (A) (A) (A) (A)
                 (A) (A) (A) (A) (A) (A) (A) (A) (A) (A) (A) (A)
                 (A) (A) (A) (A) (A) (A) (A) (A) (A) (A) (A) (A)
                 (A) (A) (A) (A) (A) (A) (A) (A) (A) (A) (A) (A)
                 (A) (A) (A) (A) (A) (A) (A) (A) (A) (A) (A) (A)
                 (A) (A) (A) (A) (A) (A) (A) (A) (A) (A) (A) (A)
                 (A) (A) (A) (A) (A) (A) (A) (A) (A) (A) (A) (A)
                 (A) (A) (A) (A) (A) (A) (A) (A) (A) (A) (A) (A)
                 (A) (A) (A) (A) (A) (A) (A) (A) (A) (A) (A) (A)
                 (A) (A) (A) (A) (A) (A) (A) (A) (A) (A) (A) (A)
                 (A) (A) (A) (A) (A) (A) (A) (A) (A) (A) (A) (A)
                 (A) (A) (A) (A) (A) (A) (A) (A) (A) (A) (A) (A)
                 (A) (A) (A) (A) (A) (A) (A) (A) (A) (A) (A) (A)
                 (A) (A) (A) (A) (A) (A) (A) (A) (A) (A) (A) (A)
                 (A) (A) (A) (A) (A) (A) (A) (A) (A) (A) (A) (A)
                 (A) (A) (A) (A) (A) (A) (A) (A) (A) (A) (A) (A)
                 (A) (A) (A) (A) (A) (A) (A) (A) (A) (A) (A) (A)
                 (A) (A) (A) (A) (A) (A) (A) (A) (A) (A) (A) (A)
                 (A) (A) (A) (A) (A) (A) (A) (A) (A) (A) (A) (A)
                 (A) (A) (A) (A) (A) (A) (A) (A) (A) (A) (A) (A)
                 (A) (A) (A) (A) (A) (A) (A) (A) (A) (A) (A) (A)
                 (A) (A) (A) (A) (A) (A) (A) (A) (A) (A) (A) (A)
                 (A) (A) (A) (A) (A) (A) (A) (A) (A) (A) (A) (A)
                 (A) (A) (A) (A) (A) (A) (A) (A) (A) (A) (A) (A)
                 (A) (A) (A) (A) (A) (A) (A) (A) (A) (A) (A) (A)
                 (A) (A) (A) (A) (A) (A) (A) (A) (A) (A) (A) (A)
                 (A) (A) (A) (A) (A) (A) (A) (A) (A) (A) (A) (A)
                 (A) (A) (A) (A) (A) (A) (A) (A) (A) (A) (A) (A)
                 (A) (A) (A) (A) (A) (A) (A) (A) (A) (A) (A) (A)
                 (A) (A) (A) (A) (A) (A) (A) (A) (A) (A)
 The electronic state is 1-A.
 Alpha  occ. eigenvalues --  -19.19509 -19.17174 -19.14673 -19.13696 -19.12660
 Alpha  occ. eigenvalues --  -10.27786 -10.27084 -10.26611 -10.26538 -10.25854
 Alpha  occ. eigenvalues --  -10.25828 -10.24939 -10.22097 -10.20680 -10.20508
 Alpha  occ. eigenvalues --  -10.20400 -10.20138 -10.20117 -10.20018 -10.19273
 Alpha  occ. eigenvalues --  -10.19266 -10.19140 -10.19073 -10.18645 -10.18571
 Alpha  occ. eigenvalues --  -10.18522 -10.18351 -10.17577 -10.17434 -10.16635
 Alpha  occ. eigenvalues --  -10.15174  -1.08442  -1.06484  -1.03410  -1.02021
 Alpha  occ. eigenvalues --   -1.01871  -0.87899  -0.84094  -0.82813  -0.81750
 Alpha  occ. eigenvalues --   -0.80543  -0.79877  -0.77126  -0.74652  -0.73802
 Alpha  occ. eigenvalues --   -0.72778  -0.71791  -0.69592  -0.69204  -0.68437
 Alpha  occ. eigenvalues --   -0.65488  -0.64116  -0.63824  -0.61909  -0.61396
 Alpha  occ. eigenvalues --   -0.59426  -0.59010  -0.57376  -0.54940  -0.53772
 Alpha  occ. eigenvalues --   -0.52970  -0.51725  -0.51365  -0.50837  -0.49811
 Alpha  occ. eigenvalues --   -0.48674  -0.48141  -0.46805  -0.46507  -0.45922
 Alpha  occ. eigenvalues --   -0.45311  -0.44546  -0.44285  -0.43866  -0.43180
 Alpha  occ. eigenvalues --   -0.42942  -0.42766  -0.42278  -0.41746  -0.41704
 Alpha  occ. eigenvalues --   -0.41133  -0.40810  -0.40338  -0.40272  -0.39927
 Alpha  occ. eigenvalues --   -0.39709  -0.39434  -0.38801  -0.38401  -0.38301
 Alpha  occ. eigenvalues --   -0.37721  -0.37530  -0.36983  -0.36829  -0.36097
 Alpha  occ. eigenvalues --   -0.35884  -0.35687  -0.35129  -0.34780  -0.34357
 Alpha  occ. eigenvalues --   -0.33839  -0.33198  -0.32973  -0.32607  -0.32192
 Alpha  occ. eigenvalues --   -0.31906  -0.31670  -0.30887  -0.28150  -0.26972
 Alpha  occ. eigenvalues --   -0.25897  -0.25458  -0.24328  -0.23852  -0.23064
 Alpha virt. eigenvalues --   -0.05384  -0.02345   0.00651   0.01058   0.04504
 Alpha virt. eigenvalues --    0.06323   0.07534   0.08353   0.08832   0.09848
 Alpha virt. eigenvalues --    0.10314   0.11202   0.11527   0.11794   0.12109
 Alpha virt. eigenvalues --    0.12561   0.12740   0.13332   0.13524   0.13868
 Alpha virt. eigenvalues --    0.14192   0.14468   0.15097   0.15217   0.15375
 Alpha virt. eigenvalues --    0.15866   0.16123   0.16387   0.17302   0.17510
 Alpha virt. eigenvalues --    0.17659   0.18050   0.18730   0.18816   0.19060
 Alpha virt. eigenvalues --    0.19451   0.19614   0.19791   0.20021   0.20497
 Alpha virt. eigenvalues --    0.20748   0.20841   0.21322   0.21435   0.21838
 Alpha virt. eigenvalues --    0.22682   0.23673   0.23829   0.24081   0.24736
 Alpha virt. eigenvalues --    0.25267   0.25725   0.25947   0.26572   0.26843
 Alpha virt. eigenvalues --    0.27025   0.27566   0.27755   0.28545   0.29614
 Alpha virt. eigenvalues --    0.31267   0.32075   0.32953   0.33837   0.34133
 Alpha virt. eigenvalues --    0.34931   0.35654   0.37612   0.37959   0.39412
 Alpha virt. eigenvalues --    0.41089   0.44312   0.46870   0.48252   0.48424
 Alpha virt. eigenvalues --    0.49583   0.50118   0.51032   0.51305   0.51500
 Alpha virt. eigenvalues --    0.51816   0.51941   0.52863   0.53259   0.53632
 Alpha virt. eigenvalues --    0.54290   0.54858   0.55158   0.55517   0.55923
 Alpha virt. eigenvalues --    0.56275   0.57331   0.57611   0.58424   0.58994
 Alpha virt. eigenvalues --    0.59223   0.59655   0.60694   0.60991   0.61824
 Alpha virt. eigenvalues --    0.62221   0.62993   0.63399   0.64439   0.64842
 Alpha virt. eigenvalues --    0.65272   0.65523   0.66187   0.66728   0.67252
 Alpha virt. eigenvalues --    0.67797   0.68089   0.68554   0.68668   0.69552
 Alpha virt. eigenvalues --    0.69672   0.70669   0.71246   0.72383   0.72965
 Alpha virt. eigenvalues --    0.73823   0.74796   0.75177   0.76092   0.76382
 Alpha virt. eigenvalues --    0.76568   0.76909   0.77767   0.78235   0.79041
 Alpha virt. eigenvalues --    0.79859   0.80117   0.81029   0.81590   0.82449
 Alpha virt. eigenvalues --    0.83269   0.83415   0.83933   0.84189   0.84753
 Alpha virt. eigenvalues --    0.84911   0.85221   0.85939   0.86546   0.87054
 Alpha virt. eigenvalues --    0.87505   0.87971   0.88129   0.88655   0.89383
 Alpha virt. eigenvalues --    0.89738   0.90136   0.90280   0.90551   0.90939
 Alpha virt. eigenvalues --    0.91105   0.91333   0.91755   0.92101   0.92264
 Alpha virt. eigenvalues --    0.93023   0.93365   0.93726   0.94468   0.94938
 Alpha virt. eigenvalues --    0.95358   0.95757   0.96517   0.96651   0.97167
 Alpha virt. eigenvalues --    0.97584   0.97974   0.98429   0.98951   0.99271
 Alpha virt. eigenvalues --    1.00345   1.01613   1.02592   1.03103   1.03299
 Alpha virt. eigenvalues --    1.04478   1.05082   1.06032   1.07283   1.08154
 Alpha virt. eigenvalues --    1.08975   1.09629   1.10257   1.11317   1.12187
 Alpha virt. eigenvalues --    1.13480   1.14668   1.15343   1.16171   1.16220
 Alpha virt. eigenvalues --    1.16419   1.17067   1.18223   1.18873   1.19703
 Alpha virt. eigenvalues --    1.20972   1.23714   1.24572   1.24750   1.26188
 Alpha virt. eigenvalues --    1.28068   1.29226   1.30328   1.31030   1.32727
 Alpha virt. eigenvalues --    1.33909   1.36262   1.38291   1.39628   1.40779
 Alpha virt. eigenvalues --    1.41025   1.42084   1.44307   1.44808   1.46425
 Alpha virt. eigenvalues --    1.47596   1.49401   1.49910   1.51203   1.51714
 Alpha virt. eigenvalues --    1.52332   1.54533   1.56003   1.57299   1.57875
 Alpha virt. eigenvalues --    1.59684   1.60302   1.60892   1.62826   1.64037
 Alpha virt. eigenvalues --    1.64823   1.65920   1.66391   1.68056   1.68925
 Alpha virt. eigenvalues --    1.70511   1.72061   1.73025   1.73969   1.74554
 Alpha virt. eigenvalues --    1.75110   1.76155   1.77290   1.77312   1.77920
 Alpha virt. eigenvalues --    1.79451   1.80263   1.80635   1.80964   1.81606
 Alpha virt. eigenvalues --    1.82601   1.83713   1.84343   1.85335   1.85827
 Alpha virt. eigenvalues --    1.86887   1.87022   1.87711   1.88466   1.88811
 Alpha virt. eigenvalues --    1.89468   1.89590   1.90700   1.91112   1.91614
 Alpha virt. eigenvalues --    1.92831   1.93498   1.93702   1.94098   1.94847
 Alpha virt. eigenvalues --    1.95973   1.96903   1.97130   1.97574   1.97962
 Alpha virt. eigenvalues --    1.99015   1.99601   2.00007   2.01187   2.01385
 Alpha virt. eigenvalues --    2.01931   2.03394   2.03680   2.04690   2.06230
 Alpha virt. eigenvalues --    2.06472   2.07703   2.08291   2.08854   2.09465
 Alpha virt. eigenvalues --    2.10552   2.11489   2.12080   2.12635   2.14280
 Alpha virt. eigenvalues --    2.14455   2.14938   2.16079   2.17097   2.18089
 Alpha virt. eigenvalues --    2.18432   2.19935   2.20954   2.21707   2.22595
 Alpha virt. eigenvalues --    2.23491   2.24569   2.25034   2.26031   2.27557
 Alpha virt. eigenvalues --    2.28239   2.28443   2.28933   2.30580   2.31462
 Alpha virt. eigenvalues --    2.32676   2.33101   2.33342   2.33864   2.35020
 Alpha virt. eigenvalues --    2.36118   2.36270   2.38013   2.38797   2.39694
 Alpha virt. eigenvalues --    2.40719   2.41442   2.41875   2.42619   2.43494
 Alpha virt. eigenvalues --    2.44110   2.45606   2.46361   2.46687   2.48248
 Alpha virt. eigenvalues --    2.48918   2.51161   2.51240   2.51965   2.55270
 Alpha virt. eigenvalues --    2.56146   2.56892   2.58025   2.59648   2.61591
 Alpha virt. eigenvalues --    2.62875   2.63330   2.63982   2.65886   2.66791
 Alpha virt. eigenvalues --    2.66995   2.67841   2.68794   2.69105   2.72330
 Alpha virt. eigenvalues --    2.73210   2.73685   2.75460   2.77234   2.78659
 Alpha virt. eigenvalues --    2.80597   2.80823   2.81684   2.81963   2.84542
 Alpha virt. eigenvalues --    2.88150   2.89334   2.92930   2.93972   2.94383
 Alpha virt. eigenvalues --    2.97700   2.99351   3.00535   3.01629   3.02575
 Alpha virt. eigenvalues --    3.04640   3.07018   3.12781   3.16440   3.22964
 Alpha virt. eigenvalues --    3.24566   3.29430   3.99585   4.09992   4.12426
 Alpha virt. eigenvalues --    4.13298   4.15665   4.17886   4.18553   4.19183
 Alpha virt. eigenvalues --    4.21859   4.22490   4.23414   4.26683   4.28537
 Alpha virt. eigenvalues --    4.32124   4.33235   4.35726   4.38220   4.42651
 Alpha virt. eigenvalues --    4.45886   4.47284   4.52327   4.58519   4.62189
 Alpha virt. eigenvalues --    4.65975   4.67242   4.68545   4.72333   4.77540
 Alpha virt. eigenvalues --    4.88691   4.95141   5.26132
          Condensed to atoms (all electrons):
 Mulliken atomic charges:
              1
     1  C   -0.195789
     2  C    0.195777
     3  C   -0.190841
     4  C    0.317381
     5  C   -0.030961
     6  C   -0.332515
     7  C    0.200112
     8  C    0.416124
     9  C   -0.091468
    10  C    0.392606
    11  C    0.432716
    12  O   -0.464157
    13  C   -0.153507
    14  C   -0.249258
    15  C   -0.455652
    16  O   -0.492524
    17  C   -0.150592
    18  C    0.302976
    19  O   -0.516542
    20  C   -0.306941
    21  O   -0.666649
    22  C   -0.310844
    23  C    0.098372
    24  O   -0.583886
    25  C    0.188960
    26  C   -0.505014
    27  C   -0.394527
    28  C   -0.458684
    29  C   -0.464193
    30  H    0.146355
    31  H    0.151055
    32  C   -0.519675
    33  H    0.125785
    34  H    0.165531
    35  H    0.165023
    36  H    0.140584
    37  H    0.153649
    38  H    0.121410
    39  H    0.148446
    40  H    0.136793
    41  H    0.164990
    42  H    0.150514
    43  H    0.157171
    44  H    0.419473
    45  H    0.152094
    46  H    0.177522
    47  H    0.136518
    48  H    0.149776
    49  H    0.167308
    50  H    0.154021
    51  H    0.149400
    52  H    0.142195
    53  H    0.188500
    54  H    0.155361
    55  H    0.138100
    56  H    0.149281
    57  H    0.162329
    58  H    0.153248
    59  H    0.158329
    60  H    0.157874
    61  H    0.155155
    62  C   -0.446819
    63  H    0.162933
    64  H    0.147608
    65  H    0.131686
 Sum of Mulliken atomic charges =   0.00000
 Mulliken charges with hydrogens summed into heavy atoms:
              1
     1  C   -0.070004
     2  C    0.195777
     3  C   -0.039787
     4  C    0.317381
     5  C   -0.030961
     6  C   -0.001961
     7  C    0.200112
     8  C    0.416124
     9  C   -0.091468
    10  C    0.392606
    11  C    0.432716
    12  O   -0.464157
    13  C   -0.012922
    14  C    0.025801
    15  C   -0.005424
    16  O   -0.492524
    17  C   -0.004237
    18  C    0.302976
    19  O   -0.516542
    20  C    0.000743
    21  O   -0.247176
    22  C    0.018772
    23  C    0.234890
    24  O   -0.583886
    25  C    0.188960
    26  C   -0.033908
    27  C   -0.102932
    28  C    0.023277
    29  C    0.000664
    32  C   -0.048317
    62  C   -0.004593
 Sum of Mulliken charges with hydrogens summed into heavy atoms =   0.00000
 Electronic spatial extent (au):  <R**2>=          11622.2408
 Charge=              0.0000 electrons
 Dipole moment (field-independent basis, Debye):
    X=             -5.1649    Y=              2.6551    Z=              4.4333  Tot=              7.3062
 Quadrupole moment (field-independent basis, Debye-Ang):
   XX=           -187.7709   YY=           -178.6381   ZZ=           -185.5953
   XY=              1.4543   XZ=              8.7891   YZ=             -1.3760
 Traceless Quadrupole moment (field-independent basis, Debye-Ang):
   XX=             -3.7695   YY=              5.3633   ZZ=             -1.5938
   XY=              1.4543   XZ=              8.7891   YZ=             -1.3760
 Octapole moment (field-independent basis, Debye-Ang**2):
  XXX=            -61.7390  YYY=             60.6876  ZZZ=              3.0597  XYY=            -11.8508
  XXY=             -9.5464  XXZ=             14.4408  XZZ=            -18.4997  YZZ=             -5.5806
  YYZ=             -5.7603  XYZ=            -12.2470
 Hexadecapole moment (field-independent basis, Debye-Ang**3):
 XXXX=          -8202.4692 YYYY=          -4694.0419 ZZZZ=          -2613.3753 XXXY=             -8.8252
 XXXZ=            187.6058 YYYX=             70.4910 YYYZ=            -39.2662 ZZZX=             -8.4680
 ZZZY=            -21.9912 XXYY=          -2134.0308 XXZZ=          -1791.7008 YYZZ=          -1210.6189
 XXYZ=             34.4907 YYXZ=             18.3939 ZZXY=             11.2340
 N-N= 3.508716365897D+03 E-N=-1.024351373376D+04  KE= 1.374819700958D+03
 Calling FoFJK, ICntrl=      2127 FMM=T ISym2X=0 I1Cent= 0 IOpClX= 0 NMat=1 NMatS=1 NMatT=0.
 ***** Axes restored to original set *****
 -------------------------------------------------------------------
 Center     Atomic                   Forces (Hartrees/Bohr)
 Number     Number              X              Y              Z
 -------------------------------------------------------------------
      1        6           0.010249317   -0.000623648    0.001048813
      2        6          -0.008896232   -0.006156679    0.003546523
      3        6          -0.006428309   -0.010115200   -0.003321241
      4        6           0.010175757   -0.009141079    0.013111160
      5        6          -0.008865952    0.006035600    0.006557145
      6        6          -0.009407019   -0.008507075   -0.004548457
      7        6           0.022810555    0.013797613    0.012862354
      8        6           0.004762106    0.001309525   -0.033591853
      9        6          -0.004104438   -0.004776590    0.004927425
     10        6          -0.016314305    0.013569354   -0.010267200
     11        6          -0.004501640    0.019241704   -0.004969765
     12        8          -0.004035842   -0.017145904    0.006085708
     13        6          -0.006455491    0.004939387   -0.005245658
     14        6          -0.002726614    0.002940771    0.002095082
     15        6           0.006103865   -0.004890592   -0.004787799
     16        8           0.010057466   -0.008790823    0.003121910
     17        6           0.003600643   -0.006417525   -0.011501430
     18        6           0.030068497    0.003436740   -0.011504196
     19        8          -0.015362324   -0.007964764    0.038552605
     20        6           0.010081749   -0.001701142   -0.005281550
     21        8          -0.004645890    0.006170772    0.002907210
     22        6          -0.006412705    0.000307794    0.011595941
     23        6          -0.004871108    0.004056774    0.007381125
     24        8           0.000980693    0.002763283   -0.011631386
     25        6          -0.002338077    0.006674994    0.013192848
     26        6           0.001097064    0.001385195    0.001169518
     27        6           0.001293285   -0.004317873   -0.010528405
     28        6          -0.002081859    0.008757405    0.001244287
     29        6          -0.007963745   -0.000490966   -0.007998207
     30        1          -0.003183424    0.001581880    0.000229757
     31        1          -0.001851835    0.006160174    0.000431098
     32        6          -0.002636761   -0.000398551   -0.000021159
     33        1           0.000389410   -0.000580462   -0.000060670
     34        1           0.000341334    0.005301132   -0.000609800
     35        1          -0.000953385    0.004230791   -0.001651966
     36        1           0.001326776    0.001053631    0.001849346
     37        1           0.003438754   -0.002466762   -0.000368600
     38        1           0.001385176   -0.002703171   -0.001632463
     39        1          -0.000731419   -0.000246963    0.000372151
     40        1           0.001012996   -0.001821821   -0.001280526
     41        1          -0.000413453    0.000808931    0.000625268
     42        1          -0.002118124   -0.001598710   -0.001564737
     43        1           0.000406037    0.001004938    0.000555717
     44        1          -0.003480608    0.000154233   -0.003679664
     45        1          -0.000059916    0.000678555   -0.002968555
     46        1           0.000471712   -0.002570693   -0.001136772
     47        1           0.001156326   -0.003469511   -0.000471704
     48        1           0.003392004   -0.001401478   -0.001864816
     49        1           0.002304776   -0.002399375   -0.001686247
     50        1          -0.002013361    0.000287435   -0.000682698
     51        1          -0.000854250    0.000794351   -0.000753966
     52        1           0.000545337   -0.001314490    0.000086838
     53        1           0.000022644   -0.004462629    0.003312039
     54        1           0.000378751   -0.003403614   -0.001855345
     55        1           0.000200059   -0.001008282   -0.000293476
     56        1          -0.000192433    0.000757725    0.001314080
     57        1           0.001751247    0.001569121    0.001971554
     58        1           0.001170343   -0.001878798    0.002668369
     59        1          -0.000632080    0.000919497   -0.000285519
     60        1           0.003993937   -0.001554741    0.000010019
     61        1           0.004181082   -0.001079439    0.000059439
     62        6          -0.003839785    0.003084463    0.001536365
     63        1          -0.000042602   -0.000396771    0.001117659
     64        1           0.000432679    0.000754061    0.001725428
     65        1          -0.001167391    0.001268288    0.000781044
 -------------------------------------------------------------------
 Cartesian Forces:  Max     0.038552605 RMS     0.006979785

 GradGradGradGradGradGradGradGradGradGradGradGradGradGradGradGradGradGrad
 Berny optimization.
 Internal  Forces:  Max     0.024220147 RMS     0.003469559
 Search for a local minimum.
 Step number   1 out of a maximum of  390
 All quantities printed in internal units (Hartrees-Bohrs-Radians)
 Mixed Optimization -- RFO/linear search
 Second derivative matrix not updated -- first step.
 ITU=  0
     Eigenvalues ---    0.00281   0.00289   0.00353   0.00387   0.00387
     Eigenvalues ---    0.00460   0.00468   0.00564   0.00589   0.00603
     Eigenvalues ---    0.00630   0.00670   0.00727   0.00739   0.00892
     Eigenvalues ---    0.00916   0.01167   0.01255   0.01307   0.01409
     Eigenvalues ---    0.01468   0.01681   0.01738   0.01798   0.02082
     Eigenvalues ---    0.02618   0.02826   0.02826   0.03087   0.03191
     Eigenvalues ---    0.03553   0.03702   0.03798   0.04079   0.04150
     Eigenvalues ---    0.04237   0.04246   0.04362   0.04495   0.04650
     Eigenvalues ---    0.04728   0.04844   0.04971   0.05154   0.05281
     Eigenvalues ---    0.05321   0.05338   0.05409   0.05481   0.05500
     Eigenvalues ---    0.05504   0.05531   0.05555   0.05568   0.05615
     Eigenvalues ---    0.05662   0.05694   0.05874   0.05955   0.06154
     Eigenvalues ---    0.06566   0.06771   0.07091   0.07094   0.07146
     Eigenvalues ---    0.07188   0.07255   0.07306   0.07438   0.08052
     Eigenvalues ---    0.08318   0.08322   0.08953   0.09422   0.09501
     Eigenvalues ---    0.10060   0.10236   0.11416   0.11957   0.12187
     Eigenvalues ---    0.12555   0.13273   0.14576   0.15436   0.15883
     Eigenvalues ---    0.15969   0.16000   0.16000   0.16000   0.16000
     Eigenvalues ---    0.16000   0.16000   0.16000   0.16000   0.16000
     Eigenvalues ---    0.16000   0.16000   0.16000   0.16000   0.16000
     Eigenvalues ---    0.16000   0.16000   0.16000   0.16000   0.16000
     Eigenvalues ---    0.16000   0.16355   0.16614   0.17692   0.18128
     Eigenvalues ---    0.19864   0.21044   0.21912   0.22413   0.22638
     Eigenvalues ---    0.23587   0.24663   0.24945   0.24969   0.24986
     Eigenvalues ---    0.24993   0.25000   0.25000   0.26151   0.26709
     Eigenvalues ---    0.26973   0.27092   0.27394   0.27710   0.28422
     Eigenvalues ---    0.28817   0.28870   0.28981   0.29312   0.29546
     Eigenvalues ---    0.29546   0.30068   0.30173   0.30933   0.31326
     Eigenvalues ---    0.31627   0.31995   0.32070   0.33057   0.33581
     Eigenvalues ---    0.33595   0.33861   0.33898   0.33977   0.33979
     Eigenvalues ---    0.33991   0.34008   0.34025   0.34043   0.34078
     Eigenvalues ---    0.34083   0.34157   0.34160   0.34205   0.34212
     Eigenvalues ---    0.34214   0.34225   0.34247   0.34258   0.34261
     Eigenvalues ---    0.34264   0.34268   0.34271   0.34274   0.34275
     Eigenvalues ---    0.34275   0.34279   0.34294   0.34338   0.34384
     Eigenvalues ---    0.34972   0.35008   0.35232   0.35422   0.36816
     Eigenvalues ---    0.37220   0.41164   0.44109   0.50270   0.53648
     Eigenvalues ---    0.54104   0.56259   0.90569   0.90686
 RFO step:  Lambda=-2.16402193D-02 EMin= 2.81013733D-03
 Linear search not attempted -- first point.
 Iteration  1 RMS(Cart)=  0.05800050 RMS(Int)=  0.00090939
 Iteration  2 RMS(Cart)=  0.00164232 RMS(Int)=  0.00023398
 Iteration  3 RMS(Cart)=  0.00000157 RMS(Int)=  0.00023398
 Iteration  4 RMS(Cart)=  0.00000000 RMS(Int)=  0.00023398
 Variable       Old X    -DE/DX   Delta X   Delta X   Delta X     New X
                                 (Linear)    (Quad)   (Total)
    R1        2.53186  -0.00140   0.00000  -0.00327  -0.00342   2.52843
    R2        2.81884   0.00925   0.00000   0.02680   0.02665   2.84550
    R3        2.05661   0.00031   0.00000   0.00083   0.00083   2.05744
    R4        2.84205   0.00519   0.00000   0.01275   0.01273   2.85478
    R5        2.84016   0.00438   0.00000   0.01280   0.01280   2.85297
    R6        2.94309   0.00662   0.00000   0.01672   0.01680   2.95989
    R7        2.89434   0.01082   0.00000   0.03683   0.03679   2.93113
    R8        2.08043  -0.00206   0.00000  -0.00578  -0.00578   2.07466
    R9        2.92440   0.01360   0.00000   0.04332   0.04318   2.96758
   R10        2.91418   0.00956   0.00000   0.03508   0.03524   2.94942
   R11        2.76124  -0.00597   0.00000  -0.01682  -0.01683   2.74441
   R12        2.91833   0.00581   0.00000   0.02183   0.02184   2.94017
   R13        2.91084   0.00595   0.00000   0.01291   0.01269   2.92353
   R14        2.91439   0.00732   0.00000   0.02508   0.02503   2.93943
   R15        2.07503  -0.00151   0.00000  -0.00418  -0.00418   2.07085
   R16        2.07566   0.00248   0.00000   0.00688   0.00688   2.08253
   R17        2.81939   0.01202   0.00000   0.02732   0.02710   2.84649
   R18        2.86775   0.01373   0.00000   0.05023   0.04971   2.91746
   R19        2.68307   0.00170   0.00000   0.00458   0.00461   2.68768
   R20        2.52796   0.01820   0.00000   0.03183   0.03205   2.56001
   R21        2.62539  -0.02422   0.00000  -0.05565  -0.05541   2.56998
   R22        2.80017   0.00001   0.00000  -0.00328  -0.00324   2.79693
   R23        2.81319   0.00898   0.00000   0.02511   0.02511   2.83830
   R24        2.32672  -0.01081   0.00000  -0.01166  -0.01166   2.31506
   R25        2.32618  -0.01842   0.00000  -0.01983  -0.01983   2.30635
   R26        2.88879   0.00094   0.00000   0.00297   0.00297   2.89176
   R27        2.90275   0.00210   0.00000   0.00678   0.00678   2.90953
   R28        2.88879   0.00908   0.00000   0.02863   0.02863   2.91742
   R29        2.06868   0.00036   0.00000   0.00099   0.00099   2.06968
   R30        2.07257  -0.00051   0.00000  -0.00142  -0.00142   2.07116
   R31        2.07287   0.00120   0.00000   0.00332   0.00332   2.07619
   R32        2.87827   0.00812   0.00000   0.02518   0.02518   2.90345
   R33        2.06892   0.00058   0.00000   0.00160   0.00160   2.07052
   R34        2.07060   0.00153   0.00000   0.00422   0.00422   2.07482
   R35        2.07066  -0.00014   0.00000  -0.00040  -0.00040   2.07026
   R36        2.90775  -0.00043   0.00000   0.01116   0.01139   2.91914
[...]
     54          1           0        1.843968    3.768896   -2.695523
     55          1           0        0.165079    4.348223   -2.749530
     56          1           0        0.352694    5.219898   -0.306253
     57          1           0        2.054214    4.723977   -0.392008
     58          1           0        1.035694    4.151452    0.938451
     59          1           0       -3.602294    1.134030    4.079994
     60          1           0       -3.330431    2.592515    3.110053
     61          1           0       -4.432072    1.350631    2.524759
     62          6           0        4.369091   -2.898285   -1.205041
     63          1           0        3.941650   -2.203162   -1.936731
     64          1           0        3.590795   -3.625602   -0.950481
     65          1           0        5.191633   -3.431278   -1.696156
 ---------------------------------------------------------------------
 Rotational constants (GHZ):      0.1901526      0.1324338      0.1080197

 **********************************************************************

            Population analysis using the SCF density.

 **********************************************************************

 Orbital symmetries:
       Occupied  (A) (A) (A) (A) (A) (A) (A) (A) (A) (A) (A) (A)
                 (A) (A) (A) (A) (A) (A) (A) (A) (A) (A) (A) (A)
                 (A) (A) (A) (A) (A) (A) (A) (A) (A) (A) (A) (A)
                 (A) (A) (A) (A) (A) (A) (A) (A) (A) (A) (A) (A)
                 (A) (A) (A) (A) (A) (A) (A) (A) (A) (A) (A) (A)
                 (A) (A) (A) (A) (A) (A) (A) (A) (A) (A) (A) (A)
                 (A) (A) (A) (A) (A) (A) (A) (A) (A) (A) (A) (A)
                 (A) (A) (A) (A) (A) (A) (A) (A) (A) (A) (A) (A)
                 (A) (A) (A) (A) (A) (A) (A) (A) (A) (A) (A) (A)
                 (A) (A) (A) (A) (A) (A) (A)
       Virtual   (A) (A) (A) (A) (A) (A) (A) (A) (A) (A) (A) (A)
                 (A) (A) (A) (A) (A) (A) (A) (A) (A) (A) (A) (A)
                 (A) (A) (A) (A) (A) (A) (A) (A) (A) (A) (A) (A)
                 (A) (A) (A) (A) (A) (A) (A) (A) (A) (A) (A) (A)
                 (A) (A) (A) (A) (A) (A) (A) (A) (A) (A) (A) (A)
                 (A) (A) (A) (A) (A) (A) (A) (A) (A) (A) (A) (A)
                 (A) (A) (A) (A) (A) (A) (A) (A) (A) (A) (A) (A)
                 (A) (A) (A) (A) (A) (A) (A) (A) (A) (A) (A) (A)
                 (A) (A) (A) (A) (A) (A) (A) (A) (A) (A) (A) (A)
                 (A) (A) (A) (A) (A) (A) (A) (A) (A) (A) (A) (A)
                 (A) (A) (A) (A) (A) (A) (A) (A) (A) (A) (A) (A)
                 (A) (A) (A) (A) (A) (A) (A) (A) (A) (A) (A) (A)
                 (A) (A) (A) (A) (A) (A) (A) (A) (A) (A) (A) (A)
                 (A) (A) (A) (A) (A) (A) (A) (A) (A) (A) (A) (A)
                 (A) (A) (A) (A) (A) (A) (A) (A) (A) (A) (A) (A)
                 (A) (A) (A) (A) (A) (A) (A) (A) (A) (A) (A) (A)
                 (A) (A) (A) (A) (A) (A) (A) (A) (A) (A) (A) (A)
                 (A) (A) (A) (A) (A) (A) (A) (A) (A) (A) (A) (A)
                 (A) (A) (A) (A) (A) (A) (A) (A) (A) (A) (A) (A)
                 (A) (A) (A) (A) (A) (A) (A) (A) (A) (A) (A) (A)
                 (A) (A) (A) (A) (A) (A) (A) (A) (A) (A) (A) (A)
                 (A) (A) (A) (A) (A) (A) (A) (A) (A) (A) (A) (A)
                 (A) (A) (A) (A) (A) (A) (A) (A) (A) (A) (A) (A)
                 (A) (A) (A) (A) (A) (A) (A) (A) (A) (A) (A) (A)
                 (A) (A) (A) (A) (A) (A) (A) (A) (A) (A) (A) (A)
                 (A) (A) (A) (A) (A) (A) (A) (A) (A) (A) (A) (A)
                 (A) (A) (A) (A) (A) (A) (A) (A) (A) (A) (A) (A)
                 (A) (A) (A) (A) (A) (A) (A) (A) (A) (A) (A) (A)
                 (A) (A) (A) (A) (A) (A) (A) (A) (A) (A) (A) (A)
                 (A) (A) (A) (A) (A) (A) (A) (A) (A) (A) (A) (A)
                 (A) (A) (A) (A) (A) (A) (A) (A) (A) (A) (A) (A)
                 (A) (A) (A) (A) (A) (A) (A) (A) (A) (A) (A) (A)
                 (A) (A) (A) (A) (A) (A) (A) (A) (A) (A) (A) (A)
                 (A) (A) (A) (A) (A) (A) (A) (A) (A) (A) (A) (A)
                 (A) (A) (A) (A) (A) (A) (A) (A) (A) (A)
 The electronic state is 1-A.
 Alpha  occ. eigenvalues --  -19.19948 -19.17240 -19.15209 -19.13297 -19.11312
 Alpha  occ. eigenvalues --  -10.27442 -10.27221 -10.26673 -10.26344 -10.26129
 Alpha  occ. eigenvalues --  -10.25593 -10.25040 -10.21615 -10.20791 -10.20657
 Alpha  occ. eigenvalues --  -10.20558 -10.20406 -10.20272 -10.20165 -10.19411
 Alpha  occ. eigenvalues --  -10.19175 -10.19107 -10.18877 -10.18660 -10.18659
 Alpha  occ. eigenvalues --  -10.18336 -10.18097 -10.17204 -10.16624 -10.16278
 Alpha  occ. eigenvalues --  -10.15095  -1.09613  -1.06667  -1.03305  -1.02425
 Alpha  occ. eigenvalues --   -1.01328  -0.87198  -0.83827  -0.82249  -0.81446
 Alpha  occ. eigenvalues --   -0.80248  -0.78675  -0.76799  -0.74228  -0.73233
 Alpha  occ. eigenvalues --   -0.72270  -0.70996  -0.70127  -0.69249  -0.68368
 Alpha  occ. eigenvalues --   -0.65131  -0.64079  -0.63341  -0.61537  -0.60865
 Alpha  occ. eigenvalues --   -0.59255  -0.58518  -0.56916  -0.54759  -0.53477
 Alpha  occ. eigenvalues --   -0.52673  -0.51670  -0.51324  -0.50017  -0.49608
 Alpha  occ. eigenvalues --   -0.48285  -0.47510  -0.47051  -0.46701  -0.46051
 Alpha  occ. eigenvalues --   -0.45207  -0.44378  -0.44156  -0.43517  -0.42852
 Alpha  occ. eigenvalues --   -0.42586  -0.42280  -0.41827  -0.41476  -0.41252
 Alpha  occ. eigenvalues --   -0.40888  -0.40565  -0.40356  -0.40054  -0.39795
 Alpha  occ. eigenvalues --   -0.39452  -0.39273  -0.38921  -0.38549  -0.38222
 Alpha  occ. eigenvalues --   -0.37650  -0.37244  -0.37129  -0.36874  -0.36035
 Alpha  occ. eigenvalues --   -0.35974  -0.35394  -0.34763  -0.34618  -0.34102
 Alpha  occ. eigenvalues --   -0.33908  -0.33225  -0.33013  -0.32582  -0.31980
 Alpha  occ. eigenvalues --   -0.31394  -0.30914  -0.30295  -0.28352  -0.27390
 Alpha  occ. eigenvalues --   -0.25925  -0.24766  -0.24420  -0.23349  -0.22007
 Alpha virt. eigenvalues --   -0.04967  -0.01569   0.00793   0.00920   0.05658
 Alpha virt. eigenvalues --    0.07575   0.08173   0.08413   0.09497   0.09592
 Alpha virt. eigenvalues --    0.10561   0.11357   0.11686   0.11847   0.12301
 Alpha virt. eigenvalues --    0.12690   0.12836   0.13390   0.13697   0.13798
 Alpha virt. eigenvalues --    0.14145   0.15025   0.15120   0.15366   0.15738
 Alpha virt. eigenvalues --    0.15850   0.16151   0.16405   0.16795   0.17684
 Alpha virt. eigenvalues --    0.17943   0.18189   0.18319   0.18923   0.19154
 Alpha virt. eigenvalues --    0.19479   0.19718   0.20113   0.20311   0.20381
 Alpha virt. eigenvalues --    0.20865   0.21203   0.21737   0.21842   0.22349
 Alpha virt. eigenvalues --    0.22751   0.23248   0.23668   0.24065   0.24500
 Alpha virt. eigenvalues --    0.25057   0.25441   0.26083   0.26392   0.26644
 Alpha virt. eigenvalues --    0.27377   0.27615   0.27811   0.28657   0.29673
 Alpha virt. eigenvalues --    0.30326   0.31672   0.32106   0.33537   0.34112
 Alpha virt. eigenvalues --    0.34717   0.35251   0.37506   0.38338   0.39932
 Alpha virt. eigenvalues --    0.41122   0.44245   0.45867   0.47836   0.48229
 Alpha virt. eigenvalues --    0.49497   0.50003   0.50457   0.50660   0.51060
 Alpha virt. eigenvalues --    0.51627   0.51832   0.52531   0.52966   0.53384
 Alpha virt. eigenvalues --    0.53893   0.54551   0.54882   0.55304   0.55576
 Alpha virt. eigenvalues --    0.56411   0.57139   0.57670   0.58486   0.59072
 Alpha virt. eigenvalues --    0.59241   0.60055   0.60446   0.61093   0.61751
 Alpha virt. eigenvalues --    0.62179   0.62734   0.63181   0.63888   0.64927
 Alpha virt. eigenvalues --    0.65318   0.65803   0.66119   0.66651   0.67273
 Alpha virt. eigenvalues --    0.67850   0.68152   0.68809   0.69421   0.69674
 Alpha virt. eigenvalues --    0.70684   0.70728   0.71463   0.72113   0.72700
 Alpha virt. eigenvalues --    0.73419   0.74161   0.75454   0.75709   0.76072
 Alpha virt. eigenvalues --    0.76679   0.76898   0.77907   0.78468   0.78664
 Alpha virt. eigenvalues --    0.79613   0.80772   0.81058   0.81493   0.82801
 Alpha virt. eigenvalues --    0.82907   0.83571   0.83886   0.84142   0.84595
 Alpha virt. eigenvalues --    0.84982   0.85470   0.85926   0.86382   0.86758
 Alpha virt. eigenvalues --    0.87607   0.88113   0.88548   0.88795   0.88980
 Alpha virt. eigenvalues --    0.89587   0.90024   0.90579   0.90617   0.90788
 Alpha virt. eigenvalues --    0.91082   0.91410   0.91907   0.92092   0.92682
 Alpha virt. eigenvalues --    0.93040   0.93436   0.94026   0.94388   0.94859
 Alpha virt. eigenvalues --    0.95102   0.95742   0.96052   0.96516   0.96808
 Alpha virt. eigenvalues --    0.97515   0.97958   0.98486   0.98637   0.99468
 Alpha virt. eigenvalues --    1.00222   1.01295   1.01696   1.02189   1.03306
 Alpha virt. eigenvalues --    1.03892   1.05137   1.05653   1.07709   1.08657
 Alpha virt. eigenvalues --    1.09194   1.10296   1.10868   1.11476   1.12783
 Alpha virt. eigenvalues --    1.13443   1.14119   1.14379   1.15244   1.16152
 Alpha virt. eigenvalues --    1.16804   1.17221   1.18647   1.20425   1.21530
 Alpha virt. eigenvalues --    1.22170   1.23350   1.24293   1.27071   1.27995
 Alpha virt. eigenvalues --    1.28858   1.30787   1.31647   1.32389   1.33622
 Alpha virt. eigenvalues --    1.34888   1.36833   1.38769   1.38948   1.40186
 Alpha virt. eigenvalues --    1.40979   1.42605   1.43925   1.44553   1.45191
 Alpha virt. eigenvalues --    1.48302   1.49900   1.50496   1.52114   1.53184
 Alpha virt. eigenvalues --    1.53789   1.54856   1.56086   1.56999   1.57608
 Alpha virt. eigenvalues --    1.59083   1.59173   1.61243   1.62733   1.63746
 Alpha virt. eigenvalues --    1.64742   1.65256   1.65529   1.67371   1.68533
 Alpha virt. eigenvalues --    1.69845   1.71049   1.72704   1.73672   1.74140
 Alpha virt. eigenvalues --    1.74851   1.75246   1.75760   1.76941   1.78366
 Alpha virt. eigenvalues --    1.78878   1.79321   1.79520   1.81066   1.81180
 Alpha virt. eigenvalues --    1.82544   1.83479   1.83835   1.84533   1.85413
 Alpha virt. eigenvalues --    1.86194   1.86633   1.86983   1.87557   1.87729
 Alpha virt. eigenvalues --    1.87985   1.89430   1.89830   1.90199   1.90503
 Alpha virt. eigenvalues --    1.91883   1.92523   1.92845   1.94040   1.94255
 Alpha virt. eigenvalues --    1.95475   1.96238   1.96520   1.97033   1.97894
 Alpha virt. eigenvalues --    1.98335   1.98858   1.99248   2.00033   2.00619
 Alpha virt. eigenvalues --    2.02528   2.02889   2.03414   2.03756   2.05226
 Alpha virt. eigenvalues --    2.05684   2.06389   2.07841   2.08898   2.09259
 Alpha virt. eigenvalues --    2.10332   2.11134   2.11698   2.12310   2.13952
 Alpha virt. eigenvalues --    2.14483   2.14980   2.15857   2.16493   2.18303
 Alpha virt. eigenvalues --    2.18465   2.18609   2.19967   2.20561   2.22278
 Alpha virt. eigenvalues --    2.23423   2.24008   2.25026   2.25560   2.26692
 Alpha virt. eigenvalues --    2.27404   2.28183   2.29598   2.30311   2.30831
 Alpha virt. eigenvalues --    2.32401   2.32767   2.33084   2.33978   2.35604
 Alpha virt. eigenvalues --    2.35892   2.37783   2.38290   2.39039   2.39950
 Alpha virt. eigenvalues --    2.41202   2.41273   2.42079   2.42658   2.44496
 Alpha virt. eigenvalues --    2.44995   2.46116   2.46964   2.47299   2.48195
 Alpha virt. eigenvalues --    2.49533   2.49748   2.51561   2.52490   2.55135
 Alpha virt. eigenvalues --    2.56123   2.56279   2.57805   2.58439   2.59600
 Alpha virt. eigenvalues --    2.61462   2.63509   2.63734   2.65147   2.66513
 Alpha virt. eigenvalues --    2.66996   2.67493   2.68636   2.70417   2.71678
 Alpha virt. eigenvalues --    2.72667   2.73641   2.75433   2.76211   2.76458
 Alpha virt. eigenvalues --    2.78008   2.79280   2.79522   2.82757   2.83068
 Alpha virt. eigenvalues --    2.87928   2.88986   2.92714   2.94368   2.95866
 Alpha virt. eigenvalues --    2.97234   2.98861   2.99059   3.01202   3.03230
 Alpha virt. eigenvalues --    3.04731   3.05940   3.11034   3.12922   3.21224
 Alpha virt. eigenvalues --    3.23866   3.30717   3.99849   4.09510   4.10036
 Alpha virt. eigenvalues --    4.12004   4.14662   4.16920   4.18654   4.19931
 Alpha virt. eigenvalues --    4.22149   4.23216   4.25917   4.26688   4.28648
 Alpha virt. eigenvalues --    4.31633   4.32916   4.35751   4.37580   4.42913
 Alpha virt. eigenvalues --    4.46222   4.47192   4.52194   4.57784   4.60829
 Alpha virt. eigenvalues --    4.65350   4.67413   4.69907   4.75365   4.77424
 Alpha virt. eigenvalues --    4.88314   4.95080   5.24310
          Condensed to atoms (all electrons):
 Mulliken atomic charges:
              1
     1  C   -0.193971
     2  C    0.199363
     3  C   -0.198461
     4  C    0.312618
     5  C   -0.024471
     6  C   -0.331572
     7  C    0.194756
     8  C    0.412910
     9  C   -0.081774
    10  C    0.375293
    11  C    0.429149
    12  O   -0.484816
    13  C   -0.151879
    14  C   -0.248505
    15  C   -0.453008
    16  O   -0.486575
    17  C   -0.154221
    18  C    0.290680
    19  O   -0.486702
    20  C   -0.309250
    21  O   -0.664568
    22  C   -0.333296
    23  C    0.103794
    24  O   -0.584068
    25  C    0.187440
    26  C   -0.505804
    27  C   -0.393363
    28  C   -0.466534
    29  C   -0.460974
    30  H    0.149457
    31  H    0.148028
    32  C   -0.521500
    33  H    0.125799
    34  H    0.161939
    35  H    0.160790
    36  H    0.149080
    37  H    0.149993
    38  H    0.121784
    39  H    0.142045
    40  H    0.132553
    41  H    0.164044
    42  H    0.152504
    43  H    0.159822
    44  H    0.423093
    45  H    0.148372
    46  H    0.189178
    47  H    0.136129
    48  H    0.150850
    49  H    0.169270
    50  H    0.154425
    51  H    0.152384
    52  H    0.139799
    53  H    0.195946
    54  H    0.166519
    55  H    0.143040
    56  H    0.150456
    57  H    0.171512
    58  H    0.159160
    59  H    0.158843
    60  H    0.156689
    61  H    0.155747
    62  C   -0.452633
    63  H    0.152639
    64  H    0.157602
    65  H    0.132448
 Sum of Mulliken atomic charges =   0.00000
 Mulliken charges with hydrogens summed into heavy atoms:
              1
     1  C   -0.068172
     2  C    0.199363
     3  C   -0.050433
     4  C    0.312618
     5  C   -0.024471
     6  C   -0.008842
     7  C    0.194756
     8  C    0.412910
     9  C   -0.081774
    10  C    0.375293
    11  C    0.429149
    12  O   -0.484816
    13  C   -0.002799
    14  C    0.023273
    15  C   -0.014366
    16  O   -0.486575
    17  C   -0.004764
    18  C    0.290680
    19  O   -0.486702
    20  C    0.003077
    21  O   -0.241475
    22  C    0.004255
    23  C    0.239923
    24  O   -0.584068
    25  C    0.187440
    26  C   -0.031259
    27  C   -0.101180
    28  C    0.038972
    29  C    0.020154
    32  C   -0.050221
    62  C   -0.009943
 Sum of Mulliken charges with hydrogens summed into heavy atoms =   0.00000
 Electronic spatial extent (au):  <R**2>=          11745.2311
 Charge=              0.0000 electrons
 Dipole moment (field-independent basis, Debye):
    X=             -5.9329    Y=              2.7805    Z=              2.5895  Tot=              7.0453
 Quadrupole moment (field-independent basis, Debye-Ang):
   XX=           -190.9338   YY=           -175.5528   ZZ=           -181.9477
   XY=             -1.2465   XZ=              4.0210   YZ=             -1.4675
 Traceless Quadrupole moment (field-independent basis, Debye-Ang):
   XX=             -8.1223   YY=              7.2586   ZZ=              0.8637
   XY=             -1.2465   XZ=              4.0210   YZ=             -1.4675
 Octapole moment (field-independent basis, Debye-Ang**2):
  XXX=            -68.9728  YYY=             66.2379  ZZZ=             -3.4113  XYY=            -14.6323
  XXY=            -18.3122  XXZ=              3.6065  XZZ=            -10.4871  YZZ=             -2.6330
  YYZ=            -16.5763  XYZ=            -12.0717
 Hexadecapole moment (field-independent basis, Debye-Ang**3):
 XXXX=          -8234.2906 YYYY=          -4837.6106 ZZZZ=          -2653.1557 XXXY=            -60.7664
 XXXZ=             97.2187 YYYX=             88.0935 YYYZ=            -46.7684 ZZZX=            -13.3791
 ZZZY=            -25.7428 XXYY=          -2156.7984 XXZZ=          -1750.8654 YYZZ=          -1250.1568
 XXYZ=             41.9059 YYXZ=             25.4779 ZZXY=             26.3632
 N-N= 3.492938605854D+03 E-N=-1.021210112175D+04  KE= 1.374465200049D+03
 1\1\GINC-B0600\FOpt\RB3LYP\6-31G(d)\C26H34O5\CAOFEI\24-Mar-2021\0\\# o
 pt rb3lyp/6-31g(d) geom=connectivity\\Title Card Required\\0,1\C,0.363
 3200294,-0.2583302783,-0.1178397232\C,1.6815620682,-0.1497788531,0.087
 1273645\C,2.3428231324,1.2085243071,0.0504434754\C,1.4435022738,2.4239
 250781,0.4502123184\C,-0.1059340518,2.1987427454,0.4175421169\C,-0.513
 4268319,0.9335404859,-0.3963531639\C,1.9422166051,3.5925533295,-0.4543
 587\C,1.0146886937,3.8846051128,-1.6294916225\C,-0.34906056,3.89760085
 42,-1.526202168\C,-0.8850675138,3.3740715738,-0.2510297377\C,-1.211356
 9002,4.429703544,-2.6284582724\O,-0.7227652429,5.1146515724,-3.5174969
 267\C,-2.6959470887,4.0457801188,-2.7092945951\C,-3.5688524055,5.30388
 59093,-2.8912500794\C,-2.8642609569,3.0803286009,-3.900691133\O,-1.957
 5184027,3.7276910612,0.2221963568\C,3.2015470542,3.1123308404,-1.20715
 13906\C,3.1694046088,3.9417165491,-2.5087898375\O,1.7132972804,4.16220
 29312,-2.7220865314\C,2.9529749064,1.5955993327,-1.322743612\O,2.09707
 71827,4.7963387457,0.2678600809\C,-0.4952154883,2.0747290127,1.9144783
 362\C,0.826559134,2.1102308559,2.6846957085\O,1.7350519155,2.811477129
 2,1.8000863513\C,0.8714831078,2.767846202,4.0465881554\C,2.2536082811,
 2.9468374631,4.6270361144\C,-0.2327260844,3.1035753495,4.7192918321\C,
 3.8153302012,5.3189363005,-2.341522174\C,3.6743033869,3.2428964121,-3.
 7670114355\H,4.1044656884,3.3189927365,-0.6251561094\H,3.1642305909,1.
 2237234654,0.7800213583\C,2.5745372452,-1.3387860229,0.3296926482\H,-0
 .105894294,-1.241011678,-0.1157388099\H,-1.5611569305,0.7083351041,-0.
 1689738597\H,-0.4868164123,1.166297715,-1.4708374736\H,-3.001696399,3.
 5388514869,-1.7924161072\H,-3.2394648283,5.8228539092,-3.7995841729\H,
 -4.6025471633,4.9762250105,-3.0674055216\H,-3.9153016673,2.7888521126,
 -4.0091463534\H,-2.2749536416,2.1643831174,-3.7679376316\H,-2.53764189
 79,3.5605653123,-4.8288078836\H,3.8613741617,1.0288151184,-1.548515753
 8\H,2.2304852879,1.377882651,-2.1185688965\H,1.9923605747,4.5425744449
 ,1.2077430576\H,-1.0509921228,1.1560890693,2.1197698743\H,-1.138030287
 8,2.9178819246,2.1750297835\H,1.2166175302,1.08468153,2.7950452773\H,2
 .7867660954,1.9873317597,4.6770746767\H,2.8628985236,3.6095864343,4.00
 2022488\H,2.2091672193,3.3661303088,5.6363475795\H,-1.2311863213,2.966
 7774384,4.317198427\H,-0.1711195739,3.5279396998,5.7181199928\H,3.4491
 063283,5.8148646757,-1.439813812\H,3.5869203479,5.9443514615,-3.210092
 4645\H,4.9038307726,5.2145052617,-2.2665484635\H,4.7450717379,3.031728
 081,-3.6718601612\H,3.5286175944,3.8897162501,-4.6375515779\H,3.149040
 9387,2.3022847453,-3.951059593\H,2.0095284189,-2.2761455125,0.31796319
 38\H,3.3619913955,-1.411005512,-0.4332019437\H,3.0866567769,-1.2603244
 394,1.2988328543\C,-3.5307861729,6.2661832333,-1.6988816075\H,-2.52545
 6015,6.6780656855,-1.5541860986\H,-3.8147976256,5.7609422457,-0.769578
 2088\H,-4.2142442094,7.10884889,-1.8558858154\\Version=EM64L-G09RevB.0
 1\State=1-A\HF=-1387.3196541\RMSD=5.965e-09\RMSF=3.341e-06\Dipole=1.71
 90242,-2.0198973,0.804989\Quadrupole=4.3565697,-3.0121747,-1.3443949,2
 .4276507,-3.1832125,3.6098275\PG=C01 [X(C26H34O5)]\\@


 ON A TOMBSTONE, "HERE LIES LESTER MOORE,
 FOUR SLUGS FROM A 44, NO LES, NO MORE".
 Job cpu time:  0 days  5 hours 18 minutes 13.9 seconds.
 File lengths (MBytes):  RWF=    186 Int=      0 D2E=      0 Chk=     20 Scr=      1
 Normal termination of Gaussian 09 at Wed Mar 24 18:07:25 2021.
