 Entering Gaussian System, Link 0=g09
 Initial command:
 /public/software/g09/g09/l1.exe /tmp/Gau-10574.inp -scrdir=/tmp/
 Entering Link 1 = /public/software/g09/g09/l1.exe PID=     10575.
  
 Copyright (c) 1988,1990,1992,1993,1995,1998,2003,2009,2010,
            Gaussian, Inc.  All Rights Reserved.
  
 This is part of the Gaussian(R) 09 program.  It is based on
 the Gaussian(R) 03 system (copyright 2003, Gaussian, Inc.),
 the Gaussian(R) 98 system (copyright 1998, Gaussian, Inc.),
 the Gaussian(R) 94 system (copyright 1995, Gaussian, Inc.),
 the Gaussian 92(TM) system (copyright 1992, Gaussian, Inc.),
 the Gaussian 90(TM) system (copyright 1990, Gaussian, Inc.),
 the Gaussian 88(TM) system (copyright 1988, Gaussian, Inc.),
 the Gaussian 86(TM) system (copyright 1986, Carnegie Mellon
 University), and the Gaussian 82(TM) system (copyright 1983,
 Carnegie Mellon University). Gaussian is a federally registered
 trademark of Gaussian, Inc.
  
 This software contains proprietary and confidential information,
 including trade secrets, belonging to Gaussian, Inc.
  
 This software is provided under written license and may be
 used, copied, transmitted, or stored only in accord with that
 written license.
  
 The following legend is applicable only to US Government
 contracts under FAR:
  
                    RESTRICTED RIGHTS LEGEND
  
 Use, reproduction and disclosure by the US Government is
 subject to restrictions as set forth in subparagraphs (a)
 and (c) of the Commercial Computer Software - Restricted
 Rights clause in FAR 52.227-19.
  
 Gaussian, Inc.
 340 Quinnipiac St., Bldg. 40, Wallingford CT 06492
  
  
 ---------------------------------------------------------------
 Warning -- This program may not be used in any manner that
 competes with the business of Gaussian, Inc. or will provide
 assistance to any competitor of Gaussian, Inc.  The licensee
 of this program is prohibited from giving any competitor of
 Gaussian, Inc. access to this program.  By using this program,
 the user acknowledges that Gaussian, Inc. is engaged in the
 business of creating and licensing software in the field of
 computational chemistry and represents and warrants to the
 licensee that it is not a competitor of Gaussian, Inc. and that
 it will not use this program in any manner prohibited above.
 ---------------------------------------------------------------
  

 Cite this work as:
 Gaussian 09, Revision B.01,
 M. J. Frisch, G. W. Trucks, H. B. Schlegel, G. E. Scuseria, 
 M. A. Robb, J. R. Cheeseman, G. Scalmani, V. Barone, B. Mennucci, 
 G. A. Petersson, H. Nakatsuji, M. Caricato, X. Li, H. P. Hratchian, 
 A. F. Izmaylov, J. Bloino, G. Zheng, J. L. Sonnenberg, M. Hada, 
 M. Ehara, K. Toyota, R. Fukuda, J. Hasegawa, M. Ishida, T. Nakajima, 
 Y. Honda, O. Kitao, H. Nakai, T. Vreven, J. A. Montgomery, Jr., 
 J. E. Peralta, F. Ogliaro, M. Bearpark, J. J. Heyd, E. Brothers, 
 K. N. Kudin, V. N. Staroverov, T. Keith, R. Kobayashi, J. Normand, 
 K. Raghavachari, A. Rendell, J. C. Burant, S. S. Iyengar, J. Tomasi, 
 M. Cossi, N. Rega, J. M. Millam, M. Klene, J. E. Knox, J. B. Cross, 
 V. Bakken, C. Adamo, J. Jaramillo, R. Gomperts, R. E. Stratmann, 
 O. Yazyev, A. J. Austin, R. Cammi, C. Pomelli, J. W. Ochterski, 
 R. L. Martin, K. Morokuma, V. G. Zakrzewski, G. A. Voth, 
 P. Salvador, J. J. Dannenberg, S. Dapprich, A. D. Daniels, 
 O. Farkas, J. B. Foresman, J. V. Ortiz, J. Cioslowski, 
 and D. J. Fox, Gaussian, Inc., Wallingford CT, 2010.
 
 ******************************************
 Gaussian 09:  EM64L-G09RevB.01 12-Aug-2010
                24-Mar-2021 
 ******************************************
 %mem=600MW
 %nprocshared=10
 Will use up to   10 processors via shared memory.
 ---------------------------------------
 # opt rb3lyp/6-31g(d) geom=connectivity
 ---------------------------------------
 1/14=-1,18=20,19=15,26=3,38=1,57=2/1,3;
 2/9=110,12=2,17=6,18=5,40=1/2;
 3/5=1,6=6,7=1,11=2,16=1,25=1,30=1,71=1,74=-5,116=1/1,2,3;
 4//1;
 5/5=2,38=5/2;
 6/7=2,8=2,9=2,10=2,28=1/1;
 7//1,2,3,16;
 1/14=-1,18=20,19=15/3(2);
 2/9=110/2;
 99//99;
 2/9=110/2;
 3/5=1,6=6,7=1,11=2,16=1,25=1,30=1,71=1,74=-5,116=1/1,2,3;
 4/5=5,16=3/1;
 5/5=2,38=5/2;
 7//1,2,3,16;
 1/14=-1,18=20,19=15/3(-5);
 2/9=110/2;
 6/7=2,8=2,9=2,10=2,19=2,28=1/1;
 99/9=1/99;
 -------------------
 Title Card Required
 -------------------
 Symbolic Z-matrix:
 Charge =  0 Multiplicity = 1
 C                     0.        0.        0. 
 C                     1.3413   -0.0035    0. 
 C                     2.137     1.2823    0. 
 C                     1.3419    2.5777   -0.3327 
 C                    -0.1554    2.4574   -0.6577 
 C                    -0.8282    1.243     0.0152 
 C                     2.137     3.2486   -1.4682 
 C                     1.7694    2.8147   -2.8451 
 C                     0.5434    2.3992   -3.1824 
 C                    -0.519     2.4395   -2.1517 
 C                     0.2803    1.9214   -4.5633 
 O                     0.8591    0.9194   -4.9862 
 C                    -0.7255    2.6979   -5.4079 
 C                    -0.0649    3.2477   -6.6814 
 C                    -1.8816    1.7659   -5.7729 
 O                    -1.7002    2.4534   -2.5051 
 C                     3.5514    2.7166   -1.4065 
 C                     4.0431    2.9022   -2.8576 
 O                     2.8699    2.7322   -3.6926 
 C                     3.3235    1.2562   -0.982 
 O                     2.0718    4.6627   -1.4037 
 C                    -0.7099    3.7542   -0.0626 
 C                     0.1428    3.9551    1.1806 
 O                     1.4466    3.4583    0.8313 
 C                     0.2062    5.3835    1.6768 
 C                    -1.1213    6.035     1.9641 
 C                     1.3499    6.0519    1.9081 
 C                     4.6134    4.3058   -3.1177 
 C                     5.0945    1.8726   -3.2862 
 H                     4.1828    3.2423   -0.6812 
 H                     2.561     1.3856    1.0098 
 C                     2.1083   -1.2943    0.1049 
 H                    -0.5449   -0.9412    0.0516 
 H                    -1.079     1.449     1.0629 
 H                    -1.7855    1.0165   -0.471 
 H                    -1.1255    3.5367   -4.8264 
 H                     0.4438    2.4453   -7.2295 
 H                    -0.8396    3.6469   -7.3477 
 H                    -2.6619    2.3095   -6.3158 
 H                    -2.3355    1.3283   -4.8779 
 H                    -1.5429    0.9377   -6.4057 
 H                     3.0836    0.6185   -1.8414 
 H                     4.2238    0.8404   -0.5155 
 H                     2.1538    4.8893   -0.4564 
 H                    -0.5796    4.5891   -0.7642 
 H                    -1.779     3.6999    0.173 
 H                    -0.2244    3.3271    2.0013 
 H                    -1.7057    5.4165    2.6532 
 H                    -1.006     7.0219    2.4253 
 H                    -1.6944    6.1678    1.0412 
 H                     1.3454    7.0719    2.2811 
 H                     2.324     5.5995    1.7536 
 H                     4.9427    4.4003   -4.1594 
 H                     5.4688    4.5139   -2.4669 
 H                     3.869     5.0939   -2.9778 
 H                     4.6899    0.8562   -3.3122 
 H                     5.4376    2.0722   -4.3084 
 H                     5.9646    1.891    -2.6222 
 H                     1.4472   -2.1537    0.2611 
 H                     2.6797   -1.4821   -0.809 
 H                     2.8022   -1.2569    0.951 
 C                     0.9336    4.3616   -6.3979 
 H                     1.3061    4.7796   -7.3387 
 H                     0.4689    5.1723   -5.8281 
 H                     1.7955    3.9928   -5.8365 
 

 GradGradGradGradGradGradGradGradGradGradGradGradGradGradGradGradGradGrad
 Berny optimization.
 Initialization pass.
                           ----------------------------
                           !    Initial Parameters    !
                           ! (Angstroms and Degrees)  !
 --------------------------                            --------------------------
 ! Name  Definition              Value          Derivative Info.                !
 --------------------------------------------------------------------------------
 ! R1    R(1,2)                  1.3413         estimate D2E/DX2                !
 ! R2    R(1,6)                  1.4937         estimate D2E/DX2                !
 ! R3    R(1,33)                 1.0888         estimate D2E/DX2                !
 ! R4    R(2,3)                  1.5121         estimate D2E/DX2                !
 ! R5    R(2,32)                 1.5051         estimate D2E/DX2                !
 ! R6    R(3,4)                  1.5559         estimate D2E/DX2                !
 ! R7    R(3,20)                 1.5404         estimate D2E/DX2                !
 ! R8    R(3,31)                 1.1001         estimate D2E/DX2                !
 ! R9    R(4,5)                  1.5369         estimate D2E/DX2                !
 ! R10   R(4,7)                  1.54           estimate D2E/DX2                !
 ! R11   R(4,24)                 1.4633         estimate D2E/DX2                !
 ! R12   R(5,6)                  1.5428         estimate D2E/DX2                !
 ! R13   R(5,10)                 1.5377         estimate D2E/DX2                !
 ! R14   R(5,22)                 1.5308         estimate D2E/DX2                !
 ! R15   R(6,34)                 1.0968         estimate D2E/DX2                !
 ! R16   R(6,35)                 1.0973         estimate D2E/DX2                !
 ! R17   R(7,8)                  1.4897         estimate D2E/DX2                !
 ! R18   R(7,17)                 1.5124         estimate D2E/DX2                !
 ! R19   R(7,21)                 1.4171         estimate D2E/DX2                !
 ! R20   R(8,9)                  1.3377         estimate D2E/DX2                !
 ! R21   R(8,19)                 1.3915         estimate D2E/DX2                !
 ! R22   R(9,10)                 1.4808         estimate D2E/DX2                !
 ! R23   R(9,11)                 1.4847         estimate D2E/DX2                !
 ! R24   R(10,16)                1.233          estimate D2E/DX2                !
 ! R25   R(11,12)                1.232          estimate D2E/DX2                !
 ! R26   R(11,13)                1.5258         estimate D2E/DX2                !
 ! R27   R(13,14)                1.5364         estimate D2E/DX2                !
 ! R28   R(13,15)                1.5292         estimate D2E/DX2                !
 ! R29   R(13,36)                1.0962         estimate D2E/DX2                !
 ! R30   R(14,37)                1.0968         estimate D2E/DX2                !
 ! R31   R(14,38)                1.097          estimate D2E/DX2                !
 ! R32   R(14,62)                1.5225         estimate D2E/DX2                !
 ! R33   R(15,39)                1.095          estimate D2E/DX2                !
 ! R34   R(15,40)                1.0948         estimate D2E/DX2                !
 ! R35   R(15,41)                1.0959         estimate D2E/DX2                !
 ! R36   R(17,18)                1.5433         estimate D2E/DX2                !
 ! R37   R(17,20)                1.5378         estimate D2E/DX2                !
 ! R38   R(17,30)                1.0959         estimate D2E/DX2                !
 ! R39   R(18,19)                1.45           estimate D2E/DX2                !
 ! R40   R(18,28)                1.5372         estimate D2E/DX2                !
 ! R41   R(18,29)                1.5327         estimate D2E/DX2                !
 ! R42   R(20,42)                1.0967         estimate D2E/DX2                !
 ! R43   R(20,43)                1.0959         estimate D2E/DX2                !
 ! R44   R(21,44)                0.9775         estimate D2E/DX2                !
 ! R45   R(22,23)                1.5209         estimate D2E/DX2                !
 ! R46   R(22,45)                1.0983         estimate D2E/DX2                !
 ! R47   R(22,46)                1.0961         estimate D2E/DX2                !
 ! R48   R(23,24)                1.4383         estimate D2E/DX2                !
 ! R49   R(23,25)                1.5135         estimate D2E/DX2                !
 ! R50   R(23,47)                1.0967         estimate D2E/DX2                !
 ! R51   R(25,26)                1.5064         estimate D2E/DX2                !
 ! R52   R(25,27)                1.3447         estimate D2E/DX2                !
 ! R53   R(26,48)                1.095          estimate D2E/DX2                !
 ! R54   R(26,49)                1.0954         estimate D2E/DX2                !
 ! R55   R(26,50)                1.0945         estimate D2E/DX2                !
 ! R56   R(27,51)                1.0861         estimate D2E/DX2                !
 ! R57   R(27,52)                1.0851         estimate D2E/DX2                !
 ! R58   R(28,53)                1.0966         estimate D2E/DX2                !
 ! R59   R(28,54)                1.0948         estimate D2E/DX2                !
 ! R60   R(28,55)                1.0931         estimate D2E/DX2                !
 ! R61   R(29,56)                1.0943         estimate D2E/DX2                !
 ! R62   R(29,57)                1.0966         estimate D2E/DX2                !
 ! R63   R(29,58)                1.0947         estimate D2E/DX2                !
 ! R64   R(32,59)                1.0955         estimate D2E/DX2                !
 ! R65   R(32,60)                1.0941         estimate D2E/DX2                !
 ! R66   R(32,61)                1.0949         estimate D2E/DX2                !
 ! R67   R(62,63)                1.0948         estimate D2E/DX2                !
 ! R68   R(62,64)                1.0945         estimate D2E/DX2                !
 ! R69   R(62,65)                1.0927         estimate D2E/DX2                !
 ! A1    A(2,1,6)              123.8227         estimate D2E/DX2                !
 ! A2    A(2,1,33)             119.8818         estimate D2E/DX2                !
 ! A3    A(6,1,33)             116.1925         estimate D2E/DX2                !
 ! A4    A(1,2,3)              121.6012         estimate D2E/DX2                !
 ! A5    A(1,2,32)             120.7853         estimate D2E/DX2                !
 ! A6    A(3,2,32)             117.4577         estimate D2E/DX2                !
 ! A7    A(2,3,4)              116.0434         estimate D2E/DX2                !
 ! A8    A(2,3,20)             113.0119         estimate D2E/DX2                !
 ! A9    A(2,3,31)             106.4199         estimate D2E/DX2                !
 ! A10   A(4,3,20)             105.7478         estimate D2E/DX2                !
 ! A11   A(4,3,31)             108.3645         estimate D2E/DX2                !
 ! A12   A(20,3,31)            106.852          estimate D2E/DX2                !
 ! A13   A(3,4,5)              118.5483         estimate D2E/DX2                !
 ! A14   A(3,4,7)              104.8641         estimate D2E/DX2                !
 ! A15   A(3,4,24)             107.1194         estimate D2E/DX2                !
 ! A16   A(5,4,7)              112.4065         estimate D2E/DX2                !
 ! A17   A(5,4,24)             106.5602         estimate D2E/DX2                !
 ! A18   A(7,4,24)             106.7027         estimate D2E/DX2                !
 ! A19   A(4,5,6)              113.2187         estimate D2E/DX2                !
 ! A20   A(4,5,10)             115.8956         estimate D2E/DX2                !
 ! A21   A(4,5,22)             101.7934         estimate D2E/DX2                !
 ! A22   A(6,5,10)             108.1484         estimate D2E/DX2                !
 ! A23   A(6,5,22)             109.8343         estimate D2E/DX2                !
 ! A24   A(10,5,22)            107.5725         estimate D2E/DX2                !
 ! A25   A(1,6,5)              114.1288         estimate D2E/DX2                !
 ! A26   A(1,6,34)             107.0253         estimate D2E/DX2                !
 ! A27   A(1,6,35)             107.9044         estimate D2E/DX2                !
 ! A28   A(5,6,34)             111.6233         estimate D2E/DX2                !
 ! A29   A(5,6,35)             110.467          estimate D2E/DX2                !
 ! A30   A(34,6,35)            105.2197         estimate D2E/DX2                !
 ! A31   A(4,7,8)              115.2903         estimate D2E/DX2                !
 ! A32   A(4,7,17)             107.4286         estimate D2E/DX2                !
 ! A33   A(4,7,21)             112.1737         estimate D2E/DX2                !
 ! A34   A(8,7,17)              99.5566         estimate D2E/DX2                !
 ! A35   A(8,7,21)             108.7457         estimate D2E/DX2                !
 ! A36   A(17,7,21)            113.091          estimate D2E/DX2                !
 ! A37   A(7,8,9)              123.3443         estimate D2E/DX2                !
 ! A38   A(7,8,19)             112.6472         estimate D2E/DX2                !
 ! A39   A(9,8,19)             123.5631         estimate D2E/DX2                !
 ! A40   A(8,9,10)             118.2674         estimate D2E/DX2                !
 ! A41   A(8,9,11)             119.7935         estimate D2E/DX2                !
 ! A42   A(10,9,11)            121.9383         estimate D2E/DX2                !
 ! A43   A(5,10,9)             120.4603         estimate D2E/DX2                !
 ! A44   A(5,10,16)            120.3218         estimate D2E/DX2                !
 ! A45   A(9,10,16)            119.2174         estimate D2E/DX2                !
 ! A46   A(9,11,12)            119.8503         estimate D2E/DX2                !
 ! A47   A(9,11,13)            117.8974         estimate D2E/DX2                !
 ! A48   A(12,11,13)           122.2487         estimate D2E/DX2                !
 ! A49   A(11,13,14)           110.9481         estimate D2E/DX2                !
 ! A50   A(11,13,15)           108.6829         estimate D2E/DX2                !
 ! A51   A(11,13,36)           109.6524         estimate D2E/DX2                !
 ! A52   A(14,13,15)           110.2014         estimate D2E/DX2                !
 ! A53   A(14,13,36)           108.8301         estimate D2E/DX2                !
 ! A54   A(15,13,36)           108.4876         estimate D2E/DX2                !
 ! A55   A(13,14,37)           110.5995         estimate D2E/DX2                !
 ! A56   A(13,14,38)           109.2704         estimate D2E/DX2                !
 ! A57   A(13,14,62)           112.9199         estimate D2E/DX2                !
 ! A58   A(37,14,38)           106.8711         estimate D2E/DX2                !
 ! A59   A(37,14,62)           108.9112         estimate D2E/DX2                !
 ! A60   A(38,14,62)           108.0584         estimate D2E/DX2                !
 ! A61   A(13,15,39)           110.7632         estimate D2E/DX2                !
 ! A62   A(13,15,40)           111.219          estimate D2E/DX2                !
 ! A63   A(13,15,41)           111.3923         estimate D2E/DX2                !
 ! A64   A(39,15,40)           107.9567         estimate D2E/DX2                !
 ! A65   A(39,15,41)           108.0051         estimate D2E/DX2                !
 ! A66   A(40,15,41)           107.344          estimate D2E/DX2                !
 ! A67   A(7,17,18)            102.5499         estimate D2E/DX2                !
 ! A68   A(7,17,20)            101.93           estimate D2E/DX2                !
 ! A69   A(7,17,30)            113.3946         estimate D2E/DX2                !
 ! A70   A(18,17,20)           114.8951         estimate D2E/DX2                !
 ! A71   A(18,17,30)           112.3966         estimate D2E/DX2                !
 ! A72   A(20,17,30)           110.9912         estimate D2E/DX2                !
 ! A73   A(17,18,19)           105.6385         estimate D2E/DX2                !
 ! A74   A(17,18,28)           112.7739         estimate D2E/DX2                !
 ! A75   A(17,18,29)           113.621          estimate D2E/DX2                !
 ! A76   A(19,18,28)           108.0465         estimate D2E/DX2                !
 ! A77   A(19,18,29)           108.3749         estimate D2E/DX2                !
 ! A78   A(28,18,29)           108.153          estimate D2E/DX2                !
 ! A79   A(8,19,18)            106.3929         estimate D2E/DX2                !
 ! A80   A(3,20,17)            105.9045         estimate D2E/DX2                !
 ! A81   A(3,20,42)            109.9328         estimate D2E/DX2                !
 ! A82   A(3,20,43)            111.582          estimate D2E/DX2                !
 ! A83   A(17,20,42)           111.6107         estimate D2E/DX2                !
 ! A84   A(17,20,43)           110.8585         estimate D2E/DX2                !
 ! A85   A(42,20,43)           107.0165         estimate D2E/DX2                !
 ! A86   A(7,21,44)            105.7588         estimate D2E/DX2                !
 ! A87   A(5,22,23)            103.0966         estimate D2E/DX2                !
 ! A88   A(5,22,45)            110.6504         estimate D2E/DX2                !
 ! A89   A(5,22,46)            113.26           estimate D2E/DX2                !
 ! A90   A(23,22,45)           110.8085         estimate D2E/DX2                !
 ! A91   A(23,22,46)           112.1914         estimate D2E/DX2                !
 ! A92   A(45,22,46)           106.8987         estimate D2E/DX2                !
 ! A93   A(22,23,24)           105.3131         estimate D2E/DX2                !
 ! A94   A(22,23,25)           114.5925         estimate D2E/DX2                !
 ! A95   A(22,23,47)           110.3861         estimate D2E/DX2                !
 ! A96   A(24,23,25)           111.5703         estimate D2E/DX2                !
 ! A97   A(24,23,47)           106.7058         estimate D2E/DX2                !
 ! A98   A(25,23,47)           108.0062         estimate D2E/DX2                !
 ! A99   A(4,24,23)            109.6443         estimate D2E/DX2                !
 ! A100  A(23,25,26)           115.7086         estimate D2E/DX2                !
 ! A101  A(23,25,27)           124.1344         estimate D2E/DX2                !
 ! A102  A(26,25,27)           120.1141         estimate D2E/DX2                !
 ! A103  A(25,26,48)           110.2469         estimate D2E/DX2                !
 ! A104  A(25,26,49)           112.1591         estimate D2E/DX2                !
 ! A105  A(25,26,50)           110.6774         estimate D2E/DX2                !
 ! A106  A(48,26,49)           107.4642         estimate D2E/DX2                !
 ! A107  A(48,26,50)           108.6482         estimate D2E/DX2                !
 ! A108  A(49,26,50)           107.5072         estimate D2E/DX2                !
 ! A109  A(25,27,51)           121.4908         estimate D2E/DX2                !
 ! A110  A(25,27,52)           122.1264         estimate D2E/DX2                !
 ! A111  A(51,27,52)           116.3711         estimate D2E/DX2                !
 ! A112  A(18,28,53)           110.5381         estimate D2E/DX2                !
 ! A113  A(18,28,54)           111.2756         estimate D2E/DX2                !
 ! A114  A(18,28,55)           112.5829         estimate D2E/DX2                !
 ! A115  A(53,28,54)           108.2815         estimate D2E/DX2                !
 ! A116  A(53,28,55)           105.3048         estimate D2E/DX2                !
 ! A117  A(54,28,55)           108.6009         estimate D2E/DX2                !
 ! A118  A(18,29,56)           112.1451         estimate D2E/DX2                !
 ! A119  A(18,29,57)           110.6727         estimate D2E/DX2                !
 ! A120  A(18,29,58)           111.3666         estimate D2E/DX2                !
 ! A121  A(56,29,57)           105.2248         estimate D2E/DX2                !
 ! A122  A(56,29,58)           108.8997         estimate D2E/DX2                !
 ! A123  A(57,29,58)           108.2813         estimate D2E/DX2                !
 ! A124  A(2,32,59)            112.0367         estimate D2E/DX2                !
 ! A125  A(2,32,60)            110.8016         estimate D2E/DX2                !
 ! A126  A(2,32,61)            110.3357         estimate D2E/DX2                !
 ! A127  A(59,32,60)           107.4355         estimate D2E/DX2                !
 ! A128  A(59,32,61)           107.4024         estimate D2E/DX2                !
 ! A129  A(60,32,61)           108.6861         estimate D2E/DX2                !
 ! A130  A(14,62,63)           110.0266         estimate D2E/DX2                !
 ! A131  A(14,62,64)           111.1253         estimate D2E/DX2                !
 ! A132  A(14,62,65)           111.4703         estimate D2E/DX2                !
 ! A133  A(63,62,64)           108.0013         estimate D2E/DX2                !
 ! A134  A(63,62,65)           107.5767         estimate D2E/DX2                !
 ! A135  A(64,62,65)           108.5073         estimate D2E/DX2                !
 ! D1    D(6,1,2,3)             -0.7018         estimate D2E/DX2                !
 ! D2    D(6,1,2,32)           174.6449         estimate D2E/DX2                !
 ! D3    D(33,1,2,3)          -176.8667         estimate D2E/DX2                !
 ! D4    D(33,1,2,32)           -1.52           estimate D2E/DX2                !
 ! D5    D(2,1,6,5)             29.2391         estimate D2E/DX2                !
 ! D6    D(2,1,6,34)           -94.7786         estimate D2E/DX2                !
 ! D7    D(2,1,6,35)           152.4251         estimate D2E/DX2                !
 ! D8    D(33,1,6,5)          -154.4665         estimate D2E/DX2                !
 ! D9    D(33,1,6,34)           81.5158         estimate D2E/DX2                !
 ! D10   D(33,1,6,35)          -31.2805         estimate D2E/DX2                !
 ! D11   D(1,2,3,4)            -13.768          estimate D2E/DX2                !
 ! D12   D(1,2,3,20)          -136.1622         estimate D2E/DX2                !
 ! D13   D(1,2,3,31)           106.8681         estimate D2E/DX2                !
 ! D14   D(32,2,3,4)           170.7367         estimate D2E/DX2                !
 ! D15   D(32,2,3,20)           48.3425         estimate D2E/DX2                !
 ! D16   D(32,2,3,31)          -68.6271         estimate D2E/DX2                !
 ! D17   D(1,2,32,59)           -4.8486         estimate D2E/DX2                !
 ! D18   D(1,2,32,60)          115.1222         estimate D2E/DX2                !
 ! D19   D(1,2,32,61)         -124.46           estimate D2E/DX2                !
 ! D20   D(3,2,32,59)          170.6854         estimate D2E/DX2                !
 ! D21   D(3,2,32,60)          -69.3438         estimate D2E/DX2                !
 ! D22   D(3,2,32,61)           51.074          estimate D2E/DX2                !
 ! D23   D(2,3,4,5)             -1.1762         estimate D2E/DX2                !
 ! D24   D(2,3,4,7)           -127.5715         estimate D2E/DX2                !
 ! D25   D(2,3,4,24)           119.294          estimate D2E/DX2                !
 ! D26   D(20,3,4,5)           124.9716         estimate D2E/DX2                !
 ! D27   D(20,3,4,7)            -1.4238         estimate D2E/DX2                !
 ! D28   D(20,3,4,24)         -114.5582         estimate D2E/DX2                !
 ! D29   D(31,3,4,5)          -120.762          estimate D2E/DX2                !
 ! D30   D(31,3,4,7)           112.8427         estimate D2E/DX2                !
 ! D31   D(31,3,4,24)           -0.2918         estimate D2E/DX2                !
 ! D32   D(2,3,20,17)          151.564          estimate D2E/DX2                !
 ! D33   D(2,3,20,42)           30.8539         estimate D2E/DX2                !
 ! D34   D(2,3,20,43)          -87.7148         estimate D2E/DX2                !
 ! D35   D(4,3,20,17)           23.5845         estimate D2E/DX2                !
 ! D36   D(4,3,20,42)          -97.1256         estimate D2E/DX2                !
 ! D37   D(4,3,20,43)          144.3057         estimate D2E/DX2                !
 ! D38   D(31,3,20,17)         -91.7215         estimate D2E/DX2                !
 ! D39   D(31,3,20,42)         147.5684         estimate D2E/DX2                !
 ! D40   D(31,3,20,43)          28.9997         estimate D2E/DX2                !
 ! D41   D(3,4,5,6)             27.7902         estimate D2E/DX2                !
 ! D42   D(3,4,5,10)           -98.0144         estimate D2E/DX2                !
 ! D43   D(3,4,5,22)           145.6126         estimate D2E/DX2                !
 ! D44   D(7,4,5,6)            150.487          estimate D2E/DX2                !
 ! D45   D(7,4,5,10)            24.6824         estimate D2E/DX2                !
 ! D46   D(7,4,5,22)           -91.6905         estimate D2E/DX2                !
 ! D47   D(24,4,5,6)           -92.9661         estimate D2E/DX2                !
 ! D48   D(24,4,5,10)          141.2293         estimate D2E/DX2                !
 ! D49   D(24,4,5,22)           24.8564         estimate D2E/DX2                !
 ! D50   D(3,4,7,8)             88.1408         estimate D2E/DX2                !
 ! D51   D(3,4,7,17)           -21.7838         estimate D2E/DX2                !
 ! D52   D(3,4,7,21)          -146.6623         estimate D2E/DX2                !
 ! D53   D(5,4,7,8)            -41.9687         estimate D2E/DX2                !
 ! D54   D(5,4,7,17)          -151.8934         estimate D2E/DX2                !
 ! D55   D(5,4,7,21)            83.2282         estimate D2E/DX2                !
 ! D56   D(24,4,7,8)          -158.4303         estimate D2E/DX2                !
 ! D57   D(24,4,7,17)           91.6451         estimate D2E/DX2                !
 ! D58   D(24,4,7,21)          -33.2333         estimate D2E/DX2                !
 ! D59   D(3,4,24,23)         -131.7983         estimate D2E/DX2                !
 ! D60   D(5,4,24,23)           -3.971          estimate D2E/DX2                !
 ! D61   D(7,4,24,23)          116.3215         estimate D2E/DX2                !
 ! D62   D(4,5,6,1)            -40.889          estimate D2E/DX2                !
 ! D63   D(4,5,6,34)            80.6224         estimate D2E/DX2                !
 ! D64   D(4,5,6,35)          -162.6744         estimate D2E/DX2                !
 ! D65   D(10,5,6,1)            88.9561         estimate D2E/DX2                !
 ! D66   D(10,5,6,34)         -149.5324         estimate D2E/DX2                !
 ! D67   D(10,5,6,35)          -32.8293         estimate D2E/DX2                !
 ! D68   D(22,5,6,1)          -153.9155         estimate D2E/DX2                !
 ! D69   D(22,5,6,34)          -32.404          estimate D2E/DX2                !
 ! D70   D(22,5,6,35)           84.2992         estimate D2E/DX2                !
 ! D71   D(4,5,10,9)             6.0841         estimate D2E/DX2                !
 ! D72   D(4,5,10,16)         -174.1944         estimate D2E/DX2                !
 ! D73   D(6,5,10,9)          -122.2553         estimate D2E/DX2                !
 ! D74   D(6,5,10,16)           57.4661         estimate D2E/DX2                !
 ! D75   D(22,5,10,9)          119.1671         estimate D2E/DX2                !
 ! D76   D(22,5,10,16)         -61.1114         estimate D2E/DX2                !
 ! D77   D(4,5,22,23)          -35.5474         estimate D2E/DX2                !
 ! D78   D(4,5,22,45)           82.9719         estimate D2E/DX2                !
 ! D79   D(4,5,22,46)         -157.0203         estimate D2E/DX2                !
 ! D80   D(6,5,22,23)           84.6812         estimate D2E/DX2                !
 ! D81   D(6,5,22,45)         -156.7995         estimate D2E/DX2                !
 ! D82   D(6,5,22,46)          -36.7917         estimate D2E/DX2                !
 ! D83   D(10,5,22,23)        -157.831          estimate D2E/DX2                !
 ! D84   D(10,5,22,45)         -39.3117         estimate D2E/DX2                !
 ! D85   D(10,5,22,46)          80.6961         estimate D2E/DX2                !
 ! D86   D(4,7,8,9)             29.4996         estimate D2E/DX2                !
 ! D87   D(4,7,8,19)          -143.0778         estimate D2E/DX2                !
 ! D88   D(17,7,8,9)           144.0489         estimate D2E/DX2                !
 ! D89   D(17,7,8,19)          -28.5285         estimate D2E/DX2                !
 ! D90   D(21,7,8,9)           -97.4532         estimate D2E/DX2                !
 ! D91   D(21,7,8,19)           89.9694         estimate D2E/DX2                !
 ! D92   D(4,7,17,18)          155.1484         estimate D2E/DX2                !
 ! D93   D(4,7,17,20)           35.9513         estimate D2E/DX2                !
 ! D94   D(4,7,17,30)          -83.4112         estimate D2E/DX2                !
 ! D95   D(8,7,17,18)           34.6899         estimate D2E/DX2                !
 ! D96   D(8,7,17,20)          -84.5073         estimate D2E/DX2                !
 ! D97   D(8,7,17,30)          156.1303         estimate D2E/DX2                !
 ! D98   D(21,7,17,18)         -80.5275         estimate D2E/DX2                !
 ! D99   D(21,7,17,20)         160.2753         estimate D2E/DX2                !
 ! D100  D(21,7,17,30)          40.9129         estimate D2E/DX2                !
 ! D101  D(4,7,21,44)           40.9859         estimate D2E/DX2                !
 ! D102  D(8,7,21,44)          169.7032         estimate D2E/DX2                !
 ! D103  D(17,7,21,44)         -80.7071         estimate D2E/DX2                !
 ! D104  D(7,8,9,10)             3.2868         estimate D2E/DX2                !
 ! D105  D(7,8,9,11)          -177.0167         estimate D2E/DX2                !
 ! D106  D(19,8,9,10)          175.0607         estimate D2E/DX2                !
 ! D107  D(19,8,9,11)           -5.2428         estimate D2E/DX2                !
 ! D108  D(7,8,19,18)            8.8983         estimate D2E/DX2                !
 ! D109  D(9,8,19,18)         -163.6602         estimate D2E/DX2                !
 ! D110  D(8,9,10,5)           -21.7006         estimate D2E/DX2                !
 ! D111  D(8,9,10,16)          158.5749         estimate D2E/DX2                !
 ! D112  D(11,9,10,5)          158.6098         estimate D2E/DX2                !
 ! D113  D(11,9,10,16)         -21.1147         estimate D2E/DX2                !
 ! D114  D(8,9,11,12)           63.2561         estimate D2E/DX2                !
 ! D115  D(8,9,11,13)         -117.4187         estimate D2E/DX2                !
 ! D116  D(10,9,11,12)        -117.0589         estimate D2E/DX2                !
 ! D117  D(10,9,11,13)          62.2664         estimate D2E/DX2                !
 ! D118  D(9,11,13,14)         119.9688         estimate D2E/DX2                !
 ! D119  D(9,11,13,15)        -118.7136         estimate D2E/DX2                !
 ! D120  D(9,11,13,36)          -0.276          estimate D2E/DX2                !
 ! D121  D(12,11,13,14)        -60.7232         estimate D2E/DX2                !
 ! D122  D(12,11,13,15)         60.5945         estimate D2E/DX2                !
 ! D123  D(12,11,13,36)        179.0321         estimate D2E/DX2                !
 ! D124  D(11,13,14,37)         52.9085         estimate D2E/DX2                !
 ! D125  D(11,13,14,38)        170.2862         estimate D2E/DX2                !
 ! D126  D(11,13,14,62)        -69.4249         estimate D2E/DX2                !
 ! D127  D(15,13,14,37)        -67.5124         estimate D2E/DX2                !
 ! D128  D(15,13,14,38)         49.8653         estimate D2E/DX2                !
 ! D129  D(15,13,14,62)        170.1542         estimate D2E/DX2                !
 ! D130  D(36,13,14,37)        173.6408         estimate D2E/DX2                !
 ! D131  D(36,13,14,38)        -68.9815         estimate D2E/DX2                !
 ! D132  D(36,13,14,62)         51.3074         estimate D2E/DX2                !
 ! D133  D(11,13,15,39)        175.6837         estimate D2E/DX2                !
 ! D134  D(11,13,15,40)         55.6248         estimate D2E/DX2                !
 ! D135  D(11,13,15,41)        -64.081          estimate D2E/DX2                !
 ! D136  D(14,13,15,39)        -62.5421         estimate D2E/DX2                !
 ! D137  D(14,13,15,40)        177.399          estimate D2E/DX2                !
 ! D138  D(14,13,15,41)         57.6932         estimate D2E/DX2                !
 ! D139  D(36,13,15,39)         56.5138         estimate D2E/DX2                !
 ! D140  D(36,13,15,40)        -63.5452         estimate D2E/DX2                !
 ! D141  D(36,13,15,41)        176.7491         estimate D2E/DX2                !
 ! D142  D(13,14,62,63)       -174.8445         estimate D2E/DX2                !
 ! D143  D(13,14,62,64)        -55.2764         estimate D2E/DX2                !
 ! D144  D(13,14,62,65)         65.8974         estimate D2E/DX2                !
 ! D145  D(37,14,62,63)         61.8813         estimate D2E/DX2                !
 ! D146  D(37,14,62,64)       -178.5506         estimate D2E/DX2                !
 ! D147  D(37,14,62,65)        -57.3768         estimate D2E/DX2                !
 ! D148  D(38,14,62,63)        -53.8643         estimate D2E/DX2                !
 ! D149  D(38,14,62,64)         65.7038         estimate D2E/DX2                !
 ! D150  D(38,14,62,65)       -173.1224         estimate D2E/DX2                !
 ! D151  D(7,17,18,19)         -31.9592         estimate D2E/DX2                !
 ! D152  D(7,17,18,28)          85.8429         estimate D2E/DX2                !
 ! D153  D(7,17,18,29)        -150.6254         estimate D2E/DX2                !
 ! D154  D(20,17,18,19)         77.7216         estimate D2E/DX2                !
 ! D155  D(20,17,18,28)       -164.4763         estimate D2E/DX2                !
 ! D156  D(20,17,18,29)        -40.9446         estimate D2E/DX2                !
 ! D157  D(30,17,18,19)       -154.0799         estimate D2E/DX2                !
 ! D158  D(30,17,18,28)        -36.2778         estimate D2E/DX2                !
 ! D159  D(30,17,18,29)         87.2539         estimate D2E/DX2                !
 ! D160  D(7,17,20,3)          -36.4423         estimate D2E/DX2                !
 ! D161  D(7,17,20,42)          83.1725         estimate D2E/DX2                !
 ! D162  D(7,17,20,43)        -157.6319         estimate D2E/DX2                !
 ! D163  D(18,17,20,3)        -146.4953         estimate D2E/DX2                !
 ! D164  D(18,17,20,42)        -26.8804         estimate D2E/DX2                !
 ! D165  D(18,17,20,43)         92.3152         estimate D2E/DX2                !
 ! D166  D(30,17,20,3)          84.6045         estimate D2E/DX2                !
 ! D167  D(30,17,20,42)       -155.7806         estimate D2E/DX2                !
 ! D168  D(30,17,20,43)        -36.585          estimate D2E/DX2                !
 ! D169  D(17,18,19,8)          14.7012         estimate D2E/DX2                !
 ! D170  D(28,18,19,8)        -106.2281         estimate D2E/DX2                !
 ! D171  D(29,18,19,8)         136.803          estimate D2E/DX2                !
 ! D172  D(17,18,28,53)       -179.4904         estimate D2E/DX2                !
 ! D173  D(17,18,28,54)         60.1542         estimate D2E/DX2                !
 ! D174  D(17,18,28,55)        -62.0326         estimate D2E/DX2                !
 ! D175  D(19,18,28,53)        -63.1136         estimate D2E/DX2                !
 ! D176  D(19,18,28,54)        176.531          estimate D2E/DX2                !
 ! D177  D(19,18,28,55)         54.3442         estimate D2E/DX2                !
 ! D178  D(29,18,28,53)         53.9987         estimate D2E/DX2                !
 ! D179  D(29,18,28,54)        -66.3566         estimate D2E/DX2                !
 ! D180  D(29,18,28,55)        171.4565         estimate D2E/DX2                !
 ! D181  D(17,18,29,56)         65.0335         estimate D2E/DX2                !
 ! D182  D(17,18,29,57)       -177.7989         estimate D2E/DX2                !
 ! D183  D(17,18,29,58)        -57.2927         estimate D2E/DX2                !
 ! D184  D(19,18,29,56)        -52.0502         estimate D2E/DX2                !
 ! D185  D(19,18,29,57)         65.1174         estimate D2E/DX2                !
 ! D186  D(19,18,29,58)       -174.3764         estimate D2E/DX2                !
 ! D187  D(28,18,29,56)       -168.9505         estimate D2E/DX2                !
 ! D188  D(28,18,29,57)        -51.7829         estimate D2E/DX2                !
 ! D189  D(28,18,29,58)         68.7233         estimate D2E/DX2                !
 ! D190  D(5,22,23,24)          34.389          estimate D2E/DX2                !
 ! D191  D(5,22,23,25)         157.3809         estimate D2E/DX2                !
 ! D192  D(5,22,23,47)         -80.4273         estimate D2E/DX2                !
 ! D193  D(45,22,23,24)        -84.0199         estimate D2E/DX2                !
 ! D194  D(45,22,23,25)         38.972          estimate D2E/DX2                !
 ! D195  D(45,22,23,47)        161.1638         estimate D2E/DX2                !
 ! D196  D(46,22,23,24)        156.5828         estimate D2E/DX2                !
 ! D197  D(46,22,23,25)        -80.4253         estimate D2E/DX2                !
 ! D198  D(46,22,23,47)         41.7665         estimate D2E/DX2                !
 ! D199  D(22,23,24,4)         -19.0488         estimate D2E/DX2                !
 ! D200  D(25,23,24,4)        -143.9541         estimate D2E/DX2                !
 ! D201  D(47,23,24,4)          98.2907         estimate D2E/DX2                !
 ! D202  D(22,23,25,26)         55.7088         estimate D2E/DX2                !
 ! D203  D(22,23,25,27)       -126.6803         estimate D2E/DX2                !
 ! D204  D(24,23,25,26)        175.2629         estimate D2E/DX2                !
 ! D205  D(24,23,25,27)         -7.1262         estimate D2E/DX2                !
 ! D206  D(47,23,25,26)        -67.7672         estimate D2E/DX2                !
 ! D207  D(47,23,25,27)        109.8437         estimate D2E/DX2                !
 ! D208  D(23,25,26,48)         53.8            estimate D2E/DX2                !
 ! D209  D(23,25,26,49)        173.5097         estimate D2E/DX2                !
 ! D210  D(23,25,26,50)        -66.4315         estimate D2E/DX2                !
 ! D211  D(27,25,26,48)       -123.914          estimate D2E/DX2                !
 ! D212  D(27,25,26,49)         -4.2042         estimate D2E/DX2                !
 ! D213  D(27,25,26,50)        115.8545         estimate D2E/DX2                !
 ! D214  D(23,25,27,51)       -178.9111         estimate D2E/DX2                !
 ! D215  D(23,25,27,52)         -0.2032         estimate D2E/DX2                !
 ! D216  D(26,25,27,51)         -1.3997         estimate D2E/DX2                !
 ! D217  D(26,25,27,52)        177.3083         estimate D2E/DX2                !
 --------------------------------------------------------------------------------
 Trust Radius=3.00D-01 FncErr=1.00D-07 GrdErr=1.00D-06
 Number of steps in this run=    390 maximum allowed number of steps=    390.
 GradGradGradGradGradGradGradGradGradGradGradGradGradGradGradGradGradGrad

 Stoichiometry    C26H34O5
 Framework group  C1[X(C26H34O5)]
 Deg. of freedom   189
 Full point group                 C1      NOp   1
 Largest Abelian subgroup         C1      NOp   1
 Largest concise Abelian subgroup C1      NOp   1
                         Standard orientation:                         
 ---------------------------------------------------------------------
 Center     Atomic      Atomic             Coordinates (Angstroms)
 Number     Number       Type             X           Y           Z
 ---------------------------------------------------------------------
      1          6           0       -1.347338   -0.167692    3.210687
      2          6           0       -1.309791    1.116110    2.823980
      3          6           0       -1.524619    1.515740    1.381564
      4          6           0       -1.458096    0.364801    0.336647
      5          6           0       -1.157823   -1.059223    0.830606
      6          6           0       -1.613898   -1.307921    2.283316
      7          6           0       -0.444081    0.846468   -0.717594
      8          6           0        0.978522    0.507458   -0.433823
      9          6           0        1.352691   -0.575106    0.257219
     10          6           0        0.303357   -1.520628    0.701683
     11          6           0        2.790181   -0.802152    0.551279
     12          8           0        3.406084   -0.000571    1.255544
     13          6           0        3.449391   -2.049433   -0.029812
     14          6           0        4.617588   -1.673330   -0.954116
     15          6           0        3.947788   -2.922182    1.122718
     16          8           0        0.615523   -2.682308    0.972550
     17          6           0       -0.367847    2.353619   -0.617392
     18          6           0        1.037249    2.656436   -1.179454
     19          8           0        1.856675    1.515833   -0.818777
     20          6           0       -0.522334    2.579828    0.895840
     21          8           0       -0.769587    0.391799   -2.019674
     22          6           0       -1.996522   -1.906737   -0.129399
     23          6           0       -3.231519   -1.048915   -0.357272
     24          8           0       -2.760991    0.309915   -0.327254
     25          6           0       -3.980275   -1.350314   -1.637539
     26          6           0       -4.419019   -2.780214   -1.816810
     27          6           0       -4.299120   -0.425960   -2.560695
     28          6           0        1.050087    2.786723   -2.711070
     29          6           0        1.676837    3.917316   -0.587569
     30          1           0       -1.159881    2.867361   -1.174022
     31          1           0       -2.524122    1.972442    1.330977
     32          6           0       -1.154116    2.220783    3.834386
     33          1           0       -1.239750   -0.420208    4.264298
     34          1           0       -2.688111   -1.522449    2.338588
     35          1           0       -1.120834   -2.198449    2.693150
     36          1           0        2.712624   -2.621542   -0.605653
     37          1           0        5.317828   -1.004837   -0.438542
     38          1           0        5.177434   -2.579382   -1.217021
     39          1           0        4.359653   -3.864370    0.746209
     40          1           0        3.136506   -3.162201    1.817525
     41          1           0        4.731320   -2.415755    1.697764
     42          1           0        0.432848    2.461341    1.421550
     43          1           0       -0.879361    3.594796    1.104225
     44          1           0       -1.739792    0.481795   -2.097472
     45          1           0       -1.457307   -2.072507   -1.071761
     46          1           0       -2.247421   -2.895245    0.272264
     47          1           0       -3.932361   -1.158404    0.479150
     48          1           0       -4.998285   -3.110558   -0.948336
     49          1           0       -5.050677   -2.910672   -2.702226
     50          1           0       -3.552466   -3.438969   -1.930617
     51          1           0       -4.853509   -0.687304   -3.457300
     52          1           0       -4.037233    0.620542   -2.443837
     53          1           0        2.065242    2.992349   -3.071189
     54          1           0        0.395884    3.598042   -3.046236
     55          1           0        0.747061    1.864397   -3.213360
     56          1           0        1.878373    3.813952    0.483012
     57          1           0        2.653863    4.108150   -1.047408
     58          1           0        1.044993    4.797057   -0.746115
     59          1           0       -1.167557    1.842453    4.862348
     60          1           0       -0.205894    2.747447    3.691277
     61          1           0       -1.973222    2.941134    3.739833
     62          6           0        4.161442   -1.008907   -2.245867
     63          1           0        5.019092   -0.844869   -2.906255
     64          1           0        3.439564   -1.635928   -2.778399
     65          1           0        3.701464   -0.036336   -2.054609
 ---------------------------------------------------------------------
 Rotational constants (GHZ):      0.1918656      0.1310429      0.1220509
 Standard basis: 6-31G(d) (6D, 7F)
 There are   533 symmetry adapted basis functions of A   symmetry.
 Integral buffers will be    131072 words long.
 Raffenetti 2 integral format.
 Two-electron integral symmetry is turned on.
   533 basis functions,  1004 primitive gaussians,   533 cartesian basis functions
   115 alpha electrons      115 beta electrons
       nuclear repulsion energy      3531.7865546444 Hartrees.
 NAtoms=   65 NActive=   65 NUniq=   65 SFac= 1.00D+00 NAtFMM=   50 NAOKFM=T Big=T
 One-electron integrals computed using PRISM.
 NBasis=   533 RedAO= T  NBF=   533
 NBsUse=   533 1.00D-06 NBFU=   533
 Harris functional with IExCor=  402 diagonalized for initial guess.
 ExpMin= 1.61D-01 ExpMax= 5.48D+03 ExpMxC= 8.25D+02 IAcc=1 IRadAn=         1 AccDes= 0.00D+00
 HarFok:  IExCor=  402 AccDes= 0.00D+00 IRadAn=         1 IDoV= 1
 ScaDFX=  1.000000  1.000000  1.000000  1.000000
 FoFCou: FMM=F IPFlag=           0 FMFlag=      100000 FMFlg1=        2001
         NFxFlg=           0 DoJE=T BraDBF=F KetDBF=T FulRan=T
         Omega=  0.000000  0.000000  1.000000  0.000000  0.000000 ICntrl=     500 IOpCl=  0
         NMat0=    1 NMatS0=    1 NMatT0=    0 NMatD0=    1 NMtDS0=    0 NMtDT0=    0
         I1Cent=           4 NGrid=           0.
 Petite list used in FoFCou.
 Initial guess orbital symmetries:
       Occupied  (A) (A) (A) (A) (A) (A) (A) (A) (A) (A) (A) (A)
                 (A) (A) (A) (A) (A) (A) (A) (A) (A) (A) (A) (A)
                 (A) (A) (A) (A) (A) (A) (A) (A) (A) (A) (A) (A)
                 (A) (A) (A) (A) (A) (A) (A) (A) (A) (A) (A) (A)
                 (A) (A) (A) (A) (A) (A) (A) (A) (A) (A) (A) (A)
                 (A) (A) (A) (A) (A) (A) (A) (A) (A) (A) (A) (A)
                 (A) (A) (A) (A) (A) (A) (A) (A) (A) (A) (A) (A)
                 (A) (A) (A) (A) (A) (A) (A) (A) (A) (A) (A) (A)
                 (A) (A) (A) (A) (A) (A) (A) (A) (A) (A) (A) (A)
                 (A) (A) (A) (A) (A) (A) (A)
       Virtual   (A) (A) (A) (A) (A) (A) (A) (A) (A) (A) (A) (A)
                 (A) (A) (A) (A) (A) (A) (A) (A) (A) (A) (A) (A)
                 (A) (A) (A) (A) (A) (A) (A) (A) (A) (A) (A) (A)
                 (A) (A) (A) (A) (A) (A) (A) (A) (A) (A) (A) (A)
                 (A) (A) (A) (A) (A) (A) (A) (A) (A) (A) (A) (A)
                 (A) (A) (A) (A) (A) (A) (A) (A) (A) (A) (A) (A)
                 (A) (A) (A) (A) (A) (A) (A) (A) (A) (A) (A) (A)
                 (A) (A) (A) (A) (A) (A) (A) (A) (A) (A) (A) (A)
                 (A) (A) (A) (A) (A) (A) (A) (A) (A) (A) (A) (A)
                 (A) (A) (A) (A) (A) (A) (A) (A) (A) (A) (A) (A)
                 (A) (A) (A) (A) (A) (A) (A) (A) (A) (A) (A) (A)
                 (A) (A) (A) (A) (A) (A) (A) (A) (A) (A) (A) (A)
                 (A) (A) (A) (A) (A) (A) (A) (A) (A) (A) (A) (A)
                 (A) (A) (A) (A) (A) (A) (A) (A) (A) (A) (A) (A)
                 (A) (A) (A) (A) (A) (A) (A) (A) (A) (A) (A) (A)
                 (A) (A) (A) (A) (A) (A) (A) (A) (A) (A) (A) (A)
                 (A) (A) (A) (A) (A) (A) (A) (A) (A) (A) (A) (A)
                 (A) (A) (A) (A) (A) (A) (A) (A) (A) (A) (A) (A)
                 (A) (A) (A) (A) (A) (A) (A) (A) (A) (A) (A) (A)
                 (A) (A) (A) (A) (A) (A) (A) (A) (A) (A) (A) (A)
                 (A) (A) (A) (A) (A) (A) (A) (A) (A) (A) (A) (A)
                 (A) (A) (A) (A) (A) (A) (A) (A) (A) (A) (A) (A)
                 (A) (A) (A) (A) (A) (A) (A) (A) (A) (A) (A) (A)
                 (A) (A) (A) (A) (A) (A) (A) (A) (A) (A) (A) (A)
                 (A) (A) (A) (A) (A) (A) (A) (A) (A) (A) (A) (A)
                 (A) (A) (A) (A) (A) (A) (A) (A) (A) (A) (A) (A)
                 (A) (A) (A) (A) (A) (A) (A) (A) (A) (A) (A) (A)
                 (A) (A) (A) (A) (A) (A) (A) (A) (A) (A) (A) (A)
                 (A) (A) (A) (A) (A) (A) (A) (A) (A) (A) (A) (A)
                 (A) (A) (A) (A) (A) (A) (A) (A) (A) (A) (A) (A)
                 (A) (A) (A) (A) (A) (A) (A) (A) (A) (A) (A) (A)
                 (A) (A) (A) (A) (A) (A) (A) (A) (A) (A) (A) (A)
                 (A) (A) (A) (A) (A) (A) (A) (A) (A) (A) (A) (A)
                 (A) (A) (A) (A) (A) (A) (A) (A) (A) (A) (A) (A)
                 (A) (A) (A) (A) (A) (A) (A) (A) (A) (A)
 The electronic state of the initial guess is 1-A.
 Requested convergence on RMS density matrix=1.00D-08 within 128 cycles.
 Requested convergence on MAX density matrix=1.00D-06.
 Requested convergence on             energy=1.00D-06.
 No special actions if energy rises.
 Integral accuracy reduced to 1.0D-05 until final iterations.
 Initial convergence to 1.0D-05 achieved.  Increase integral accuracy.
 SCF Done:  E(RB3LYP) =  -1387.30604004     A.U. after   16 cycles
             Convg  =    0.4700D-08             -V/T =  2.0091

 **********************************************************************

            Population analysis using the SCF density.

 **********************************************************************

 Orbital symmetries:
       Occupied  (A) (A) (A) (A) (A) (A) (A) (A) (A) (A) (A) (A)
                 (A) (A) (A) (A) (A) (A) (A) (A) (A) (A) (A) (A)
                 (A) (A) (A) (A) (A) (A) (A) (A) (A) (A) (A) (A)
                 (A) (A) (A) (A) (A) (A) (A) (A) (A) (A) (A) (A)
                 (A) (A) (A) (A) (A) (A) (A) (A) (A) (A) (A) (A)
                 (A) (A) (A) (A) (A) (A) (A) (A) (A) (A) (A) (A)
                 (A) (A) (A) (A) (A) (A) (A) (A) (A) (A) (A) (A)
                 (A) (A) (A) (A) (A) (A) (A) (A) (A) (A) (A) (A)
                 (A) (A) (A) (A) (A) (A) (A) (A) (A) (A) (A) (A)
                 (A) (A) (A) (A) (A) (A) (A)
       Virtual   (A) (A) (A) (A) (A) (A) (A) (A) (A) (A) (A) (A)
                 (A) (A) (A) (A) (A) (A) (A) (A) (A) (A) (A) (A)
                 (A) (A) (A) (A) (A) (A) (A) (A) (A) (A) (A) (A)
                 (A) (A) (A) (A) (A) (A) (A) (A) (A) (A) (A) (A)
                 (A) (A) (A) (A) (A) (A) (A) (A) (A) (A) (A) (A)
                 (A) (A) (A) (A) (A) (A) (A) (A) (A) (A) (A) (A)
                 (A) (A) (A) (A) (A) (A) (A) (A) (A) (A) (A) (A)
                 (A) (A) (A) (A) (A) (A) (A) (A) (A) (A) (A) (A)
                 (A) (A) (A) (A) (A) (A) (A) (A) (A) (A) (A) (A)
                 (A) (A) (A) (A) (A) (A) (A) (A) (A) (A) (A) (A)
                 (A) (A) (A) (A) (A) (A) (A) (A) (A) (A) (A) (A)
                 (A) (A) (A) (A) (A) (A) (A) (A) (A) (A) (A) (A)
                 (A) (A) (A) (A) (A) (A) (A) (A) (A) (A) (A) (A)
                 (A) (A) (A) (A) (A) (A) (A) (A) (A) (A) (A) (A)
                 (A) (A) (A) (A) (A) (A) (A) (A) (A) (A) (A) (A)
                 (A) (A) (A) (A) (A) (A) (A) (A) (A) (A) (A) (A)
                 (A) (A) (A) (A) (A) (A) (A) (A) (A) (A) (A) (A)
                 (A) (A) (A) (A) (A) (A) (A) (A) (A) (A) (A) (A)
                 (A) (A) (A) (A) (A) (A) (A) (A) (A) (A) (A) (A)
                 (A) (A) (A) (A) (A) (A) (A) (A) (A) (A) (A) (A)
                 (A) (A) (A) (A) (A) (A) (A) (A) (A) (A) (A) (A)
                 (A) (A) (A) (A) (A) (A) (A) (A) (A) (A) (A) (A)
                 (A) (A) (A) (A) (A) (A) (A) (A) (A) (A) (A) (A)
                 (A) (A) (A) (A) (A) (A) (A) (A) (A) (A) (A) (A)
                 (A) (A) (A) (A) (A) (A) (A) (A) (A) (A) (A) (A)
                 (A) (A) (A) (A) (A) (A) (A) (A) (A) (A) (A) (A)
                 (A) (A) (A) (A) (A) (A) (A) (A) (A) (A) (A) (A)
                 (A) (A) (A) (A) (A) (A) (A) (A) (A) (A) (A) (A)
                 (A) (A) (A) (A) (A) (A) (A) (A) (A) (A) (A) (A)
                 (A) (A) (A) (A) (A) (A) (A) (A) (A) (A) (A) (A)
                 (A) (A) (A) (A) (A) (A) (A) (A) (A) (A) (A) (A)
                 (A) (A) (A) (A) (A) (A) (A) (A) (A) (A) (A) (A)
                 (A) (A) (A) (A) (A) (A) (A) (A) (A) (A) (A) (A)
                 (A) (A) (A) (A) (A) (A) (A) (A) (A) (A) (A) (A)
                 (A) (A) (A) (A) (A) (A) (A) (A) (A) (A)
 The electronic state is 1-A.
 Alpha  occ. eigenvalues --  -19.19415 -19.16804 -19.15246 -19.13649 -19.13057
 Alpha  occ. eigenvalues --  -10.28150 -10.26986 -10.26763 -10.25928 -10.25882
 Alpha  occ. eigenvalues --  -10.25434 -10.25253 -10.21784 -10.20780 -10.20206
 Alpha  occ. eigenvalues --  -10.20013 -10.19782 -10.19582 -10.19344 -10.19342
 Alpha  occ. eigenvalues --  -10.19335 -10.19166 -10.18360 -10.18352 -10.18315
 Alpha  occ. eigenvalues --  -10.18100 -10.17899 -10.17495 -10.17065 -10.16016
 Alpha  occ. eigenvalues --  -10.15995  -1.08328  -1.05943  -1.03475  -1.02318
 Alpha  occ. eigenvalues --   -1.02124  -0.87382  -0.83997  -0.82655  -0.81802
 Alpha  occ. eigenvalues --   -0.80390  -0.79625  -0.76899  -0.74505  -0.73664
 Alpha  occ. eigenvalues --   -0.72179  -0.71618  -0.69338  -0.69301  -0.68106
 Alpha  occ. eigenvalues --   -0.65202  -0.64141  -0.63219  -0.61718  -0.60853
 Alpha  occ. eigenvalues --   -0.59442  -0.59102  -0.57327  -0.54755  -0.53747
 Alpha  occ. eigenvalues --   -0.53106  -0.52187  -0.51036  -0.50558  -0.49170
 Alpha  occ. eigenvalues --   -0.48617  -0.47944  -0.46745  -0.46035  -0.45768
 Alpha  occ. eigenvalues --   -0.44918  -0.44641  -0.44119  -0.43588  -0.42985
 Alpha  occ. eigenvalues --   -0.42794  -0.42205  -0.42187  -0.41867  -0.41527
 Alpha  occ. eigenvalues --   -0.40956  -0.40689  -0.40407  -0.40141  -0.39682
 Alpha  occ. eigenvalues --   -0.39039  -0.38840  -0.38664  -0.38286  -0.38239
 Alpha  occ. eigenvalues --   -0.37716  -0.37225  -0.36931  -0.36808  -0.36396
 Alpha  occ. eigenvalues --   -0.35956  -0.35119  -0.34698  -0.34425  -0.34400
 Alpha  occ. eigenvalues --   -0.33952  -0.33409  -0.32894  -0.32453  -0.31972
 Alpha  occ. eigenvalues --   -0.31901  -0.31428  -0.30665  -0.28102  -0.26583
 Alpha  occ. eigenvalues --   -0.25715  -0.25252  -0.24421  -0.23390  -0.23330
 Alpha virt. eigenvalues --   -0.05336  -0.01828   0.01049   0.02146   0.04128
 Alpha virt. eigenvalues --    0.07075   0.08050   0.08968   0.09198   0.10158
 Alpha virt. eigenvalues --    0.10757   0.10930   0.11564   0.12021   0.12659
 Alpha virt. eigenvalues --    0.12891   0.13110   0.13727   0.13865   0.14010
 Alpha virt. eigenvalues --    0.14296   0.14543   0.15043   0.15551   0.15958
 Alpha virt. eigenvalues --    0.16125   0.16462   0.16698   0.17224   0.17632
 Alpha virt. eigenvalues --    0.18042   0.18307   0.18625   0.18788   0.19185
 Alpha virt. eigenvalues --    0.19580   0.19658   0.19835   0.20090   0.20354
 Alpha virt. eigenvalues --    0.20801   0.20939   0.21517   0.21693   0.22259
 Alpha virt. eigenvalues --    0.22986   0.23782   0.24080   0.24500   0.24770
 Alpha virt. eigenvalues --    0.25217   0.25727   0.26327   0.26503   0.26720
 Alpha virt. eigenvalues --    0.27279   0.27849   0.28272   0.28547   0.29697
 Alpha virt. eigenvalues --    0.30916   0.32016   0.32515   0.33771   0.34469
 Alpha virt. eigenvalues --    0.35246   0.36289   0.36816   0.37976   0.39706
 Alpha virt. eigenvalues --    0.42162   0.45230   0.46210   0.48207   0.48374
 Alpha virt. eigenvalues --    0.50151   0.50419   0.51202   0.51600   0.51818
 Alpha virt. eigenvalues --    0.52308   0.52475   0.53192   0.53870   0.54206
 Alpha virt. eigenvalues --    0.54341   0.55105   0.55239   0.55349   0.57118
 Alpha virt. eigenvalues --    0.57382   0.57448   0.57759   0.58337   0.59376
 Alpha virt. eigenvalues --    0.60092   0.60575   0.61589   0.61809   0.62089
 Alpha virt. eigenvalues --    0.62302   0.63043   0.63634   0.63910   0.64891
 Alpha virt. eigenvalues --    0.65082   0.65318   0.66410   0.66930   0.67090
 Alpha virt. eigenvalues --    0.67747   0.68043   0.68402   0.68811   0.69713
 Alpha virt. eigenvalues --    0.70086   0.70434   0.71716   0.72534   0.73630
 Alpha virt. eigenvalues --    0.74368   0.75328   0.75536   0.76103   0.76852
 Alpha virt. eigenvalues --    0.77461   0.77773   0.78327   0.79125   0.79662
 Alpha virt. eigenvalues --    0.80060   0.80831   0.80971   0.81378   0.82037
 Alpha virt. eigenvalues --    0.82650   0.83394   0.83902   0.84269   0.84639
 Alpha virt. eigenvalues --    0.85808   0.86110   0.86481   0.86559   0.87365
 Alpha virt. eigenvalues --    0.87667   0.87809   0.88397   0.88733   0.88974
 Alpha virt. eigenvalues --    0.89605   0.89652   0.90274   0.90753   0.90841
 Alpha virt. eigenvalues --    0.91060   0.91304   0.91753   0.92261   0.92436
 Alpha virt. eigenvalues --    0.92840   0.93365   0.93929   0.94396   0.95050
 Alpha virt. eigenvalues --    0.95521   0.95763   0.96347   0.96434   0.96769
 Alpha virt. eigenvalues --    0.97124   0.97439   0.97779   0.98841   0.99482
 Alpha virt. eigenvalues --    1.00686   1.01139   1.01269   1.02666   1.03778
 Alpha virt. eigenvalues --    1.05161   1.05383   1.06295   1.07191   1.07876
 Alpha virt. eigenvalues --    1.08286   1.09044   1.11011   1.11142   1.12140
 Alpha virt. eigenvalues --    1.12633   1.13487   1.15346   1.16404   1.17252
 Alpha virt. eigenvalues --    1.17844   1.18147   1.18818   1.19265   1.22164
 Alpha virt. eigenvalues --    1.22407   1.23636   1.24457   1.25647   1.27343
 Alpha virt. eigenvalues --    1.27904   1.29801   1.30954   1.31482   1.32878
 Alpha virt. eigenvalues --    1.33794   1.36189   1.37698   1.38478   1.39846
 Alpha virt. eigenvalues --    1.41234   1.42723   1.43350   1.45648   1.46652
 Alpha virt. eigenvalues --    1.48551   1.48784   1.50042   1.51162   1.53341
 Alpha virt. eigenvalues --    1.54203   1.55376   1.55526   1.57424   1.59187
 Alpha virt. eigenvalues --    1.59743   1.60527   1.61368   1.62295   1.63418
 Alpha virt. eigenvalues --    1.65378   1.66291   1.67214   1.67978   1.68518
 Alpha virt. eigenvalues --    1.70072   1.71049   1.73087   1.73339   1.74545
 Alpha virt. eigenvalues --    1.75785   1.76473   1.76542   1.77646   1.78908
 Alpha virt. eigenvalues --    1.79720   1.80120   1.81221   1.81730   1.82251
 Alpha virt. eigenvalues --    1.82841   1.83335   1.83508   1.84442   1.85093
 Alpha virt. eigenvalues --    1.86151   1.87071   1.87605   1.88280   1.88602
 Alpha virt. eigenvalues --    1.89082   1.89886   1.90278   1.90939   1.91463
 Alpha virt. eigenvalues --    1.92486   1.93098   1.93630   1.93889   1.95459
 Alpha virt. eigenvalues --    1.95700   1.95980   1.96718   1.97520   1.97882
 Alpha virt. eigenvalues --    1.98599   1.99629   2.00280   2.01377   2.02285
 Alpha virt. eigenvalues --    2.02969   2.03975   2.04778   2.05884   2.06301
 Alpha virt. eigenvalues --    2.06604   2.07792   2.08600   2.09386   2.10498
 Alpha virt. eigenvalues --    2.11130   2.11852   2.12571   2.13561   2.14814
 Alpha virt. eigenvalues --    2.15121   2.15379   2.17177   2.17378   2.18949
 Alpha virt. eigenvalues --    2.20123   2.20972   2.21541   2.22745   2.23375
 Alpha virt. eigenvalues --    2.23702   2.24368   2.25556   2.26062   2.26996
 Alpha virt. eigenvalues --    2.27614   2.28863   2.29344   2.30608   2.31901
 Alpha virt. eigenvalues --    2.32232   2.33344   2.33881   2.33907   2.34890
 Alpha virt. eigenvalues --    2.35735   2.37405   2.38102   2.38608   2.39172
 Alpha virt. eigenvalues --    2.40037   2.41275   2.42046   2.42480   2.43405
 Alpha virt. eigenvalues --    2.44060   2.45673   2.46542   2.47024   2.49207
 Alpha virt. eigenvalues --    2.50393   2.50890   2.52674   2.53781   2.54470
 Alpha virt. eigenvalues --    2.56376   2.56817   2.57967   2.58273   2.61252
 Alpha virt. eigenvalues --    2.61828   2.62202   2.64365   2.65147   2.66469
 Alpha virt. eigenvalues --    2.67084   2.68653   2.69868   2.70366   2.72198
 Alpha virt. eigenvalues --    2.72794   2.73900   2.75148   2.77126   2.78876
 Alpha virt. eigenvalues --    2.80014   2.80784   2.81157   2.81957   2.84694
 Alpha virt. eigenvalues --    2.85749   2.91691   2.92418   2.94914   2.97158
 Alpha virt. eigenvalues --    2.98031   3.00021   3.01123   3.02204   3.02754
 Alpha virt. eigenvalues --    3.05638   3.08060   3.12920   3.17398   3.20673
 Alpha virt. eigenvalues --    3.23499   3.29863   4.01737   4.08105   4.09899
 Alpha virt. eigenvalues --    4.13119   4.15102   4.16991   4.18106   4.19464
 Alpha virt. eigenvalues --    4.23119   4.24736   4.28385   4.30102   4.31046
 Alpha virt. eigenvalues --    4.32772   4.36277   4.37531   4.42265   4.44254
 Alpha virt. eigenvalues --    4.47120   4.48597   4.52621   4.55550   4.60147
 Alpha virt. eigenvalues --    4.62872   4.66953   4.71574   4.72696   4.82290
 Alpha virt. eigenvalues --    4.92289   5.01578   5.19418
          Condensed to atoms (all electrons):
 Mulliken atomic charges:
              1
     1  C   -0.194405
     2  C    0.191935
     3  C   -0.187216
     4  C    0.321052
     5  C   -0.040202
     6  C   -0.332432
     7  C    0.208961
     8  C    0.401726
     9  C   -0.085959
    10  C    0.417674
    11  C    0.417255
    12  O   -0.464169
    13  C   -0.129530
    14  C   -0.251860
    15  C   -0.455877
    16  O   -0.503363
    17  C   -0.163817
    18  C    0.311930
    19  O   -0.528873
    20  C   -0.322300
    21  O   -0.662174
    22  C   -0.321741
    23  C    0.109141
    24  O   -0.589414
    25  C    0.189267
    26  C   -0.519088
    27  C   -0.404255
    28  C   -0.463234
    29  C   -0.462551
    30  H    0.143444
    31  H    0.164976
    32  C   -0.517908
    33  H    0.123596
    34  H    0.151510
    35  H    0.177460
    36  H    0.141643
    37  H    0.152479
    38  H    0.130501
    39  H    0.138799
    40  H    0.164637
    41  H    0.156194
    42  H    0.174819
    43  H    0.147562
    44  H    0.413200
    45  H    0.174149
    46  H    0.167437
    47  H    0.144585
    48  H    0.156385
    49  H    0.161409
    50  H    0.168877
    51  H    0.140232
    52  H    0.144824
    53  H    0.150273
    54  H    0.138520
    55  H    0.184911
    56  H    0.164436
    57  H    0.159077
    58  H    0.147714
    59  H    0.157965
    60  H    0.162946
    61  H    0.149450
    62  C   -0.464407
    63  H    0.138241
    64  H    0.139728
    65  H    0.163854
 Sum of Mulliken atomic charges =   0.00000
 Mulliken charges with hydrogens summed into heavy atoms:
              1
     1  C   -0.070809
     2  C    0.191935
     3  C   -0.022240
     4  C    0.321052
     5  C   -0.040202
     6  C   -0.003462
     7  C    0.208961
     8  C    0.401726
     9  C   -0.085959
    10  C    0.417674
    11  C    0.417255
    12  O   -0.464169
    13  C    0.012113
    14  C    0.031120
    15  C    0.003752
    16  O   -0.503363
    17  C   -0.020373
    18  C    0.311930
    19  O   -0.528873
    20  C    0.000082
    21  O   -0.248974
    22  C    0.019845
    23  C    0.253727
    24  O   -0.589414
    25  C    0.189267
    26  C   -0.032418
    27  C   -0.119198
    28  C    0.010469
    29  C    0.008677
    32  C   -0.047548
    62  C   -0.022584
 Sum of Mulliken charges with hydrogens summed into heavy atoms =   0.00000
 Electronic spatial extent (au):  <R**2>=          11225.9190
 Charge=              0.0000 electrons
 Dipole moment (field-independent basis, Debye):
    X=             -4.3842    Y=              1.8385    Z=             -0.8222  Tot=              4.8247
 Quadrupole moment (field-independent basis, Debye-Ang):
   XX=           -186.9888   YY=           -176.1063   ZZ=           -183.0685
   XY=              3.5125   XZ=             -5.1470   YZ=              1.3971
 Traceless Quadrupole moment (field-independent basis, Debye-Ang):
   XX=             -4.9343   YY=              5.9482   ZZ=             -1.0140
   XY=              3.5125   XZ=             -5.1470   YZ=              1.3971
 Octapole moment (field-independent basis, Debye-Ang**2):
  XXX=            -26.0859  YYY=             47.9149  ZZZ=             10.2881  XYY=            -12.2501
  XXY=            -38.1156  XXZ=            -36.0107  XZZ=            -21.7942  YZZ=              3.4201
  YYZ=            -18.3387  XYZ=             -4.2190
 Hexadecapole moment (field-independent basis, Debye-Ang**3):
 XXXX=          -7488.2652 YYYY=          -4198.4576 ZZZZ=          -3378.8172 XXXY=             52.9946
 XXXZ=             -6.9922 YYYX=             39.8718 YYYZ=              3.9714 ZZZX=             46.0378
 ZZZY=            -21.8373 XXYY=          -1841.0541 XXZZ=          -1777.1171 YYZZ=          -1252.4471
 XXYZ=             12.0821 YYXZ=              1.9064 ZZXY=             20.0724
 N-N= 3.531786554644D+03 E-N=-1.028996620688D+04  KE= 1.374768385728D+03
 Calling FoFJK, ICntrl=      2127 FMM=T ISym2X=0 I1Cent= 0 IOpClX= 0 NMat=1 NMatS=1 NMatT=0.
 ***** Axes restored to original set *****
 -------------------------------------------------------------------
 Center     Atomic                   Forces (Hartrees/Bohr)
 Number     Number              X              Y              Z
 -------------------------------------------------------------------
      1        6           0.009872884   -0.000853195    0.000135261
      2        6          -0.012155518   -0.003760906    0.002998122
      3        6          -0.000921299   -0.008465285   -0.000808916
      4        6           0.003440897   -0.004497557    0.010596542
      5        6          -0.011452027   -0.001277433    0.000418427
      6        6          -0.004857414   -0.010812246   -0.000856616
      7        6           0.010367016    0.021330430    0.008819876
      8        6           0.014983441   -0.015481911   -0.016874636
      9        6          -0.000883711    0.003162764    0.009562940
     10        6          -0.006452362    0.001858355   -0.021779498
     11        6           0.000086442   -0.018341703   -0.013912876
     12        8          -0.008996619    0.018120130    0.004718834
     13        6          -0.002866305   -0.003403517   -0.006640702
     14        6           0.003770459    0.004071890   -0.001943693
     15        6          -0.007370396   -0.007873711    0.000718324
     16        8           0.006854329   -0.004006039    0.010789300
     17        6           0.007935174   -0.011168922   -0.005588206
     18        6           0.032210631    0.008184723   -0.000556041
     19        8          -0.029085192    0.002755201    0.027358993
     20        6           0.011224775   -0.004890407   -0.000029302
     21        8          -0.005567822    0.006404375   -0.002508491
     22        6          -0.010543894    0.011083782    0.000138624
     23        6           0.007840796    0.008798665    0.003588986
     24        8          -0.003759430   -0.003610652   -0.008769410
     25        6           0.009529206    0.011497149    0.006114529
     26        6          -0.000158519   -0.000171848    0.000060045
     27        6          -0.003348522   -0.009285033   -0.003547046
     28        6          -0.003033329    0.007692470   -0.005002492
     29        6          -0.003724553   -0.006713721   -0.008882049
     30        1          -0.001772077    0.001134529   -0.001641459
     31        1          -0.003589732    0.005865884   -0.000104607
     32        6          -0.001131883    0.000316512   -0.001557704
     33        1           0.001262639   -0.000777541   -0.000074400
     34        1          -0.000610023    0.005621083    0.001809007
     35        1           0.000319916    0.007407163   -0.001236093
     36        1           0.001705995   -0.001196646    0.001157464
     37        1          -0.002482364   -0.002634271    0.001758352
     38        1          -0.002884956   -0.002206920    0.000723440
     39        1           0.000015806    0.001115064   -0.000163794
     40        1          -0.000757926    0.001472674    0.000246112
     41        1           0.001960489    0.001192557    0.000008131
     42        1           0.000045684    0.002882772   -0.000422699
     43        1          -0.001232777   -0.001881829   -0.001412697
     44        1          -0.002043511   -0.002096192   -0.001192302
     45        1           0.002315999   -0.000875863    0.002660984
     46        1           0.001494219   -0.002814555   -0.001597428
     47        1          -0.003777839   -0.001066371    0.002610465
     48        1          -0.004185503   -0.000849601   -0.000429954
     49        1           0.001955095   -0.001416139   -0.000696862
     50        1          -0.003968373   -0.001008033   -0.000090164
     51        1          -0.001163329    0.000038048   -0.000231865
     52        1           0.000428487   -0.000970311   -0.000147628
     53        1           0.002104650   -0.003860309    0.000520106
     54        1           0.000557891   -0.000842969    0.000199091
     55        1          -0.001268449   -0.002630265    0.005624840
     56        1          -0.000388706    0.000261762    0.003579114
     57        1           0.000464552    0.002778824    0.001442133
     58        1          -0.000758648    0.001354755    0.000754041
     59        1          -0.001075975    0.001773811   -0.000641231
     60        1           0.004337332   -0.001767259    0.000376053
     61        1           0.003995059   -0.000996824    0.000168540
     62        6           0.003839682    0.002298072   -0.002934561
     63        1           0.001359149    0.001759521   -0.000096606
     64        1           0.000314925    0.001698224    0.000910450
     65        1           0.001675367    0.000574799    0.001804900
 -------------------------------------------------------------------
 Cartesian Forces:  Max     0.032210631 RMS     0.006741704

 GradGradGradGradGradGradGradGradGradGradGradGradGradGradGradGradGradGrad
 Berny optimization.
 Internal  Forces:  Max     0.021847995 RMS     0.003458332
 Search for a local minimum.
 Step number   1 out of a maximum of  390
 All quantities printed in internal units (Hartrees-Bohrs-Radians)
 Mixed Optimization -- RFO/linear search
 Second derivative matrix not updated -- first step.
 ITU=  0
     Eigenvalues ---    0.00274   0.00285   0.00333   0.00380   0.00420
     Eigenvalues ---    0.00425   0.00468   0.00542   0.00588   0.00603
     Eigenvalues ---    0.00636   0.00681   0.00697   0.00698   0.00754
     Eigenvalues ---    0.00968   0.01082   0.01235   0.01244   0.01405
     Eigenvalues ---    0.01466   0.01606   0.01704   0.01798   0.01919
     Eigenvalues ---    0.02516   0.02820   0.02821   0.03031   0.03125
     Eigenvalues ---    0.03522   0.03600   0.03845   0.04036   0.04111
     Eigenvalues ---    0.04195   0.04328   0.04396   0.04632   0.04734
     Eigenvalues ---    0.04840   0.04841   0.04951   0.05089   0.05243
     Eigenvalues ---    0.05302   0.05384   0.05437   0.05485   0.05492
     Eigenvalues ---    0.05502   0.05522   0.05527   0.05548   0.05593
     Eigenvalues ---    0.05637   0.05704   0.05919   0.06267   0.06615
     Eigenvalues ---    0.06702   0.06877   0.07104   0.07124   0.07195
     Eigenvalues ---    0.07247   0.07258   0.07354   0.07670   0.08381
     Eigenvalues ---    0.08383   0.08456   0.09000   0.09179   0.09833
     Eigenvalues ---    0.10093   0.10653   0.10927   0.11630   0.12233
     Eigenvalues ---    0.13162   0.14639   0.15190   0.15968   0.16000
     Eigenvalues ---    0.16000   0.16000   0.16000   0.16000   0.16000
     Eigenvalues ---    0.16000   0.16000   0.16000   0.16000   0.16000
     Eigenvalues ---    0.16000   0.16000   0.16000   0.16000   0.16000
     Eigenvalues ---    0.16000   0.16000   0.16000   0.16000   0.16000
     Eigenvalues ---    0.16140   0.16317   0.17242   0.17651   0.18377
     Eigenvalues ---    0.19730   0.21538   0.21926   0.22735   0.23524
     Eigenvalues ---    0.24492   0.24911   0.24976   0.24987   0.24999
     Eigenvalues ---    0.25000   0.25000   0.25000   0.25924   0.27241
     Eigenvalues ---    0.27390   0.27723   0.27778   0.28109   0.28280
     Eigenvalues ---    0.28748   0.28768   0.28842   0.29174   0.29499
     Eigenvalues ---    0.29819   0.30123   0.30307   0.30521   0.31005
     Eigenvalues ---    0.31715   0.31839   0.31844   0.33137   0.33675
     Eigenvalues ---    0.33870   0.33980   0.34013   0.34035   0.34035
     Eigenvalues ---    0.34036   0.34048   0.34049   0.34062   0.34065
     Eigenvalues ---    0.34102   0.34117   0.34135   0.34136   0.34137
     Eigenvalues ---    0.34190   0.34192   0.34237   0.34246   0.34254
     Eigenvalues ---    0.34264   0.34265   0.34266   0.34278   0.34302
     Eigenvalues ---    0.34303   0.34323   0.34347   0.34460   0.34499
     Eigenvalues ---    0.34954   0.35146   0.35271   0.35387   0.36460
     Eigenvalues ---    0.37432   0.42905   0.43674   0.51879   0.53304
     Eigenvalues ---    0.54325   0.56157   0.89843   0.90252
 RFO step:  Lambda=-2.17972247D-02 EMin= 2.73848899D-03
 Linear search not attempted -- first point.
 Iteration  1 RMS(Cart)=  0.04636218 RMS(Int)=  0.00072131
 Iteration  2 RMS(Cart)=  0.00110000 RMS(Int)=  0.00025896
 Iteration  3 RMS(Cart)=  0.00000059 RMS(Int)=  0.00025896
 Variable       Old X    -DE/DX   Delta X   Delta X   Delta X     New X
                                 (Linear)    (Quad)   (Total)
    R1        2.53470  -0.00255   0.00000  -0.00509  -0.00514   2.52956
    R2        2.82272   0.00862   0.00000   0.02573   0.02564   2.84836
    R3        2.05749   0.00004   0.00000   0.00010   0.00010   2.05759
    R4        2.85744   0.00303   0.00000   0.00622   0.00626   2.86370
    R5        2.84431   0.00359   0.00000   0.01055   0.01055   2.85486
    R6        2.94029   0.00509   0.00000   0.01159   0.01152   2.95181
    R7        2.91091   0.01117   0.00000   0.03796   0.03789   2.94880
    R8        2.07882  -0.00093   0.00000  -0.00259  -0.00259   2.07623
    R9        2.90428   0.00890   0.00000   0.02905   0.02883   2.93312
   R10        2.91021   0.00659   0.00000   0.02199   0.02217   2.93238
   R11        2.76528  -0.00491   0.00000  -0.01295  -0.01297   2.75231
   R12        2.91546   0.00019   0.00000   0.00332   0.00324   2.91871
   R13        2.90586   0.00608   0.00000   0.01367   0.01358   2.91944
   R14        2.89277   0.01109   0.00000   0.03756   0.03757   2.93034
   R15        2.07269   0.00292   0.00000   0.00807   0.00807   2.08076
   R16        2.07364  -0.00126   0.00000  -0.00349  -0.00349   2.07015
   R17        2.81515   0.00981   0.00000   0.02186   0.02151   2.83667
   R18        2.85802   0.01518   0.00000   0.05501   0.05454   2.91256
   R19        2.67788   0.00448   0.00000   0.00994   0.00994   2.68782
   R20        2.52792   0.01389   0.00000   0.02417   0.02422   2.55213
   R21        2.62948  -0.02185   0.00000  -0.05123  -0.05100   2.57848
   R22        2.79824  -0.00180   0.00000  -0.00875  -0.00856   2.78967
   R23        2.80572   0.01567   0.00000   0.04326   0.04326   2.84898
   R24        2.33005  -0.00970   0.00000  -0.01055  -0.01055   2.31951
   R25        2.32817  -0.02058   0.00000  -0.02227  -0.02227   2.30590
   R26        2.88326   0.00199   0.00000   0.00621   0.00621   2.88948
   R27        2.90334   0.00421   0.00000   0.01357   0.01357   2.91691
   R28        2.88975   0.00696   0.00000   0.02196   0.02196   2.91170
   R29        2.07158  -0.00093   0.00000  -0.00255  -0.00255   2.06903
   R30        2.07271  -0.00010   0.00000  -0.00028  -0.00028   2.07243
   R31        2.07309   0.00079   0.00000   0.00219   0.00219   2.07528
   R32        2.87720   0.00928   0.00000   0.02874   0.02874   2.90594
   R33        2.06932   0.00062   0.00000   0.00170   0.00170   2.07103
   R34        2.06883  -0.00007   0.00000  -0.00020  -0.00020   2.06863
   R35        2.07101  -0.00030   0.00000  -0.00082  -0.00082   2.07020
   R36        2.91650  -0.00109   0.00000   0.00872   0.00895   2.92544
   R37        2.90607   0.00417   0.00000   0.01482   0.01488   2.92095
   R38        2.07103  -0.00156   0.00000  -0.00430  -0.00430   2.06673
[...]
     54          1           0        0.137038    3.530497   -3.363271
     55          1           0        0.296959    1.758983   -3.334212
     56          1           0        1.469568    4.034523    0.152380
     57          1           0        2.339439    4.175657   -1.380949
     58          1           0        0.720290    4.883014   -1.218695
     59          1           0       -1.440720    2.228857    4.683317
     60          1           0       -0.650789    3.167024    3.406488
     61          1           0       -2.409445    3.122895    3.496358
     62          6           0        4.034154   -1.402417   -2.213475
     63          1           0        4.817117   -1.388090   -2.980474
     64          1           0        3.268653   -2.120545   -2.533258
     65          1           0        3.573346   -0.407845   -2.195711
 ---------------------------------------------------------------------
 Rotational constants (GHZ):      0.1835488      0.1326630      0.1228646

 **********************************************************************

            Population analysis using the SCF density.

 **********************************************************************

 Orbital symmetries:
       Occupied  (A) (A) (A) (A) (A) (A) (A) (A) (A) (A) (A) (A)
                 (A) (A) (A) (A) (A) (A) (A) (A) (A) (A) (A) (A)
                 (A) (A) (A) (A) (A) (A) (A) (A) (A) (A) (A) (A)
                 (A) (A) (A) (A) (A) (A) (A) (A) (A) (A) (A) (A)
                 (A) (A) (A) (A) (A) (A) (A) (A) (A) (A) (A) (A)
                 (A) (A) (A) (A) (A) (A) (A) (A) (A) (A) (A) (A)
                 (A) (A) (A) (A) (A) (A) (A) (A) (A) (A) (A) (A)
                 (A) (A) (A) (A) (A) (A) (A) (A) (A) (A) (A) (A)
                 (A) (A) (A) (A) (A) (A) (A) (A) (A) (A) (A) (A)
                 (A) (A) (A) (A) (A) (A) (A)
       Virtual   (A) (A) (A) (A) (A) (A) (A) (A) (A) (A) (A) (A)
                 (A) (A) (A) (A) (A) (A) (A) (A) (A) (A) (A) (A)
                 (A) (A) (A) (A) (A) (A) (A) (A) (A) (A) (A) (A)
                 (A) (A) (A) (A) (A) (A) (A) (A) (A) (A) (A) (A)
                 (A) (A) (A) (A) (A) (A) (A) (A) (A) (A) (A) (A)
                 (A) (A) (A) (A) (A) (A) (A) (A) (A) (A) (A) (A)
                 (A) (A) (A) (A) (A) (A) (A) (A) (A) (A) (A) (A)
                 (A) (A) (A) (A) (A) (A) (A) (A) (A) (A) (A) (A)
                 (A) (A) (A) (A) (A) (A) (A) (A) (A) (A) (A) (A)
                 (A) (A) (A) (A) (A) (A) (A) (A) (A) (A) (A) (A)
                 (A) (A) (A) (A) (A) (A) (A) (A) (A) (A) (A) (A)
                 (A) (A) (A) (A) (A) (A) (A) (A) (A) (A) (A) (A)
                 (A) (A) (A) (A) (A) (A) (A) (A) (A) (A) (A) (A)
                 (A) (A) (A) (A) (A) (A) (A) (A) (A) (A) (A) (A)
                 (A) (A) (A) (A) (A) (A) (A) (A) (A) (A) (A) (A)
                 (A) (A) (A) (A) (A) (A) (A) (A) (A) (A) (A) (A)
                 (A) (A) (A) (A) (A) (A) (A) (A) (A) (A) (A) (A)
                 (A) (A) (A) (A) (A) (A) (A) (A) (A) (A) (A) (A)
                 (A) (A) (A) (A) (A) (A) (A) (A) (A) (A) (A) (A)
                 (A) (A) (A) (A) (A) (A) (A) (A) (A) (A) (A) (A)
                 (A) (A) (A) (A) (A) (A) (A) (A) (A) (A) (A) (A)
                 (A) (A) (A) (A) (A) (A) (A) (A) (A) (A) (A) (A)
                 (A) (A) (A) (A) (A) (A) (A) (A) (A) (A) (A) (A)
                 (A) (A) (A) (A) (A) (A) (A) (A) (A) (A) (A) (A)
                 (A) (A) (A) (A) (A) (A) (A) (A) (A) (A) (A) (A)
                 (A) (A) (A) (A) (A) (A) (A) (A) (A) (A) (A) (A)
                 (A) (A) (A) (A) (A) (A) (A) (A) (A) (A) (A) (A)
                 (A) (A) (A) (A) (A) (A) (A) (A) (A) (A) (A) (A)
                 (A) (A) (A) (A) (A) (A) (A) (A) (A) (A) (A) (A)
                 (A) (A) (A) (A) (A) (A) (A) (A) (A) (A) (A) (A)
                 (A) (A) (A) (A) (A) (A) (A) (A) (A) (A) (A) (A)
                 (A) (A) (A) (A) (A) (A) (A) (A) (A) (A) (A) (A)
                 (A) (A) (A) (A) (A) (A) (A) (A) (A) (A) (A) (A)
                 (A) (A) (A) (A) (A) (A) (A) (A) (A) (A) (A) (A)
                 (A) (A) (A) (A) (A) (A) (A) (A) (A) (A)
 The electronic state is 1-A.
 Alpha  occ. eigenvalues --  -19.19674 -19.16701 -19.15855 -19.12692 -19.12221
 Alpha  occ. eigenvalues --  -10.27423 -10.27190 -10.26658 -10.26087 -10.25816
 Alpha  occ. eigenvalues --  -10.25781 -10.25360 -10.21355 -10.20978 -10.20640
 Alpha  occ. eigenvalues --  -10.20352 -10.19877 -10.19850 -10.19454 -10.19399
 Alpha  occ. eigenvalues --  -10.19145 -10.18817 -10.18797 -10.18496 -10.18489
 Alpha  occ. eigenvalues --  -10.18143 -10.18134 -10.17449 -10.16860 -10.16154
 Alpha  occ. eigenvalues --  -10.15675  -1.09329  -1.06076  -1.02935  -1.02629
 Alpha  occ. eigenvalues --   -1.02056  -0.86773  -0.83630  -0.82485  -0.81388
 Alpha  occ. eigenvalues --   -0.80281  -0.78894  -0.76670  -0.74326  -0.73185
 Alpha  occ. eigenvalues --   -0.71741  -0.71221  -0.69926  -0.69659  -0.67992
 Alpha  occ. eigenvalues --   -0.65185  -0.63555  -0.63155  -0.61506  -0.60661
 Alpha  occ. eigenvalues --   -0.59484  -0.58771  -0.56943  -0.54550  -0.53886
 Alpha  occ. eigenvalues --   -0.52641  -0.52132  -0.50732  -0.50325  -0.49237
 Alpha  occ. eigenvalues --   -0.48133  -0.47695  -0.46816  -0.46232  -0.45856
 Alpha  occ. eigenvalues --   -0.44993  -0.44445  -0.43724  -0.43482  -0.43241
 Alpha  occ. eigenvalues --   -0.42499  -0.41992  -0.41896  -0.41471  -0.41302
 Alpha  occ. eigenvalues --   -0.40894  -0.40678  -0.40245  -0.40120  -0.39699
 Alpha  occ. eigenvalues --   -0.39115  -0.39058  -0.38764  -0.38155  -0.37785
 Alpha  occ. eigenvalues --   -0.37591  -0.37352  -0.37111  -0.36928  -0.36408
 Alpha  occ. eigenvalues --   -0.36240  -0.35032  -0.34939  -0.34531  -0.34398
 Alpha  occ. eigenvalues --   -0.33905  -0.33526  -0.32919  -0.32600  -0.31951
 Alpha  occ. eigenvalues --   -0.31368  -0.31120  -0.30389  -0.28340  -0.26534
 Alpha  occ. eigenvalues --   -0.26037  -0.24633  -0.24046  -0.23431  -0.22503
 Alpha virt. eigenvalues --   -0.04833  -0.01115   0.00860   0.02185   0.05943
 Alpha virt. eigenvalues --    0.07143   0.08276   0.08822   0.09460   0.09982
 Alpha virt. eigenvalues --    0.10885   0.11213   0.11266   0.12028   0.12684
 Alpha virt. eigenvalues --    0.12767   0.12935   0.13937   0.14024   0.14311
 Alpha virt. eigenvalues --    0.14548   0.14893   0.15033   0.15628   0.16105
 Alpha virt. eigenvalues --    0.16175   0.16469   0.16808   0.17206   0.17259
 Alpha virt. eigenvalues --    0.17811   0.18069   0.18392   0.18637   0.19080
 Alpha virt. eigenvalues --    0.19288   0.19353   0.19861   0.20085   0.20356
 Alpha virt. eigenvalues --    0.20637   0.20832   0.21414   0.21940   0.22212
 Alpha virt. eigenvalues --    0.22904   0.23205   0.23613   0.24272   0.24807
 Alpha virt. eigenvalues --    0.25150   0.25239   0.26068   0.26607   0.26910
 Alpha virt. eigenvalues --    0.27485   0.27695   0.28392   0.28540   0.29574
 Alpha virt. eigenvalues --    0.30277   0.31480   0.32486   0.33219   0.33787
 Alpha virt. eigenvalues --    0.34759   0.35958   0.36839   0.37888   0.39587
 Alpha virt. eigenvalues --    0.41656   0.45327   0.46405   0.48374   0.48892
 Alpha virt. eigenvalues --    0.49333   0.50507   0.50688   0.51180   0.51426
 Alpha virt. eigenvalues --    0.52024   0.52265   0.52797   0.53656   0.53835
 Alpha virt. eigenvalues --    0.53902   0.54657   0.55236   0.55598   0.56604
 Alpha virt. eigenvalues --    0.57116   0.57430   0.57760   0.58084   0.59121
 Alpha virt. eigenvalues --    0.60012   0.60246   0.60811   0.61693   0.62315
 Alpha virt. eigenvalues --    0.62513   0.63373   0.63569   0.64246   0.64754
 Alpha virt. eigenvalues --    0.65348   0.65586   0.66078   0.66791   0.67222
 Alpha virt. eigenvalues --    0.67619   0.68251   0.68655   0.69032   0.69694
 Alpha virt. eigenvalues --    0.70204   0.70666   0.70856   0.72404   0.73407
 Alpha virt. eigenvalues --    0.74036   0.74670   0.75565   0.76152   0.76670
 Alpha virt. eigenvalues --    0.77085   0.77534   0.78298   0.78968   0.79650
 Alpha virt. eigenvalues --    0.80087   0.81006   0.81082   0.81640   0.82126
 Alpha virt. eigenvalues --    0.82977   0.83463   0.83971   0.84802   0.84825
 Alpha virt. eigenvalues --    0.85817   0.86079   0.86406   0.86751   0.87108
 Alpha virt. eigenvalues --    0.87630   0.87989   0.88472   0.88752   0.88999
 Alpha virt. eigenvalues --    0.89241   0.89722   0.90331   0.90553   0.90800
 Alpha virt. eigenvalues --    0.90983   0.91235   0.91877   0.92170   0.92511
 Alpha virt. eigenvalues --    0.93222   0.93468   0.93782   0.94177   0.94922
 Alpha virt. eigenvalues --    0.95401   0.95666   0.96306   0.96516   0.97262
 Alpha virt. eigenvalues --    0.97786   0.97924   0.98420   0.98980   0.99724
 Alpha virt. eigenvalues --    1.00410   1.01194   1.01538   1.02004   1.04436
 Alpha virt. eigenvalues --    1.04882   1.05456   1.05850   1.07238   1.07935
 Alpha virt. eigenvalues --    1.08524   1.10226   1.11068   1.12244   1.13161
 Alpha virt. eigenvalues --    1.13701   1.15004   1.15265   1.15942   1.16997
 Alpha virt. eigenvalues --    1.17592   1.18999   1.19390   1.19928   1.20665
 Alpha virt. eigenvalues --    1.23117   1.23658   1.25079   1.25864   1.26879
 Alpha virt. eigenvalues --    1.28238   1.30159   1.30214   1.31559   1.32804
 Alpha virt. eigenvalues --    1.34606   1.36056   1.37941   1.38607   1.39715
 Alpha virt. eigenvalues --    1.41642   1.42190   1.42915   1.46000   1.47127
 Alpha virt. eigenvalues --    1.48056   1.48319   1.49631   1.51755   1.51872
 Alpha virt. eigenvalues --    1.54003   1.55249   1.56270   1.56615   1.58769
 Alpha virt. eigenvalues --    1.60085   1.60459   1.61527   1.62325   1.62558
 Alpha virt. eigenvalues --    1.64401   1.65602   1.66239   1.67123   1.67851
 Alpha virt. eigenvalues --    1.69700   1.71277   1.72962   1.73338   1.73802
 Alpha virt. eigenvalues --    1.75103   1.75523   1.75693   1.76909   1.78471
 Alpha virt. eigenvalues --    1.78716   1.79402   1.80651   1.81054   1.81627
 Alpha virt. eigenvalues --    1.81729   1.82867   1.84087   1.84835   1.85160
 Alpha virt. eigenvalues --    1.86103   1.86418   1.87049   1.87215   1.87607
 Alpha virt. eigenvalues --    1.88504   1.89451   1.89667   1.90359   1.91181
 Alpha virt. eigenvalues --    1.92194   1.92798   1.92991   1.94309   1.95103
 Alpha virt. eigenvalues --    1.95923   1.96252   1.96910   1.97561   1.98533
 Alpha virt. eigenvalues --    1.98700   1.98832   1.99862   2.00247   2.01124
 Alpha virt. eigenvalues --    2.02304   2.03908   2.04526   2.04965   2.05966
 Alpha virt. eigenvalues --    2.06095   2.06627   2.07618   2.09186   2.09973
 Alpha virt. eigenvalues --    2.10029   2.11360   2.11617   2.12996   2.13999
 Alpha virt. eigenvalues --    2.14993   2.15478   2.16459   2.17135   2.18379
 Alpha virt. eigenvalues --    2.19001   2.19683   2.20779   2.21641   2.22332
 Alpha virt. eigenvalues --    2.23864   2.24889   2.25719   2.25853   2.26356
 Alpha virt. eigenvalues --    2.27522   2.28554   2.28871   2.30766   2.31128
 Alpha virt. eigenvalues --    2.32702   2.33310   2.33873   2.34270   2.35086
 Alpha virt. eigenvalues --    2.35534   2.36198   2.38235   2.38640   2.39070
 Alpha virt. eigenvalues --    2.40375   2.40571   2.41305   2.41836   2.42449
 Alpha virt. eigenvalues --    2.43054   2.45475   2.46716   2.47801   2.48937
 Alpha virt. eigenvalues --    2.49444   2.49844   2.51455   2.52801   2.53355
 Alpha virt. eigenvalues --    2.55481   2.56381   2.56561   2.58618   2.59952
 Alpha virt. eigenvalues --    2.60439   2.62720   2.63671   2.64662   2.65735
 Alpha virt. eigenvalues --    2.66866   2.68383   2.69543   2.70639   2.71027
 Alpha virt. eigenvalues --    2.71658   2.72949   2.74144   2.76002   2.77067
 Alpha virt. eigenvalues --    2.78988   2.79600   2.80469   2.81223   2.83707
 Alpha virt. eigenvalues --    2.84535   2.89626   2.92316   2.94243   2.97877
 Alpha virt. eigenvalues --    2.98322   2.99854   3.00851   3.01774   3.02416
 Alpha virt. eigenvalues --    3.05191   3.07485   3.12018   3.18309   3.21345
 Alpha virt. eigenvalues --    3.25972   3.29019   4.04595   4.07256   4.09017
 Alpha virt. eigenvalues --    4.13018   4.13913   4.16233   4.17023   4.18762
 Alpha virt. eigenvalues --    4.23028   4.25560   4.27364   4.28759   4.30729
 Alpha virt. eigenvalues --    4.32311   4.35330   4.37639   4.39291   4.43773
 Alpha virt. eigenvalues --    4.45838   4.49114   4.52359   4.55602   4.58092
 Alpha virt. eigenvalues --    4.65571   4.66749   4.69646   4.74064   4.82573
 Alpha virt. eigenvalues --    4.90026   5.01755   5.16406
          Condensed to atoms (all electrons):
 Mulliken atomic charges:
              1
     1  C   -0.188259
     2  C    0.192949
     3  C   -0.189181
     4  C    0.321947
     5  C   -0.051578
     6  C   -0.332578
     7  C    0.197838
     8  C    0.406951
     9  C   -0.092583
    10  C    0.421693
    11  C    0.420186
    12  O   -0.464586
    13  C   -0.128236
    14  C   -0.250343
    15  C   -0.459007
    16  O   -0.513458
    17  C   -0.165071
    18  C    0.301532
    19  O   -0.513020
    20  C   -0.325445
    21  O   -0.660618
    22  C   -0.324919
    23  C    0.106015
    24  O   -0.590315
    25  C    0.186784
    26  C   -0.519533
    27  C   -0.408227
    28  C   -0.469493
    29  C   -0.456971
    30  H    0.143382
    31  H    0.166642
    32  C   -0.519849
    33  H    0.122939
    34  H    0.145123
    35  H    0.183874
    36  H    0.134979
    37  H    0.151990
    38  H    0.127332
    39  H    0.135569
    40  H    0.169217
    41  H    0.155352
    42  H    0.172046
    43  H    0.151579
    44  H    0.416251
    45  H    0.172177
    46  H    0.165558
    47  H    0.145682
    48  H    0.159109
    49  H    0.162018
    50  H    0.169726
    51  H    0.139804
    52  H    0.153356
    53  H    0.159498
    54  H    0.143200
    55  H    0.192240
    56  H    0.167066
    57  H    0.167566
    58  H    0.148331
    59  H    0.158240
    60  H    0.159242
    61  H    0.150482
    62  C   -0.459789
    63  H    0.139974
    64  H    0.139072
    65  H    0.158549
 Sum of Mulliken atomic charges =   0.00000
 Mulliken charges with hydrogens summed into heavy atoms:
              1
     1  C   -0.065320
     2  C    0.192949
     3  C   -0.022539
     4  C    0.321947
     5  C   -0.051578
     6  C   -0.003581
     7  C    0.197838
     8  C    0.406951
     9  C   -0.092583
    10  C    0.421693
    11  C    0.420186
    12  O   -0.464586
    13  C    0.006743
    14  C    0.028979
    15  C    0.001131
    16  O   -0.513458
    17  C   -0.021690
    18  C    0.301532
    19  O   -0.513020
    20  C   -0.001820
    21  O   -0.244366
    22  C    0.012816
    23  C    0.251696
    24  O   -0.590315
    25  C    0.186784
    26  C   -0.028680
    27  C   -0.115068
    28  C    0.025446
    29  C    0.025992
    32  C   -0.051886
    62  C   -0.022193
 Sum of Mulliken charges with hydrogens summed into heavy atoms =   0.00000
 Electronic spatial extent (au):  <R**2>=          11262.8031
 Charge=              0.0000 electrons
 Dipole moment (field-independent basis, Debye):
    X=             -4.9298    Y=              1.6907    Z=             -1.5628  Tot=              5.4410
 Quadrupole moment (field-independent basis, Debye-Ang):
   XX=           -191.4386   YY=           -171.3375   ZZ=           -182.9523
   XY=              2.4134   XZ=             -3.9105   YZ=              1.5253
 Traceless Quadrupole moment (field-independent basis, Debye-Ang):
   XX=             -9.5291   YY=             10.5719   ZZ=             -1.0428
   XY=              2.4134   XZ=             -3.9105   YZ=              1.5253
 Octapole moment (field-independent basis, Debye-Ang**2):
  XXX=            -27.7362  YYY=             38.5271  ZZZ=              1.1921  XYY=            -22.7295
  XXY=            -36.8792  XXZ=            -28.4951  XZZ=            -16.9070  YZZ=             14.7294
  YYZ=            -27.3258  XYZ=             -6.2166
 Hexadecapole moment (field-independent basis, Debye-Ang**3):
 XXXX=          -7319.4323 YYYY=          -4314.5806 ZZZZ=          -3502.1247 XXXY=              5.1839
 XXXZ=             -0.1891 YYYX=             77.2192 YYYZ=             -9.7630 ZZZX=             39.3574
 ZZZY=            -10.4352 XXYY=          -1835.2511 XXZZ=          -1741.8116 YYZZ=          -1309.1659
 XXYZ=              3.3633 YYXZ=             -3.6665 ZZXY=             40.8757
 N-N= 3.520748531554D+03 E-N=-1.026783309049D+04  KE= 1.374457600236D+03
 1\1\GINC-B0604\FOpt\RB3LYP\6-31G(d)\C26H34O5\CAOFEI\24-Mar-2021\0\\# o
 pt rb3lyp/6-31g(d) geom=connectivity\\Title Card Required\\0,1\C,0.004
 2786043,-0.0360501171,0.0758260113\C,1.3421915659,-0.0609237878,0.0873
 292566\C,2.1518910393,1.2188288217,0.0530850295\C,1.3607157066,2.51276
 05577,-0.3129345678\C,-0.1326301401,2.3891767232,-0.7112024585\C,-0.81
 99895364,1.221449169,0.0347763781\C,2.2191680301,3.1940651858,-1.40790
 96129\C,1.8754267387,2.7268126431,-2.8086913203\C,0.6260184475,2.39233
 36852,-3.2270216193\C,-0.4376776705,2.2506290395,-2.2288374191\C,0.356
 137956,2.0527669697,-4.6722331636\O,1.1185360869,1.3241403043,-5.28525
 20218\C,-0.8484434684,2.6891655351,-5.375627627\C,-0.3481242882,3.5200
 424339,-6.5783408473\C,-1.8233432669,1.5870708065,-5.8261419582\O,-1.5
 926690379,1.9852661801,-2.5551239712\C,3.6537155797,2.6326307293,-1.31
 41734616\C,4.199076149,2.84890768,-2.7470550565\O,2.9673015528,2.71091
 96664,-3.5746399727\C,3.3827315719,1.1710142342,-0.8999889415\O,2.1004
 915516,4.6046062171,-1.3942503097\C,-0.6997707579,3.746577067,-0.22149
 07369\C,0.0921737216,3.9955079294,1.0716315621\O,1.3776876204,3.389695
 4833,0.842928442\C,0.228432997,5.4452959494,1.4873043712\C,-1.07161964
 14,6.2007985913,1.6125649227\C,1.4123931823,5.9967199708,1.7738837465\
 C,4.7580011253,4.2556705389,-2.9697078139\C,5.1698443189,1.7902918261,
 -3.2626093199\H,4.251968771,3.1638002871,-0.5674046245\H,2.5298567919,
 1.4059771348,1.0684207738\C,2.1138756351,-1.3515689377,0.2103759918\H,
 -0.541774368,-0.9763117532,0.1395968282\H,-1.0551339021,1.5295204585,1
 .0647349483\H,-1.7803809617,1.0413540037,-0.4566326807\H,-1.3647355045
 ,3.3491008761,-4.6710875113\H,0.1873732927,2.8487872806,-7.260490605\H
 ,-1.2278054132,3.8910785248,-7.1212816658\H,-2.6628664303,2.0253276321
 ,-6.3782831123\H,-2.223440519,1.0500280331,-4.9617568827\H,-1.31280398
 5,0.872797238,-6.4809355118\H,3.1325959791,0.5734289723,-1.7833392574\
 H,4.2494824792,0.6990235458,-0.4287058239\H,2.0472661871,4.8506037251,
 -0.4500981273\H,-0.487218395,4.5352114936,-0.9500318133\H,-1.780373145
 4,3.698007552,-0.0638289013\H,-0.389642969,3.4564212402,1.9039926776\H
 ,-1.7628185298,5.6877231302,2.2953291166\H,-0.9059275313,7.2110742135,
 1.996920916\H,-1.5862739179,6.2831273537,0.6469539828\H,1.4880588067,7
 .0350782975,2.0852068829\H,2.3339320949,5.4251726686,1.7326929355\H,4.
 9507176401,4.4134246112,-4.035814441\H,5.7059318496,4.3696891858,-2.43
 11833755\H,4.0582330563,5.0144851877,-2.6155953827\H,4.7423784439,0.78
 63223462,-3.2189180251\H,5.4331606874,2.0001153264,-4.3039146673\H,6.0
 89221502,1.8072013349,-2.6666325749\H,1.4381732815,-2.2076960434,0.299
 2737526\H,2.7655169195,-1.5278664031,-0.6548904139\H,2.7644320164,-1.3
 405939048,1.0966298007\C,0.5547264175,4.699772695,-6.1993824331\H,0.83
 37610709,5.2792062405,-7.0870303017\H,0.0512602744,5.3813173356,-5.502
 2599026\H,1.4822266371,4.3598890844,-5.7239280919\\Version=EM64L-G09Re
 vB.01\State=1-A\HF=-1387.3226069\RMSD=9.704e-09\RMSF=4.955e-06\Dipole=
 0.93381,0.5757285,1.8381674\Quadrupole=5.4709514,0.67374,-6.1446914,-4
 .4060412,-2.7162762,-2.8951835\PG=C01 [X(C26H34O5)]\\@


 THE DIFFERENCE BETWEEN A NOOSE AND A HALO IS ONLY 12 INCHES.
 Job cpu time:  0 days  4 hours 17 minutes 14.5 seconds.
 File lengths (MBytes):  RWF=    186 Int=      0 D2E=      0 Chk=     20 Scr=      1
 Normal termination of Gaussian 09 at Wed Mar 24 14:13:01 2021.
