 Entering Gaussian System, Link 0=g09
 Initial command:
 /public/software/g09/g09/l1.exe /tmp/Gau-28541.inp -scrdir=/tmp/
 Entering Link 1 = /public/software/g09/g09/l1.exe PID=     28542.
  
 Copyright (c) 1988,1990,1992,1993,1995,1998,2003,2009,2010,
            Gaussian, Inc.  All Rights Reserved.
  
 This is part of the Gaussian(R) 09 program.  It is based on
 the Gaussian(R) 03 system (copyright 2003, Gaussian, Inc.),
 the Gaussian(R) 98 system (copyright 1998, Gaussian, Inc.),
 the Gaussian(R) 94 system (copyright 1995, Gaussian, Inc.),
 the Gaussian 92(TM) system (copyright 1992, Gaussian, Inc.),
 the Gaussian 90(TM) system (copyright 1990, Gaussian, Inc.),
 the Gaussian 88(TM) system (copyright 1988, Gaussian, Inc.),
 the Gaussian 86(TM) system (copyright 1986, Carnegie Mellon
 University), and the Gaussian 82(TM) system (copyright 1983,
 Carnegie Mellon University). Gaussian is a federally registered
 trademark of Gaussian, Inc.
  
 This software contains proprietary and confidential information,
 including trade secrets, belonging to Gaussian, Inc.
  
 This software is provided under written license and may be
 used, copied, transmitted, or stored only in accord with that
 written license.
  
 The following legend is applicable only to US Government
 contracts under FAR:
  
                    RESTRICTED RIGHTS LEGEND
  
 Use, reproduction and disclosure by the US Government is
 subject to restrictions as set forth in subparagraphs (a)
 and (c) of the Commercial Computer Software - Restricted
 Rights clause in FAR 52.227-19.
  
 Gaussian, Inc.
 340 Quinnipiac St., Bldg. 40, Wallingford CT 06492
  
  
 ---------------------------------------------------------------
 Warning -- This program may not be used in any manner that
 competes with the business of Gaussian, Inc. or will provide
 assistance to any competitor of Gaussian, Inc.  The licensee
 of this program is prohibited from giving any competitor of
 Gaussian, Inc. access to this program.  By using this program,
 the user acknowledges that Gaussian, Inc. is engaged in the
 business of creating and licensing software in the field of
 computational chemistry and represents and warrants to the
 licensee that it is not a competitor of Gaussian, Inc. and that
 it will not use this program in any manner prohibited above.
 ---------------------------------------------------------------
  

 Cite this work as:
 Gaussian 09, Revision B.01,
 M. J. Frisch, G. W. Trucks, H. B. Schlegel, G. E. Scuseria, 
 M. A. Robb, J. R. Cheeseman, G. Scalmani, V. Barone, B. Mennucci, 
 G. A. Petersson, H. Nakatsuji, M. Caricato, X. Li, H. P. Hratchian, 
 A. F. Izmaylov, J. Bloino, G. Zheng, J. L. Sonnenberg, M. Hada, 
 M. Ehara, K. Toyota, R. Fukuda, J. Hasegawa, M. Ishida, T. Nakajima, 
 Y. Honda, O. Kitao, H. Nakai, T. Vreven, J. A. Montgomery, Jr., 
 J. E. Peralta, F. Ogliaro, M. Bearpark, J. J. Heyd, E. Brothers, 
 K. N. Kudin, V. N. Staroverov, T. Keith, R. Kobayashi, J. Normand, 
 K. Raghavachari, A. Rendell, J. C. Burant, S. S. Iyengar, J. Tomasi, 
 M. Cossi, N. Rega, J. M. Millam, M. Klene, J. E. Knox, J. B. Cross, 
 V. Bakken, C. Adamo, J. Jaramillo, R. Gomperts, R. E. Stratmann, 
 O. Yazyev, A. J. Austin, R. Cammi, C. Pomelli, J. W. Ochterski, 
 R. L. Martin, K. Morokuma, V. G. Zakrzewski, G. A. Voth, 
 P. Salvador, J. J. Dannenberg, S. Dapprich, A. D. Daniels, 
 O. Farkas, J. B. Foresman, J. V. Ortiz, J. Cioslowski, 
 and D. J. Fox, Gaussian, Inc., Wallingford CT, 2010.
 
 ******************************************
 Gaussian 09:  EM64L-G09RevB.01 12-Aug-2010
                24-Mar-2021 
 ******************************************
 %mem=600MW
 %nprocshared=10
 Will use up to   10 processors via shared memory.
 ---------------------------------------
 # opt rb3lyp/6-31g(d) geom=connectivity
 ---------------------------------------
 1/14=-1,18=20,19=15,26=3,38=1,57=2/1,3;
 2/9=110,12=2,17=6,18=5,40=1/2;
 3/5=1,6=6,7=1,11=2,16=1,25=1,30=1,71=1,74=-5,116=1/1,2,3;
 4//1;
 5/5=2,38=5/2;
 6/7=2,8=2,9=2,10=2,28=1/1;
 7//1,2,3,16;
 1/14=-1,18=20,19=15/3(2);
 2/9=110/2;
 99//99;
 2/9=110/2;
 3/5=1,6=6,7=1,11=2,16=1,25=1,30=1,71=1,74=-5,116=1/1,2,3;
 4/5=5,16=3/1;
 5/5=2,38=5/2;
 7//1,2,3,16;
 1/14=-1,18=20,19=15/3(-5);
 2/9=110/2;
 6/7=2,8=2,9=2,10=2,19=2,28=1/1;
 99/9=1/99;
 -------------------
 Title Card Required
 -------------------
 Symbolic Z-matrix:
 Charge =  0 Multiplicity = 1
 C                     0.        0.        0. 
 C                     1.34      0.        0. 
 C                     2.1234    1.2837    0. 
 C                     1.373     2.5522    0.5036 
 C                    -0.1734    2.4931    0.5988 
 C                    -0.8132    1.2502   -0.0565 
 C                     1.9336    3.6949   -0.371 
 C                     1.0308    4.174    -1.4539 
 C                    -0.2974    4.2094   -1.3271 
 C                    -0.8724    3.69     -0.0706 
 C                    -1.1569    4.6711   -2.4335 
 O                    -1.4523    3.8906   -3.3379 
 C                    -1.648     6.1112   -2.379 
 C                    -0.9505    6.9157   -3.4852 
 C                    -3.1702    6.125    -2.5016 
 O                    -1.946     4.1352    0.3332 
 C                     3.0728    3.1346   -1.2007 
 C                     3.0599    4.0203   -2.4614 
 O                     1.691     4.4573   -2.64 
 C                     2.6534    1.6686   -1.3856 
 O                     2.3375    4.8102    0.4099 
 C                    -0.4378    2.5436    2.1167 
 C                     0.892     2.1817    2.752 
 O                     1.843     2.7891    1.8671 
 C                     1.1687    2.6484    4.1617 
 C                     2.5766    2.4163    4.6473 
 C                     0.2568    3.2004    4.9808 
 C                     3.9314    5.2752   -2.297 
 C                     3.4968    3.2847   -3.731 
 H                     4.0387    3.1849   -0.6828 
 H                     2.9924    1.1291    0.658 
 C                     2.1321   -1.2771   -0.0077 
 H                    -0.5471   -0.9405   -0.0252 
 H                    -1.7871    1.0527    0.4108 
 H                    -1.0384    1.4327   -1.1161 
 H                    -1.3791    6.5344   -1.4028 
 H                     0.135     6.7772   -3.4066 
 H                    -1.2367    6.5312   -4.4723 
 H                    -3.5737    7.1261   -2.3212 
 H                    -3.626     5.4473   -1.7713 
 H                    -3.4941    5.8009   -3.4968 
 H                     3.503     1.0472   -1.6883 
 H                     1.8678    1.5532   -2.1427 
 H                     2.4776    4.4629    1.3167 
 H                    -1.2394    1.8766    2.4511 
 H                    -0.7224    3.5623    2.4084 
 H                     1.0382    1.0945    2.721 
 H                     2.8429    1.359     4.547 
 H                     3.288     3.0123    4.0668 
 H                     2.7009    2.6886    5.701 
 H                    -0.7736    3.3644    4.6843 
 H                     0.5169    3.5054    5.9905 
 H                     3.5965    5.9042   -1.467 
 H                     3.8703    5.9074   -3.1909 
 H                     4.9813    5.0122   -2.1315 
 H                     4.501     2.8623   -3.6234 
 H                     3.4991    3.9644   -4.5912 
 H                     2.801     2.4819   -3.9953 
 H                     1.4866   -2.1618   -0.0081 
 H                     2.7666   -1.3283   -0.898 
 H                     2.7708   -1.3326    0.8797 
 C                    -1.2474    8.4065   -3.4233 
 H                    -0.99      8.8181   -2.4422 
 H                    -2.3032    8.6136   -3.6206 
 H                    -0.6588    8.938    -4.1781 
 

 GradGradGradGradGradGradGradGradGradGradGradGradGradGradGradGradGradGrad
 Berny optimization.
 Initialization pass.
                           ----------------------------
                           !    Initial Parameters    !
                           ! (Angstroms and Degrees)  !
 --------------------------                            --------------------------
 ! Name  Definition              Value          Derivative Info.                !
 --------------------------------------------------------------------------------
 ! R1    R(1,2)                  1.34           estimate D2E/DX2                !
 ! R2    R(1,6)                  1.4925         estimate D2E/DX2                !
 ! R3    R(1,33)                 1.0883         estimate D2E/DX2                !
 ! R4    R(2,3)                  1.5039         estimate D2E/DX2                !
 ! R5    R(2,32)                 1.5028         estimate D2E/DX2                !
 ! R6    R(3,4)                  1.5575         estimate D2E/DX2                !
 ! R7    R(3,20)                 1.5326         estimate D2E/DX2                !
 ! R8    R(3,31)                 1.1009         estimate D2E/DX2                !
 ! R9    R(4,5)                  1.5505         estimate D2E/DX2                !
 ! R10   R(4,7)                  1.5443         estimate D2E/DX2                !
 ! R11   R(4,24)                 1.4616         estimate D2E/DX2                !
 ! R12   R(5,6)                  1.5439         estimate D2E/DX2                !
 ! R13   R(5,10)                 1.5392         estimate D2E/DX2                !
 ! R14   R(5,22)                 1.5416         estimate D2E/DX2                !
 ! R15   R(6,34)                 1.0981         estimate D2E/DX2                !
 ! R16   R(6,35)                 1.0985         estimate D2E/DX2                !
 ! R17   R(7,8)                  1.489          estimate D2E/DX2                !
 ! R18   R(7,17)                 1.5166         estimate D2E/DX2                !
 ! R19   R(7,21)                 1.4202         estimate D2E/DX2                !
 ! R20   R(8,9)                  1.3347         estimate D2E/DX2                !
 ! R21   R(8,19)                 1.3867         estimate D2E/DX2                !
 ! R22   R(9,10)                 1.4762         estimate D2E/DX2                !
 ! R23   R(9,11)                 1.4751         estimate D2E/DX2                !
 ! R24   R(10,16)                1.2304         estimate D2E/DX2                !
 ! R25   R(11,12)                1.2306         estimate D2E/DX2                !
 ! R26   R(11,13)                1.5225         estimate D2E/DX2                !
 ! R27   R(13,14)                1.5354         estimate D2E/DX2                !
 ! R28   R(13,15)                1.5272         estimate D2E/DX2                !
 ! R29   R(13,36)                1.0974         estimate D2E/DX2                !
 ! R30   R(14,37)                1.0971         estimate D2E/DX2                !
 ! R31   R(14,38)                1.0973         estimate D2E/DX2                !
 ! R32   R(14,62)                1.5213         estimate D2E/DX2                !
 ! R33   R(15,39)                1.0943         estimate D2E/DX2                !
 ! R34   R(15,40)                1.0956         estimate D2E/DX2                !
 ! R35   R(15,41)                1.0956         estimate D2E/DX2                !
 ! R36   R(17,18)                1.5408         estimate D2E/DX2                !
 ! R37   R(17,20)                1.536          estimate D2E/DX2                !
 ! R38   R(17,30)                1.0971         estimate D2E/DX2                !
 ! R39   R(18,19)                1.448          estimate D2E/DX2                !
 ! R40   R(18,28)                1.5367         estimate D2E/DX2                !
 ! R41   R(18,29)                1.531          estimate D2E/DX2                !
 ! R42   R(20,42)                1.0953         estimate D2E/DX2                !
 ! R43   R(20,43)                1.0971         estimate D2E/DX2                !
 ! R44   R(21,44)                0.9811         estimate D2E/DX2                !
 ! R45   R(22,23)                1.5175         estimate D2E/DX2                !
 ! R46   R(22,45)                1.0951         estimate D2E/DX2                !
 ! R47   R(22,46)                1.0972         estimate D2E/DX2                !
 ! R48   R(23,24)                1.434          estimate D2E/DX2                !
 ! R49   R(23,25)                1.5105         estimate D2E/DX2                !
 ! R50   R(23,47)                1.0974         estimate D2E/DX2                !
 ! R51   R(24,44)                1.8728         estimate D2E/DX2                !
 ! R52   R(25,26)                1.5073         estimate D2E/DX2                !
 ! R53   R(25,27)                1.3443         estimate D2E/DX2                !
 ! R54   R(26,48)                1.0949         estimate D2E/DX2                !
 ! R55   R(26,49)                1.0947         estimate D2E/DX2                !
 ! R56   R(26,50)                1.0954         estimate D2E/DX2                !
 ! R57   R(27,51)                1.0847         estimate D2E/DX2                !
 ! R58   R(27,52)                1.0864         estimate D2E/DX2                !
 ! R59   R(28,53)                1.0939         estimate D2E/DX2                !
 ! R60   R(28,54)                1.0966         estimate D2E/DX2                !
 ! R61   R(28,55)                1.0949         estimate D2E/DX2                !
 ! R62   R(29,56)                1.0947         estimate D2E/DX2                !
 ! R63   R(29,57)                1.0963         estimate D2E/DX2                !
 ! R64   R(29,58)                1.0948         estimate D2E/DX2                !
 ! R65   R(32,59)                1.0952         estimate D2E/DX2                !
 ! R66   R(32,60)                1.0945         estimate D2E/DX2                !
 ! R67   R(32,61)                1.0948         estimate D2E/DX2                !
 ! R68   R(62,63)                1.0946         estimate D2E/DX2                !
 ! R69   R(62,64)                1.0939         estimate D2E/DX2                !
 ! R70   R(62,65)                1.0948         estimate D2E/DX2                !
 ! A1    A(2,1,6)              123.0155         estimate D2E/DX2                !
 ! A2    A(2,1,33)             120.1781         estimate D2E/DX2                !
 ! A3    A(6,1,33)             116.686          estimate D2E/DX2                !
 ! A4    A(1,2,3)              121.3943         estimate D2E/DX2                !
 ! A5    A(1,2,32)             121.8081         estimate D2E/DX2                !
 ! A6    A(3,2,32)             116.7967         estimate D2E/DX2                !
 ! A7    A(2,3,4)              116.3742         estimate D2E/DX2                !
 ! A8    A(2,3,20)             113.2357         estimate D2E/DX2                !
 ! A9    A(2,3,31)             106.9368         estimate D2E/DX2                !
 ! A10   A(4,3,20)             104.7377         estimate D2E/DX2                !
 ! A11   A(4,3,31)             107.5429         estimate D2E/DX2                !
 ! A12   A(20,3,31)            107.6168         estimate D2E/DX2                !
 ! A13   A(3,4,5)              117.9919         estimate D2E/DX2                !
 ! A14   A(3,4,7)              104.1596         estimate D2E/DX2                !
 ! A15   A(3,4,24)             106.184          estimate D2E/DX2                !
 ! A16   A(5,4,7)              115.1528         estimate D2E/DX2                !
 ! A17   A(5,4,24)             105.6423         estimate D2E/DX2                !
 ! A18   A(7,4,24)             106.9577         estimate D2E/DX2                !
 ! A19   A(4,5,6)              114.7054         estimate D2E/DX2                !
 ! A20   A(4,5,10)             113.3651         estimate D2E/DX2                !
 ! A21   A(4,5,22)             103.3131         estimate D2E/DX2                !
 ! A22   A(6,5,10)             104.668          estimate D2E/DX2                !
 ! A23   A(6,5,22)             111.9147         estimate D2E/DX2                !
 ! A24   A(10,5,22)            108.9564         estimate D2E/DX2                !
 ! A25   A(1,6,5)              115.6262         estimate D2E/DX2                !
 ! A26   A(1,6,34)             108.4493         estimate D2E/DX2                !
 ! A27   A(1,6,35)             106.7009         estimate D2E/DX2                !
 ! A28   A(5,6,34)             109.3721         estimate D2E/DX2                !
 ! A29   A(5,6,35)             111.1382         estimate D2E/DX2                !
 ! A30   A(34,6,35)            104.983          estimate D2E/DX2                !
 ! A31   A(4,7,8)              115.4577         estimate D2E/DX2                !
 ! A32   A(4,7,17)             108.007          estimate D2E/DX2                !
 ! A33   A(4,7,21)             111.8964         estimate D2E/DX2                !
 ! A34   A(8,7,17)             100.1617         estimate D2E/DX2                !
 ! A35   A(8,7,21)             108.6413         estimate D2E/DX2                !
 ! A36   A(17,7,21)            112.1681         estimate D2E/DX2                !
 ! A37   A(7,8,9)              122.8732         estimate D2E/DX2                !
 ! A38   A(7,8,19)             113.5231         estimate D2E/DX2                !
 ! A39   A(9,8,19)             123.3403         estimate D2E/DX2                !
 ! A40   A(8,9,10)             117.3318         estimate D2E/DX2                !
 ! A41   A(8,9,11)             121.1221         estimate D2E/DX2                !
 ! A42   A(10,9,11)            121.4379         estimate D2E/DX2                !
 ! A43   A(5,10,9)             117.8314         estimate D2E/DX2                !
 ! A44   A(5,10,16)            122.336          estimate D2E/DX2                !
 ! A45   A(9,10,16)            119.4659         estimate D2E/DX2                !
 ! A46   A(9,11,12)            119.5097         estimate D2E/DX2                !
 ! A47   A(9,11,13)            117.2027         estimate D2E/DX2                !
 ! A48   A(12,11,13)           123.2841         estimate D2E/DX2                !
 ! A49   A(11,13,14)           108.8619         estimate D2E/DX2                !
 ! A50   A(11,13,15)           109.0976         estimate D2E/DX2                !
 ! A51   A(11,13,36)           108.5153         estimate D2E/DX2                !
 ! A52   A(14,13,15)           112.9686         estimate D2E/DX2                !
 ! A53   A(14,13,36)           109.1177         estimate D2E/DX2                !
 ! A54   A(15,13,36)           108.1888         estimate D2E/DX2                !
 ! A55   A(13,14,37)           109.3726         estimate D2E/DX2                !
 ! A56   A(13,14,38)           110.2439         estimate D2E/DX2                !
 ! A57   A(13,14,62)           113.2962         estimate D2E/DX2                !
 ! A58   A(37,14,38)           106.1568         estimate D2E/DX2                !
 ! A59   A(37,14,62)           108.2933         estimate D2E/DX2                !
 ! A60   A(38,14,62)           109.2121         estimate D2E/DX2                !
 ! A61   A(13,15,39)           111.2567         estimate D2E/DX2                !
 ! A62   A(13,15,40)           110.8279         estimate D2E/DX2                !
 ! A63   A(13,15,41)           111.4023         estimate D2E/DX2                !
 ! A64   A(39,15,40)           107.6127         estimate D2E/DX2                !
 ! A65   A(39,15,41)           108.1406         estimate D2E/DX2                !
 ! A66   A(40,15,41)           107.4279         estimate D2E/DX2                !
 ! A67   A(7,17,18)            103.2365         estimate D2E/DX2                !
 ! A68   A(7,17,20)            102.3196         estimate D2E/DX2                !
 ! A69   A(7,17,30)            112.7129         estimate D2E/DX2                !
 ! A70   A(18,17,20)           116.6069         estimate D2E/DX2                !
 ! A71   A(18,17,30)           111.5465         estimate D2E/DX2                !
 ! A72   A(20,17,30)           109.936          estimate D2E/DX2                !
 ! A73   A(17,18,19)           106.3986         estimate D2E/DX2                !
 ! A74   A(17,18,28)           112.1574         estimate D2E/DX2                !
 ! A75   A(17,18,29)           113.5748         estimate D2E/DX2                !
 ! A76   A(19,18,28)           107.6314         estimate D2E/DX2                !
 ! A77   A(19,18,29)           108.2101         estimate D2E/DX2                !
 ! A78   A(28,18,29)           108.6178         estimate D2E/DX2                !
 ! A79   A(8,19,18)            106.4349         estimate D2E/DX2                !
 ! A80   A(3,20,17)            103.0199         estimate D2E/DX2                !
 ! A81   A(3,20,42)            112.063          estimate D2E/DX2                !
 ! A82   A(3,20,43)            110.4776         estimate D2E/DX2                !
 ! A83   A(17,20,42)           111.2826         estimate D2E/DX2                !
 ! A84   A(17,20,43)           112.2705         estimate D2E/DX2                !
 ! A85   A(42,20,43)           107.7614         estimate D2E/DX2                !
 ! A86   A(7,21,44)            105.7144         estimate D2E/DX2                !
 ! A87   A(5,22,23)            104.7202         estimate D2E/DX2                !
 ! A88   A(5,22,45)            113.9699         estimate D2E/DX2                !
 ! A89   A(5,22,46)            109.6747         estimate D2E/DX2                !
 ! A90   A(23,22,45)           111.6132         estimate D2E/DX2                !
 ! A91   A(23,22,46)           109.7195         estimate D2E/DX2                !
 ! A92   A(45,22,46)           107.1243         estimate D2E/DX2                !
 ! A93   A(22,23,24)           102.8139         estimate D2E/DX2                !
 ! A94   A(22,23,25)           118.5247         estimate D2E/DX2                !
 ! A95   A(22,23,47)           109.9481         estimate D2E/DX2                !
 ! A96   A(24,23,25)           108.8776         estimate D2E/DX2                !
 ! A97   A(24,23,47)           108.2909         estimate D2E/DX2                !
 ! A98   A(25,23,47)           107.9417         estimate D2E/DX2                !
 ! A99   A(4,24,23)            107.0835         estimate D2E/DX2                !
 ! A100  A(23,25,26)           115.1001         estimate D2E/DX2                !
 ! A101  A(23,25,27)           124.8375         estimate D2E/DX2                !
 ! A102  A(26,25,27)           120.036          estimate D2E/DX2                !
 ! A103  A(25,26,48)           110.265          estimate D2E/DX2                !
 ! A104  A(25,26,49)           110.631          estimate D2E/DX2                !
 ! A105  A(25,26,50)           112.1867         estimate D2E/DX2                !
 ! A106  A(48,26,49)           108.6093         estimate D2E/DX2                !
 ! A107  A(48,26,50)           107.4915         estimate D2E/DX2                !
 ! A108  A(49,26,50)           107.5192         estimate D2E/DX2                !
 ! A109  A(25,27,51)           122.6782         estimate D2E/DX2                !
 ! A110  A(25,27,52)           121.2775         estimate D2E/DX2                !
 ! A111  A(51,27,52)           116.0437         estimate D2E/DX2                !
 ! A112  A(18,28,53)           112.1546         estimate D2E/DX2                !
 ! A113  A(18,28,54)           110.6098         estimate D2E/DX2                !
 ! A114  A(18,28,55)           111.3359         estimate D2E/DX2                !
 ! A115  A(53,28,54)           105.661          estimate D2E/DX2                !
 ! A116  A(53,28,55)           108.4805         estimate D2E/DX2                !
 ! A117  A(54,28,55)           108.3684         estimate D2E/DX2                !
 ! A118  A(18,29,56)           111.4483         estimate D2E/DX2                !
 ! A119  A(18,29,57)           110.6941         estimate D2E/DX2                !
 ! A120  A(18,29,58)           111.788          estimate D2E/DX2                !
 ! A121  A(56,29,57)           108.3255         estimate D2E/DX2                !
 ! A122  A(56,29,58)           108.8929         estimate D2E/DX2                !
 ! A123  A(57,29,58)           105.4589         estimate D2E/DX2                !
 ! A124  A(2,32,59)            112.0758         estimate D2E/DX2                !
 ! A125  A(2,32,60)            110.456          estimate D2E/DX2                !
 ! A126  A(2,32,61)            110.2693         estimate D2E/DX2                !
 ! A127  A(59,32,60)           107.675          estimate D2E/DX2                !
 ! A128  A(59,32,61)           107.6509         estimate D2E/DX2                !
 ! A129  A(60,32,61)           108.5893         estimate D2E/DX2                !
 ! A130  A(14,62,63)           111.0416         estimate D2E/DX2                !
 ! A131  A(14,62,64)           111.5034         estimate D2E/DX2                !
 ! A132  A(14,62,65)           110.0443         estimate D2E/DX2                !
 ! A133  A(63,62,64)           108.508          estimate D2E/DX2                !
 ! A134  A(63,62,65)           107.9961         estimate D2E/DX2                !
 ! A135  A(64,62,65)           107.6166         estimate D2E/DX2                !
 ! D1    D(6,1,2,3)              2.5876         estimate D2E/DX2                !
 ! D2    D(6,1,2,32)          -177.067          estimate D2E/DX2                !
 ! D3    D(33,1,2,3)           178.4652         estimate D2E/DX2                !
 ! D4    D(33,1,2,32)           -1.1894         estimate D2E/DX2                !
 ! D5    D(2,1,6,5)            -30.7029         estimate D2E/DX2                !
 ! D6    D(2,1,6,34)          -153.9225         estimate D2E/DX2                !
 ! D7    D(2,1,6,35)            93.4563         estimate D2E/DX2                !
 ! D8    D(33,1,6,5)           153.2854         estimate D2E/DX2                !
 ! D9    D(33,1,6,34)           30.0658         estimate D2E/DX2                !
 ! D10   D(33,1,6,35)          -82.5554         estimate D2E/DX2                !
 ! D11   D(1,2,3,4)             21.1558         estimate D2E/DX2                !
 ! D12   D(1,2,3,20)          -100.304          estimate D2E/DX2                !
 ! D13   D(1,2,3,31)           141.3339         estimate D2E/DX2                !
 ! D14   D(32,2,3,4)          -159.1731         estimate D2E/DX2                !
 ! D15   D(32,2,3,20)           79.3672         estimate D2E/DX2                !
 ! D16   D(32,2,3,31)          -38.995          estimate D2E/DX2                !
 ! D17   D(1,2,32,59)           -0.2786         estimate D2E/DX2                !
 ! D18   D(1,2,32,60)          119.7855         estimate D2E/DX2                !
 ! D19   D(1,2,32,61)         -120.1847         estimate D2E/DX2                !
 ! D20   D(3,2,32,59)         -179.9482         estimate D2E/DX2                !
 ! D21   D(3,2,32,60)          -59.8841         estimate D2E/DX2                !
 ! D22   D(3,2,32,61)           60.1457         estimate D2E/DX2                !
 ! D23   D(2,3,4,5)            -15.9624         estimate D2E/DX2                !
 ! D24   D(2,3,4,7)           -145.0512         estimate D2E/DX2                !
 ! D25   D(2,3,4,24)           102.2157         estimate D2E/DX2                !
 ! D26   D(20,3,4,5)           109.8944         estimate D2E/DX2                !
 ! D27   D(20,3,4,7)           -19.1945         estimate D2E/DX2                !
 ! D28   D(20,3,4,24)         -131.9275         estimate D2E/DX2                !
 ! D29   D(31,3,4,5)          -135.815          estimate D2E/DX2                !
 ! D30   D(31,3,4,7)            95.0962         estimate D2E/DX2                !
 ! D31   D(31,3,4,24)          -17.6369         estimate D2E/DX2                !
 ! D32   D(2,3,20,17)          165.8411         estimate D2E/DX2                !
 ! D33   D(2,3,20,42)          -74.4428         estimate D2E/DX2                !
 ! D34   D(2,3,20,43)           45.7372         estimate D2E/DX2                !
 ! D35   D(4,3,20,17)           38.0469         estimate D2E/DX2                !
 ! D36   D(4,3,20,42)          157.763          estimate D2E/DX2                !
 ! D37   D(4,3,20,43)          -82.0571         estimate D2E/DX2                !
 ! D38   D(31,3,20,17)         -76.1918         estimate D2E/DX2                !
 ! D39   D(31,3,20,42)          43.5243         estimate D2E/DX2                !
 ! D40   D(31,3,20,43)         163.7043         estimate D2E/DX2                !
 ! D41   D(3,4,5,6)            -10.24           estimate D2E/DX2                !
 ! D42   D(3,4,5,10)          -130.3979         estimate D2E/DX2                !
 ! D43   D(3,4,5,22)           111.8357         estimate D2E/DX2                !
 ! D44   D(7,4,5,6)            113.5145         estimate D2E/DX2                !
 ! D45   D(7,4,5,10)            -6.6433         estimate D2E/DX2                !
 ! D46   D(7,4,5,22)          -124.4097         estimate D2E/DX2                !
 ! D47   D(24,4,5,6)          -128.7047         estimate D2E/DX2                !
 ! D48   D(24,4,5,10)          111.1374         estimate D2E/DX2                !
 ! D49   D(24,4,5,22)           -6.629          estimate D2E/DX2                !
 ! D50   D(3,4,7,8)            104.1395         estimate D2E/DX2                !
 ! D51   D(3,4,7,17)            -6.9738         estimate D2E/DX2                !
 ! D52   D(3,4,7,21)          -130.9089         estimate D2E/DX2                !
 ! D53   D(5,4,7,8)            -26.6457         estimate D2E/DX2                !
 ! D54   D(5,4,7,17)          -137.7589         estimate D2E/DX2                !
 ! D55   D(5,4,7,21)            98.3059         estimate D2E/DX2                !
 ! D56   D(24,4,7,8)          -143.6846         estimate D2E/DX2                !
 ! D57   D(24,4,7,17)          105.2022         estimate D2E/DX2                !
 ! D58   D(24,4,7,21)          -18.733          estimate D2E/DX2                !
 ! D59   D(3,4,24,23)          -95.7637         estimate D2E/DX2                !
 ! D60   D(5,4,24,23)           30.3062         estimate D2E/DX2                !
 ! D61   D(7,4,24,23)          153.4556         estimate D2E/DX2                !
 ! D62   D(4,5,6,1)             32.6141         estimate D2E/DX2                !
 ! D63   D(4,5,6,34)           155.3464         estimate D2E/DX2                !
 ! D64   D(4,5,6,35)           -89.2011         estimate D2E/DX2                !
 ! D65   D(10,5,6,1)           157.4812         estimate D2E/DX2                !
 ! D66   D(10,5,6,34)          -79.7865         estimate D2E/DX2                !
 ! D67   D(10,5,6,35)           35.6659         estimate D2E/DX2                !
 ! D68   D(22,5,6,1)           -84.6631         estimate D2E/DX2                !
 ! D69   D(22,5,6,34)           38.0692         estimate D2E/DX2                !
 ! D70   D(22,5,6,35)          153.5217         estimate D2E/DX2                !
 ! D71   D(4,5,10,9)            38.0446         estimate D2E/DX2                !
 ! D72   D(4,5,10,16)         -148.9513         estimate D2E/DX2                !
 ! D73   D(6,5,10,9)           -87.6669         estimate D2E/DX2                !
 ! D74   D(6,5,10,16)           85.3371         estimate D2E/DX2                !
 ! D75   D(22,5,10,9)          152.4767         estimate D2E/DX2                !
 ! D76   D(22,5,10,16)         -34.5192         estimate D2E/DX2                !
 ! D77   D(4,5,22,23)          -17.483          estimate D2E/DX2                !
 ! D78   D(4,5,22,45)         -139.7312         estimate D2E/DX2                !
 ! D79   D(4,5,22,46)          100.1905         estimate D2E/DX2                !
 ! D80   D(6,5,22,23)          106.4444         estimate D2E/DX2                !
 ! D81   D(6,5,22,45)          -15.8038         estimate D2E/DX2                !
 ! D82   D(6,5,22,46)         -135.8821         estimate D2E/DX2                !
 ! D83   D(10,5,22,23)        -138.2928         estimate D2E/DX2                !
 ! D84   D(10,5,22,45)          99.459          estimate D2E/DX2                !
 ! D85   D(10,5,22,46)         -20.6192         estimate D2E/DX2                !
 ! D86   D(4,7,8,9)             33.994          estimate D2E/DX2                !
 ! D87   D(4,7,8,19)          -140.2857         estimate D2E/DX2                !
 ! D88   D(17,7,8,9)           149.6624         estimate D2E/DX2                !
 ! D89   D(17,7,8,19)          -24.6173         estimate D2E/DX2                !
 ! D90   D(21,7,8,9)           -92.6256         estimate D2E/DX2                !
 ! D91   D(21,7,8,19)           93.0947         estimate D2E/DX2                !
 ! D92   D(4,7,17,18)          151.6738         estimate D2E/DX2                !
 ! D93   D(4,7,17,20)           30.1869         estimate D2E/DX2                !
 ! D94   D(4,7,17,30)          -87.8319         estimate D2E/DX2                !
 ! D95   D(8,7,17,18)           30.5125         estimate D2E/DX2                !
 ! D96   D(8,7,17,20)          -90.9744         estimate D2E/DX2                !
 ! D97   D(8,7,17,30)          151.0068         estimate D2E/DX2                !
 ! D98   D(21,7,17,18)         -84.555          estimate D2E/DX2                !
 ! D99   D(21,7,17,20)         153.9581         estimate D2E/DX2                !
 ! D100  D(21,7,17,30)          35.9393         estimate D2E/DX2                !
 ! D101  D(4,7,21,44)           20.8758         estimate D2E/DX2                !
 ! D102  D(8,7,21,44)          149.5212         estimate D2E/DX2                !
 ! D103  D(17,7,21,44)        -100.6931         estimate D2E/DX2                !
 ! D104  D(7,8,9,10)            -2.7254         estimate D2E/DX2                !
 ! D105  D(7,8,9,11)          -178.9961         estimate D2E/DX2                !
 ! D106  D(19,8,9,10)          170.9943         estimate D2E/DX2                !
 ! D107  D(19,8,9,11)           -5.2764         estimate D2E/DX2                !
 ! D108  D(7,8,19,18)            6.9959         estimate D2E/DX2                !
 ! D109  D(9,8,19,18)         -167.2533         estimate D2E/DX2                !
 ! D110  D(8,9,10,5)           -34.7389         estimate D2E/DX2                !
 ! D111  D(8,9,10,16)          152.0494         estimate D2E/DX2                !
 ! D112  D(11,9,10,5)          141.5194         estimate D2E/DX2                !
 ! D113  D(11,9,10,16)         -31.6924         estimate D2E/DX2                !
 ! D114  D(8,9,11,12)           82.103          estimate D2E/DX2                !
 ! D115  D(8,9,11,13)          -98.5499         estimate D2E/DX2                !
 ! D116  D(10,9,11,12)         -94.0138         estimate D2E/DX2                !
 ! D117  D(10,9,11,13)          85.3332         estimate D2E/DX2                !
 ! D118  D(9,11,13,14)         110.2928         estimate D2E/DX2                !
 ! D119  D(9,11,13,15)        -126.019          estimate D2E/DX2                !
 ! D120  D(9,11,13,36)          -8.3533         estimate D2E/DX2                !
 ! D121  D(12,11,13,14)        -70.3869         estimate D2E/DX2                !
 ! D122  D(12,11,13,15)         53.3013         estimate D2E/DX2                !
 ! D123  D(12,11,13,36)        170.967          estimate D2E/DX2                !
 ! D124  D(11,13,14,37)        -52.5187         estimate D2E/DX2                !
 ! D125  D(11,13,14,38)         63.8447         estimate D2E/DX2                !
 ! D126  D(11,13,14,62)       -173.4264         estimate D2E/DX2                !
 ! D127  D(15,13,14,37)       -173.8718         estimate D2E/DX2                !
 ! D128  D(15,13,14,38)        -57.5083         estimate D2E/DX2                !
 ! D129  D(15,13,14,62)         65.2206         estimate D2E/DX2                !
 ! D130  D(36,13,14,37)         65.7486         estimate D2E/DX2                !
 ! D131  D(36,13,14,38)       -177.8879         estimate D2E/DX2                !
 ! D132  D(36,13,14,62)        -55.159          estimate D2E/DX2                !
 ! D133  D(11,13,15,39)        171.7266         estimate D2E/DX2                !
 ! D134  D(11,13,15,40)         52.0332         estimate D2E/DX2                !
 ! D135  D(11,13,15,41)        -67.5235         estimate D2E/DX2                !
 ! D136  D(14,13,15,39)        -67.0538         estimate D2E/DX2                !
 ! D137  D(14,13,15,40)        173.2528         estimate D2E/DX2                !
 ! D138  D(14,13,15,41)         53.6961         estimate D2E/DX2                !
 ! D139  D(36,13,15,39)         53.8551         estimate D2E/DX2                !
 ! D140  D(36,13,15,40)        -65.8383         estimate D2E/DX2                !
 ! D141  D(36,13,15,41)        174.605          estimate D2E/DX2                !
 ! D142  D(13,14,62,63)         55.6333         estimate D2E/DX2                !
 ! D143  D(13,14,62,64)        -65.5062         estimate D2E/DX2                !
 ! D144  D(13,14,62,65)        175.1531         estimate D2E/DX2                !
 ! D145  D(37,14,62,63)        -65.882          estimate D2E/DX2                !
 ! D146  D(37,14,62,64)        172.9786         estimate D2E/DX2                !
 ! D147  D(37,14,62,65)         53.6378         estimate D2E/DX2                !
 ! D148  D(38,14,62,63)        178.9317         estimate D2E/DX2                !
 ! D149  D(38,14,62,64)         57.7922         estimate D2E/DX2                !
 ! D150  D(38,14,62,65)        -61.5485         estimate D2E/DX2                !
 ! D151  D(7,17,18,19)         -28.7439         estimate D2E/DX2                !
 ! D152  D(7,17,18,28)          88.6919         estimate D2E/DX2                !
 ! D153  D(7,17,18,29)        -147.6801         estimate D2E/DX2                !
 ! D154  D(20,17,18,19)         82.539          estimate D2E/DX2                !
 ! D155  D(20,17,18,28)       -160.0252         estimate D2E/DX2                !
 ! D156  D(20,17,18,29)        -36.3972         estimate D2E/DX2                !
 ! D157  D(30,17,18,19)       -150.0311         estimate D2E/DX2                !
 ! D158  D(30,17,18,28)        -32.5953         estimate D2E/DX2                !
 ! D159  D(30,17,18,29)         91.0327         estimate D2E/DX2                !
 ! D160  D(7,17,20,3)          -41.7954         estimate D2E/DX2                !
 ! D161  D(7,17,20,42)        -162.049          estimate D2E/DX2                !
 ! D162  D(7,17,20,43)          77.0674         estimate D2E/DX2                !
 ! D163  D(18,17,20,3)        -153.6049         estimate D2E/DX2                !
 ! D164  D(18,17,20,42)         86.1415         estimate D2E/DX2                !
 ! D165  D(18,17,20,43)        -34.7421         estimate D2E/DX2                !
 ! D166  D(30,17,20,3)          78.1795         estimate D2E/DX2                !
 ! D167  D(30,17,20,42)        -42.0741         estimate D2E/DX2                !
 ! D168  D(30,17,20,43)       -162.9577         estimate D2E/DX2                !
 ! D169  D(17,18,19,8)          13.8995         estimate D2E/DX2                !
 ! D170  D(28,18,19,8)        -106.5019         estimate D2E/DX2                !
 ! D171  D(29,18,19,8)         136.291          estimate D2E/DX2                !
 ! D172  D(17,18,28,53)        -59.9182         estimate D2E/DX2                !
 ! D173  D(17,18,28,54)       -177.5972         estimate D2E/DX2                !
 ! D174  D(17,18,28,55)         61.8494         estimate D2E/DX2                !
 ! D175  D(19,18,28,53)         56.7792         estimate D2E/DX2                !
 ! D176  D(19,18,28,54)        -60.8998         estimate D2E/DX2                !
 ! D177  D(19,18,28,55)        178.5468         estimate D2E/DX2                !
 ! D178  D(29,18,28,53)        173.7208         estimate D2E/DX2                !
 ! D179  D(29,18,28,54)         56.0418         estimate D2E/DX2                !
 ! D180  D(29,18,28,55)        -64.5116         estimate D2E/DX2                !
 ! D181  D(17,18,29,56)        -57.6752         estimate D2E/DX2                !
 ! D182  D(17,18,29,57)       -178.3065         estimate D2E/DX2                !
 ! D183  D(17,18,29,58)         64.4451         estimate D2E/DX2                !
 ! D184  D(19,18,29,56)       -175.5682         estimate D2E/DX2                !
 ! D185  D(19,18,29,57)         63.8005         estimate D2E/DX2                !
 ! D186  D(19,18,29,58)        -53.4479         estimate D2E/DX2                !
 ! D187  D(28,18,29,56)         67.8615         estimate D2E/DX2                !
 ! D188  D(28,18,29,57)        -52.7699         estimate D2E/DX2                !
 ! D189  D(28,18,29,58)       -170.0183         estimate D2E/DX2                !
 ! D190  D(5,22,23,24)          35.9123         estimate D2E/DX2                !
 ! D191  D(5,22,23,25)         155.9968         estimate D2E/DX2                !
 ! D192  D(5,22,23,47)         -79.2353         estimate D2E/DX2                !
 ! D193  D(45,22,23,24)        159.6849         estimate D2E/DX2                !
 ! D194  D(45,22,23,25)        -80.2307         estimate D2E/DX2                !
 ! D195  D(45,22,23,47)         44.5373         estimate D2E/DX2                !
 ! D196  D(46,22,23,24)        -81.7306         estimate D2E/DX2                !
 ! D197  D(46,22,23,25)         38.3539         estimate D2E/DX2                !
 ! D198  D(46,22,23,47)        163.1218         estimate D2E/DX2                !
 ! D199  D(22,23,24,4)         -41.4297         estimate D2E/DX2                !
 ! D200  D(25,23,24,4)        -167.967          estimate D2E/DX2                !
 ! D201  D(47,23,24,4)          74.9094         estimate D2E/DX2                !
 ! D202  D(22,23,25,26)       -171.8143         estimate D2E/DX2                !
 ! D203  D(22,23,25,27)         10.061          estimate D2E/DX2                !
 ! D204  D(24,23,25,26)        -54.9021         estimate D2E/DX2                !
 ! D205  D(24,23,25,27)        126.9732         estimate D2E/DX2                !
 ! D206  D(47,23,25,26)         62.4434         estimate D2E/DX2                !
 ! D207  D(47,23,25,27)       -115.6813         estimate D2E/DX2                !
 ! D208  D(23,25,26,48)        -55.0858         estimate D2E/DX2                !
 ! D209  D(23,25,26,49)         65.0789         estimate D2E/DX2                !
 ! D210  D(23,25,26,50)       -174.8605         estimate D2E/DX2                !
 ! D211  D(27,25,26,48)        123.1363         estimate D2E/DX2                !
 ! D212  D(27,25,26,49)       -116.699          estimate D2E/DX2                !
 ! D213  D(27,25,26,50)          3.3616         estimate D2E/DX2                !
 ! D214  D(23,25,27,51)         -0.4349         estimate D2E/DX2                !
 ! D215  D(23,25,27,52)        179.2684         estimate D2E/DX2                !
 ! D216  D(26,25,27,51)       -178.4733         estimate D2E/DX2                !
 ! D217  D(26,25,27,52)          1.2301         estimate D2E/DX2                !
 --------------------------------------------------------------------------------
 Trust Radius=3.00D-01 FncErr=1.00D-07 GrdErr=1.00D-06
 Number of steps in this run=    390 maximum allowed number of steps=    390.
 GradGradGradGradGradGradGradGradGradGradGradGradGradGradGradGradGradGrad

 Stoichiometry    C26H34O5
 Framework group  C1[X(C26H34O5)]
 Deg. of freedom   189
 Full point group                 C1      NOp   1
 Largest Abelian subgroup         C1      NOp   1
 Largest concise Abelian subgroup C1      NOp   1
                         Standard orientation:                         
 ---------------------------------------------------------------------
 Center     Atomic      Atomic             Coordinates (Angstroms)
 Number     Number       Type             X           Y           Z
 ---------------------------------------------------------------------
      1          6           0       -2.192769    0.190862    2.764117
      2          6           0       -2.582927    1.232234    2.016507
      3          6           0       -2.022578    1.462007    0.639984
      4          6           0       -1.394358    0.224407   -0.066763
      5          6           0       -1.050229   -1.012825    0.801997
      6          6           0       -1.146684   -0.778861    2.324994
      7          6           0       -0.214243    0.808727   -0.873521
      8          6           0        1.137161    0.567482   -0.296663
      9          6           0        1.452622   -0.545642    0.368834
     10          6           0        0.379415   -1.537439    0.578022
     11          6           0        2.797968   -0.735038    0.943466
     12          8           0        3.067950   -0.231522    2.033402
     13          6           0        3.785490   -1.572204    0.142223
     14          6           0        4.887895   -0.652919   -0.402774
     15          6           0        4.327098   -2.691111    1.029365
     16          8           0        0.669271   -2.727649    0.693166
     17          6           0       -0.281507    2.320599   -0.774356
     18          6           0        1.190936    2.749689   -0.921969
     19          8           0        1.988912    1.656081   -0.408151
     20          6           0       -0.924187    2.530294    0.604857
     21          8           0       -0.219599    0.359309   -2.220677
     22          6           0       -2.055570   -2.076791    0.318527
     23          6           0       -3.131013   -1.289557   -0.407166
     24          8           0       -2.385794   -0.238056   -1.035956
     25          6           0       -3.958911   -1.995771   -1.454769
     26          6           0       -4.867570   -1.102972   -2.260442
     27          6           0       -3.955152   -3.322657   -1.670526
     28          6           0        1.587361    2.965066   -2.390906
     29          6           0        1.543143    4.012011   -0.130535
     30          1           0       -0.911713    2.768565   -1.552739
     31          1           0       -2.853180    1.817307    0.010788
     32          6           0       -3.592302    2.229182    2.512214
     33          1           0       -2.592643    0.057397    3.767502
     34          1           0       -1.327177   -1.737108    2.830010
     35          1           0       -0.191833   -0.418884    2.731749
     36          1           0        3.251106   -2.030717   -0.699545
     37          1           0        4.429121    0.187883   -0.937795
     38          1           0        5.459080   -0.213221    0.424589
     39          1           0        4.927136   -3.400544    0.451251
     40          1           0        3.507911   -3.251093    1.493824
     41          1           0        4.952298   -2.294044    1.836730
     42          1           0       -1.331199    3.542264    0.704070
     43          1           0       -0.211014    2.374606    1.423900
     44          1           0       -1.138817    0.066778   -2.399550
     45          1           0       -2.477118   -2.688646    1.123018
     46          1           0       -1.560977   -2.760874   -0.382361
     47          1           0       -3.818600   -0.837689    0.319043
     48          1           0       -5.520931   -0.528085   -1.596000
     49          1           0       -4.282860   -0.403480   -2.866339
     50          1           0       -5.509378   -1.672374   -2.941431
     51          1           0       -3.336934   -4.007069   -1.099633
     52          1           0       -4.584143   -3.771724   -2.433992
     53          1           0        1.462418    2.057798   -2.989198
     54          1           0        2.649100    3.227699   -2.469654
     55          1           0        0.998745    3.766668   -2.848960
     56          1           0        0.912398    4.857342   -0.423781
     57          1           0        2.590878    4.291160   -0.292606
     58          1           0        1.446513    3.855205    0.948610
     59          1           0       -3.947443    1.988986    3.519956
     60          1           0       -3.155479    3.232185    2.544101
     61          1           0       -4.463241    2.248755    1.849207
     62          6           0        5.844586   -1.358247   -1.352365
     63          1           0        5.302832   -1.824995   -2.181144
     64          1           0        6.423910   -2.130256   -0.837664
     65          1           0        6.553280   -0.638275   -1.774334
 ---------------------------------------------------------------------
 Rotational constants (GHZ):      0.2118421      0.1207395      0.1048373
 Standard basis: 6-31G(d) (6D, 7F)
 There are   533 symmetry adapted basis functions of A   symmetry.
 Integral buffers will be    131072 words long.
 Raffenetti 2 integral format.
 Two-electron integral symmetry is turned on.
   533 basis functions,  1004 primitive gaussians,   533 cartesian basis functions
   115 alpha electrons      115 beta electrons
       nuclear repulsion energy      3488.1524485036 Hartrees.
 NAtoms=   65 NActive=   65 NUniq=   65 SFac= 1.00D+00 NAtFMM=   50 NAOKFM=T Big=T
 One-electron integrals computed using PRISM.
 NBasis=   533 RedAO= T  NBF=   533
 NBsUse=   533 1.00D-06 NBFU=   533
 Harris functional with IExCor=  402 diagonalized for initial guess.
 ExpMin= 1.61D-01 ExpMax= 5.48D+03 ExpMxC= 8.25D+02 IAcc=1 IRadAn=         1 AccDes= 0.00D+00
 HarFok:  IExCor=  402 AccDes= 0.00D+00 IRadAn=         1 IDoV= 1
 ScaDFX=  1.000000  1.000000  1.000000  1.000000
 FoFCou: FMM=F IPFlag=           0 FMFlag=      100000 FMFlg1=        2001
         NFxFlg=           0 DoJE=T BraDBF=F KetDBF=T FulRan=T
         Omega=  0.000000  0.000000  1.000000  0.000000  0.000000 ICntrl=     500 IOpCl=  0
         NMat0=    1 NMatS0=    1 NMatT0=    0 NMatD0=    1 NMtDS0=    0 NMtDT0=    0
         I1Cent=           4 NGrid=           0.
 Petite list used in FoFCou.
 Initial guess orbital symmetries:
       Occupied  (A) (A) (A) (A) (A) (A) (A) (A) (A) (A) (A) (A)
                 (A) (A) (A) (A) (A) (A) (A) (A) (A) (A) (A) (A)
                 (A) (A) (A) (A) (A) (A) (A) (A) (A) (A) (A) (A)
                 (A) (A) (A) (A) (A) (A) (A) (A) (A) (A) (A) (A)
                 (A) (A) (A) (A) (A) (A) (A) (A) (A) (A) (A) (A)
                 (A) (A) (A) (A) (A) (A) (A) (A) (A) (A) (A) (A)
                 (A) (A) (A) (A) (A) (A) (A) (A) (A) (A) (A) (A)
                 (A) (A) (A) (A) (A) (A) (A) (A) (A) (A) (A) (A)
                 (A) (A) (A) (A) (A) (A) (A) (A) (A) (A) (A) (A)
                 (A) (A) (A) (A) (A) (A) (A)
       Virtual   (A) (A) (A) (A) (A) (A) (A) (A) (A) (A) (A) (A)
                 (A) (A) (A) (A) (A) (A) (A) (A) (A) (A) (A) (A)
                 (A) (A) (A) (A) (A) (A) (A) (A) (A) (A) (A) (A)
                 (A) (A) (A) (A) (A) (A) (A) (A) (A) (A) (A) (A)
                 (A) (A) (A) (A) (A) (A) (A) (A) (A) (A) (A) (A)
                 (A) (A) (A) (A) (A) (A) (A) (A) (A) (A) (A) (A)
                 (A) (A) (A) (A) (A) (A) (A) (A) (A) (A) (A) (A)
                 (A) (A) (A) (A) (A) (A) (A) (A) (A) (A) (A) (A)
                 (A) (A) (A) (A) (A) (A) (A) (A) (A) (A) (A) (A)
                 (A) (A) (A) (A) (A) (A) (A) (A) (A) (A) (A) (A)
                 (A) (A) (A) (A) (A) (A) (A) (A) (A) (A) (A) (A)
                 (A) (A) (A) (A) (A) (A) (A) (A) (A) (A) (A) (A)
                 (A) (A) (A) (A) (A) (A) (A) (A) (A) (A) (A) (A)
                 (A) (A) (A) (A) (A) (A) (A) (A) (A) (A) (A) (A)
                 (A) (A) (A) (A) (A) (A) (A) (A) (A) (A) (A) (A)
                 (A) (A) (A) (A) (A) (A) (A) (A) (A) (A) (A) (A)
                 (A) (A) (A) (A) (A) (A) (A) (A) (A) (A) (A) (A)
                 (A) (A) (A) (A) (A) (A) (A) (A) (A) (A) (A) (A)
                 (A) (A) (A) (A) (A) (A) (A) (A) (A) (A) (A) (A)
                 (A) (A) (A) (A) (A) (A) (A) (A) (A) (A) (A) (A)
                 (A) (A) (A) (A) (A) (A) (A) (A) (A) (A) (A) (A)
                 (A) (A) (A) (A) (A) (A) (A) (A) (A) (A) (A) (A)
                 (A) (A) (A) (A) (A) (A) (A) (A) (A) (A) (A) (A)
                 (A) (A) (A) (A) (A) (A) (A) (A) (A) (A) (A) (A)
                 (A) (A) (A) (A) (A) (A) (A) (A) (A) (A) (A) (A)
                 (A) (A) (A) (A) (A) (A) (A) (A) (A) (A) (A) (A)
                 (A) (A) (A) (A) (A) (A) (A) (A) (A) (A) (A) (A)
                 (A) (A) (A) (A) (A) (A) (A) (A) (A) (A) (A) (A)
                 (A) (A) (A) (A) (A) (A) (A) (A) (A) (A) (A) (A)
                 (A) (A) (A) (A) (A) (A) (A) (A) (A) (A) (A) (A)
                 (A) (A) (A) (A) (A) (A) (A) (A) (A) (A) (A) (A)
                 (A) (A) (A) (A) (A) (A) (A) (A) (A) (A) (A) (A)
                 (A) (A) (A) (A) (A) (A) (A) (A) (A) (A) (A) (A)
                 (A) (A) (A) (A) (A) (A) (A) (A) (A) (A) (A) (A)
                 (A) (A) (A) (A) (A) (A) (A) (A) (A) (A)
 The electronic state of the initial guess is 1-A.
 Requested convergence on RMS density matrix=1.00D-08 within 128 cycles.
 Requested convergence on MAX density matrix=1.00D-06.
 Requested convergence on             energy=1.00D-06.
 No special actions if energy rises.
 Integral accuracy reduced to 1.0D-05 until final iterations.
 Initial convergence to 1.0D-05 achieved.  Increase integral accuracy.
 SCF Done:  E(RB3LYP) =  -1387.29974255     A.U. after   16 cycles
             Convg  =    0.4077D-08             -V/T =  2.0090

 **********************************************************************

            Population analysis using the SCF density.

 **********************************************************************

 Orbital symmetries:
       Occupied  (A) (A) (A) (A) (A) (A) (A) (A) (A) (A) (A) (A)
                 (A) (A) (A) (A) (A) (A) (A) (A) (A) (A) (A) (A)
                 (A) (A) (A) (A) (A) (A) (A) (A) (A) (A) (A) (A)
                 (A) (A) (A) (A) (A) (A) (A) (A) (A) (A) (A) (A)
                 (A) (A) (A) (A) (A) (A) (A) (A) (A) (A) (A) (A)
                 (A) (A) (A) (A) (A) (A) (A) (A) (A) (A) (A) (A)
                 (A) (A) (A) (A) (A) (A) (A) (A) (A) (A) (A) (A)
                 (A) (A) (A) (A) (A) (A) (A) (A) (A) (A) (A) (A)
                 (A) (A) (A) (A) (A) (A) (A) (A) (A) (A) (A) (A)
                 (A) (A) (A) (A) (A) (A) (A)
       Virtual   (A) (A) (A) (A) (A) (A) (A) (A) (A) (A) (A) (A)
                 (A) (A) (A) (A) (A) (A) (A) (A) (A) (A) (A) (A)
                 (A) (A) (A) (A) (A) (A) (A) (A) (A) (A) (A) (A)
                 (A) (A) (A) (A) (A) (A) (A) (A) (A) (A) (A) (A)
                 (A) (A) (A) (A) (A) (A) (A) (A) (A) (A) (A) (A)
                 (A) (A) (A) (A) (A) (A) (A) (A) (A) (A) (A) (A)
                 (A) (A) (A) (A) (A) (A) (A) (A) (A) (A) (A) (A)
                 (A) (A) (A) (A) (A) (A) (A) (A) (A) (A) (A) (A)
                 (A) (A) (A) (A) (A) (A) (A) (A) (A) (A) (A) (A)
                 (A) (A) (A) (A) (A) (A) (A) (A) (A) (A) (A) (A)
                 (A) (A) (A) (A) (A) (A) (A) (A) (A) (A) (A) (A)
                 (A) (A) (A) (A) (A) (A) (A) (A) (A) (A) (A) (A)
                 (A) (A) (A) (A) (A) (A) (A) (A) (A) (A) (A) (A)
                 (A) (A) (A) (A) (A) (A) (A) (A) (A) (A) (A) (A)
                 (A) (A) (A) (A) (A) (A) (A) (A) (A) (A) (A) (A)
                 (A) (A) (A) (A) (A) (A) (A) (A) (A) (A) (A) (A)
                 (A) (A) (A) (A) (A) (A) (A) (A) (A) (A) (A) (A)
                 (A) (A) (A) (A) (A) (A) (A) (A) (A) (A) (A) (A)
                 (A) (A) (A) (A) (A) (A) (A) (A) (A) (A) (A) (A)
                 (A) (A) (A) (A) (A) (A) (A) (A) (A) (A) (A) (A)
                 (A) (A) (A) (A) (A) (A) (A) (A) (A) (A) (A) (A)
                 (A) (A) (A) (A) (A) (A) (A) (A) (A) (A) (A) (A)
                 (A) (A) (A) (A) (A) (A) (A) (A) (A) (A) (A) (A)
                 (A) (A) (A) (A) (A) (A) (A) (A) (A) (A) (A) (A)
                 (A) (A) (A) (A) (A) (A) (A) (A) (A) (A) (A) (A)
                 (A) (A) (A) (A) (A) (A) (A) (A) (A) (A) (A) (A)
                 (A) (A) (A) (A) (A) (A) (A) (A) (A) (A) (A) (A)
                 (A) (A) (A) (A) (A) (A) (A) (A) (A) (A) (A) (A)
                 (A) (A) (A) (A) (A) (A) (A) (A) (A) (A) (A) (A)
                 (A) (A) (A) (A) (A) (A) (A) (A) (A) (A) (A) (A)
                 (A) (A) (A) (A) (A) (A) (A) (A) (A) (A) (A) (A)
                 (A) (A) (A) (A) (A) (A) (A) (A) (A) (A) (A) (A)
                 (A) (A) (A) (A) (A) (A) (A) (A) (A) (A) (A) (A)
                 (A) (A) (A) (A) (A) (A) (A) (A) (A) (A) (A) (A)
                 (A) (A) (A) (A) (A) (A) (A) (A) (A) (A)
 The electronic state is 1-A.
 Alpha  occ. eigenvalues --  -19.19229 -19.16920 -19.14462 -19.13563 -19.13380
 Alpha  occ. eigenvalues --  -10.27759 -10.26888 -10.26311 -10.26251 -10.25809
 Alpha  occ. eigenvalues --  -10.25486 -10.24730 -10.21827 -10.20374 -10.20325
 Alpha  occ. eigenvalues --  -10.19848 -10.19741 -10.19730 -10.19640 -10.18995
 Alpha  occ. eigenvalues --  -10.18875 -10.18830 -10.18673 -10.18457 -10.18427
 Alpha  occ. eigenvalues --  -10.18392 -10.18322 -10.17584 -10.17546 -10.16727
 Alpha  occ. eigenvalues --  -10.16324  -1.08253  -1.06201  -1.03401  -1.02430
 Alpha  occ. eigenvalues --   -1.01774  -0.87543  -0.83884  -0.82581  -0.81545
 Alpha  occ. eigenvalues --   -0.80439  -0.79971  -0.77032  -0.74349  -0.73525
 Alpha  occ. eigenvalues --   -0.72580  -0.71763  -0.69519  -0.69037  -0.68204
 Alpha  occ. eigenvalues --   -0.65728  -0.64033  -0.63790  -0.62276  -0.61085
 Alpha  occ. eigenvalues --   -0.59197  -0.58541  -0.57117  -0.54865  -0.53719
 Alpha  occ. eigenvalues --   -0.52829  -0.51695  -0.50961  -0.50548  -0.49607
 Alpha  occ. eigenvalues --   -0.48387  -0.47859  -0.46480  -0.46342  -0.45591
 Alpha  occ. eigenvalues --   -0.45129  -0.45075  -0.44264  -0.44104  -0.43284
 Alpha  occ. eigenvalues --   -0.42871  -0.42648  -0.42485  -0.41597  -0.41535
 Alpha  occ. eigenvalues --   -0.41277  -0.40600  -0.40178  -0.39905  -0.39713
 Alpha  occ. eigenvalues --   -0.39270  -0.38938  -0.38641  -0.38321  -0.38025
 Alpha  occ. eigenvalues --   -0.37645  -0.37428  -0.36782  -0.36668  -0.36019
 Alpha  occ. eigenvalues --   -0.35621  -0.35322  -0.35090  -0.34798  -0.34240
 Alpha  occ. eigenvalues --   -0.33946  -0.33695  -0.32985  -0.32753  -0.32111
 Alpha  occ. eigenvalues --   -0.31988  -0.31729  -0.31269  -0.27857  -0.26895
 Alpha  occ. eigenvalues --   -0.25761  -0.25047  -0.24045  -0.23624  -0.23095
 Alpha virt. eigenvalues --   -0.04409  -0.01678   0.00711   0.01558   0.03036
 Alpha virt. eigenvalues --    0.06544   0.08413   0.08949   0.09392   0.10154
 Alpha virt. eigenvalues --    0.10393   0.11423   0.11546   0.11971   0.12434
 Alpha virt. eigenvalues --    0.12842   0.13047   0.13510   0.13734   0.14001
 Alpha virt. eigenvalues --    0.14504   0.14680   0.15104   0.15418   0.15588
 Alpha virt. eigenvalues --    0.15921   0.16105   0.16387   0.16706   0.17374
 Alpha virt. eigenvalues --    0.17818   0.17940   0.17990   0.18331   0.18689
 Alpha virt. eigenvalues --    0.18955   0.19297   0.19532   0.20235   0.20802
 Alpha virt. eigenvalues --    0.20912   0.21233   0.21499   0.21607   0.22008
 Alpha virt. eigenvalues --    0.22626   0.23600   0.23679   0.24184   0.24729
 Alpha virt. eigenvalues --    0.25380   0.25573   0.25897   0.26598   0.26806
 Alpha virt. eigenvalues --    0.27327   0.27721   0.28467   0.29216   0.30151
 Alpha virt. eigenvalues --    0.31100   0.32542   0.32764   0.34115   0.34386
 Alpha virt. eigenvalues --    0.34994   0.36172   0.36815   0.38728   0.39997
 Alpha virt. eigenvalues --    0.41133   0.44732   0.46792   0.48046   0.48529
 Alpha virt. eigenvalues --    0.49914   0.50516   0.51446   0.51918   0.52053
 Alpha virt. eigenvalues --    0.52444   0.52564   0.53068   0.53418   0.53649
 Alpha virt. eigenvalues --    0.54299   0.54776   0.55142   0.55825   0.56272
 Alpha virt. eigenvalues --    0.56860   0.57202   0.57633   0.58304   0.58436
 Alpha virt. eigenvalues --    0.59355   0.59741   0.60291   0.60742   0.61290
 Alpha virt. eigenvalues --    0.62010   0.62221   0.63486   0.64173   0.64344
 Alpha virt. eigenvalues --    0.64631   0.65501   0.65730   0.66479   0.67073
 Alpha virt. eigenvalues --    0.67775   0.68128   0.68545   0.69030   0.69767
 Alpha virt. eigenvalues --    0.70126   0.70975   0.71704   0.72232   0.72737
 Alpha virt. eigenvalues --    0.73515   0.74901   0.75308   0.76000   0.76660
 Alpha virt. eigenvalues --    0.77013   0.77992   0.78315   0.79413   0.79897
 Alpha virt. eigenvalues --    0.80291   0.80609   0.81448   0.82422   0.82869
 Alpha virt. eigenvalues --    0.83160   0.83467   0.83898   0.84112   0.84544
 Alpha virt. eigenvalues --    0.85109   0.85438   0.86403   0.86864   0.86944
 Alpha virt. eigenvalues --    0.87639   0.87828   0.88183   0.88769   0.89089
 Alpha virt. eigenvalues --    0.89726   0.89812   0.90050   0.90268   0.90686
 Alpha virt. eigenvalues --    0.90830   0.91070   0.91273   0.91628   0.92259
 Alpha virt. eigenvalues --    0.92670   0.93146   0.93897   0.94215   0.94420
 Alpha virt. eigenvalues --    0.94732   0.95464   0.95939   0.96097   0.96789
 Alpha virt. eigenvalues --    0.97180   0.97591   0.98180   0.98902   0.99599
 Alpha virt. eigenvalues --    0.99944   1.01182   1.01473   1.01878   1.02561
 Alpha virt. eigenvalues --    1.03475   1.04112   1.04703   1.06249   1.06826
 Alpha virt. eigenvalues --    1.07610   1.09480   1.10170   1.10734   1.11344
 Alpha virt. eigenvalues --    1.13082   1.14241   1.14795   1.15602   1.16331
 Alpha virt. eigenvalues --    1.16842   1.17103   1.17463   1.19517   1.20515
 Alpha virt. eigenvalues --    1.20926   1.23443   1.24685   1.26571   1.27128
 Alpha virt. eigenvalues --    1.28516   1.30385   1.31278   1.31681   1.33249
 Alpha virt. eigenvalues --    1.34805   1.35967   1.36160   1.38164   1.40422
 Alpha virt. eigenvalues --    1.40869   1.41575   1.42333   1.44905   1.46757
 Alpha virt. eigenvalues --    1.47497   1.49414   1.50467   1.51577   1.52355
 Alpha virt. eigenvalues --    1.54271   1.55703   1.56414   1.56908   1.58624
 Alpha virt. eigenvalues --    1.58908   1.61884   1.62597   1.63244   1.64156
 Alpha virt. eigenvalues --    1.65362   1.66620   1.67242   1.67985   1.69121
 Alpha virt. eigenvalues --    1.70830   1.71919   1.73077   1.73509   1.75064
 Alpha virt. eigenvalues --    1.75275   1.75755   1.76064   1.77336   1.77726
 Alpha virt. eigenvalues --    1.79676   1.80026   1.80437   1.81035   1.82657
 Alpha virt. eigenvalues --    1.82996   1.83681   1.84818   1.85337   1.86137
 Alpha virt. eigenvalues --    1.87173   1.87336   1.88093   1.88458   1.89344
 Alpha virt. eigenvalues --    1.89451   1.90306   1.90445   1.91603   1.92086
 Alpha virt. eigenvalues --    1.92864   1.94114   1.94681   1.95298   1.96323
 Alpha virt. eigenvalues --    1.96616   1.96823   1.97889   1.98209   1.98999
 Alpha virt. eigenvalues --    1.99459   1.99914   2.00300   2.00438   2.01147
 Alpha virt. eigenvalues --    2.01994   2.02806   2.03345   2.04184   2.05303
 Alpha virt. eigenvalues --    2.06220   2.07968   2.08230   2.09625   2.09969
 Alpha virt. eigenvalues --    2.11078   2.11361   2.11396   2.13054   2.14372
 Alpha virt. eigenvalues --    2.14863   2.16151   2.16548   2.17263   2.17345
 Alpha virt. eigenvalues --    2.18666   2.18791   2.20025   2.21617   2.22553
 Alpha virt. eigenvalues --    2.23581   2.24817   2.26010   2.26262   2.27952
 Alpha virt. eigenvalues --    2.28397   2.28859   2.29785   2.30010   2.31608
 Alpha virt. eigenvalues --    2.32394   2.32763   2.33046   2.34294   2.34396
 Alpha virt. eigenvalues --    2.34736   2.36886   2.37717   2.38857   2.40390
 Alpha virt. eigenvalues --    2.41559   2.41605   2.42416   2.42935   2.43410
 Alpha virt. eigenvalues --    2.45309   2.45702   2.47208   2.48759   2.48960
 Alpha virt. eigenvalues --    2.49383   2.51863   2.52568   2.53809   2.55715
 Alpha virt. eigenvalues --    2.56872   2.57966   2.58659   2.60436   2.61898
 Alpha virt. eigenvalues --    2.62345   2.63512   2.64306   2.65379   2.65726
 Alpha virt. eigenvalues --    2.67134   2.68184   2.69507   2.70684   2.71647
 Alpha virt. eigenvalues --    2.72546   2.73912   2.76230   2.77601   2.77944
 Alpha virt. eigenvalues --    2.79436   2.79565   2.81233   2.81728   2.86636
 Alpha virt. eigenvalues --    2.89063   2.90514   2.93174   2.94131   2.94988
 Alpha virt. eigenvalues --    2.97490   2.99806   3.00432   3.01438   3.02705
 Alpha virt. eigenvalues --    3.06464   3.07737   3.12813   3.16552   3.21003
 Alpha virt. eigenvalues --    3.23712   3.28927   3.99499   4.09929   4.12354
 Alpha virt. eigenvalues --    4.13606   4.15450   4.16929   4.18462   4.19465
 Alpha virt. eigenvalues --    4.22579   4.23392   4.25967   4.27841   4.32165
 Alpha virt. eigenvalues --    4.32670   4.35546   4.36820   4.41774   4.43684
 Alpha virt. eigenvalues --    4.45239   4.46518   4.51695   4.57179   4.62334
 Alpha virt. eigenvalues --    4.65636   4.67086   4.70074   4.76530   4.78761
 Alpha virt. eigenvalues --    4.90142   4.97566   5.26601
          Condensed to atoms (all electrons):
 Mulliken atomic charges:
              1
     1  C   -0.194891
     2  C    0.195169
     3  C   -0.190972
     4  C    0.319972
     5  C   -0.031844
     6  C   -0.330274
     7  C    0.204136
     8  C    0.411691
     9  C   -0.106974
    10  C    0.397909
    11  C    0.419983
    12  O   -0.462969
    13  C   -0.137180
    14  C   -0.258758
    15  C   -0.457229
    16  O   -0.492944
    17  C   -0.155668
    18  C    0.307556
    19  O   -0.534052
    20  C   -0.307855
    21  O   -0.672225
    22  C   -0.310825
    23  C    0.098303
    24  O   -0.584671
    25  C    0.189431
    26  C   -0.504907
    27  C   -0.395253
    28  C   -0.460518
    29  C   -0.462594
    30  H    0.144952
    31  H    0.148925
    32  C   -0.519399
    33  H    0.125618
    34  H    0.162921
    35  H    0.180467
    36  H    0.144427
    37  H    0.147042
    38  H    0.150397
    39  H    0.144061
    40  H    0.166490
    41  H    0.157386
    42  H    0.148530
    43  H    0.167373
    44  H    0.417722
    45  H    0.152071
    46  H    0.175831
    47  H    0.137049
    48  H    0.150227
    49  H    0.166793
    50  H    0.153211
    51  H    0.148962
    52  H    0.141175
    53  H    0.183624
    54  H    0.149315
    55  H    0.139654
    56  H    0.147737
    57  H    0.158377
    58  H    0.161165
    59  H    0.158026
    60  H    0.157564
    61  H    0.153052
    62  C   -0.448170
    63  H    0.143790
    64  H    0.148915
    65  H    0.143171
 Sum of Mulliken atomic charges =   0.00000
 Mulliken charges with hydrogens summed into heavy atoms:
              1
     1  C   -0.069273
     2  C    0.195169
     3  C   -0.042047
     4  C    0.319972
     5  C   -0.031844
     6  C    0.013114
     7  C    0.204136
     8  C    0.411691
     9  C   -0.106974
    10  C    0.397909
    11  C    0.419983
    12  O   -0.462969
    13  C    0.007247
    14  C    0.038681
    15  C    0.010708
    16  O   -0.492944
    17  C   -0.010716
    18  C    0.307556
    19  O   -0.534052
    20  C    0.008048
    21  O   -0.254503
    22  C    0.017077
    23  C    0.235352
    24  O   -0.584671
    25  C    0.189431
    26  C   -0.034676
    27  C   -0.105115
    28  C    0.012075
    29  C    0.004685
    32  C   -0.050756
    62  C   -0.012294
 Sum of Mulliken charges with hydrogens summed into heavy atoms =   0.00000
 Electronic spatial extent (au):  <R**2>=          12013.7513
 Charge=              0.0000 electrons
 Dipole moment (field-independent basis, Debye):
    X=             -4.0938    Y=              2.9719    Z=             -0.9933  Tot=              5.1554
 Quadrupole moment (field-independent basis, Debye-Ang):
   XX=           -178.6516   YY=           -179.4227   ZZ=           -187.5731
   XY=              0.4810   XZ=             -7.3170   YZ=             -0.0074
 Traceless Quadrupole moment (field-independent basis, Debye-Ang):
   XX=              3.2308   YY=              2.4598   ZZ=             -5.6906
   XY=              0.4810   XZ=             -7.3170   YZ=             -0.0074
 Octapole moment (field-independent basis, Debye-Ang**2):
  XXX=             -6.7026  YYY=             47.2896  ZZZ=             -3.7219  XYY=             -7.1916
  XXY=            -11.9636  XXZ=            -31.5823  XZZ=            -33.6123  YZZ=             -3.4465
  YYZ=            -15.4650  XYZ=             -8.9462
 Hexadecapole moment (field-independent basis, Debye-Ang**3):
 XXXX=          -9148.4273 YYYY=          -4295.5594 ZZZZ=          -2538.6784 XXXY=            -22.0512
 XXXZ=             34.0512 YYYX=             59.1938 YYYZ=             -0.7896 ZZZX=             -9.4005
 ZZZY=            -19.0678 XXYY=          -2214.5712 XXZZ=          -1967.8826 YYZZ=          -1129.8282
 XXYZ=             23.7273 YYXZ=             22.6753 ZZXY=             29.1423
 N-N= 3.488152448504D+03 E-N=-1.020269617984D+04  KE= 1.374864085288D+03
 Calling FoFJK, ICntrl=      2127 FMM=T ISym2X=0 I1Cent= 0 IOpClX= 0 NMat=1 NMatS=1 NMatT=0.
 ***** Axes restored to original set *****
 -------------------------------------------------------------------
 Center     Atomic                   Forces (Hartrees/Bohr)
 Number     Number              X              Y              Z
 -------------------------------------------------------------------
      1        6           0.009574520   -0.000179487    0.000711512
      2        6          -0.009266827   -0.006424347    0.003181461
      3        6          -0.006248667   -0.009738280   -0.003235940
      4        6           0.010743771   -0.007410365    0.012230440
      5        6          -0.008158193    0.005967070    0.005584649
      6        6          -0.009313667   -0.008611301   -0.005415900
      7        6           0.020382227    0.014963608    0.012293336
      8        6          -0.004332355   -0.004829411   -0.024423114
      9        6           0.010975532   -0.008052857    0.009463687
     10        6          -0.013988904    0.017066834   -0.006342308
     11        6          -0.017603416   -0.007675473   -0.018221820
     12        8           0.003248030    0.014036052    0.011384473
     13        6          -0.003465872   -0.003929319   -0.001480852
     14        6           0.006073793    0.002374740   -0.003355255
     15        6          -0.009489135   -0.000532067   -0.000766870
     16        8           0.006408697   -0.009893750    0.002641190
     17        6           0.003519040   -0.006685077   -0.011483971
     18        6           0.030684184    0.004388508   -0.012015108
     19        8          -0.013182580   -0.008506176    0.032271285
     20        6           0.009520211   -0.001780801   -0.005460633
     21        8          -0.003157515    0.005139334    0.005296389
     22        6          -0.006182389    0.000628626    0.011415661
     23        6          -0.004551638    0.004163767    0.007516689
     24        8           0.000580352    0.002268793   -0.011686874
     25        6          -0.002441412    0.006511347    0.013127136
     26        6           0.001034182    0.001427470    0.001155446
     27        6           0.001405790   -0.004363216   -0.010528798
     28        6          -0.001659515    0.008597627    0.001606463
     29        6          -0.008070505   -0.000780343   -0.007775022
     30        1          -0.002898370    0.001823773   -0.000021655
     31        1          -0.001807910    0.006025636    0.000573633
     32        6          -0.002576980   -0.000382082    0.000084088
     33        1           0.000518491   -0.000615604    0.000014324
     34        1           0.000380807    0.005154753   -0.000488432
     35        1          -0.000808281    0.004668638   -0.001631104
     36        1           0.002015067   -0.001089190   -0.000603234
     37        1           0.000760935   -0.001631833    0.000247281
     38        1          -0.000925493   -0.003245636    0.001661756
     39        1           0.000262622    0.000594590    0.000039854
     40        1           0.000742820    0.000988160    0.000865768
     41        1           0.001546589   -0.000379300   -0.000260669
     42        1          -0.001996030   -0.001524602   -0.001450327
     43        1           0.000362116    0.001117988    0.000762436
     44        1          -0.002990396    0.000864630   -0.003941774
     45        1          -0.000131280    0.000529848   -0.003110896
     46        1           0.000426543   -0.002394283   -0.001179963
     47        1           0.001145953   -0.003342897   -0.000577778
     48        1           0.003353087   -0.001347522   -0.001877314
     49        1           0.002362115   -0.002405735   -0.001715786
     50        1          -0.002009761    0.000244830   -0.000657879
     51        1          -0.000927211    0.000830745   -0.000803025
     52        1           0.000575516   -0.001262904    0.000155150
     53        1           0.000043116   -0.004524829    0.003352837
     54        1           0.000570109   -0.003354216   -0.002116628
     55        1           0.000128006   -0.000788923   -0.000435466
     56        1          -0.000045702    0.000768540    0.001341081
     57        1           0.001794191    0.001528283    0.001883742
     58        1           0.001068385   -0.001640022    0.002613776
     59        1          -0.000665477    0.000971979   -0.000333048
     60        1           0.003998224   -0.001567958   -0.000075931
     61        1           0.004310793   -0.001167894    0.000138933
     62        6          -0.000567823    0.003455145   -0.001640531
     63        1          -0.000273418    0.001684135    0.000989948
     64        1          -0.000772926    0.001638696    0.000688261
     65        1          -0.000006166    0.001633555   -0.000178777
 -------------------------------------------------------------------
 Cartesian Forces:  Max     0.032271285 RMS     0.006689146

 GradGradGradGradGradGradGradGradGradGradGradGradGradGradGradGradGradGrad
 Berny optimization.
 Internal  Forces:  Max     0.021236495 RMS     0.003432169
 Search for a local minimum.
 Step number   1 out of a maximum of  390
 All quantities printed in internal units (Hartrees-Bohrs-Radians)
 Mixed Optimization -- RFO/linear search
 Second derivative matrix not updated -- first step.
 ITU=  0
     Eigenvalues ---    0.00281   0.00298   0.00356   0.00406   0.00468
     Eigenvalues ---    0.00470   0.00484   0.00578   0.00589   0.00627
     Eigenvalues ---    0.00670   0.00707   0.00725   0.00729   0.00888
     Eigenvalues ---    0.01095   0.01168   0.01253   0.01308   0.01456
     Eigenvalues ---    0.01512   0.01715   0.01743   0.01854   0.02095
     Eigenvalues ---    0.02623   0.02825   0.02825   0.03092   0.03197
     Eigenvalues ---    0.03475   0.03702   0.03793   0.03998   0.04069
     Eigenvalues ---    0.04244   0.04278   0.04366   0.04497   0.04631
     Eigenvalues ---    0.04653   0.04826   0.04972   0.05147   0.05290
     Eigenvalues ---    0.05314   0.05342   0.05407   0.05472   0.05475
     Eigenvalues ---    0.05503   0.05537   0.05565   0.05572   0.05639
     Eigenvalues ---    0.05714   0.05865   0.05917   0.05948   0.06135
     Eigenvalues ---    0.06546   0.06770   0.07088   0.07095   0.07146
     Eigenvalues ---    0.07183   0.07255   0.07308   0.07432   0.08061
     Eigenvalues ---    0.08327   0.08474   0.08952   0.09419   0.09488
     Eigenvalues ---    0.10031   0.10226   0.11414   0.11943   0.12301
     Eigenvalues ---    0.12593   0.13323   0.14578   0.15404   0.15879
     Eigenvalues ---    0.15964   0.16000   0.16000   0.16000   0.16000
     Eigenvalues ---    0.16000   0.16000   0.16000   0.16000   0.16000
     Eigenvalues ---    0.16000   0.16000   0.16000   0.16000   0.16000
     Eigenvalues ---    0.16000   0.16000   0.16000   0.16000   0.16000
     Eigenvalues ---    0.16000   0.16613   0.16866   0.17490   0.18127
     Eigenvalues ---    0.19814   0.21010   0.21906   0.22367   0.22519
     Eigenvalues ---    0.23505   0.24770   0.24946   0.24985   0.24992
     Eigenvalues ---    0.24999   0.24999   0.25000   0.26088   0.26675
     Eigenvalues ---    0.27000   0.27108   0.27385   0.27691   0.28362
     Eigenvalues ---    0.28817   0.28927   0.28932   0.29334   0.29684
     Eigenvalues ---    0.30126   0.30238   0.30318   0.30928   0.31300
     Eigenvalues ---    0.31627   0.31922   0.32083   0.33550   0.33581
     Eigenvalues ---    0.33845   0.33891   0.33967   0.33969   0.33980
     Eigenvalues ---    0.33994   0.34001   0.34002   0.34003   0.34064
     Eigenvalues ---    0.34091   0.34172   0.34172   0.34197   0.34212
     Eigenvalues ---    0.34224   0.34228   0.34250   0.34250   0.34260
     Eigenvalues ---    0.34268   0.34269   0.34273   0.34279   0.34282
     Eigenvalues ---    0.34302   0.34317   0.34362   0.34370   0.34926
     Eigenvalues ---    0.35005   0.35132   0.35237   0.35435   0.36653
     Eigenvalues ---    0.37163   0.41113   0.44493   0.50168   0.53600
     Eigenvalues ---    0.54675   0.56248   0.90836   0.90922
 RFO step:  Lambda=-2.13885562D-02 EMin= 2.81050404D-03
 Linear search not attempted -- first point.
 Iteration  1 RMS(Cart)=  0.04435053 RMS(Int)=  0.00067880
 Iteration  2 RMS(Cart)=  0.00108043 RMS(Int)=  0.00024190
 Iteration  3 RMS(Cart)=  0.00000064 RMS(Int)=  0.00024190
 Variable       Old X    -DE/DX   Delta X   Delta X   Delta X     New X
                                 (Linear)    (Quad)   (Total)
    R1        2.53223  -0.00143   0.00000  -0.00338  -0.00346   2.52877
    R2        2.82037   0.00880   0.00000   0.02534   0.02521   2.84558
    R3        2.05667   0.00027   0.00000   0.00072   0.00072   2.05740
    R4        2.84189   0.00531   0.00000   0.01331   0.01334   2.85523
    R5        2.83992   0.00451   0.00000   0.01317   0.01317   2.85308
    R6        2.94325   0.00680   0.00000   0.01751   0.01746   2.96071
    R7        2.89624   0.01031   0.00000   0.03493   0.03488   2.93111
    R8        2.08044  -0.00193   0.00000  -0.00540  -0.00540   2.07504
    R9        2.92993   0.01308   0.00000   0.04180   0.04174   2.97167
   R10        2.91836   0.00740   0.00000   0.02943   0.02968   2.94804
   R11        2.76195  -0.00617   0.00000  -0.01740  -0.01743   2.74452
   R12        2.91751   0.00594   0.00000   0.02203   0.02200   2.93950
   R13        2.90875   0.00472   0.00000   0.00846   0.00815   2.91690
   R14        2.91317   0.00698   0.00000   0.02354   0.02354   2.93671
   R15        2.07514  -0.00148   0.00000  -0.00410  -0.00410   2.07104
   R16        2.07593   0.00251   0.00000   0.00699   0.00699   2.08291
   R17        2.81389   0.01125   0.00000   0.02621   0.02599   2.83988
   R18        2.86598   0.01496   0.00000   0.05304   0.05254   2.91852
   R19        2.68370   0.00305   0.00000   0.00760   0.00763   2.69133
   R20        2.52223   0.01259   0.00000   0.02196   0.02210   2.54434
   R21        2.62050  -0.01775   0.00000  -0.04139  -0.04111   2.57939
   R22        2.78963   0.00088   0.00000  -0.00172  -0.00152   2.78811
   R23        2.78760   0.02124   0.00000   0.05698   0.05698   2.84458
   R24        2.32511  -0.00831   0.00000  -0.00893  -0.00893   2.31619
   R25        2.32550  -0.01805   0.00000  -0.01941  -0.01941   2.30609
   R26        2.87713   0.00263   0.00000   0.00815   0.00815   2.88527
   R27        2.90146   0.00616   0.00000   0.01981   0.01981   2.92127
   R28        2.88597   0.00695   0.00000   0.02183   0.02183   2.90780
   R29        2.07386  -0.00047   0.00000  -0.00129  -0.00129   2.07257
   R30        2.07325   0.00097   0.00000   0.00269   0.00269   2.07594
   R31        2.07364  -0.00011   0.00000  -0.00031  -0.00031   2.07332
   R32        2.87491   0.00855   0.00000   0.02639   0.02639   2.90130
   R33        2.06798   0.00045   0.00000   0.00123   0.00123   2.06921
   R34        2.07041  -0.00034   0.00000  -0.00093  -0.00093   2.06948
   R35        2.07041  -0.00010   0.00000  -0.00028  -0.00028   2.07013
   R36        2.91165  -0.00008   0.00000   0.01159   0.01175   2.92339
   R37        2.90259   0.00544   0.00000   0.01789   0.01788   2.92047
[...]
     55          1           0       -0.033186    4.147165   -3.011404
     56          1           0       -0.238638    5.263596   -0.673611
     57          1           0        1.505197    4.974215   -0.515597
     58          1           0        0.401860    4.410365    0.747989
     59          1           0       -4.082849    1.094455    3.754076
     60          1           0       -3.892528    2.492278    2.681127
     61          1           0       -4.788481    1.082979    2.124472
     62          6           0        4.806216   -3.189467   -0.642580
     63          1           0        4.134445   -3.860023   -0.093970
     64          1           0        5.779407   -3.197107   -0.139667
     65          1           0        4.951493   -3.608772   -1.645165
 ---------------------------------------------------------------------
 Rotational constants (GHZ):      0.1861647      0.1343427      0.1048201

 **********************************************************************

            Population analysis using the SCF density.

 **********************************************************************

 Orbital symmetries:
       Occupied  (A) (A) (A) (A) (A) (A) (A) (A) (A) (A) (A) (A)
                 (A) (A) (A) (A) (A) (A) (A) (A) (A) (A) (A) (A)
                 (A) (A) (A) (A) (A) (A) (A) (A) (A) (A) (A) (A)
                 (A) (A) (A) (A) (A) (A) (A) (A) (A) (A) (A) (A)
                 (A) (A) (A) (A) (A) (A) (A) (A) (A) (A) (A) (A)
                 (A) (A) (A) (A) (A) (A) (A) (A) (A) (A) (A) (A)
                 (A) (A) (A) (A) (A) (A) (A) (A) (A) (A) (A) (A)
                 (A) (A) (A) (A) (A) (A) (A) (A) (A) (A) (A) (A)
                 (A) (A) (A) (A) (A) (A) (A) (A) (A) (A) (A) (A)
                 (A) (A) (A) (A) (A) (A) (A)
       Virtual   (A) (A) (A) (A) (A) (A) (A) (A) (A) (A) (A) (A)
                 (A) (A) (A) (A) (A) (A) (A) (A) (A) (A) (A) (A)
                 (A) (A) (A) (A) (A) (A) (A) (A) (A) (A) (A) (A)
                 (A) (A) (A) (A) (A) (A) (A) (A) (A) (A) (A) (A)
                 (A) (A) (A) (A) (A) (A) (A) (A) (A) (A) (A) (A)
                 (A) (A) (A) (A) (A) (A) (A) (A) (A) (A) (A) (A)
                 (A) (A) (A) (A) (A) (A) (A) (A) (A) (A) (A) (A)
                 (A) (A) (A) (A) (A) (A) (A) (A) (A) (A) (A) (A)
                 (A) (A) (A) (A) (A) (A) (A) (A) (A) (A) (A) (A)
                 (A) (A) (A) (A) (A) (A) (A) (A) (A) (A) (A) (A)
                 (A) (A) (A) (A) (A) (A) (A) (A) (A) (A) (A) (A)
                 (A) (A) (A) (A) (A) (A) (A) (A) (A) (A) (A) (A)
                 (A) (A) (A) (A) (A) (A) (A) (A) (A) (A) (A) (A)
                 (A) (A) (A) (A) (A) (A) (A) (A) (A) (A) (A) (A)
                 (A) (A) (A) (A) (A) (A) (A) (A) (A) (A) (A) (A)
                 (A) (A) (A) (A) (A) (A) (A) (A) (A) (A) (A) (A)
                 (A) (A) (A) (A) (A) (A) (A) (A) (A) (A) (A) (A)
                 (A) (A) (A) (A) (A) (A) (A) (A) (A) (A) (A) (A)
                 (A) (A) (A) (A) (A) (A) (A) (A) (A) (A) (A) (A)
                 (A) (A) (A) (A) (A) (A) (A) (A) (A) (A) (A) (A)
                 (A) (A) (A) (A) (A) (A) (A) (A) (A) (A) (A) (A)
                 (A) (A) (A) (A) (A) (A) (A) (A) (A) (A) (A) (A)
                 (A) (A) (A) (A) (A) (A) (A) (A) (A) (A) (A) (A)
                 (A) (A) (A) (A) (A) (A) (A) (A) (A) (A) (A) (A)
                 (A) (A) (A) (A) (A) (A) (A) (A) (A) (A) (A) (A)
                 (A) (A) (A) (A) (A) (A) (A) (A) (A) (A) (A) (A)
                 (A) (A) (A) (A) (A) (A) (A) (A) (A) (A) (A) (A)
                 (A) (A) (A) (A) (A) (A) (A) (A) (A) (A) (A) (A)
                 (A) (A) (A) (A) (A) (A) (A) (A) (A) (A) (A) (A)
                 (A) (A) (A) (A) (A) (A) (A) (A) (A) (A) (A) (A)
                 (A) (A) (A) (A) (A) (A) (A) (A) (A) (A) (A) (A)
                 (A) (A) (A) (A) (A) (A) (A) (A) (A) (A) (A) (A)
                 (A) (A) (A) (A) (A) (A) (A) (A) (A) (A) (A) (A)
                 (A) (A) (A) (A) (A) (A) (A) (A) (A) (A) (A) (A)
                 (A) (A) (A) (A) (A) (A) (A) (A) (A) (A)
 The electronic state is 1-A.
 Alpha  occ. eigenvalues --  -19.19898 -19.17188 -19.15220 -19.13309 -19.11187
 Alpha  occ. eigenvalues --  -10.27390 -10.27266 -10.26601 -10.26239 -10.26077
 Alpha  occ. eigenvalues --  -10.25530 -10.25007 -10.21540 -10.20710 -10.20604
 Alpha  occ. eigenvalues --  -10.20445 -10.20395 -10.20168 -10.20004 -10.19322
 Alpha  occ. eigenvalues --  -10.19063 -10.18963 -10.18948 -10.18653 -10.18585
 Alpha  occ. eigenvalues --  -10.18328 -10.18147 -10.17077 -10.16633 -10.15819
 Alpha  occ. eigenvalues --  -10.15349  -1.09566  -1.06634  -1.03323  -1.02423
 Alpha  occ. eigenvalues --   -1.01241  -0.87117  -0.83765  -0.82192  -0.81386
 Alpha  occ. eigenvalues --   -0.80174  -0.78673  -0.76707  -0.74159  -0.73142
 Alpha  occ. eigenvalues --   -0.72167  -0.70655  -0.70088  -0.69210  -0.68309
 Alpha  occ. eigenvalues --   -0.65386  -0.64035  -0.63723  -0.61470  -0.60689
 Alpha  occ. eigenvalues --   -0.59191  -0.57723  -0.56846  -0.54696  -0.53518
 Alpha  occ. eigenvalues --   -0.52714  -0.51632  -0.51343  -0.49931  -0.49591
 Alpha  occ. eigenvalues --   -0.48142  -0.47137  -0.46946  -0.46514  -0.46023
 Alpha  occ. eigenvalues --   -0.45315  -0.44436  -0.44048  -0.43643  -0.43275
 Alpha  occ. eigenvalues --   -0.42681  -0.42412  -0.41711  -0.41553  -0.41222
 Alpha  occ. eigenvalues --   -0.40830  -0.40544  -0.40348  -0.39989  -0.39805
 Alpha  occ. eigenvalues --   -0.39332  -0.38877  -0.38497  -0.38195  -0.37592
 Alpha  occ. eigenvalues --   -0.37454  -0.37103  -0.37032  -0.36819  -0.36337
 Alpha  occ. eigenvalues --   -0.35828  -0.35317  -0.34613  -0.34230  -0.34077
 Alpha  occ. eigenvalues --   -0.33817  -0.33254  -0.33105  -0.32887  -0.32508
 Alpha  occ. eigenvalues --   -0.31479  -0.30768  -0.30186  -0.28298  -0.27375
 Alpha  occ. eigenvalues --   -0.25913  -0.24613  -0.24290  -0.23403  -0.21885
 Alpha virt. eigenvalues --   -0.04884  -0.00893   0.00921   0.00962   0.05695
 Alpha virt. eigenvalues --    0.07398   0.08207   0.08699   0.09554   0.10260
 Alpha virt. eigenvalues --    0.10471   0.11309   0.11535   0.11873   0.12164
 Alpha virt. eigenvalues --    0.12809   0.12905   0.13429   0.13684   0.14121
 Alpha virt. eigenvalues --    0.14888   0.15011   0.15233   0.15543   0.15788
 Alpha virt. eigenvalues --    0.15826   0.16074   0.16396   0.16684   0.17185
 Alpha virt. eigenvalues --    0.17836   0.18292   0.18500   0.18727   0.19071
 Alpha virt. eigenvalues --    0.19182   0.19617   0.19909   0.20202   0.20581
 Alpha virt. eigenvalues --    0.20926   0.21113   0.21317   0.22116   0.22210
 Alpha virt. eigenvalues --    0.23137   0.23790   0.24034   0.24254   0.24624
 Alpha virt. eigenvalues --    0.25118   0.25456   0.26062   0.26223   0.26826
 Alpha virt. eigenvalues --    0.27153   0.27469   0.28435   0.29096   0.30263
 Alpha virt. eigenvalues --    0.30652   0.32019   0.32379   0.33521   0.34432
 Alpha virt. eigenvalues --    0.34954   0.35197   0.36959   0.38090   0.39692
 Alpha virt. eigenvalues --    0.41575   0.44239   0.45861   0.47983   0.48178
 Alpha virt. eigenvalues --    0.49504   0.50084   0.50721   0.50979   0.51647
 Alpha virt. eigenvalues --    0.51898   0.52338   0.53047   0.53344   0.53619
 Alpha virt. eigenvalues --    0.53858   0.54516   0.54857   0.55279   0.55744
 Alpha virt. eigenvalues --    0.56351   0.57260   0.57736   0.58348   0.59005
 Alpha virt. eigenvalues --    0.59353   0.59583   0.60556   0.60758   0.61532
 Alpha virt. eigenvalues --    0.62121   0.62978   0.63239   0.63963   0.64510
 Alpha virt. eigenvalues --    0.65303   0.66001   0.66367   0.66612   0.67097
 Alpha virt. eigenvalues --    0.67831   0.68244   0.68605   0.69352   0.69881
 Alpha virt. eigenvalues --    0.70705   0.71520   0.71866   0.72282   0.72762
 Alpha virt. eigenvalues --    0.73309   0.74107   0.74441   0.75514   0.76602
 Alpha virt. eigenvalues --    0.76878   0.77782   0.78263   0.78790   0.79076
 Alpha virt. eigenvalues --    0.79982   0.80642   0.81164   0.81811   0.82466
 Alpha virt. eigenvalues --    0.83293   0.83544   0.84263   0.84435   0.84797
 Alpha virt. eigenvalues --    0.84831   0.85752   0.85963   0.86436   0.86485
 Alpha virt. eigenvalues --    0.87630   0.88272   0.88624   0.89042   0.89161
 Alpha virt. eigenvalues --    0.89476   0.89552   0.90018   0.90299   0.90644
 Alpha virt. eigenvalues --    0.91231   0.91250   0.91669   0.92312   0.92554
 Alpha virt. eigenvalues --    0.92970   0.93544   0.94025   0.94282   0.94523
 Alpha virt. eigenvalues --    0.95120   0.95374   0.96017   0.96632   0.96994
 Alpha virt. eigenvalues --    0.97672   0.97855   0.98815   0.98961   0.99852
 Alpha virt. eigenvalues --    1.00540   1.01512   1.02059   1.02565   1.03317
 Alpha virt. eigenvalues --    1.04049   1.04345   1.04875   1.07471   1.08212
 Alpha virt. eigenvalues --    1.08839   1.09830   1.10655   1.12722   1.12993
 Alpha virt. eigenvalues --    1.13809   1.14556   1.15149   1.16204   1.16535
 Alpha virt. eigenvalues --    1.16825   1.18375   1.19352   1.20257   1.21494
 Alpha virt. eigenvalues --    1.23252   1.23724   1.24564   1.26741   1.29456
 Alpha virt. eigenvalues --    1.29558   1.29911   1.31677   1.32667   1.33883
 Alpha virt. eigenvalues --    1.35288   1.36649   1.38565   1.38746   1.39931
 Alpha virt. eigenvalues --    1.40771   1.42748   1.44085   1.44570   1.45570
 Alpha virt. eigenvalues --    1.47126   1.48256   1.50601   1.52058   1.53011
 Alpha virt. eigenvalues --    1.54174   1.55203   1.56237   1.57394   1.57475
 Alpha virt. eigenvalues --    1.58685   1.60362   1.61175   1.63826   1.64712
 Alpha virt. eigenvalues --    1.64881   1.65479   1.65979   1.67348   1.68548
 Alpha virt. eigenvalues --    1.70798   1.72541   1.73226   1.73992   1.74225
 Alpha virt. eigenvalues --    1.75097   1.75438   1.76226   1.76996   1.77241
 Alpha virt. eigenvalues --    1.79021   1.79129   1.80003   1.80939   1.81943
 Alpha virt. eigenvalues --    1.82720   1.83044   1.83600   1.83862   1.85252
 Alpha virt. eigenvalues --    1.85886   1.86283   1.86717   1.87753   1.87912
 Alpha virt. eigenvalues --    1.88636   1.89265   1.90044   1.90123   1.91262
 Alpha virt. eigenvalues --    1.92164   1.93022   1.93213   1.93972   1.94691
 Alpha virt. eigenvalues --    1.95413   1.95535   1.96785   1.97233   1.97900
 Alpha virt. eigenvalues --    1.98452   1.98723   1.99208   1.99632   2.00730
 Alpha virt. eigenvalues --    2.01873   2.02529   2.03340   2.04080   2.05105
 Alpha virt. eigenvalues --    2.05730   2.06914   2.07488   2.08141   2.09352
 Alpha virt. eigenvalues --    2.10699   2.11257   2.11332   2.12474   2.13167
 Alpha virt. eigenvalues --    2.14105   2.14336   2.15354   2.16215   2.16705
 Alpha virt. eigenvalues --    2.18520   2.18663   2.20016   2.20672   2.22820
 Alpha virt. eigenvalues --    2.23317   2.24176   2.24664   2.25628   2.26715
 Alpha virt. eigenvalues --    2.27542   2.29157   2.29754   2.30911   2.32442
 Alpha virt. eigenvalues --    2.32730   2.32905   2.32967   2.33707   2.34422
 Alpha virt. eigenvalues --    2.35452   2.38097   2.38699   2.39591   2.40409
 Alpha virt. eigenvalues --    2.41081   2.41520   2.42108   2.43020   2.44961
 Alpha virt. eigenvalues --    2.45778   2.45916   2.46882   2.48107   2.49515
 Alpha virt. eigenvalues --    2.49729   2.51215   2.51649   2.53097   2.53780
 Alpha virt. eigenvalues --    2.55363   2.56821   2.58095   2.58719   2.60138
 Alpha virt. eigenvalues --    2.61599   2.62541   2.62900   2.65578   2.66252
 Alpha virt. eigenvalues --    2.67159   2.68129   2.69762   2.70989   2.71539
 Alpha virt. eigenvalues --    2.72851   2.74090   2.75356   2.76219   2.76867
 Alpha virt. eigenvalues --    2.77543   2.79064   2.79839   2.82383   2.84415
 Alpha virt. eigenvalues --    2.88138   2.89230   2.93667   2.95081   2.95324
 Alpha virt. eigenvalues --    2.97380   2.98600   2.99744   3.00954   3.03617
 Alpha virt. eigenvalues --    3.04168   3.06410   3.10898   3.13616   3.21376
 Alpha virt. eigenvalues --    3.24066   3.30359   3.99307   4.06654   4.10131
 Alpha virt. eigenvalues --    4.11495   4.14425   4.15202   4.17515   4.18346
 Alpha virt. eigenvalues --    4.21277   4.24049   4.25452   4.26457   4.30251
 Alpha virt. eigenvalues --    4.31619   4.34183   4.35316   4.39664   4.44121
 Alpha virt. eigenvalues --    4.46034   4.46362   4.51981   4.56376   4.60768
 Alpha virt. eigenvalues --    4.65307   4.66294   4.70042   4.74113   4.77103
 Alpha virt. eigenvalues --    4.88777   4.94532   5.24839
          Condensed to atoms (all electrons):
 Mulliken atomic charges:
              1
     1  C   -0.193949
     2  C    0.199010
     3  C   -0.198713
     4  C    0.315809
     5  C   -0.023057
     6  C   -0.329529
     7  C    0.193015
     8  C    0.403334
     9  C   -0.067884
    10  C    0.372150
    11  C    0.398486
    12  O   -0.472212
    13  C   -0.151086
    14  C   -0.251008
    15  C   -0.442780
    16  O   -0.488165
    17  C   -0.152609
    18  C    0.290907
    19  O   -0.483225
    20  C   -0.310762
    21  O   -0.666902
    22  C   -0.334548
    23  C    0.104310
    24  O   -0.584536
    25  C    0.187491
    26  C   -0.505983
    27  C   -0.393522
    28  C   -0.468266
    29  C   -0.460349
    30  H    0.148309
    31  H    0.147433
    32  C   -0.521384
    33  H    0.125597
    34  H    0.161028
    35  H    0.163755
    36  H    0.151671
    37  H    0.151966
    38  H    0.133989
    39  H    0.134793
    40  H    0.140184
    41  H    0.157360
    42  H    0.152247
    43  H    0.163077
    44  H    0.422771
    45  H    0.148099
    46  H    0.189351
    47  H    0.135918
    48  H    0.151069
    49  H    0.168944
    50  H    0.154221
    51  H    0.152162
    52  H    0.139468
    53  H    0.194879
    54  H    0.164394
    55  H    0.144043
    56  H    0.149238
    57  H    0.171785
    58  H    0.161708
    59  H    0.158797
    60  H    0.156842
    61  H    0.155001
    62  C   -0.447991
    63  H    0.153581
    64  H    0.141787
    65  H    0.138485
 Sum of Mulliken atomic charges =   0.00000
 Mulliken charges with hydrogens summed into heavy atoms:
              1
     1  C   -0.068352
     2  C    0.199010
     3  C   -0.051280
     4  C    0.315809
     5  C   -0.023057
     6  C   -0.004745
     7  C    0.193015
     8  C    0.403334
     9  C   -0.067884
    10  C    0.372150
    11  C    0.398486
    12  O   -0.472212
    13  C    0.000584
    14  C    0.034947
    15  C   -0.010444
    16  O   -0.488165
    17  C   -0.004300
    18  C    0.290907
    19  O   -0.483225
    20  C    0.004561
    21  O   -0.244132
    22  C    0.002903
    23  C    0.240227
    24  O   -0.584536
    25  C    0.187491
    26  C   -0.031749
    27  C   -0.101893
    28  C    0.035050
    29  C    0.022383
    32  C   -0.050744
    62  C   -0.014138
 Sum of Mulliken charges with hydrogens summed into heavy atoms =   0.00000
 Electronic spatial extent (au):  <R**2>=          11912.4995
 Charge=              0.0000 electrons
 Dipole moment (field-independent basis, Debye):
    X=             -6.2111    Y=              1.7855    Z=              0.6857  Tot=              6.4989
 Quadrupole moment (field-independent basis, Debye-Ang):
   XX=           -190.1018   YY=           -177.0556   ZZ=           -180.6610
   XY=             -4.7747   XZ=             -2.1946   YZ=             -2.4408
 Traceless Quadrupole moment (field-independent basis, Debye-Ang):
   XX=             -7.4957   YY=              5.5506   ZZ=              1.9451
   XY=             -4.7747   XZ=             -2.1946   YZ=             -2.4408
 Octapole moment (field-independent basis, Debye-Ang**2):
  XXX=            -60.7603  YYY=             56.5054  ZZZ=              1.6871  XYY=            -30.4495
  XXY=            -21.8761  XXZ=            -17.3541  XZZ=             -8.1090  YZZ=             -1.6988
  YYZ=            -26.8351  XYZ=            -13.5747
 Hexadecapole moment (field-independent basis, Debye-Ang**3):
 XXXX=          -8327.4838 YYYY=          -5159.5424 ZZZZ=          -2429.7208 XXXY=            -80.6547
 XXXZ=            -17.3995 YYYX=             80.3599 YYYZ=            -32.8117 ZZZX=              5.9638
 ZZZY=            -16.2681 XXYY=          -2290.2778 XXZZ=          -1739.1525 YYZZ=          -1264.7909
 XXYZ=             18.1139 YYXZ=             23.7941 ZZXY=             30.6831
 N-N= 3.485578088611D+03 E-N=-1.019750783584D+04  KE= 1.374460922060D+03
 1\1\GINC-B0805\FOpt\RB3LYP\6-31G(d)\C26H34O5\CAOFEI\24-Mar-2021\0\\# o
 pt rb3lyp/6-31g(d) geom=connectivity\\Title Card Required\\0,1\C,-0.22
 37298059,0.277016333,-0.0267757863\C,1.0844692376,0.0365787906,0.12418
 29801\C,2.0816008407,1.1645531543,-0.0101428307\C,1.5569455984,2.59355
 70081,0.3483103252\C,0.0047238435,2.786579372,0.3972294652\C,-0.765580
 6511,1.6476750765,-0.3352717046\C,2.2833200533,3.5419756856,-0.6513242
 967\C,1.387789584,3.9879401528,-1.8044747281\C,0.0952253274,4.40161104
 93,-1.625752005\C,-0.4676244428,4.1099790696,-0.2882081514\C,-0.670629
 4288,5.0588463653,-2.7393039818\O,-0.2447221211,4.9957664071,-3.884782
 4314\C,-1.9569963636,5.8290437634,-2.4293588071\C,-1.5716387879,7.1948
 50968,-1.8001707519\C,-2.8062934788,5.9789833898,-3.6968259101\O,-1.36
 9079746,4.7567626519,0.2309593473\C,3.3365757361,2.7156166418,-1.41933
 53011\C,3.4349734477,3.4496315634,-2.7731653894\O,2.0623901892,3.99711
 00177,-2.9461720147\C,2.7064849452,1.3084918449,-1.4236201751\O,2.7734
 970225,4.7065930723,-0.0192711117\C,-0.3164407399,2.8218642886,1.91502
 60854\C,1.0152092412,2.5531677805,2.6207527266\O,2.0175443491,2.959143
 6209,1.6562215663\C,1.3068433682,3.2367927653,3.93853458\C,2.721479843
 5,3.0795636094,4.4421610395\C,0.367720635,3.8756734067,4.6416366446\C,
 4.3985256511,4.6380750811,-2.7285514853\C,3.6907604632,2.5774801524,-3
 .9981351815\H,4.2948221211,2.7181018539,-0.8916484513\H,2.9095370008,0
 .9924954607,0.6914268942\C,1.6394980844,-1.3376718666,0.3954284691\H,-
 0.9361312131,-0.5435769863,0.0438188967\H,-1.8229399169,1.7197297746,-
 0.0573575122\H,-0.7307165802,1.8210924106,-1.4202490343\H,-2.517648373
 9,5.2764232832,-1.668557159\H,-0.8387877709,7.0242696843,-1.0043220875
 \H,-1.0739718071,7.8043407826,-2.5673926212\H,-3.7429207469,6.50113014
 46,-3.4763462875\H,-3.0573463356,5.0006238159,-4.1206435606\H,-2.26585
 38763,6.5375165553,-4.4667482256\H,3.4299202732,0.5165014944,-1.639885
 5354\H,1.9158459068,1.2390022381,-2.180281167\H,2.6843800987,4.5301840
 866,0.9395431892\H,-1.0702235865,2.0801238185,2.1921450425\H,-0.713225
 6682,3.8086836546,2.1606481875\H,1.1395403452,1.4677894405,2.771213095
 3\H,2.9913294335,2.0182388938,4.5331125748\H,3.4407608004,3.5256821032
 ,3.7461179327\H,2.8490358034,3.5492143262,5.4218181592\H,-0.6552895613
 ,3.9827927453,4.2962809545\H,0.596419501,4.3141069702,5.6097026414\H,4
 .2112896054,5.2614392002,-1.851347113\H,4.2806636066,5.2462844167,-3.6
 308588686\H,5.4331426518,4.2787214645,-2.6873792032\H,4.6853208674,2.1
 228697964,-3.9311525517\H,3.6528353238,3.1878664247,-4.905538479\H,2.9
 487959706,1.7810402469,-4.0949241675\H,0.8445895115,-2.0872689222,0.46
 06147419\H,2.3347359752,-1.6527929895,-0.3949816601\H,2.2074121301,-1.
 359213706,1.3360060694\C,-2.7598237389,7.9587881991,-1.2076121827\H,-3
 .2475301023,7.3651094807,-0.4255747835\H,-3.5118421676,8.2075772976,-1
 .9643504421\H,-2.4266673761,8.8997613246,-0.7540984716\\Version=EM64L-
 G09RevB.01\State=1-A\HF=-1387.3197751\RMSD=4.666e-09\RMSF=5.916e-06\Di
 pole=1.3099618,-1.9385661,1.0312822\Quadrupole=3.6453992,1.0444099,-4.
 6898091,0.0622411,-4.2478481,2.722213\PG=C01 [X(C26H34O5)]\\@


 HAPPINESS IS NOT HAVING WHAT YOU WANT --
 HAPPINESS IS WANTING WHAT YOU HAVE!

              -- FROM MRS. SEVERN'S DESK
 Job cpu time:  0 days  8 hours 21 minutes 58.5 seconds.
 File lengths (MBytes):  RWF=    186 Int=      0 D2E=      0 Chk=     20 Scr=      1
 Normal termination of Gaussian 09 at Wed Mar 24 17:14:37 2021.
