 Entering Gaussian System, Link 0=g09
 Initial command:
 /public/software/g09/g09/l1.exe /tmp/Gau-10482.inp -scrdir=/tmp/
 Entering Link 1 = /public/software/g09/g09/l1.exe PID=     10483.
  
 Copyright (c) 1988,1990,1992,1993,1995,1998,2003,2009,2010,
            Gaussian, Inc.  All Rights Reserved.
  
 This is part of the Gaussian(R) 09 program.  It is based on
 the Gaussian(R) 03 system (copyright 2003, Gaussian, Inc.),
 the Gaussian(R) 98 system (copyright 1998, Gaussian, Inc.),
 the Gaussian(R) 94 system (copyright 1995, Gaussian, Inc.),
 the Gaussian 92(TM) system (copyright 1992, Gaussian, Inc.),
 the Gaussian 90(TM) system (copyright 1990, Gaussian, Inc.),
 the Gaussian 88(TM) system (copyright 1988, Gaussian, Inc.),
 the Gaussian 86(TM) system (copyright 1986, Carnegie Mellon
 University), and the Gaussian 82(TM) system (copyright 1983,
 Carnegie Mellon University). Gaussian is a federally registered
 trademark of Gaussian, Inc.
  
 This software contains proprietary and confidential information,
 including trade secrets, belonging to Gaussian, Inc.
  
 This software is provided under written license and may be
 used, copied, transmitted, or stored only in accord with that
 written license.
  
 The following legend is applicable only to US Government
 contracts under FAR:
  
                    RESTRICTED RIGHTS LEGEND
  
 Use, reproduction and disclosure by the US Government is
 subject to restrictions as set forth in subparagraphs (a)
 and (c) of the Commercial Computer Software - Restricted
 Rights clause in FAR 52.227-19.
  
 Gaussian, Inc.
 340 Quinnipiac St., Bldg. 40, Wallingford CT 06492
  
  
 ---------------------------------------------------------------
 Warning -- This program may not be used in any manner that
 competes with the business of Gaussian, Inc. or will provide
 assistance to any competitor of Gaussian, Inc.  The licensee
 of this program is prohibited from giving any competitor of
 Gaussian, Inc. access to this program.  By using this program,
 the user acknowledges that Gaussian, Inc. is engaged in the
 business of creating and licensing software in the field of
 computational chemistry and represents and warrants to the
 licensee that it is not a competitor of Gaussian, Inc. and that
 it will not use this program in any manner prohibited above.
 ---------------------------------------------------------------
  

 Cite this work as:
 Gaussian 09, Revision B.01,
 M. J. Frisch, G. W. Trucks, H. B. Schlegel, G. E. Scuseria, 
 M. A. Robb, J. R. Cheeseman, G. Scalmani, V. Barone, B. Mennucci, 
 G. A. Petersson, H. Nakatsuji, M. Caricato, X. Li, H. P. Hratchian, 
 A. F. Izmaylov, J. Bloino, G. Zheng, J. L. Sonnenberg, M. Hada, 
 M. Ehara, K. Toyota, R. Fukuda, J. Hasegawa, M. Ishida, T. Nakajima, 
 Y. Honda, O. Kitao, H. Nakai, T. Vreven, J. A. Montgomery, Jr., 
 J. E. Peralta, F. Ogliaro, M. Bearpark, J. J. Heyd, E. Brothers, 
 K. N. Kudin, V. N. Staroverov, T. Keith, R. Kobayashi, J. Normand, 
 K. Raghavachari, A. Rendell, J. C. Burant, S. S. Iyengar, J. Tomasi, 
 M. Cossi, N. Rega, J. M. Millam, M. Klene, J. E. Knox, J. B. Cross, 
 V. Bakken, C. Adamo, J. Jaramillo, R. Gomperts, R. E. Stratmann, 
 O. Yazyev, A. J. Austin, R. Cammi, C. Pomelli, J. W. Ochterski, 
 R. L. Martin, K. Morokuma, V. G. Zakrzewski, G. A. Voth, 
 P. Salvador, J. J. Dannenberg, S. Dapprich, A. D. Daniels, 
 O. Farkas, J. B. Foresman, J. V. Ortiz, J. Cioslowski, 
 and D. J. Fox, Gaussian, Inc., Wallingford CT, 2010.
 
 ******************************************
 Gaussian 09:  EM64L-G09RevB.01 12-Aug-2010
                13-Apr-2021 
 ******************************************
 %mem=600MW
 %nprocshared=10
 Will use up to   10 processors via shared memory.
 ----------------------------------------
 # opt b3lyp/6-311+g(d) geom=connectivity
 ----------------------------------------
 1/14=-1,18=20,19=15,26=3,38=1,57=2/1,3;
 2/9=110,12=2,17=6,18=5,40=1/2;
 3/5=4,6=6,7=11,11=2,16=1,25=1,30=1,71=1,74=-5/1,2,3;
 4//1;
 5/5=2,38=5/2;
 6/7=2,8=2,9=2,10=2,28=1/1;
 7//1,2,3,16;
 1/14=-1,18=20,19=15/3(2);
 2/9=110/2;
 99//99;
 2/9=110/2;
 3/5=4,6=6,7=11,11=2,16=1,25=1,30=1,71=1,74=-5/1,2,3;
 4/5=5,16=3/1;
 5/5=2,38=5/2;
 7//1,2,3,16;
 1/14=-1,18=20,19=15/3(-5);
 2/9=110/2;
 6/7=2,8=2,9=2,10=2,19=2,28=1/1;
 99/9=1/99;
 -------------------
 Title Card Required
 -------------------
 Symbolic Z-matrix:
 Charge =  0 Multiplicity = 1
 C                     1.63573   0.11623   3.13765 
 C                     1.89536   1.29062   2.55356 
 C                     2.00573   1.4208    1.04986 
 C                     1.56329   0.1787    0.20977 
 C                     0.95195  -1.05005   0.94807 
 C                     1.46679  -1.1838    2.40584 
 C                     0.6191    0.76761  -0.87381 
 C                    -0.83532   0.80646  -0.45411 
 C                    -1.43857  -0.1479    0.30262 
 C                    -0.60196  -1.14288   0.97923 
 C                    -2.92505  -0.11716   0.55935 
 O                    -3.47963   0.93153   0.84286 
 C                    -3.73391  -1.40529   0.37666 
 C                    -4.67677  -1.19367  -0.83447 
 C                    -4.48595  -1.72884   1.67797 
 O                    -1.09824  -2.05479   1.63759 
 C                     0.88959   2.28268  -0.98106 
 C                    -0.44695   2.82972  -1.53665 
 O                    -1.43967   1.8813   -0.95963 
 C                     1.2206    2.63919   0.47981 
 O                     0.69475   0.04429  -2.08825 
 C                     1.49726  -2.23256   0.10316 
 C                     2.90364  -1.74666  -0.25911 
 O                     2.72151  -0.3319   -0.51218 
 C                     3.57383  -2.43489  -1.42883 
 C                     3.05326  -2.18428  -2.82268 
 C                     4.59323  -3.26805  -1.19618 
 C                    -0.54326   2.73677  -3.06118 
 C                    -0.86178   4.21582  -1.05028 
 H                     1.7264    2.4981   -1.65267 
 H                     3.06573   1.56233   0.79487 
 C                     2.14912   2.54      3.36155 
 H                     1.59175   0.06717   4.22513 
 H                     2.43199  -1.71236   2.40895 
 H                     0.77067  -1.84193   2.934 
 H                    -3.04771  -2.22715   0.1522 
 H                    -5.37202  -0.37999  -0.59525 
 H                    -4.08061  -0.84575  -1.68994 
 H                    -3.77466  -1.90709   2.49018 
 H                    -5.09939  -2.62861   1.56615 
 H                    -5.13618  -0.89355   1.95863 
 H                     0.29504   2.76625   1.05222 
 H                     1.78503   3.57157   0.56974 
 H                     1.63839  -0.20261  -2.14278 
 H                     1.50173  -3.16947   0.66587 
 H                     0.89417  -2.37271  -0.79914 
 H                     3.56292  -1.85224   0.61252 
 H                     3.27597  -1.15855  -3.14619 
 H                     1.96785  -2.32231  -2.89537 
 H                     3.52604  -2.85953  -3.54159 
 H                     5.06627  -3.82967  -1.99739 
 H                     4.98845  -3.4261   -0.19564 
 H                    -1.56761   2.95175  -3.3822 
 H                     0.12161   3.47625  -3.52236 
 H                    -0.25989   1.7428   -3.41198 
 H                    -0.145     4.96469  -1.40542 
 H                    -0.91364   4.26974   0.03939 
 H                    -1.84877   4.47055  -1.44827 
 H                     2.11556   2.32799   4.43458 
 H                     3.13641   2.96592   3.13195 
 H                     1.41234   3.32633   3.15293 
 C                    -5.44795  -2.45028  -1.2516 
 H                    -6.05108  -2.25444  -2.14583 
 H                    -6.12877  -2.79418  -0.4657 
 H                    -4.76472  -3.27629  -1.48559 
 

 GradGradGradGradGradGradGradGradGradGradGradGradGradGradGradGradGradGrad
 Berny optimization.
 Initialization pass.
                           ----------------------------
                           !    Initial Parameters    !
                           ! (Angstroms and Degrees)  !
 --------------------------                            --------------------------
 ! Name  Definition              Value          Derivative Info.                !
 --------------------------------------------------------------------------------
 ! R1    R(1,2)                  1.3371         estimate D2E/DX2                !
 ! R2    R(1,6)                  1.5014         estimate D2E/DX2                !
 ! R3    R(1,33)                 1.0895         estimate D2E/DX2                !
 ! R4    R(2,3)                  1.5134         estimate D2E/DX2                !
 ! R5    R(2,32)                 1.5094         estimate D2E/DX2                !
 ! R6    R(3,4)                  1.5634         estimate D2E/DX2                !
 ! R7    R(3,20)                 1.5575         estimate D2E/DX2                !
 ! R8    R(3,31)                 1.0994         estimate D2E/DX2                !
 ! R9    R(4,5)                  1.5584         estimate D2E/DX2                !
 ! R10   R(4,7)                  1.5532         estimate D2E/DX2                !
 ! R11   R(4,24)                 1.4572         estimate D2E/DX2                !
 ! R12   R(5,6)                  1.5518         estimate D2E/DX2                !
 ! R13   R(5,10)                 1.557          estimate D2E/DX2                !
 ! R14   R(5,22)                 1.5523         estimate D2E/DX2                !
 ! R15   R(6,34)                 1.1005         estimate D2E/DX2                !
 ! R16   R(6,35)                 1.0939         estimate D2E/DX2                !
 ! R17   R(7,8)                  1.5143         estimate D2E/DX2                !
 ! R18   R(7,17)                 1.5428         estimate D2E/DX2                !
 ! R19   R(7,21)                 1.4155         estimate D2E/DX2                !
 ! R20   R(8,9)                  1.3592         estimate D2E/DX2                !
 ! R21   R(8,19)                 1.3327         estimate D2E/DX2                !
 ! R22   R(9,10)                 1.4655         estimate D2E/DX2                !
 ! R23   R(9,11)                 1.5088         estimate D2E/DX2                !
 ! R24   R(10,16)                1.2293         estimate D2E/DX2                !
 ! R25   R(11,12)                1.2197         estimate D2E/DX2                !
 ! R26   R(11,13)                1.532          estimate D2E/DX2                !
 ! R27   R(13,14)                1.5494         estimate D2E/DX2                !
 ! R28   R(13,15)                1.5374         estimate D2E/DX2                !
 ! R29   R(13,36)                1.0939         estimate D2E/DX2                !
 ! R30   R(14,37)                1.0967         estimate D2E/DX2                !
 ! R31   R(14,38)                1.0992         estimate D2E/DX2                !
 ! R32   R(14,62)                1.5322         estimate D2E/DX2                !
 ! R33   R(15,39)                1.0943         estimate D2E/DX2                !
 ! R34   R(15,40)                1.0947         estimate D2E/DX2                !
 ! R35   R(15,41)                1.0951         estimate D2E/DX2                !
 ! R36   R(17,18)                1.5473         estimate D2E/DX2                !
 ! R37   R(17,20)                1.5397         estimate D2E/DX2                !
 ! R38   R(17,30)                1.0944         estimate D2E/DX2                !
 ! R39   R(18,19)                1.4893         estimate D2E/DX2                !
 ! R40   R(18,28)                1.5304         estimate D2E/DX2                !
 ! R41   R(18,29)                1.5264         estimate D2E/DX2                !
 ! R42   R(20,42)                1.0957         estimate D2E/DX2                !
 ! R43   R(20,43)                1.0936         estimate D2E/DX2                !
 ! R44   R(21,44)                0.9769         estimate D2E/DX2                !
 ! R45   R(22,23)                1.5314         estimate D2E/DX2                !
 ! R46   R(22,45)                1.0929         estimate D2E/DX2                !
 ! R47   R(22,46)                1.0943         estimate D2E/DX2                !
 ! R48   R(23,24)                1.4487         estimate D2E/DX2                !
 ! R49   R(23,25)                1.5136         estimate D2E/DX2                !
 ! R50   R(23,47)                1.098          estimate D2E/DX2                !
 ! R51   R(25,26)                1.5088         estimate D2E/DX2                !
 ! R52   R(25,27)                1.337          estimate D2E/DX2                !
 ! R53   R(26,48)                1.0984         estimate D2E/DX2                !
 ! R54   R(26,49)                1.0966         estimate D2E/DX2                !
 ! R55   R(26,50)                1.0938         estimate D2E/DX2                !
 ! R56   R(27,51)                1.0868         estimate D2E/DX2                !
 ! R57   R(27,52)                1.0873         estimate D2E/DX2                !
 ! R58   R(28,53)                1.0948         estimate D2E/DX2                !
 ! R59   R(28,54)                1.0962         estimate D2E/DX2                !
 ! R60   R(28,55)                1.0915         estimate D2E/DX2                !
 ! R61   R(29,56)                1.0958         estimate D2E/DX2                !
 ! R62   R(29,57)                1.0922         estimate D2E/DX2                !
 ! R63   R(29,58)                1.0943         estimate D2E/DX2                !
 ! R64   R(32,59)                1.0943         estimate D2E/DX2                !
 ! R65   R(32,60)                1.0995         estimate D2E/DX2                !
 ! R66   R(32,61)                1.0976         estimate D2E/DX2                !
 ! R67   R(62,63)                1.0963         estimate D2E/DX2                !
 ! R68   R(62,64)                1.0952         estimate D2E/DX2                !
 ! R69   R(62,65)                1.0972         estimate D2E/DX2                !
 ! A1    A(2,1,6)              124.7124         estimate D2E/DX2                !
 ! A2    A(2,1,33)             118.9101         estimate D2E/DX2                !
 ! A3    A(6,1,33)             116.2949         estimate D2E/DX2                !
 ! A4    A(1,2,3)              121.5857         estimate D2E/DX2                !
 ! A5    A(1,2,32)             121.7242         estimate D2E/DX2                !
 ! A6    A(3,2,32)             116.6435         estimate D2E/DX2                !
 ! A7    A(2,3,4)              116.4187         estimate D2E/DX2                !
 ! A8    A(2,3,20)             113.2157         estimate D2E/DX2                !
 ! A9    A(2,3,31)             108.1711         estimate D2E/DX2                !
 ! A10   A(4,3,20)             106.3891         estimate D2E/DX2                !
 ! A11   A(4,3,31)             104.5073         estimate D2E/DX2                !
 ! A12   A(20,3,31)            107.484          estimate D2E/DX2                !
 ! A13   A(3,4,5)              118.8723         estimate D2E/DX2                !
 ! A14   A(3,4,7)              104.2215         estimate D2E/DX2                !
 ! A15   A(3,4,24)             108.6428         estimate D2E/DX2                !
 ! A16   A(5,4,7)              113.0162         estimate D2E/DX2                !
 ! A17   A(5,4,24)             105.6784         estimate D2E/DX2                !
 ! A18   A(7,4,24)             105.6878         estimate D2E/DX2                !
 ! A19   A(4,5,6)              112.5112         estimate D2E/DX2                !
 ! A20   A(4,5,10)             116.6156         estimate D2E/DX2                !
 ! A21   A(4,5,22)             101.8279         estimate D2E/DX2                !
 ! A22   A(6,5,10)             107.8888         estimate D2E/DX2                !
 ! A23   A(6,5,22)             109.2149         estimate D2E/DX2                !
 ! A24   A(10,5,22)            108.4254         estimate D2E/DX2                !
 ! A25   A(1,6,5)              114.8716         estimate D2E/DX2                !
 ! A26   A(1,6,34)             108.4106         estimate D2E/DX2                !
 ! A27   A(1,6,35)             110.929          estimate D2E/DX2                !
 ! A28   A(5,6,34)             109.5753         estimate D2E/DX2                !
 ! A29   A(5,6,35)             107.1151         estimate D2E/DX2                !
 ! A30   A(34,6,35)            105.5344         estimate D2E/DX2                !
 ! A31   A(4,7,8)              113.5931         estimate D2E/DX2                !
 ! A32   A(4,7,17)             108.3166         estimate D2E/DX2                !
 ! A33   A(4,7,21)             111.8573         estimate D2E/DX2                !
 ! A34   A(8,7,17)              99.3503         estimate D2E/DX2                !
 ! A35   A(8,7,21)             107.5914         estimate D2E/DX2                !
 ! A36   A(17,7,21)            115.6455         estimate D2E/DX2                !
 ! A37   A(7,8,9)              124.2355         estimate D2E/DX2                !
 ! A38   A(7,8,19)             110.556          estimate D2E/DX2                !
 ! A39   A(9,8,19)             125.1849         estimate D2E/DX2                !
 ! A40   A(8,9,10)             118.7115         estimate D2E/DX2                !
 ! A41   A(8,9,11)             121.1783         estimate D2E/DX2                !
 ! A42   A(10,9,11)            119.8475         estimate D2E/DX2                !
 ! A43   A(5,10,9)             121.3331         estimate D2E/DX2                !
 ! A44   A(5,10,16)            117.2478         estimate D2E/DX2                !
 ! A45   A(9,10,16)            121.3603         estimate D2E/DX2                !
 ! A46   A(9,11,12)            120.3333         estimate D2E/DX2                !
 ! A47   A(9,11,13)            118.8655         estimate D2E/DX2                !
 ! A48   A(12,11,13)           120.703          estimate D2E/DX2                !
 ! A49   A(11,13,14)           107.4383         estimate D2E/DX2                !
 ! A50   A(11,13,15)           109.529          estimate D2E/DX2                !
 ! A51   A(11,13,36)           108.9646         estimate D2E/DX2                !
 ! A52   A(14,13,15)           113.1232         estimate D2E/DX2                !
 ! A53   A(14,13,36)           108.9014         estimate D2E/DX2                !
 ! A54   A(15,13,36)           108.808          estimate D2E/DX2                !
 ! A55   A(13,14,37)           108.4587         estimate D2E/DX2                !
 ! A56   A(13,14,38)           108.7561         estimate D2E/DX2                !
 ! A57   A(13,14,62)           114.0208         estimate D2E/DX2                !
 ! A58   A(37,14,38)           106.186          estimate D2E/DX2                !
 ! A59   A(37,14,62)           110.4132         estimate D2E/DX2                !
 ! A60   A(38,14,62)           108.7033         estimate D2E/DX2                !
 ! A61   A(13,15,39)           110.1558         estimate D2E/DX2                !
 ! A62   A(13,15,40)           111.1385         estimate D2E/DX2                !
 ! A63   A(13,15,41)           110.2945         estimate D2E/DX2                !
 ! A64   A(39,15,40)           107.8291         estimate D2E/DX2                !
 ! A65   A(39,15,41)           108.6614         estimate D2E/DX2                !
 ! A66   A(40,15,41)           108.6857         estimate D2E/DX2                !
 ! A67   A(7,17,18)            102.7506         estimate D2E/DX2                !
 ! A68   A(7,17,20)            101.4853         estimate D2E/DX2                !
 ! A69   A(7,17,30)            111.7173         estimate D2E/DX2                !
 ! A70   A(18,17,20)           116.3915         estimate D2E/DX2                !
 ! A71   A(18,17,30)           111.7479         estimate D2E/DX2                !
 ! A72   A(20,17,30)           111.8567         estimate D2E/DX2                !
 ! A73   A(17,18,19)           102.2108         estimate D2E/DX2                !
 ! A74   A(17,18,28)           112.99           estimate D2E/DX2                !
 ! A75   A(17,18,29)           116.1916         estimate D2E/DX2                !
 ! A76   A(19,18,28)           107.7787         estimate D2E/DX2                !
 ! A77   A(19,18,29)           105.8833         estimate D2E/DX2                !
 ! A78   A(28,18,29)           110.822          estimate D2E/DX2                !
 ! A79   A(8,19,18)            110.9955         estimate D2E/DX2                !
 ! A80   A(3,20,17)            105.9324         estimate D2E/DX2                !
 ! A81   A(3,20,42)            108.9862         estimate D2E/DX2                !
 ! A82   A(3,20,43)            112.1271         estimate D2E/DX2                !
 ! A83   A(17,20,42)           109.9336         estimate D2E/DX2                !
 ! A84   A(17,20,43)           112.729          estimate D2E/DX2                !
 ! A85   A(42,20,43)           107.1062         estimate D2E/DX2                !
 ! A86   A(7,21,44)            103.2176         estimate D2E/DX2                !
 ! A87   A(5,22,23)            102.1027         estimate D2E/DX2                !
 ! A88   A(5,22,45)            111.9779         estimate D2E/DX2                !
 ! A89   A(5,22,46)            110.6562         estimate D2E/DX2                !
 ! A90   A(23,22,45)           112.9565         estimate D2E/DX2                !
 ! A91   A(23,22,46)           110.5912         estimate D2E/DX2                !
 ! A92   A(45,22,46)           108.4815         estimate D2E/DX2                !
 ! A93   A(22,23,24)           103.6342         estimate D2E/DX2                !
 ! A94   A(22,23,25)           116.4339         estimate D2E/DX2                !
 ! A95   A(22,23,47)           109.4589         estimate D2E/DX2                !
 ! A96   A(24,23,25)           111.3892         estimate D2E/DX2                !
 ! A97   A(24,23,47)           107.9425         estimate D2E/DX2                !
 ! A98   A(25,23,47)           107.692          estimate D2E/DX2                !
 ! A99   A(4,24,23)            110.8282         estimate D2E/DX2                !
 ! A100  A(23,25,26)           119.0526         estimate D2E/DX2                !
 ! A101  A(23,25,27)           119.1096         estimate D2E/DX2                !
 ! A102  A(26,25,27)           121.8245         estimate D2E/DX2                !
 ! A103  A(25,26,48)           110.9315         estimate D2E/DX2                !
 ! A104  A(25,26,49)           112.4474         estimate D2E/DX2                !
 ! A105  A(25,26,50)           110.8251         estimate D2E/DX2                !
 ! A106  A(48,26,49)           107.3813         estimate D2E/DX2                !
 ! A107  A(48,26,50)           107.1753         estimate D2E/DX2                !
 ! A108  A(49,26,50)           107.8529         estimate D2E/DX2                !
 ! A109  A(25,27,51)           121.7109         estimate D2E/DX2                !
 ! A110  A(25,27,52)           121.8607         estimate D2E/DX2                !
 ! A111  A(51,27,52)           116.4268         estimate D2E/DX2                !
 ! A112  A(18,28,53)           109.8195         estimate D2E/DX2                !
 ! A113  A(18,28,54)           109.8751         estimate D2E/DX2                !
 ! A114  A(18,28,55)           111.0473         estimate D2E/DX2                !
 ! A115  A(53,28,54)           108.1602         estimate D2E/DX2                !
 ! A116  A(53,28,55)           109.1169         estimate D2E/DX2                !
 ! A117  A(54,28,55)           108.7628         estimate D2E/DX2                !
 ! A118  A(18,29,56)           109.8496         estimate D2E/DX2                !
 ! A119  A(18,29,57)           112.0626         estimate D2E/DX2                !
 ! A120  A(18,29,58)           109.9148         estimate D2E/DX2                !
 ! A121  A(56,29,57)           108.7028         estimate D2E/DX2                !
 ! A122  A(56,29,58)           108.243          estimate D2E/DX2                !
 ! A123  A(57,29,58)           107.9708         estimate D2E/DX2                !
 ! A124  A(2,32,59)            111.0627         estimate D2E/DX2                !
 ! A125  A(2,32,60)            111.0898         estimate D2E/DX2                !
 ! A126  A(2,32,61)            112.2352         estimate D2E/DX2                !
 ! A127  A(59,32,60)           107.9005         estimate D2E/DX2                !
 ! A128  A(59,32,61)           107.7339         estimate D2E/DX2                !
 ! A129  A(60,32,61)           106.5923         estimate D2E/DX2                !
 ! A130  A(14,62,63)           110.638          estimate D2E/DX2                !
 ! A131  A(14,62,64)           112.0268         estimate D2E/DX2                !
 ! A132  A(14,62,65)           111.2265         estimate D2E/DX2                !
 ! A133  A(63,62,64)           107.4241         estimate D2E/DX2                !
 ! A134  A(63,62,65)           107.6454         estimate D2E/DX2                !
 ! A135  A(64,62,65)           107.6824         estimate D2E/DX2                !
 ! D1    D(6,1,2,3)              1.8347         estimate D2E/DX2                !
 ! D2    D(6,1,2,32)          -175.6003         estimate D2E/DX2                !
 ! D3    D(33,1,2,3)           178.4003         estimate D2E/DX2                !
 ! D4    D(33,1,2,32)            0.9654         estimate D2E/DX2                !
 ! D5    D(2,1,6,5)            -27.5577         estimate D2E/DX2                !
 ! D6    D(2,1,6,34)            95.3662         estimate D2E/DX2                !
 ! D7    D(2,1,6,35)          -149.1979         estimate D2E/DX2                !
 ! D8    D(33,1,6,5)           155.7955         estimate D2E/DX2                !
 ! D9    D(33,1,6,34)          -81.2805         estimate D2E/DX2                !
 ! D10   D(33,1,6,35)           34.1554         estimate D2E/DX2                !
 ! D11   D(1,2,3,4)             10.1023         estimate D2E/DX2                !
 ! D12   D(1,2,3,20)           133.8761         estimate D2E/DX2                !
 ! D13   D(1,2,3,31)          -107.1211         estimate D2E/DX2                !
 ! D14   D(32,2,3,4)          -172.3386         estimate D2E/DX2                !
 ! D15   D(32,2,3,20)          -48.5648         estimate D2E/DX2                !
 ! D16   D(32,2,3,31)           70.438          estimate D2E/DX2                !
 ! D17   D(1,2,32,59)            1.5642         estimate D2E/DX2                !
 ! D18   D(1,2,32,60)          121.6663         estimate D2E/DX2                !
 ! D19   D(1,2,32,61)         -119.1041         estimate D2E/DX2                !
 ! D20   D(3,2,32,59)         -175.9913         estimate D2E/DX2                !
 ! D21   D(3,2,32,60)          -55.8891         estimate D2E/DX2                !
 ! D22   D(3,2,32,61)           63.3404         estimate D2E/DX2                !
 ! D23   D(2,3,4,5)              4.3348         estimate D2E/DX2                !
 ! D24   D(2,3,4,7)            131.23           estimate D2E/DX2                !
 ! D25   D(2,3,4,24)          -116.443          estimate D2E/DX2                !
 ! D26   D(20,3,4,5)          -122.8883         estimate D2E/DX2                !
 ! D27   D(20,3,4,7)             4.0069         estimate D2E/DX2                !
 ! D28   D(20,3,4,24)          116.3339         estimate D2E/DX2                !
 ! D29   D(31,3,4,5)           123.5598         estimate D2E/DX2                !
 ! D30   D(31,3,4,7)          -109.545          estimate D2E/DX2                !
 ! D31   D(31,3,4,24)            2.7821         estimate D2E/DX2                !
 ! D32   D(2,3,20,17)         -154.6938         estimate D2E/DX2                !
 ! D33   D(2,3,20,42)          -36.4538         estimate D2E/DX2                !
 ! D34   D(2,3,20,43)           81.9509         estimate D2E/DX2                !
 ! D35   D(4,3,20,17)          -25.5859         estimate D2E/DX2                !
 ! D36   D(4,3,20,42)           92.6542         estimate D2E/DX2                !
 ! D37   D(4,3,20,43)         -148.9411         estimate D2E/DX2                !
 ! D38   D(31,3,20,17)          85.9081         estimate D2E/DX2                !
 ! D39   D(31,3,20,42)        -155.8519         estimate D2E/DX2                !
 ! D40   D(31,3,20,43)         -37.4472         estimate D2E/DX2                !
 ! D41   D(3,4,5,6)            -27.8823         estimate D2E/DX2                !
 ! D42   D(3,4,5,10)            97.5399         estimate D2E/DX2                !
 ! D43   D(3,4,5,22)          -144.676          estimate D2E/DX2                !
 ! D44   D(7,4,5,6)           -150.5011         estimate D2E/DX2                !
 ! D45   D(7,4,5,10)           -25.0789         estimate D2E/DX2                !
 ! D46   D(7,4,5,22)            92.7053         estimate D2E/DX2                !
 ! D47   D(24,4,5,6)            94.3881         estimate D2E/DX2                !
 ! D48   D(24,4,5,10)         -140.1897         estimate D2E/DX2                !
 ! D49   D(24,4,5,22)          -22.4055         estimate D2E/DX2                !
 ! D50   D(3,4,7,8)            -90.2689         estimate D2E/DX2                !
 ! D51   D(3,4,7,17)            19.0808         estimate D2E/DX2                !
 ! D52   D(3,4,7,21)           147.6899         estimate D2E/DX2                !
 ! D53   D(5,4,7,8)             40.1877         estimate D2E/DX2                !
 ! D54   D(5,4,7,17)           149.5373         estimate D2E/DX2                !
 ! D55   D(5,4,7,21)           -81.8536         estimate D2E/DX2                !
 ! D56   D(24,4,7,8)           155.2928         estimate D2E/DX2                !
 ! D57   D(24,4,7,17)          -95.3575         estimate D2E/DX2                !
 ! D58   D(24,4,7,21)           33.2516         estimate D2E/DX2                !
 ! D59   D(3,4,24,23)          126.9818         estimate D2E/DX2                !
 ! D60   D(5,4,24,23)           -1.6258         estimate D2E/DX2                !
 ! D61   D(7,4,24,23)         -121.6685         estimate D2E/DX2                !
 ! D62   D(4,5,6,1)             38.3849         estimate D2E/DX2                !
 ! D63   D(4,5,6,34)           -83.9125         estimate D2E/DX2                !
 ! D64   D(4,5,6,35)           162.0764         estimate D2E/DX2                !
 ! D65   D(10,5,6,1)           -91.6581         estimate D2E/DX2                !
 ! D66   D(10,5,6,34)          146.0445         estimate D2E/DX2                !
 ! D67   D(10,5,6,35)           32.0334         estimate D2E/DX2                !
 ! D68   D(22,5,6,1)           150.6822         estimate D2E/DX2                !
 ! D69   D(22,5,6,34)           28.3849         estimate D2E/DX2                !
 ! D70   D(22,5,6,35)          -85.6262         estimate D2E/DX2                !
 ! D71   D(4,5,10,9)             2.2295         estimate D2E/DX2                !
 ! D72   D(4,5,10,16)         -175.0185         estimate D2E/DX2                !
 ! D73   D(6,5,10,9)           129.9453         estimate D2E/DX2                !
 ! D74   D(6,5,10,16)          -47.3028         estimate D2E/DX2                !
 ! D75   D(22,5,10,9)         -111.8872         estimate D2E/DX2                !
 ! D76   D(22,5,10,16)          70.8648         estimate D2E/DX2                !
 ! D77   D(4,5,22,23)           36.8841         estimate D2E/DX2                !
 ! D78   D(4,5,22,45)          157.9952         estimate D2E/DX2                !
 ! D79   D(4,5,22,46)          -80.8419         estimate D2E/DX2                !
 ! D80   D(6,5,22,23)          -82.2749         estimate D2E/DX2                !
 ! D81   D(6,5,22,45)           38.8361         estimate D2E/DX2                !
 ! D82   D(6,5,22,46)          159.999          estimate D2E/DX2                !
 ! D83   D(10,5,22,23)         160.4036         estimate D2E/DX2                !
 ! D84   D(10,5,22,45)         -78.4853         estimate D2E/DX2                !
 ! D85   D(10,5,22,46)          42.6776         estimate D2E/DX2                !
 ! D86   D(4,7,8,9)            -36.3743         estimate D2E/DX2                !
 ! D87   D(4,7,8,19)           145.3131         estimate D2E/DX2                !
 ! D88   D(17,7,8,9)          -151.1751         estimate D2E/DX2                !
 ! D89   D(17,7,8,19)           30.5123         estimate D2E/DX2                !
 ! D90   D(21,7,8,9)            88.0042         estimate D2E/DX2                !
 ! D91   D(21,7,8,19)          -90.3085         estimate D2E/DX2                !
 ! D92   D(4,7,17,18)         -155.1595         estimate D2E/DX2                !
 ! D93   D(4,7,17,20)          -34.4269         estimate D2E/DX2                !
 ! D94   D(4,7,17,30)           84.9036         estimate D2E/DX2                !
 ! D95   D(8,7,17,18)          -36.3574         estimate D2E/DX2                !
 ! D96   D(8,7,17,20)           84.3751         estimate D2E/DX2                !
 ! D97   D(8,7,17,30)         -156.2944         estimate D2E/DX2                !
 ! D98   D(21,7,17,18)          78.4026         estimate D2E/DX2                !
 ! D99   D(21,7,17,20)        -160.8648         estimate D2E/DX2                !
 ! D100  D(21,7,17,30)         -41.5344         estimate D2E/DX2                !
 ! D101  D(4,7,21,44)          -36.1921         estimate D2E/DX2                !
 ! D102  D(8,7,21,44)         -161.6127         estimate D2E/DX2                !
 ! D103  D(17,7,21,44)          88.4323         estimate D2E/DX2                !
 ! D104  D(7,8,9,10)            12.4513         estimate D2E/DX2                !
 ! D105  D(7,8,9,11)          -173.4466         estimate D2E/DX2                !
 ! D106  D(19,8,9,10)         -169.4819         estimate D2E/DX2                !
 ! D107  D(19,8,9,11)            4.6202         estimate D2E/DX2                !
 ! D108  D(7,8,19,18)          -11.3424         estimate D2E/DX2                !
 ! D109  D(9,8,19,18)          170.3645         estimate D2E/DX2                !
 ! D110  D(8,9,10,5)             5.4255         estimate D2E/DX2                !
 ! D111  D(8,9,10,16)         -177.4397         estimate D2E/DX2                !
 ! D112  D(11,9,10,5)         -168.7571         estimate D2E/DX2                !
 ! D113  D(11,9,10,16)           8.3777         estimate D2E/DX2                !
 ! D114  D(8,9,11,12)          -43.6913         estimate D2E/DX2                !
 ! D115  D(8,9,11,13)          132.7316         estimate D2E/DX2                !
 ! D116  D(10,9,11,12)         130.3446         estimate D2E/DX2                !
 ! D117  D(10,9,11,13)         -53.2325         estimate D2E/DX2                !
 ! D118  D(9,11,13,14)        -112.8643         estimate D2E/DX2                !
 ! D119  D(9,11,13,15)         123.8943         estimate D2E/DX2                !
 ! D120  D(9,11,13,36)           4.9739         estimate D2E/DX2                !
 ! D121  D(12,11,13,14)         63.5449         estimate D2E/DX2                !
 ! D122  D(12,11,13,15)        -59.6964         estimate D2E/DX2                !
 ! D123  D(12,11,13,36)       -178.6169         estimate D2E/DX2                !
 ! D124  D(11,13,14,37)        -63.0577         estimate D2E/DX2                !
 ! D125  D(11,13,14,38)         52.0111         estimate D2E/DX2                !
 ! D126  D(11,13,14,62)        173.484          estimate D2E/DX2                !
 ! D127  D(15,13,14,37)         57.9484         estimate D2E/DX2                !
 ! D128  D(15,13,14,38)        173.0171         estimate D2E/DX2                !
 ! D129  D(15,13,14,62)        -65.5099         estimate D2E/DX2                !
 ! D130  D(36,13,14,37)        179.0631         estimate D2E/DX2                !
 ! D131  D(36,13,14,38)        -65.8682         estimate D2E/DX2                !
 ! D132  D(36,13,14,62)         55.6048         estimate D2E/DX2                !
 ! D133  D(11,13,15,39)        -62.3973         estimate D2E/DX2                !
 ! D134  D(11,13,15,40)        178.157          estimate D2E/DX2                !
 ! D135  D(11,13,15,41)         57.5462         estimate D2E/DX2                !
 ! D136  D(14,13,15,39)        177.7875         estimate D2E/DX2                !
 ! D137  D(14,13,15,40)         58.3417         estimate D2E/DX2                !
 ! D138  D(14,13,15,41)        -62.2691         estimate D2E/DX2                !
 ! D139  D(36,13,15,39)         56.6199         estimate D2E/DX2                !
 ! D140  D(36,13,15,40)        -62.8258         estimate D2E/DX2                !
 ! D141  D(36,13,15,41)        176.5634         estimate D2E/DX2                !
 ! D142  D(13,14,62,63)       -176.6916         estimate D2E/DX2                !
 ! D143  D(13,14,62,64)         63.4706         estimate D2E/DX2                !
 ! D144  D(13,14,62,65)        -57.1028         estimate D2E/DX2                !
 ! D145  D(37,14,62,63)         60.9152         estimate D2E/DX2                !
 ! D146  D(37,14,62,64)        -58.9226         estimate D2E/DX2                !
 ! D147  D(37,14,62,65)       -179.4959         estimate D2E/DX2                !
 ! D148  D(38,14,62,63)        -55.1894         estimate D2E/DX2                !
 ! D149  D(38,14,62,64)       -175.0272         estimate D2E/DX2                !
 ! D150  D(38,14,62,65)         64.3994         estimate D2E/DX2                !
 ! D151  D(7,17,18,19)          31.143          estimate D2E/DX2                !
 ! D152  D(7,17,18,28)         -84.3993         estimate D2E/DX2                !
 ! D153  D(7,17,18,29)         145.8829         estimate D2E/DX2                !
 ! D154  D(20,17,18,19)        -78.7455         estimate D2E/DX2                !
 ! D155  D(20,17,18,28)        165.7122         estimate D2E/DX2                !
 ! D156  D(20,17,18,29)         35.9944         estimate D2E/DX2                !
 ! D157  D(30,17,18,19)        151.0587         estimate D2E/DX2                !
 ! D158  D(30,17,18,28)         35.5165         estimate D2E/DX2                !
 ! D159  D(30,17,18,29)        -94.2013         estimate D2E/DX2                !
 ! D160  D(7,17,20,3)           36.2498         estimate D2E/DX2                !
 ! D161  D(7,17,20,42)         -81.3586         estimate D2E/DX2                !
 ! D162  D(7,17,20,43)         159.225          estimate D2E/DX2                !
 ! D163  D(18,17,20,3)         146.8746         estimate D2E/DX2                !
 ! D164  D(18,17,20,42)         29.2661         estimate D2E/DX2                !
 ! D165  D(18,17,20,43)        -90.1503         estimate D2E/DX2                !
 ! D166  D(30,17,20,3)         -82.9813         estimate D2E/DX2                !
 ! D167  D(30,17,20,42)        159.4103         estimate D2E/DX2                !
 ! D168  D(30,17,20,43)         39.9939         estimate D2E/DX2                !
 ! D169  D(17,18,19,8)         -13.0785         estimate D2E/DX2                !
 ! D170  D(28,18,19,8)         106.1992         estimate D2E/DX2                !
 ! D171  D(29,18,19,8)        -135.1579         estimate D2E/DX2                !
 ! D172  D(17,18,28,53)        169.1186         estimate D2E/DX2                !
 ! D173  D(17,18,28,54)        -72.0281         estimate D2E/DX2                !
 ! D174  D(17,18,28,55)         48.3421         estimate D2E/DX2                !
 ! D175  D(19,18,28,53)         56.9505         estimate D2E/DX2                !
 ! D176  D(19,18,28,54)        175.8039         estimate D2E/DX2                !
 ! D177  D(19,18,28,55)        -63.826          estimate D2E/DX2                !
 ! D178  D(29,18,28,53)        -58.481          estimate D2E/DX2                !
 ! D179  D(29,18,28,54)         60.3724         estimate D2E/DX2                !
 ! D180  D(29,18,28,55)       -179.2575         estimate D2E/DX2                !
 ! D181  D(17,18,29,56)         64.984          estimate D2E/DX2                !
 ! D182  D(17,18,29,57)        -55.9575         estimate D2E/DX2                !
 ! D183  D(17,18,29,58)       -176.0183         estimate D2E/DX2                !
 ! D184  D(19,18,29,56)        177.6295         estimate D2E/DX2                !
 ! D185  D(19,18,29,57)         56.6879         estimate D2E/DX2                !
 ! D186  D(19,18,29,58)        -63.3728         estimate D2E/DX2                !
 ! D187  D(28,18,29,56)        -65.7644         estimate D2E/DX2                !
 ! D188  D(28,18,29,57)        173.2941         estimate D2E/DX2                !
 ! D189  D(28,18,29,58)         53.2334         estimate D2E/DX2                !
 ! D190  D(5,22,23,24)         -38.6166         estimate D2E/DX2                !
 ! D191  D(5,22,23,25)        -161.2784         estimate D2E/DX2                !
 ! D192  D(5,22,23,47)          76.3378         estimate D2E/DX2                !
 ! D193  D(45,22,23,24)       -159.048          estimate D2E/DX2                !
 ! D194  D(45,22,23,25)         78.2902         estimate D2E/DX2                !
 ! D195  D(45,22,23,47)        -44.0936         estimate D2E/DX2                !
 ! D196  D(46,22,23,24)         79.1559         estimate D2E/DX2                !
 ! D197  D(46,22,23,25)        -43.5059         estimate D2E/DX2                !
 ! D198  D(46,22,23,47)       -165.8897         estimate D2E/DX2                !
 ! D199  D(22,23,24,4)          25.5081         estimate D2E/DX2                !
 ! D200  D(25,23,24,4)         151.4498         estimate D2E/DX2                !
 ! D201  D(47,23,24,4)         -90.5229         estimate D2E/DX2                !
 ! D202  D(22,23,25,26)         70.4615         estimate D2E/DX2                !
 ! D203  D(22,23,25,27)       -108.2321         estimate D2E/DX2                !
 ! D204  D(24,23,25,26)        -48.0567         estimate D2E/DX2                !
 ! D205  D(24,23,25,27)        133.2497         estimate D2E/DX2                !
 ! D206  D(47,23,25,26)       -166.2348         estimate D2E/DX2                !
 ! D207  D(47,23,25,27)         15.0716         estimate D2E/DX2                !
 ! D208  D(23,25,26,48)         69.8913         estimate D2E/DX2                !
 ! D209  D(23,25,26,49)        -50.3789         estimate D2E/DX2                !
 ! D210  D(23,25,26,50)       -171.1784         estimate D2E/DX2                !
 ! D211  D(27,25,26,48)       -111.4521         estimate D2E/DX2                !
 ! D212  D(27,25,26,49)        128.2778         estimate D2E/DX2                !
 ! D213  D(27,25,26,50)          7.4783         estimate D2E/DX2                !
 ! D214  D(23,25,27,51)        176.2904         estimate D2E/DX2                !
 ! D215  D(23,25,27,52)         -3.2323         estimate D2E/DX2                !
 ! D216  D(26,25,27,51)         -2.3656         estimate D2E/DX2                !
 ! D217  D(26,25,27,52)        178.1118         estimate D2E/DX2                !
 --------------------------------------------------------------------------------
 Trust Radius=3.00D-01 FncErr=1.00D-07 GrdErr=1.00D-06
 Number of steps in this run=    390 maximum allowed number of steps=    390.
 GradGradGradGradGradGradGradGradGradGradGradGradGradGradGradGradGradGrad

 Stoichiometry    C26H34O5
 Framework group  C1[X(C26H34O5)]
 Deg. of freedom   189
 Full point group                 C1      NOp   1
 Largest Abelian subgroup         C1      NOp   1
 Largest concise Abelian subgroup C1      NOp   1
                         Standard orientation:                         
 ---------------------------------------------------------------------
 Center     Atomic      Atomic             Coordinates (Angstroms)
 Number     Number       Type             X           Y           Z
 ---------------------------------------------------------------------
      1          6           0        1.635727    0.116231    3.137652
      2          6           0        1.895358    1.290624    2.553560
      3          6           0        2.005734    1.420804    1.049863
      4          6           0        1.563290    0.178699    0.209771
      5          6           0        0.951951   -1.050045    0.948070
      6          6           0        1.466786   -1.183803    2.405843
      7          6           0        0.619100    0.767608   -0.873813
      8          6           0       -0.835316    0.806460   -0.454114
      9          6           0       -1.438571   -0.147899    0.302620
     10          6           0       -0.601964   -1.142883    0.979231
     11          6           0       -2.925051   -0.117158    0.559353
     12          8           0       -3.479634    0.931527    0.842858
     13          6           0       -3.733913   -1.405287    0.376658
     14          6           0       -4.676768   -1.193670   -0.834469
     15          6           0       -4.485952   -1.728837    1.677965
     16          8           0       -1.098242   -2.054788    1.637587
     17          6           0        0.889590    2.282678   -0.981063
     18          6           0       -0.446948    2.829717   -1.536653
     19          8           0       -1.439674    1.881300   -0.959630
     20          6           0        1.220600    2.639185    0.479806
     21          8           0        0.694748    0.044287   -2.088247
     22          6           0        1.497259   -2.232560    0.103161
     23          6           0        2.903638   -1.746664   -0.259107
     24          8           0        2.721514   -0.331903   -0.512175
     25          6           0        3.573829   -2.434892   -1.428826
     26          6           0        3.053259   -2.184281   -2.822676
     27          6           0        4.593230   -3.268053   -1.196181
     28          6           0       -0.543255    2.736769   -3.061176
     29          6           0       -0.861782    4.215821   -1.050283
     30          1           0        1.726404    2.498097   -1.652672
     31          1           0        3.065728    1.562334    0.794874
     32          6           0        2.149119    2.540001    3.361554
     33          1           0        1.591754    0.067167    4.225128
     34          1           0        2.431987   -1.712360    2.408949
     35          1           0        0.770666   -1.841928    2.933995
     36          1           0       -3.047712   -2.227154    0.152199
     37          1           0       -5.372025   -0.379989   -0.595250
     38          1           0       -4.080609   -0.845753   -1.689942
     39          1           0       -3.774657   -1.907088    2.490175
     40          1           0       -5.099391   -2.628609    1.566146
     41          1           0       -5.136177   -0.893549    1.958626
     42          1           0        0.295042    2.766254    1.052225
     43          1           0        1.785026    3.571567    0.569738
     44          1           0        1.638393   -0.202605   -2.142783
     45          1           0        1.501733   -3.169474    0.665868
     46          1           0        0.894172   -2.372706   -0.799143
     47          1           0        3.562918   -1.852238    0.612516
     48          1           0        3.275966   -1.158550   -3.146190
     49          1           0        1.967846   -2.322312   -2.895369
     50          1           0        3.526044   -2.859531   -3.541592
     51          1           0        5.066272   -3.829671   -1.997385
     52          1           0        4.988453   -3.426105   -0.195643
     53          1           0       -1.567605    2.951751   -3.382198
     54          1           0        0.121606    3.476247   -3.522355
     55          1           0       -0.259885    1.742798   -3.411978
     56          1           0       -0.144998    4.964685   -1.405421
     57          1           0       -0.913639    4.269740    0.039386
     58          1           0       -1.848766    4.470545   -1.448267
     59          1           0        2.115557    2.327987    4.434578
     60          1           0        3.136413    2.965919    3.131950
     61          1           0        1.412342    3.326328    3.152934
     62          6           0       -5.447949   -2.450276   -1.251603
     63          1           0       -6.051076   -2.254437   -2.145834
     64          1           0       -6.128768   -2.794174   -0.465698
     65          1           0       -4.764716   -3.276290   -1.485592
 ---------------------------------------------------------------------
 Rotational constants (GHZ):      0.1826388      0.1266457      0.1132108
 Standard basis: 6-311+G(d) (5D, 7F)
 There are   784 symmetry adapted basis functions of A   symmetry.
 Integral buffers will be    131072 words long.
 Raffenetti 2 integral format.
 Two-electron integral symmetry is turned on.
   784 basis functions,  1286 primitive gaussians,   815 cartesian basis functions
   115 alpha electrons      115 beta electrons
       nuclear repulsion energy      3486.7769185625 Hartrees.
 NAtoms=   65 NActive=   65 NUniq=   65 SFac= 1.00D+00 NAtFMM=   50 NAOKFM=T Big=T
 One-electron integrals computed using PRISM.
 NBasis=   784 RedAO= T  NBF=   784
 NBsUse=   777 1.00D-06 NBFU=   777
 Harris functional with IExCor=  402 diagonalized for initial guess.
 ExpMin= 4.38D-02 ExpMax= 8.59D+03 ExpMxC= 1.30D+03 IAcc=2 IRadAn=         0 AccDes= 0.00D+00
 HarFok:  IExCor=  402 AccDes= 0.00D+00 IRadAn=         0 IDoV= 1
 ScaDFX=  1.000000  1.000000  1.000000  1.000000
 FoFCou: FMM=F IPFlag=           0 FMFlag=      100000 FMFlg1=        2001
         NFxFlg=           0 DoJE=T BraDBF=F KetDBF=T FulRan=T
         Omega=  0.000000  0.000000  1.000000  0.000000  0.000000 ICntrl=     500 IOpCl=  0
         NMat0=    1 NMatS0=    1 NMatT0=    0 NMatD0=    1 NMtDS0=    0 NMtDT0=    0
         I1Cent=           4 NGrid=           0.
 Petite list used in FoFCou.
 Initial guess orbital symmetries:
       Occupied  (A) (A) (A) (A) (A) (A) (A) (A) (A) (A) (A) (A)
                 (A) (A) (A) (A) (A) (A) (A) (A) (A) (A) (A) (A)
                 (A) (A) (A) (A) (A) (A) (A) (A) (A) (A) (A) (A)
                 (A) (A) (A) (A) (A) (A) (A) (A) (A) (A) (A) (A)
                 (A) (A) (A) (A) (A) (A) (A) (A) (A) (A) (A) (A)
                 (A) (A) (A) (A) (A) (A) (A) (A) (A) (A) (A) (A)
                 (A) (A) (A) (A) (A) (A) (A) (A) (A) (A) (A) (A)
                 (A) (A) (A) (A) (A) (A) (A) (A) (A) (A) (A) (A)
                 (A) (A) (A) (A) (A) (A) (A) (A) (A) (A) (A) (A)
                 (A) (A) (A) (A) (A) (A) (A)
       Virtual   (A) (A) (A) (A) (A) (A) (A) (A) (A) (A) (A) (A)
                 (A) (A) (A) (A) (A) (A) (A) (A) (A) (A) (A) (A)
                 (A) (A) (A) (A) (A) (A) (A) (A) (A) (A) (A) (A)
                 (A) (A) (A) (A) (A) (A) (A) (A) (A) (A) (A) (A)
                 (A) (A) (A) (A) (A) (A) (A) (A) (A) (A) (A) (A)
                 (A) (A) (A) (A) (A) (A) (A) (A) (A) (A) (A) (A)
                 (A) (A) (A) (A) (A) (A) (A) (A) (A) (A) (A) (A)
                 (A) (A) (A) (A) (A) (A) (A) (A) (A) (A) (A) (A)
                 (A) (A) (A) (A) (A) (A) (A) (A) (A) (A) (A) (A)
                 (A) (A) (A) (A) (A) (A) (A) (A) (A) (A) (A) (A)
                 (A) (A) (A) (A) (A) (A) (A) (A) (A) (A) (A) (A)
                 (A) (A) (A) (A) (A) (A) (A) (A) (A) (A) (A) (A)
                 (A) (A) (A) (A) (A) (A) (A) (A) (A) (A) (A) (A)
                 (A) (A) (A) (A) (A) (A) (A) (A) (A) (A) (A) (A)
                 (A) (A) (A) (A) (A) (A) (A) (A) (A) (A) (A) (A)
                 (A) (A) (A) (A) (A) (A) (A) (A) (A) (A) (A) (A)
                 (A) (A) (A) (A) (A) (A) (A) (A) (A) (A) (A) (A)
                 (A) (A) (A) (A) (A) (A) (A) (A) (A) (A) (A) (A)
                 (A) (A) (A) (A) (A) (A) (A) (A) (A) (A) (A) (A)
                 (A) (A) (A) (A) (A) (A) (A) (A) (A) (A) (A) (A)
                 (A) (A) (A) (A) (A) (A) (A) (A) (A) (A) (A) (A)
                 (A) (A) (A) (A) (A) (A) (A) (A) (A) (A) (A) (A)
                 (A) (A) (A) (A) (A) (A) (A) (A) (A) (A) (A) (A)
                 (A) (A) (A) (A) (A) (A) (A) (A) (A) (A) (A) (A)
                 (A) (A) (A) (A) (A) (A) (A) (A) (A) (A) (A) (A)
                 (A) (A) (A) (A) (A) (A) (A) (A) (A) (A) (A) (A)
                 (A) (A) (A) (A) (A) (A) (A) (A) (A) (A) (A) (A)
                 (A) (A) (A) (A) (A) (A) (A) (A) (A) (A) (A) (A)
                 (A) (A) (A) (A) (A) (A) (A) (A) (A) (A) (A) (A)
                 (A) (A) (A) (A) (A) (A) (A) (A) (A) (A) (A) (A)
                 (A) (A) (A) (A) (A) (A) (A) (A) (A) (A) (A) (A)
                 (A) (A) (A) (A) (A) (A) (A) (A) (A) (A) (A) (A)
                 (A) (A) (A) (A) (A) (A) (A) (A) (A) (A) (A) (A)
                 (A) (A) (A) (A) (A) (A) (A) (A) (A) (A) (A) (A)
                 (A) (A) (A) (A) (A) (A) (A) (A) (A) (A) (A) (A)
                 (A) (A) (A) (A) (A) (A) (A) (A) (A) (A) (A) (A)
                 (A) (A) (A) (A) (A) (A) (A) (A) (A) (A) (A) (A)
                 (A) (A) (A) (A) (A) (A) (A) (A) (A) (A) (A) (A)
                 (A) (A) (A) (A) (A) (A) (A) (A) (A) (A) (A) (A)
                 (A) (A) (A) (A) (A) (A) (A) (A) (A) (A) (A) (A)
                 (A) (A) (A) (A) (A) (A) (A) (A) (A) (A) (A) (A)
                 (A) (A) (A) (A) (A) (A) (A) (A) (A) (A) (A) (A)
                 (A) (A) (A) (A) (A) (A) (A) (A) (A) (A) (A) (A)
                 (A) (A) (A) (A) (A) (A) (A) (A) (A) (A) (A) (A)
                 (A) (A) (A) (A) (A) (A) (A) (A) (A) (A) (A) (A)
                 (A) (A) (A) (A) (A) (A) (A) (A) (A) (A) (A) (A)
                 (A) (A) (A) (A) (A) (A) (A) (A) (A) (A) (A) (A)
                 (A) (A) (A) (A) (A) (A) (A) (A) (A) (A) (A) (A)
                 (A) (A) (A) (A) (A) (A) (A) (A) (A) (A) (A) (A)
                 (A) (A) (A) (A) (A) (A) (A) (A) (A) (A) (A) (A)
                 (A) (A) (A) (A) (A) (A) (A) (A) (A) (A) (A) (A)
                 (A) (A) (A) (A) (A) (A) (A) (A) (A) (A) (A) (A)
                 (A) (A) (A) (A) (A) (A) (A) (A) (A) (A) (A) (A)
                 (A) (A) (A) (A) (A) (A) (A) (A) (A) (A) (A) (A)
                 (A) (A) (A) (A) (A) (A) (A) (A) (A) (A) (A) (A)
                 (A) (A)
 The electronic state of the initial guess is 1-A.
 Requested convergence on RMS density matrix=1.00D-08 within 128 cycles.
 Requested convergence on MAX density matrix=1.00D-06.
 Requested convergence on             energy=1.00D-06.
 No special actions if energy rises.
 SCF Done:  E(RB3LYP) =  -1387.64765855     A.U. after   17 cycles
             Convg  =    0.4286D-08             -V/T =  2.0043

 **********************************************************************

            Population analysis using the SCF density.

 **********************************************************************

 Orbital symmetries:
       Occupied  (A) (A) (A) (A) (A) (A) (A) (A) (A) (A) (A) (A)
                 (A) (A) (A) (A) (A) (A) (A) (A) (A) (A) (A) (A)
                 (A) (A) (A) (A) (A) (A) (A) (A) (A) (A) (A) (A)
                 (A) (A) (A) (A) (A) (A) (A) (A) (A) (A) (A) (A)
                 (A) (A) (A) (A) (A) (A) (A) (A) (A) (A) (A) (A)
                 (A) (A) (A) (A) (A) (A) (A) (A) (A) (A) (A) (A)
                 (A) (A) (A) (A) (A) (A) (A) (A) (A) (A) (A) (A)
                 (A) (A) (A) (A) (A) (A) (A) (A) (A) (A) (A) (A)
                 (A) (A) (A) (A) (A) (A) (A) (A) (A) (A) (A) (A)
                 (A) (A) (A) (A) (A) (A) (A)
       Virtual   (A) (A) (A) (A) (A) (A) (A) (A) (A) (A) (A) (A)
                 (A) (A) (A) (A) (A) (A) (A) (A) (A) (A) (A) (A)
                 (A) (A) (A) (A) (A) (A) (A) (A) (A) (A) (A) (A)
                 (A) (A) (A) (A) (A) (A) (A) (A) (A) (A) (A) (A)
                 (A) (A) (A) (A) (A) (A) (A) (A) (A) (A) (A) (A)
                 (A) (A) (A) (A) (A) (A) (A) (A) (A) (A) (A) (A)
                 (A) (A) (A) (A) (A) (A) (A) (A) (A) (A) (A) (A)
                 (A) (A) (A) (A) (A) (A) (A) (A) (A) (A) (A) (A)
                 (A) (A) (A) (A) (A) (A) (A) (A) (A) (A) (A) (A)
                 (A) (A) (A) (A) (A) (A) (A) (A) (A) (A) (A) (A)
                 (A) (A) (A) (A) (A) (A) (A) (A) (A) (A) (A) (A)
                 (A) (A) (A) (A) (A) (A) (A) (A) (A) (A) (A) (A)
                 (A) (A) (A) (A) (A) (A) (A) (A) (A) (A) (A) (A)
                 (A) (A) (A) (A) (A) (A) (A) (A) (A) (A) (A) (A)
                 (A) (A) (A) (A) (A) (A) (A) (A) (A) (A) (A) (A)
                 (A) (A) (A) (A) (A) (A) (A) (A) (A) (A) (A) (A)
                 (A) (A) (A) (A) (A) (A) (A) (A) (A) (A) (A) (A)
                 (A) (A) (A) (A) (A) (A) (A) (A) (A) (A) (A) (A)
                 (A) (A) (A) (A) (A) (A) (A) (A) (A) (A) (A) (A)
                 (A) (A) (A) (A) (A) (A) (A) (A) (A) (A) (A) (A)
                 (A) (A) (A) (A) (A) (A) (A) (A) (A) (A) (A) (A)
                 (A) (A) (A) (A) (A) (A) (A) (A) (A) (A) (A) (A)
                 (A) (A) (A) (A) (A) (A) (A) (A) (A) (A) (A) (A)
                 (A) (A) (A) (A) (A) (A) (A) (A) (A) (A) (A) (A)
                 (A) (A) (A) (A) (A) (A) (A) (A) (A) (A) (A) (A)
                 (A) (A) (A) (A) (A) (A) (A) (A) (A) (A) (A) (A)
                 (A) (A) (A) (A) (A) (A) (A) (A) (A) (A) (A) (A)
                 (A) (A) (A) (A) (A) (A) (A) (A) (A) (A) (A) (A)
                 (A) (A) (A) (A) (A) (A) (A) (A) (A) (A) (A) (A)
                 (A) (A) (A) (A) (A) (A) (A) (A) (A) (A) (A) (A)
                 (A) (A) (A) (A) (A) (A) (A) (A) (A) (A) (A) (A)
                 (A) (A) (A) (A) (A) (A) (A) (A) (A) (A) (A) (A)
                 (A) (A) (A) (A) (A) (A) (A) (A) (A) (A) (A) (A)
                 (A) (A) (A) (A) (A) (A) (A) (A) (A) (A) (A) (A)
                 (A) (A) (A) (A) (A) (A) (A) (A) (A) (A) (A) (A)
                 (A) (A) (A) (A) (A) (A) (A) (A) (A) (A) (A) (A)
                 (A) (A) (A) (A) (A) (A) (A) (A) (A) (A) (A) (A)
                 (A) (A) (A) (A) (A) (A) (A) (A) (A) (A) (A) (A)
                 (A) (A) (A) (A) (A) (A) (A) (A) (A) (A) (A) (A)
                 (A) (A) (A) (A) (A) (A) (A) (A) (A) (A) (A) (A)
                 (A) (A) (A) (A) (A) (A) (A) (A) (A) (A) (A) (A)
                 (A) (A) (A) (A) (A) (A) (A) (A) (A) (A) (A) (A)
                 (A) (A) (A) (A) (A) (A) (A) (A) (A) (A) (A) (A)
                 (A) (A) (A) (A) (A) (A) (A) (A) (A) (A) (A) (A)
                 (A) (A) (A) (A) (A) (A) (A) (A) (A) (A) (A) (A)
                 (A) (A) (A) (A) (A) (A) (A) (A) (A) (A) (A) (A)
                 (A) (A) (A) (A) (A) (A) (A) (A) (A) (A) (A) (A)
                 (A) (A) (A) (A) (A) (A) (A) (A) (A) (A) (A) (A)
                 (A) (A) (A) (A) (A) (A) (A) (A) (A) (A) (A) (A)
                 (A) (A) (A) (A) (A) (A) (A) (A) (A) (A) (A) (A)
                 (A) (A) (A) (A) (A) (A) (A) (A) (A) (A) (A) (A)
                 (A) (A) (A) (A) (A) (A) (A) (A) (A) (A) (A) (A)
                 (A) (A) (A) (A) (A) (A) (A) (A) (A) (A) (A) (A)
                 (A) (A) (A) (A) (A) (A) (A) (A) (A) (A) (A) (A)
                 (A) (A) (A) (A) (A) (A) (A) (A) (A) (A) (A) (A)
                 (A) (A)
 The electronic state is 1-A.
 Alpha  occ. eigenvalues --  -19.17880 -19.14996 -19.14180 -19.10657 -19.10421
 Alpha  occ. eigenvalues --  -10.26981 -10.26647 -10.25946 -10.25559 -10.25552
 Alpha  occ. eigenvalues --  -10.25537 -10.24333 -10.21013 -10.20001 -10.19950
 Alpha  occ. eigenvalues --  -10.19675 -10.18927 -10.18759 -10.18672 -10.18559
 Alpha  occ. eigenvalues --  -10.18183 -10.17903 -10.17697 -10.17662 -10.17350
 Alpha  occ. eigenvalues --  -10.17204 -10.17057 -10.16714 -10.16024 -10.15211
 Alpha  occ. eigenvalues --  -10.14480  -1.10553  -1.07292  -1.04255  -1.03939
 Alpha  occ. eigenvalues --   -1.03437  -0.87724  -0.84616  -0.83434  -0.82415
 Alpha  occ. eigenvalues --   -0.81201  -0.79911  -0.77730  -0.75197  -0.74171
 Alpha  occ. eigenvalues --   -0.72638  -0.71905  -0.70868  -0.70662  -0.68721
 Alpha  occ. eigenvalues --   -0.66276  -0.65016  -0.64106  -0.62734  -0.61611
 Alpha  occ. eigenvalues --   -0.60376  -0.59093  -0.58028  -0.55618  -0.54913
 Alpha  occ. eigenvalues --   -0.53787  -0.53182  -0.51751  -0.51502  -0.50501
 Alpha  occ. eigenvalues --   -0.48943  -0.48399  -0.47869  -0.47232  -0.46638
 Alpha  occ. eigenvalues --   -0.46088  -0.45358  -0.45130  -0.44787  -0.44548
 Alpha  occ. eigenvalues --   -0.44357  -0.43068  -0.42777  -0.42397  -0.42324
 Alpha  occ. eigenvalues --   -0.41861  -0.41742  -0.41423  -0.40984  -0.40412
 Alpha  occ. eigenvalues --   -0.40161  -0.39807  -0.39284  -0.39046  -0.38846
 Alpha  occ. eigenvalues --   -0.38524  -0.38290  -0.37840  -0.37791  -0.37694
 Alpha  occ. eigenvalues --   -0.37422  -0.36153  -0.36002  -0.35466  -0.35267
 Alpha  occ. eigenvalues --   -0.34907  -0.34787  -0.34511  -0.33884  -0.33274
 Alpha  occ. eigenvalues --   -0.32375  -0.31908  -0.31537  -0.29663  -0.28461
 Alpha  occ. eigenvalues --   -0.26901  -0.26023  -0.25323  -0.24583  -0.23917
 Alpha virt. eigenvalues --   -0.06312  -0.02897  -0.01614  -0.01037  -0.00280
 Alpha virt. eigenvalues --    0.00164   0.00273   0.01206   0.01495   0.01829
 Alpha virt. eigenvalues --    0.01912   0.02643   0.02962   0.03380   0.03551
 Alpha virt. eigenvalues --    0.03763   0.03995   0.04265   0.04511   0.04807
 Alpha virt. eigenvalues --    0.05142   0.05373   0.05611   0.06077   0.06210
 Alpha virt. eigenvalues --    0.06457   0.06756   0.07026   0.07251   0.07431
 Alpha virt. eigenvalues --    0.07662   0.07851   0.08187   0.08284   0.08520
 Alpha virt. eigenvalues --    0.08758   0.08934   0.09255   0.09493   0.09843
 Alpha virt. eigenvalues --    0.10208   0.10446   0.10630   0.10914   0.11061
 Alpha virt. eigenvalues --    0.11210   0.11450   0.11683   0.11755   0.12311
 Alpha virt. eigenvalues --    0.12527   0.12648   0.12823   0.13122   0.13153
 Alpha virt. eigenvalues --    0.13528   0.13886   0.14007   0.14361   0.14559
 Alpha virt. eigenvalues --    0.14742   0.15165   0.15468   0.15521   0.15705
 Alpha virt. eigenvalues --    0.16161   0.16442   0.16965   0.17072   0.17210
 Alpha virt. eigenvalues --    0.17397   0.17743   0.17899   0.18176   0.18243
 Alpha virt. eigenvalues --    0.18466   0.18485   0.18597   0.18891   0.18972
 Alpha virt. eigenvalues --    0.19133   0.19352   0.19773   0.19822   0.19992
 Alpha virt. eigenvalues --    0.20316   0.20478   0.20597   0.20949   0.21094
 Alpha virt. eigenvalues --    0.21307   0.21490   0.21685   0.21938   0.22104
 Alpha virt. eigenvalues --    0.22425   0.22473   0.22556   0.22788   0.22862
 Alpha virt. eigenvalues --    0.23123   0.23460   0.23723   0.24002   0.24147
 Alpha virt. eigenvalues --    0.24386   0.24476   0.24602   0.24779   0.24950
 Alpha virt. eigenvalues --    0.25244   0.25319   0.25578   0.25681   0.25779
 Alpha virt. eigenvalues --    0.25951   0.26372   0.26498   0.26697   0.26830
 Alpha virt. eigenvalues --    0.27150   0.27263   0.27414   0.27802   0.27957
 Alpha virt. eigenvalues --    0.28064   0.28518   0.28545   0.28914   0.29309
 Alpha virt. eigenvalues --    0.29392   0.29677   0.29734   0.30184   0.30440
 Alpha virt. eigenvalues --    0.30656   0.30986   0.31188   0.31787   0.32056
 Alpha virt. eigenvalues --    0.32384   0.32656   0.32821   0.32991   0.33412
 Alpha virt. eigenvalues --    0.33564   0.34057   0.34255   0.34636   0.35154
 Alpha virt. eigenvalues --    0.35646   0.35963   0.36125   0.36577   0.36901
 Alpha virt. eigenvalues --    0.37223   0.37617   0.37892   0.38178   0.38479
 Alpha virt. eigenvalues --    0.38791   0.39101   0.39813   0.39832   0.40574
 Alpha virt. eigenvalues --    0.40876   0.41027   0.41553   0.41646   0.42037
 Alpha virt. eigenvalues --    0.42251   0.42764   0.43014   0.43706   0.44044
 Alpha virt. eigenvalues --    0.44597   0.44682   0.44858   0.45596   0.45699
 Alpha virt. eigenvalues --    0.46049   0.46317   0.46666   0.47149   0.47472
 Alpha virt. eigenvalues --    0.47723   0.48026   0.48339   0.48728   0.49271
 Alpha virt. eigenvalues --    0.49520   0.50105   0.50307   0.50801   0.51151
 Alpha virt. eigenvalues --    0.51369   0.51492   0.52045   0.52875   0.53436
 Alpha virt. eigenvalues --    0.53766   0.54103   0.54464   0.55675   0.55988
 Alpha virt. eigenvalues --    0.56305   0.57071   0.57301   0.57773   0.57984
 Alpha virt. eigenvalues --    0.58321   0.58568   0.58676   0.59003   0.59444
 Alpha virt. eigenvalues --    0.59869   0.60414   0.61107   0.61675   0.61833
 Alpha virt. eigenvalues --    0.62121   0.62813   0.63485   0.63767   0.64386
 Alpha virt. eigenvalues --    0.64650   0.65233   0.65414   0.65759   0.65924
 Alpha virt. eigenvalues --    0.66170   0.66405   0.66874   0.67042   0.67329
 Alpha virt. eigenvalues --    0.67867   0.68219   0.68328   0.69176   0.69250
 Alpha virt. eigenvalues --    0.69529   0.69804   0.70044   0.70076   0.70522
 Alpha virt. eigenvalues --    0.70661   0.70754   0.71099   0.71374   0.71657
 Alpha virt. eigenvalues --    0.71938   0.72218   0.72457   0.72612   0.73009
 Alpha virt. eigenvalues --    0.73462   0.74232   0.74573   0.74641   0.74880
 Alpha virt. eigenvalues --    0.75494   0.75769   0.75950   0.76399   0.77012
 Alpha virt. eigenvalues --    0.77362   0.77624   0.77932   0.78392   0.79076
 Alpha virt. eigenvalues --    0.79117   0.79612   0.79772   0.80183   0.80752
 Alpha virt. eigenvalues --    0.80832   0.81376   0.81589   0.82092   0.82340
 Alpha virt. eigenvalues --    0.83283   0.83561   0.84468   0.85094   0.85636
 Alpha virt. eigenvalues --    0.86036   0.86423   0.86851   0.87988   0.88310
 Alpha virt. eigenvalues --    0.88774   0.89579   0.91078   0.91399   0.92562
 Alpha virt. eigenvalues --    0.93488   0.93935   0.94330   0.95895   0.96128
 Alpha virt. eigenvalues --    0.97050   0.97881   0.98972   1.00527   1.01776
 Alpha virt. eigenvalues --    1.02573   1.03048   1.03465   1.04272   1.05260
 Alpha virt. eigenvalues --    1.06131   1.07065   1.07320   1.07830   1.08672
 Alpha virt. eigenvalues --    1.09962   1.11148   1.12064   1.13825   1.14857
 Alpha virt. eigenvalues --    1.15530   1.16359   1.16951   1.17969   1.18722
 Alpha virt. eigenvalues --    1.19582   1.20531   1.21367   1.21922   1.23653
 Alpha virt. eigenvalues --    1.24173   1.24915   1.25559   1.26465   1.27703
 Alpha virt. eigenvalues --    1.28184   1.28786   1.30290   1.30329   1.32022
 Alpha virt. eigenvalues --    1.33279   1.33612   1.34382   1.35243   1.36040
 Alpha virt. eigenvalues --    1.36334   1.36595   1.37800   1.38008   1.39391
 Alpha virt. eigenvalues --    1.40052   1.40711   1.41808   1.42453   1.43168
 Alpha virt. eigenvalues --    1.43900   1.44576   1.46496   1.47282   1.48067
 Alpha virt. eigenvalues --    1.48414   1.49216   1.50323   1.50953   1.52771
 Alpha virt. eigenvalues --    1.52948   1.53743   1.54305   1.54528   1.55566
 Alpha virt. eigenvalues --    1.55708   1.56074   1.56691   1.57792   1.58108
 Alpha virt. eigenvalues --    1.58531   1.59148   1.59685   1.60007   1.60413
 Alpha virt. eigenvalues --    1.60876   1.61522   1.61594   1.62425   1.62639
 Alpha virt. eigenvalues --    1.63199   1.63627   1.64038   1.64667   1.65394
 Alpha virt. eigenvalues --    1.65650   1.65972   1.66132   1.66346   1.67216
 Alpha virt. eigenvalues --    1.67716   1.67998   1.68214   1.68711   1.69880
 Alpha virt. eigenvalues --    1.70872   1.71181   1.71920   1.72317   1.72823
 Alpha virt. eigenvalues --    1.73396   1.74097   1.74413   1.74711   1.75909
 Alpha virt. eigenvalues --    1.76375   1.77237   1.78415   1.78676   1.79560
 Alpha virt. eigenvalues --    1.79866   1.81468   1.81948   1.83367   1.83718
 Alpha virt. eigenvalues --    1.84963   1.85226   1.85688   1.86347   1.87128
 Alpha virt. eigenvalues --    1.87627   1.88995   1.89048   1.90240   1.91172
 Alpha virt. eigenvalues --    1.91860   1.92282   1.93546   1.94470   1.95913
 Alpha virt. eigenvalues --    1.97244   1.97865   1.98500   2.01246   2.01595
 Alpha virt. eigenvalues --    2.02314   2.03512   2.04553   2.05526   2.05935
 Alpha virt. eigenvalues --    2.06458   2.07341   2.08837   2.09308   2.10073
 Alpha virt. eigenvalues --    2.11087   2.13016   2.14483   2.16050   2.16710
 Alpha virt. eigenvalues --    2.17151   2.20061   2.20816   2.21195   2.22050
 Alpha virt. eigenvalues --    2.22316   2.23011   2.25256   2.25540   2.27477
 Alpha virt. eigenvalues --    2.28802   2.29549   2.30352   2.32494   2.33075
 Alpha virt. eigenvalues --    2.34430   2.35626   2.37679   2.39045   2.42848
 Alpha virt. eigenvalues --    2.43714   2.46494   2.47564   2.49024   2.50631
 Alpha virt. eigenvalues --    2.51538   2.51776   2.53226   2.54341   2.54779
 Alpha virt. eigenvalues --    2.55011   2.55276   2.55742   2.56178   2.57008
 Alpha virt. eigenvalues --    2.57282   2.57838   2.58730   2.60020   2.60765
 Alpha virt. eigenvalues --    2.62649   2.63091   2.64464   2.65863   2.66420
 Alpha virt. eigenvalues --    2.67261   2.68260   2.68870   2.69968   2.70845
 Alpha virt. eigenvalues --    2.71295   2.72423   2.74297   2.74783   2.75165
 Alpha virt. eigenvalues --    2.76294   2.77092   2.77600   2.82513   2.83331
 Alpha virt. eigenvalues --    2.85020   2.87338   2.88701   2.88904   2.89646
 Alpha virt. eigenvalues --    2.91619   2.92791   2.93671   2.94548   2.95441
 Alpha virt. eigenvalues --    2.96545   2.97784   2.98148   2.98926   2.99435
 Alpha virt. eigenvalues --    3.00542   3.00619   3.01697   3.03596   3.03924
 Alpha virt. eigenvalues --    3.04143   3.05609   3.06732   3.07275   3.08970
 Alpha virt. eigenvalues --    3.09083   3.10469   3.11355   3.11673   3.13052
 Alpha virt. eigenvalues --    3.14567   3.15323   3.16628   3.17327   3.18147
 Alpha virt. eigenvalues --    3.19604   3.20034   3.20858   3.21363   3.22254
 Alpha virt. eigenvalues --    3.22609   3.23369   3.24774   3.25403   3.26188
 Alpha virt. eigenvalues --    3.26586   3.27396   3.28291   3.28797   3.29172
 Alpha virt. eigenvalues --    3.29395   3.30470   3.30931   3.32010   3.33053
 Alpha virt. eigenvalues --    3.34193   3.35312   3.37025   3.38347   3.38725
 Alpha virt. eigenvalues --    3.39436   3.39974   3.41681   3.42234   3.45475
 Alpha virt. eigenvalues --    3.47049   3.47478   3.49877   3.52671   3.53799
 Alpha virt. eigenvalues --    3.54789   3.59100   3.60862   3.63192   3.74020
 Alpha virt. eigenvalues --    3.77120   3.79475   3.80755   3.87216   3.88617
 Alpha virt. eigenvalues --    3.90388   3.96209   3.98203   4.01158   4.02583
 Alpha virt. eigenvalues --    4.04629   4.06959   4.09030   4.10233   4.11847
 Alpha virt. eigenvalues --    4.15457   4.17367   4.18677   4.20799   4.22781
 Alpha virt. eigenvalues --    4.23714   4.25010   4.29753   4.32588   4.45693
 Alpha virt. eigenvalues --    4.60935   5.12585   5.16406   5.17045   5.21285
 Alpha virt. eigenvalues --    5.23381   5.29751   5.31200   5.34108   5.41778
 Alpha virt. eigenvalues --    5.43100   5.56492   5.66394   5.73477   5.78805
 Alpha virt. eigenvalues --    5.83420  23.45747  23.47191  23.51606  23.52333
 Alpha virt. eigenvalues --   23.61228  23.63992  23.65771  23.66936  23.68160
 Alpha virt. eigenvalues --   23.70332  23.73838  23.74224  23.76527  23.78266
 Alpha virt. eigenvalues --   23.78623  23.79329  23.82002  23.84423  23.86127
 Alpha virt. eigenvalues --   23.86676  23.88671  23.89626  23.96036  24.15353
 Alpha virt. eigenvalues --   24.18947  24.22470  49.98721  50.00717  50.02838
 Alpha virt. eigenvalues --   50.03293  50.06643
          Condensed to atoms (all electrons):
 Mulliken atomic charges:
              1
     1  C   -0.288618
     2  C    0.505465
     3  C   -0.207334
     4  C   -0.096124
     5  C    1.309060
     6  C   -0.943389
     7  C   -1.261175
     8  C    0.281289
     9  C    0.573403
    10  C   -0.793327
    11  C   -0.002538
    12  O   -0.208078
    13  C    0.553626
    14  C   -0.307886
    15  C   -1.101285
    16  O   -0.201260
    17  C   -0.179701
    18  C    0.527346
    19  O    0.176180
    20  C   -1.107019
    21  O    0.015798
    22  C   -0.909606
    23  C   -0.470066
    24  O    0.023248
    25  C    1.107573
    26  C   -1.166627
    27  C   -0.971226
    28  C   -0.750308
    29  C   -0.683488
    30  H    0.233403
    31  H    0.275035
    32  C   -1.104069
    33  H    0.203998
    34  H    0.250670
    35  H    0.281851
    36  H    0.230871
    37  H    0.259236
    38  H    0.238567
    39  H    0.259631
    40  H    0.231684
    41  H    0.266119
    42  H    0.293245
    43  H    0.266521
    44  H    0.262246
    45  H    0.275577
    46  H    0.267583
    47  H    0.223404
    48  H    0.282198
    49  H    0.286822
    50  H    0.262120
    51  H    0.227658
    52  H    0.216088
    53  H    0.264227
    54  H    0.248293
    55  H    0.312404
    56  H    0.259823
    57  H    0.266894
    58  H    0.272353
    59  H    0.255697
    60  H    0.255091
    61  H    0.259496
    62  C   -1.032139
    63  H    0.244872
    64  H    0.239250
    65  H    0.239351
 Sum of Mulliken atomic charges =   0.00000
 Mulliken charges with hydrogens summed into heavy atoms:
              1
     1  C   -0.084620
     2  C    0.505465
     3  C    0.067701
     4  C   -0.096124
     5  C    1.309060
     6  C   -0.410868
     7  C   -1.261175
     8  C    0.281289
     9  C    0.573403
    10  C   -0.793327
    11  C   -0.002538
    12  O   -0.208078
    13  C    0.784497
    14  C    0.189916
    15  C   -0.343852
    16  O   -0.201260
    17  C    0.053702
    18  C    0.527346
    19  O    0.176180
    20  C   -0.547253
    21  O    0.278044
    22  C   -0.366446
    23  C   -0.246662
    24  O    0.023248
    25  C    1.107573
    26  C   -0.335487
    27  C   -0.527480
    28  C    0.074617
    29  C    0.115582
    32  C   -0.333785
    62  C   -0.308666
 Sum of Mulliken charges with hydrogens summed into heavy atoms =   0.00000
 Electronic spatial extent (au):  <R**2>=          11836.0843
 Charge=              0.0000 electrons
 Dipole moment (field-independent basis, Debye):
    X=              5.1463    Y=              1.5300    Z=             -2.0197  Tot=              5.7362
 Quadrupole moment (field-independent basis, Debye-Ang):
   XX=           -195.7820   YY=           -179.2016   ZZ=           -185.6565
   XY=              1.4661   XZ=              5.5019   YZ=              0.3146
 Traceless Quadrupole moment (field-independent basis, Debye-Ang):
   XX=             -8.9020   YY=              7.6784   ZZ=              1.2235
   XY=              1.4661   XZ=              5.5019   YZ=              0.3146
 Octapole moment (field-independent basis, Debye-Ang**2):
  XXX=             19.5746  YYY=             54.6510  ZZZ=             -7.4013  XYY=             35.3773
  XXY=            -38.1612  XXZ=            -22.5426  XZZ=             23.0956  YZZ=             10.0705
  YYZ=            -30.4057  XYZ=              9.9313
 Hexadecapole moment (field-independent basis, Debye-Ang**3):
 XXXX=          -8276.7698 YYYY=          -4738.8573 ZZZZ=          -3374.4844 XXXY=            -17.3570
 XXXZ=             22.3587 YYYX=            -67.0618 YYYZ=            -35.2846 ZZZX=            -27.0339
 ZZZY=              4.7201 XXYY=          -2090.6591 XXZZ=          -1901.5465 YYZZ=          -1332.6270
 XXYZ=             -6.2224 YYXZ=             -8.0962 ZZXY=            -54.3333
 N-N= 3.486776918563D+03 E-N=-1.020643764497D+04  KE= 1.381710765644D+03
 Calling FoFJK, ICntrl=      2127 FMM=T ISym2X=0 I1Cent= 0 IOpClX= 0 NMat=1 NMatS=1 NMatT=0.
 ***** Axes restored to original set *****
 -------------------------------------------------------------------
 Center     Atomic                   Forces (Hartrees/Bohr)
 Number     Number              X              Y              Z
 -------------------------------------------------------------------
      1        6           0.000577009    0.001790527   -0.000943838
      2        6          -0.000039661   -0.001999294    0.001023386
      3        6          -0.000336331    0.000427176   -0.000213049
      4        6          -0.000136860    0.001361029    0.000772945
      5        6          -0.000067512   -0.000425656    0.000064470
      6        6           0.000029031   -0.000100471   -0.000127807
      7        6          -0.001761703    0.001225969    0.001653287
      8        6          -0.003314976    0.000358633   -0.000727233
      9        6           0.001306820    0.001518477    0.000957985
     10        6          -0.002782054   -0.005169965    0.002736539
     11        6          -0.003915987    0.005641401    0.000477005
     12        8           0.004371546   -0.007006881   -0.000906695
     13        6           0.000051663    0.000236423   -0.000029988
     14        6          -0.000030373    0.000767321   -0.000424959
     15        6           0.000196698    0.000145578    0.000107005
     16        8           0.002915065    0.006153829   -0.004183695
     17        6           0.000421343    0.000086040   -0.000182532
     18        6           0.000574296    0.001512971   -0.001032450
     19        8           0.001879843   -0.004114430    0.001698225
     20        6          -0.000372062    0.000149521    0.000210603
     21        8           0.006118227    0.000411876    0.000914170
     22        6           0.000008746   -0.000468937   -0.000643482
     23        6           0.000628748   -0.002195706    0.000647168
     24        8           0.000233325   -0.000290659    0.000962750
     25        6           0.001053587   -0.001190535    0.000187441
     26        6          -0.000079457    0.000041185   -0.000147518
     27        6          -0.001085645    0.001026043   -0.000221625
     28        6           0.000301387    0.000027043    0.000428369
     29        6           0.000348533   -0.000438223    0.000050212
     30        1          -0.001056101   -0.000285795    0.000706399
     31        1          -0.001205607   -0.000094505    0.000702734
     32        6           0.000039795    0.000428878   -0.000020192
     33        1          -0.000031249    0.000034701   -0.000839597
     34        1          -0.001562398    0.000712159    0.000132441
     35        1           0.001715634    0.000872245   -0.000333006
     36        1          -0.000743519    0.000939640    0.000222402
     37        1           0.000772813   -0.001147324   -0.000693669
     38        1          -0.000952799   -0.000228030    0.000998973
     39        1          -0.001602514    0.000119889   -0.000769519
     40        1           0.000976532    0.001315501    0.000451850
     41        1           0.000566532   -0.001634616   -0.000050735
     42        1           0.001469983    0.000031402   -0.000683839
     43        1          -0.000944772   -0.001258372   -0.000101025
     44        1          -0.005088138   -0.000057605   -0.002392675
     45        1           0.000015940    0.001350097   -0.000754650
     46        1           0.000799012   -0.000402831    0.001394750
     47        1          -0.000840463    0.000619801   -0.001422327
     48        1          -0.000268297   -0.001675206    0.000250526
     49        1           0.001799976   -0.000138549   -0.000210867
     50        1          -0.000815608    0.001145141    0.000923519
     51        1          -0.000384403    0.000502554    0.000766475
     52        1          -0.000353047    0.000183490   -0.000960578
     53        1           0.001571022   -0.000309012    0.000149949
     54        1          -0.000992297   -0.001109675    0.000351033
     55        1          -0.000769018    0.001897179   -0.000171760
     56        1          -0.001109763   -0.000765844    0.000612384
     57        1          -0.000077312    0.000316928   -0.001738132
     58        1           0.001535521   -0.000122047    0.000682524
     59        1           0.000131067    0.000562169   -0.001626644
     60        1          -0.001410974   -0.000575194    0.000442594
     61        1           0.001179773   -0.001184170    0.000517375
     62        6           0.000215237   -0.000203823    0.000442678
     63        1           0.000782430   -0.000498725    0.001295124
     64        1           0.000748786    0.000322577   -0.001506218
[...]
 Alpha  occ. eigenvalues --  -10.25393 -10.24143 -10.20891 -10.19879 -10.19784
 Alpha  occ. eigenvalues --  -10.19447 -10.18690 -10.18605 -10.18423 -10.18325
 Alpha  occ. eigenvalues --  -10.18059 -10.17777 -10.17599 -10.17543 -10.17125
 Alpha  occ. eigenvalues --  -10.16997 -10.16993 -10.16975 -10.16642 -10.15514
 Alpha  occ. eigenvalues --  -10.14565  -1.10269  -1.06964  -1.04634  -1.03994
 Alpha  occ. eigenvalues --   -1.03834  -0.87667  -0.84610  -0.83435  -0.82429
 Alpha  occ. eigenvalues --   -0.81178  -0.80498  -0.77688  -0.75148  -0.74107
 Alpha  occ. eigenvalues --   -0.72676  -0.72217  -0.70885  -0.70709  -0.68692
 Alpha  occ. eigenvalues --   -0.66567  -0.65328  -0.64017  -0.62498  -0.61514
 Alpha  occ. eigenvalues --   -0.60343  -0.59296  -0.57990  -0.55873  -0.54981
 Alpha  occ. eigenvalues --   -0.53814  -0.53215  -0.51706  -0.51425  -0.50465
 Alpha  occ. eigenvalues --   -0.49018  -0.48442  -0.47853  -0.47259  -0.46580
 Alpha  occ. eigenvalues --   -0.46125  -0.45672  -0.45307  -0.44867  -0.44573
 Alpha  occ. eigenvalues --   -0.44361  -0.43368  -0.42910  -0.42420  -0.42351
 Alpha  occ. eigenvalues --   -0.42236  -0.41655  -0.41470  -0.40945  -0.40337
 Alpha  occ. eigenvalues --   -0.40053  -0.39349  -0.39219  -0.38836  -0.38754
 Alpha  occ. eigenvalues --   -0.38527  -0.38443  -0.38205  -0.37723  -0.37636
 Alpha  occ. eigenvalues --   -0.37340  -0.36514  -0.36046  -0.35801  -0.35499
 Alpha  occ. eigenvalues --   -0.35033  -0.34784  -0.34536  -0.33885  -0.33163
 Alpha  occ. eigenvalues --   -0.32625  -0.32298  -0.31991  -0.29513  -0.28316
 Alpha  occ. eigenvalues --   -0.26885  -0.26039  -0.25291  -0.24484  -0.24104
 Alpha virt. eigenvalues --   -0.05912  -0.02417  -0.01546  -0.00988  -0.00277
 Alpha virt. eigenvalues --    0.00168   0.00415   0.01087   0.01507   0.01885
 Alpha virt. eigenvalues --    0.01933   0.02551   0.02789   0.03305   0.03509
 Alpha virt. eigenvalues --    0.03750   0.04049   0.04259   0.04414   0.04730
 Alpha virt. eigenvalues --    0.05037   0.05291   0.05745   0.06043   0.06275
 Alpha virt. eigenvalues --    0.06541   0.06727   0.06988   0.07212   0.07508
 Alpha virt. eigenvalues --    0.07589   0.07995   0.08268   0.08376   0.08596
 Alpha virt. eigenvalues --    0.08884   0.09092   0.09389   0.09450   0.10096
 Alpha virt. eigenvalues --    0.10178   0.10513   0.10644   0.10878   0.11062
 Alpha virt. eigenvalues --    0.11208   0.11306   0.11610   0.11746   0.12334
 Alpha virt. eigenvalues --    0.12461   0.12501   0.12911   0.13194   0.13425
 Alpha virt. eigenvalues --    0.13592   0.13852   0.14070   0.14592   0.14673
 Alpha virt. eigenvalues --    0.14972   0.15127   0.15406   0.15643   0.15949
 Alpha virt. eigenvalues --    0.16197   0.16509   0.16855   0.17262   0.17291
 Alpha virt. eigenvalues --    0.17669   0.17753   0.17970   0.18080   0.18275
 Alpha virt. eigenvalues --    0.18384   0.18536   0.18624   0.18917   0.18996
 Alpha virt. eigenvalues --    0.19298   0.19452   0.19692   0.20059   0.20172
 Alpha virt. eigenvalues --    0.20496   0.20641   0.20789   0.20958   0.21135
 Alpha virt. eigenvalues --    0.21295   0.21538   0.21828   0.22092   0.22160
 Alpha virt. eigenvalues --    0.22456   0.22615   0.22687   0.22900   0.23127
 Alpha virt. eigenvalues --    0.23339   0.23389   0.23582   0.23824   0.24039
 Alpha virt. eigenvalues --    0.24352   0.24459   0.24595   0.24847   0.25041
 Alpha virt. eigenvalues --    0.25236   0.25427   0.25521   0.25741   0.25837
 Alpha virt. eigenvalues --    0.25983   0.26394   0.26623   0.26713   0.27116
 Alpha virt. eigenvalues --    0.27266   0.27513   0.27655   0.27907   0.28153
 Alpha virt. eigenvalues --    0.28452   0.28562   0.28888   0.28934   0.29114
 Alpha virt. eigenvalues --    0.29324   0.29699   0.30017   0.30497   0.30726
 Alpha virt. eigenvalues --    0.30736   0.31184   0.31386   0.31596   0.31948
 Alpha virt. eigenvalues --    0.32092   0.32296   0.32788   0.32874   0.33352
 Alpha virt. eigenvalues --    0.33809   0.34315   0.34464   0.35002   0.35524
 Alpha virt. eigenvalues --    0.35905   0.36399   0.36418   0.36810   0.37152
 Alpha virt. eigenvalues --    0.37350   0.37792   0.38081   0.38189   0.38922
 Alpha virt. eigenvalues --    0.39097   0.39368   0.39715   0.40278   0.40978
 Alpha virt. eigenvalues --    0.41059   0.41333   0.41581   0.41881   0.42344
 Alpha virt. eigenvalues --    0.42590   0.43255   0.43611   0.43996   0.44380
 Alpha virt. eigenvalues --    0.44545   0.44963   0.45170   0.45639   0.45832
 Alpha virt. eigenvalues --    0.46006   0.46611   0.46955   0.47086   0.47637
 Alpha virt. eigenvalues --    0.47744   0.48030   0.48328   0.48762   0.49126
 Alpha virt. eigenvalues --    0.49831   0.50138   0.50464   0.50860   0.51454
 Alpha virt. eigenvalues --    0.51652   0.51999   0.52352   0.53204   0.53791
 Alpha virt. eigenvalues --    0.54170   0.55018   0.55566   0.55750   0.56196
 Alpha virt. eigenvalues --    0.56463   0.56872   0.57378   0.58287   0.58347
 Alpha virt. eigenvalues --    0.58538   0.58765   0.59240   0.59493   0.60113
 Alpha virt. eigenvalues --    0.60278   0.60480   0.61657   0.61855   0.62204
 Alpha virt. eigenvalues --    0.62838   0.62932   0.63336   0.63916   0.64056
 Alpha virt. eigenvalues --    0.64657   0.65155   0.65568   0.66157   0.66231
 Alpha virt. eigenvalues --    0.66473   0.66966   0.67016   0.67639   0.67782
 Alpha virt. eigenvalues --    0.68067   0.68296   0.68407   0.68889   0.69329
 Alpha virt. eigenvalues --    0.69633   0.69677   0.70034   0.70283   0.70678
 Alpha virt. eigenvalues --    0.70882   0.71028   0.71360   0.71589   0.71819
 Alpha virt. eigenvalues --    0.72197   0.72590   0.72955   0.73270   0.73462
 Alpha virt. eigenvalues --    0.73705   0.73957   0.74310   0.74794   0.75148
 Alpha virt. eigenvalues --    0.75629   0.75813   0.76353   0.76556   0.77015
 Alpha virt. eigenvalues --    0.77448   0.77890   0.78273   0.78953   0.79227
 Alpha virt. eigenvalues --    0.79306   0.79756   0.80320   0.80513   0.80662
 Alpha virt. eigenvalues --    0.81090   0.81405   0.81825   0.81858   0.82741
 Alpha virt. eigenvalues --    0.83044   0.83850   0.84429   0.85037   0.85509
 Alpha virt. eigenvalues --    0.86117   0.86787   0.87065   0.87983   0.88581
 Alpha virt. eigenvalues --    0.89643   0.90410   0.91105   0.92126   0.92906
 Alpha virt. eigenvalues --    0.93404   0.93956   0.95343   0.96068   0.96593
 Alpha virt. eigenvalues --    0.96734   0.98592   0.99282   1.00042   1.01670
 Alpha virt. eigenvalues --    1.02073   1.02765   1.03145   1.04018   1.05808
 Alpha virt. eigenvalues --    1.06779   1.07223   1.07744   1.08386   1.10168
 Alpha virt. eigenvalues --    1.10270   1.11157   1.12816   1.13256   1.14687
 Alpha virt. eigenvalues --    1.15641   1.16505   1.17191   1.17862   1.19542
 Alpha virt. eigenvalues --    1.19838   1.21142   1.22020   1.22559   1.22859
 Alpha virt. eigenvalues --    1.23358   1.25905   1.25965   1.26818   1.27162
 Alpha virt. eigenvalues --    1.28198   1.29236   1.29686   1.30380   1.31970
 Alpha virt. eigenvalues --    1.32642   1.33286   1.33673   1.34450   1.36509
 Alpha virt. eigenvalues --    1.37109   1.37625   1.38176   1.38998   1.39792
 Alpha virt. eigenvalues --    1.40285   1.41357   1.42266   1.42687   1.43592
 Alpha virt. eigenvalues --    1.44096   1.45106   1.47191   1.47933   1.48113
 Alpha virt. eigenvalues --    1.48683   1.49823   1.50471   1.51650   1.51941
 Alpha virt. eigenvalues --    1.52774   1.54000   1.54786   1.55043   1.55101
 Alpha virt. eigenvalues --    1.55994   1.56811   1.57480   1.57999   1.58406
 Alpha virt. eigenvalues --    1.58771   1.59224   1.59765   1.60116   1.60823
 Alpha virt. eigenvalues --    1.61136   1.61746   1.62283   1.62524   1.62736
 Alpha virt. eigenvalues --    1.63537   1.63790   1.64551   1.64609   1.64940
 Alpha virt. eigenvalues --    1.65508   1.66259   1.66419   1.67019   1.67481
 Alpha virt. eigenvalues --    1.67603   1.68014   1.68479   1.69384   1.69907
 Alpha virt. eigenvalues --    1.70043   1.71160   1.71974   1.72101   1.73119
 Alpha virt. eigenvalues --    1.73333   1.73916   1.74543   1.74778   1.76091
 Alpha virt. eigenvalues --    1.76107   1.77519   1.78197   1.78694   1.79588
 Alpha virt. eigenvalues --    1.80352   1.81246   1.82849   1.83504   1.83990
 Alpha virt. eigenvalues --    1.84624   1.85524   1.85982   1.86962   1.87121
 Alpha virt. eigenvalues --    1.87511   1.88013   1.90072   1.91041   1.92195
 Alpha virt. eigenvalues --    1.92482   1.93708   1.94276   1.94443   1.96201
 Alpha virt. eigenvalues --    1.97375   1.98292   1.98789   2.01155   2.02233
 Alpha virt. eigenvalues --    2.02704   2.02942   2.04034   2.04791   2.06038
 Alpha virt. eigenvalues --    2.06736   2.07724   2.08143   2.09630   2.10009
 Alpha virt. eigenvalues --    2.11538   2.13912   2.15216   2.16313   2.17372
 Alpha virt. eigenvalues --    2.18263   2.19822   2.20622   2.21637   2.22123
 Alpha virt. eigenvalues --    2.22429   2.23542   2.25705   2.27039   2.28132
 Alpha virt. eigenvalues --    2.28660   2.30297   2.30757   2.32999   2.33442
 Alpha virt. eigenvalues --    2.35243   2.36222   2.38019   2.39451   2.43070
 Alpha virt. eigenvalues --    2.43997   2.45916   2.46481   2.49308   2.50277
 Alpha virt. eigenvalues --    2.51394   2.51914   2.53542   2.54717   2.55062
 Alpha virt. eigenvalues --    2.55243   2.55714   2.55934   2.56526   2.57190
 Alpha virt. eigenvalues --    2.57358   2.58285   2.58903   2.59967   2.61192
 Alpha virt. eigenvalues --    2.62977   2.63368   2.65136   2.65743   2.66676
 Alpha virt. eigenvalues --    2.67724   2.68034   2.69243   2.70250   2.71162
 Alpha virt. eigenvalues --    2.72119   2.73017   2.73367   2.74750   2.75301
 Alpha virt. eigenvalues --    2.75748   2.77204   2.78015   2.84104   2.84486
 Alpha virt. eigenvalues --    2.85844   2.87072   2.88007   2.88933   2.90112
 Alpha virt. eigenvalues --    2.90892   2.91894   2.93247   2.94437   2.95905
 Alpha virt. eigenvalues --    2.96616   2.97886   2.98425   2.99134   2.99325
 Alpha virt. eigenvalues --    3.00102   3.01207   3.02698   3.03857   3.04760
 Alpha virt. eigenvalues --    3.05064   3.06868   3.07284   3.08914   3.09624
 Alpha virt. eigenvalues --    3.10105   3.10911   3.11790   3.12833   3.13980
 Alpha virt. eigenvalues --    3.15309   3.15900   3.16518   3.17168   3.19015
 Alpha virt. eigenvalues --    3.19726   3.20157   3.20960   3.21059   3.22304
 Alpha virt. eigenvalues --    3.22790   3.24264   3.25284   3.25516   3.26280
 Alpha virt. eigenvalues --    3.27155   3.27455   3.27828   3.29203   3.29884
 Alpha virt. eigenvalues --    3.30338   3.31279   3.31707   3.33062   3.33773
 Alpha virt. eigenvalues --    3.34690   3.36067   3.37507   3.38772   3.39504
 Alpha virt. eigenvalues --    3.40177   3.40899   3.41988   3.42748   3.46049
 Alpha virt. eigenvalues --    3.47252   3.48127   3.50216   3.52241   3.53486
 Alpha virt. eigenvalues --    3.55156   3.59576   3.61123   3.65105   3.74805
 Alpha virt. eigenvalues --    3.77535   3.80931   3.81421   3.87572   3.89195
 Alpha virt. eigenvalues --    3.90316   3.96821   3.98917   4.01607   4.03047
 Alpha virt. eigenvalues --    4.04880   4.06587   4.09257   4.10477   4.12539
 Alpha virt. eigenvalues --    4.16685   4.17857   4.18756   4.20791   4.22313
 Alpha virt. eigenvalues --    4.23797   4.25011   4.27835   4.32557   4.46199
 Alpha virt. eigenvalues --    4.61933   5.14504   5.16004   5.17269   5.21538
 Alpha virt. eigenvalues --    5.23894   5.27561   5.31515   5.33102   5.42528
 Alpha virt. eigenvalues --    5.43151   5.56840   5.66803   5.74026   5.78805
 Alpha virt. eigenvalues --    5.83918  23.45473  23.47707  23.51056  23.52137
 Alpha virt. eigenvalues --   23.59718  23.64972  23.66027  23.67312  23.68832
 Alpha virt. eigenvalues --   23.71156  23.74151  23.74993  23.77046  23.78909
 Alpha virt. eigenvalues --   23.79175  23.79893  23.82382  23.84749  23.86859
 Alpha virt. eigenvalues --   23.87194  23.89144  23.90889  23.97017  24.19153
 Alpha virt. eigenvalues --   24.19875  24.24002  49.99127  50.00471  50.01952
 Alpha virt. eigenvalues --   50.03205  50.07667
          Condensed to atoms (all electrons):
 Mulliken atomic charges:
              1
     1  C   -0.205562
     2  C    0.498151
     3  C   -0.219254
     4  C   -0.272677
     5  C    1.648892
     6  C   -1.100379
     7  C   -1.155942
     8  C    0.461146
     9  C    0.817337
    10  C   -0.675724
    11  C   -0.536463
    12  O   -0.168323
    13  C    0.340222
    14  C   -0.190866
    15  C   -1.130227
    16  O   -0.200243
    17  C   -0.202751
    18  C    0.519613
    19  O    0.163986
    20  C   -1.189452
    21  O    0.024762
    22  C   -0.876175
    23  C   -0.417160
    24  O    0.039439
    25  C    1.047897
    26  C   -1.161091
    27  C   -0.990122
    28  C   -0.760178
    29  C   -0.665235
    30  H    0.231016
    31  H    0.277540
    32  C   -1.104345
    33  H    0.201838
    34  H    0.254261
    35  H    0.280411
    36  H    0.275410
    37  H    0.249767
    38  H    0.262989
    39  H    0.259296
    40  H    0.237983
    41  H    0.270774
    42  H    0.293522
    43  H    0.266354
    44  H    0.255573
    45  H    0.274770
    46  H    0.266526
    47  H    0.221240
    48  H    0.280649
    49  H    0.284283
    50  H    0.262878
    51  H    0.228133
    52  H    0.217645
    53  H    0.262928
    54  H    0.250381
    55  H    0.308186
    56  H    0.262149
    57  H    0.266106
    58  H    0.268785
    59  H    0.255991
    60  H    0.254661
    61  H    0.260006
    62  C   -1.117173
    63  H    0.243755
    64  H    0.244968
    65  H    0.247120
 Sum of Mulliken atomic charges =   0.00000
 Mulliken charges with hydrogens summed into heavy atoms:
              1
     1  C   -0.003724
     2  C    0.498151
     3  C    0.058287
     4  C   -0.272677
     5  C    1.648892
     6  C   -0.565708
     7  C   -1.155942
     8  C    0.461146
     9  C    0.817337
    10  C   -0.675724
    11  C   -0.536463
    12  O   -0.168323
    13  C    0.615632
    14  C    0.321890
    15  C   -0.362175
    16  O   -0.200243
    17  C    0.028265
    18  C    0.519613
    19  O    0.163986
    20  C   -0.629576
    21  O    0.280335
    22  C   -0.334879
    23  C   -0.195920
    24  O    0.039439
    25  C    1.047897
    26  C   -0.333281
    27  C   -0.544343
    28  C    0.061318
    29  C    0.131805
    32  C   -0.333687
    62  C   -0.381329
 Sum of Mulliken charges with hydrogens summed into heavy atoms =   0.00000
 Electronic spatial extent (au):  <R**2>=          11563.4996
 Charge=              0.0000 electrons
 Dipole moment (field-independent basis, Debye):
    X=              4.4260    Y=              1.3461    Z=             -3.1352  Tot=              5.5885
 Quadrupole moment (field-independent basis, Debye-Ang):
   XX=           -192.9889   YY=           -179.0445   ZZ=           -188.2482
   XY=              1.1318   XZ=              8.3115   YZ=             -0.7608
 Traceless Quadrupole moment (field-independent basis, Debye-Ang):
   XX=             -6.2284   YY=              7.7161   ZZ=             -1.4877
   XY=              1.1318   XZ=              8.3115   YZ=             -0.7608
 Octapole moment (field-independent basis, Debye-Ang**2):
  XXX=             14.4605  YYY=             42.2841  ZZZ=            -17.9832  XYY=             24.9362
  XXY=            -42.8285  XXZ=            -22.2457  XZZ=             25.9191  YZZ=             16.5286
  YYZ=            -34.1113  XYZ=             15.0041
 Hexadecapole moment (field-independent basis, Debye-Ang**3):
 XXXX=          -7904.8535 YYYY=          -4675.0261 ZZZZ=          -3380.7490 XXXY=            -37.1554
 XXXZ=             67.3002 YYYX=            -52.7128 YYYZ=            -12.8818 ZZZX=              2.6925
 ZZZY=              5.3264 XXYY=          -2013.0082 XXZZ=          -1871.6588 YYZZ=          -1324.2012
 XXYZ=            -21.0828 YYXZ=            -13.5585 ZZXY=            -43.9315
 N-N= 3.501007013604D+03 E-N=-1.023504330940D+04  KE= 1.381919693026D+03
 1\1\GINC-B0600\FOpt\RB3LYP\6-311+G(d)\C26H34O5\CAOFEI\13-Apr-2021\0\\#
  opt b3lyp/6-311+g(d) geom=connectivity\\Title Card Required\\0,1\C,1.
 8276331101,0.1477412809,3.1213211964\C,2.029232158,1.3111628961,2.5009
 709275\C,2.0086785143,1.4201239488,0.9943634651\C,1.5321645387,0.15728
 4877,0.2062512931\C,0.9929332801,-1.0678826369,1.0068967747\C,1.60867,
 -1.163616158,2.428163858\C,0.507026382,0.7184592513,-0.8186897616\C,-0
 .9141215531,0.7322280165,-0.3035565847\C,-1.4352872836,-0.1877358296,0
 .5367568776\C,-0.5515333326,-1.1812805353,1.1460003495\C,-2.8911836534
 ,-0.136296834,0.962760952\O,-3.3095786982,0.8328147462,1.5578822951\C,
 -3.7771225502,-1.3140558901,0.5709904979\C,-4.0778921705,-1.2143458781
 ,-0.9475082604\C,-5.0413242686,-1.3681684216,1.4308906703\O,-0.9961346
 103,-2.0974095672,1.8252981558\C,0.7348470161,2.2373306175,-0.95226596
 33\C,-0.6442080369,2.7562159457,-1.4246422902\O,-1.5808353071,1.776027
 8336,-0.7985845703\C,1.1544865829,2.6121035554,0.4784410417\O,0.511340
 6774,-0.0016813102,-2.0384677617\C,1.505988811,-2.2600895877,0.1561667
 208\C,2.8740362446,-1.7590087534,-0.3069063621\O,2.6488611217,-0.35217
 41501,-0.5785494886\C,3.4858613384,-2.4611936084,-1.4980098295\C,2.851
 5979797,-2.2940383694,-2.8547664699\C,4.5612135379,-3.2305944992,-1.31
 44608809\C,-0.8272454998,2.6796412832,-2.9392054977\C,-1.0528736657,4.
 1270937217,-0.8998025107\H,1.5197731304,2.4640536314,-1.6776266274\H,3
 .0393932429,1.5822119928,0.6540070823\C,2.3427258598,2.5744952469,3.26
 13574618\H,1.8737044459,0.1148574603,4.2081223764\H,2.5713767496,-1.68
 81871327,2.3719888353\H,0.9640017021,-1.8138201953,3.0225030523\H,-3.1
 821916818,-2.2186192614,0.7363513743\H,-4.7033459816,-0.3319783634,-1.
 1269807545\H,-3.1420862788,-1.0412122629,-1.4895366846\H,-4.7899747527
 ,-1.406378453,2.4931234482\H,-5.6339481225,-2.2553383011,1.1970718335\
 H,-5.6656809772,-0.4855102588,1.2739582324\H,0.2712282827,2.7195899872
 ,1.1133475307\H,1.6981699061,3.5572130472,0.5245938948\H,1.4385329486,
 -0.2486174637,-2.1830687685\H,1.5676821819,-3.1782449129,0.7417433372\
 H,0.8500188745,-2.4423433378,-0.6976722149\H,3.5882264659,-1.826445256
 3,0.5205651049\H,2.999142108,-1.2771448867,-3.2352223878\H,1.774709691
 9,-2.4850665477,-2.8403116965\H,3.3002945894,-2.9742655427,-3.58072675
 71\H,5.0029864276,-3.7989732339,-2.126813816\H,5.0376689836,-3.3268014
 142,-0.34355748\H,-1.8677138682,2.8870434982,-3.2002580707\H,-0.200776
 1863,3.4306867295,-3.4293141227\H,-0.5555876038,1.6974914672,-3.322603
 3149\H,-0.366132085,4.8905335319,-1.276187423\H,-1.0539715928,4.168517
 2813,0.1889113685\H,-2.0580675725,4.3780326074,-1.2452921835\H,2.41646
 35768,2.3820109534,4.3334616885\H,3.2954356738,3.0073573261,2.93198255
 62\H,1.580770857,3.3469190864,3.1145232281\C,-4.7559827746,-2.45895188
 89,-1.5266007923\H,-4.8912443136,-2.3567582588,-2.6073372068\H,-5.7433
 290104,-2.63313763,-1.0918880299\H,-4.15349356,-3.3562681894,-1.352841
 9186\\Version=EM64L-G09RevB.01\State=1-A\HF=-1387.6491961\RMSD=5.308e-
 09\RMSF=2.914e-06\Dipole=1.7774299,0.6033997,-1.1449448\Quadrupole=-4.
 5367535,5.7186216,-1.1818682,0.5273588,6.2743768,0.1185436\PG=C01 [X(C
 26H34O5)]\\@


 THESE ARE THE TIMES THAT TRY MENS SOULS.
 THE SUMMER SOLDIER AND THE SUNSHINE PATRIOT WILL IN THIS CRISIS,
 SHRINK FROM THE SERVICE OF HIS COUNTRY.  BUT HE THAT STANDS NOW,
 DESERVES THE LOVE AND THANKS OF MAN AND WOMAN.
 TYRANNY, LIKE HELL, IS NOT EASILY CONQUERED,
 YET WE HAVE THIS CONSOLATION WITH US,
 THAT THE HARDER THE CONFLICT, THE MORE GLORIOUS THE TRIUMPH.
 WHAT WE OBTAIN TOO CHEAP, WE ESTEEM TOO LIGHTLY, 
 'TIS DEARNESS ONLY THAT GIVES EVERYTHING ITS VALUE.

                                              -- TOM PAINE
 Job cpu time:  1 days 19 hours 47 minutes 47.5 seconds.
 File lengths (MBytes):  RWF=    372 Int=      0 D2E=      0 Chk=     38 Scr=      1
 Normal termination of Gaussian 09 at Tue Apr 13 22:38:05 2021.
