 Entering Gaussian System, Link 0=g09
 Initial command:
 /public/software/g09/g09/l1.exe /tmp/Gau-28096.inp -scrdir=/tmp/
 Entering Link 1 = /public/software/g09/g09/l1.exe PID=     28097.
  
 Copyright (c) 1988,1990,1992,1993,1995,1998,2003,2009,2010,
            Gaussian, Inc.  All Rights Reserved.
  
 This is part of the Gaussian(R) 09 program.  It is based on
 the Gaussian(R) 03 system (copyright 2003, Gaussian, Inc.),
 the Gaussian(R) 98 system (copyright 1998, Gaussian, Inc.),
 the Gaussian(R) 94 system (copyright 1995, Gaussian, Inc.),
 the Gaussian 92(TM) system (copyright 1992, Gaussian, Inc.),
 the Gaussian 90(TM) system (copyright 1990, Gaussian, Inc.),
 the Gaussian 88(TM) system (copyright 1988, Gaussian, Inc.),
 the Gaussian 86(TM) system (copyright 1986, Carnegie Mellon
 University), and the Gaussian 82(TM) system (copyright 1983,
 Carnegie Mellon University). Gaussian is a federally registered
 trademark of Gaussian, Inc.
  
 This software contains proprietary and confidential information,
 including trade secrets, belonging to Gaussian, Inc.
  
 This software is provided under written license and may be
 used, copied, transmitted, or stored only in accord with that
 written license.
  
 The following legend is applicable only to US Government
 contracts under FAR:
  
                    RESTRICTED RIGHTS LEGEND
  
 Use, reproduction and disclosure by the US Government is
 subject to restrictions as set forth in subparagraphs (a)
 and (c) of the Commercial Computer Software - Restricted
 Rights clause in FAR 52.227-19.
  
 Gaussian, Inc.
 340 Quinnipiac St., Bldg. 40, Wallingford CT 06492
  
  
 ---------------------------------------------------------------
 Warning -- This program may not be used in any manner that
 competes with the business of Gaussian, Inc. or will provide
 assistance to any competitor of Gaussian, Inc.  The licensee
 of this program is prohibited from giving any competitor of
 Gaussian, Inc. access to this program.  By using this program,
 the user acknowledges that Gaussian, Inc. is engaged in the
 business of creating and licensing software in the field of
 computational chemistry and represents and warrants to the
 licensee that it is not a competitor of Gaussian, Inc. and that
 it will not use this program in any manner prohibited above.
 ---------------------------------------------------------------
  

 Cite this work as:
 Gaussian 09, Revision B.01,
 M. J. Frisch, G. W. Trucks, H. B. Schlegel, G. E. Scuseria, 
 M. A. Robb, J. R. Cheeseman, G. Scalmani, V. Barone, B. Mennucci, 
 G. A. Petersson, H. Nakatsuji, M. Caricato, X. Li, H. P. Hratchian, 
 A. F. Izmaylov, J. Bloino, G. Zheng, J. L. Sonnenberg, M. Hada, 
 M. Ehara, K. Toyota, R. Fukuda, J. Hasegawa, M. Ishida, T. Nakajima, 
 Y. Honda, O. Kitao, H. Nakai, T. Vreven, J. A. Montgomery, Jr., 
 J. E. Peralta, F. Ogliaro, M. Bearpark, J. J. Heyd, E. Brothers, 
 K. N. Kudin, V. N. Staroverov, T. Keith, R. Kobayashi, J. Normand, 
 K. Raghavachari, A. Rendell, J. C. Burant, S. S. Iyengar, J. Tomasi, 
 M. Cossi, N. Rega, J. M. Millam, M. Klene, J. E. Knox, J. B. Cross, 
 V. Bakken, C. Adamo, J. Jaramillo, R. Gomperts, R. E. Stratmann, 
 O. Yazyev, A. J. Austin, R. Cammi, C. Pomelli, J. W. Ochterski, 
 R. L. Martin, K. Morokuma, V. G. Zakrzewski, G. A. Voth, 
 P. Salvador, J. J. Dannenberg, S. Dapprich, A. D. Daniels, 
 O. Farkas, J. B. Foresman, J. V. Ortiz, J. Cioslowski, 
 and D. J. Fox, Gaussian, Inc., Wallingford CT, 2010.
 
 ******************************************
 Gaussian 09:  EM64L-G09RevB.01 12-Aug-2010
                13-Apr-2021 
 ******************************************
 %mem=600MW
 %nprocshared=10
 Will use up to   10 processors via shared memory.
 ----------------------------------------
 # opt b3lyp/6-311+g(d) geom=connectivity
 ----------------------------------------
 1/14=-1,18=20,19=15,26=3,38=1,57=2/1,3;
 2/9=110,12=2,17=6,18=5,40=1/2;
 3/5=4,6=6,7=11,11=2,16=1,25=1,30=1,71=1,74=-5/1,2,3;
 4//1;
 5/5=2,38=5/2;
 6/7=2,8=2,9=2,10=2,28=1/1;
 7//1,2,3,16;
 1/14=-1,18=20,19=15/3(2);
 2/9=110/2;
 99//99;
 2/9=110/2;
 3/5=4,6=6,7=11,11=2,16=1,25=1,30=1,71=1,74=-5/1,2,3;
 4/5=5,16=3/1;
 5/5=2,38=5/2;
 7//1,2,3,16;
 1/14=-1,18=20,19=15/3(-5);
 2/9=110/2;
 6/7=2,8=2,9=2,10=2,19=2,28=1/1;
 99/9=1/99;
 -------------------
 Title Card Required
 -------------------
 Symbolic Z-matrix:
 Charge =  0 Multiplicity = 1
 C                     1.44851   0.2717    3.21903 
 C                     1.31278   1.47979   2.66088 
 C                     1.46454   1.68127   1.16774 
 C                     1.49318   0.38267   0.30166 
 C                     1.26532  -0.98751   0.99688 
 C                     1.77497  -0.98398   2.46047 
 C                     0.47781   0.65811  -0.84334 
 C                    -0.93331   0.23954  -0.49628 
 C                    -1.26268  -0.79736   0.3057 
 C                    -0.19093  -1.52901   1.00068 
 C                    -2.69743  -1.15338   0.62663 
 O                    -3.08601  -1.13781   1.77942 
 C                    -3.58972  -1.59235  -0.53471 
 C                    -5.08139  -1.3885   -0.23095 
 C                    -3.26326  -3.07435  -0.83082 
 O                    -0.41372  -2.57991   1.58692 
 C                     0.26357   2.18453  -0.93692 
 C                    -1.14301   2.29729  -1.57317 
 O                    -1.82622   1.0847   -1.04232 
 C                     0.37671   2.6038    0.5426 
 O                     0.84515   0.01156  -2.04757 
 C                     2.13793  -1.93334   0.12921 
 C                     3.34175  -1.06173  -0.21135 
 O                     2.79549   0.28434  -0.33086 
 C                     4.14141  -1.36407  -1.4618 
 C                     5.25758  -0.38876  -1.74992 
 C                     3.90893  -2.43222  -2.23108 
 C                    -1.11724   2.18994  -3.09965 
 C                    -1.98664   3.48853  -1.12726 
 H                     1.02763   2.66459  -1.55623 
 H                     2.44007   2.15503   0.98637 
 C                     1.06923   2.71586   3.4915 
 H                     1.36219   0.17805   4.30071 
 H                     2.86554  -1.13222   2.4713 
 H                     1.34836  -1.86118   2.95613 
 H                    -3.31008  -1.00143  -1.4168 
 H                    -5.66275  -1.87301  -1.0271 
 H                    -5.32205  -1.91143   0.70191 
 H                    -3.8271   -3.4157   -1.7061 
 H                    -3.53366  -3.70554   0.02268 
 H                    -2.19728  -3.22291  -1.03263 
 H                     0.61778   3.66382   0.6632 
 H                    -0.57672   2.43119   1.05394 
 H                     1.82257   0.05253  -2.05065 
 H                     1.59832  -2.21084  -0.78056 
 H                     2.40476  -2.84572   0.66871 
 H                     4.04455  -1.04663   0.63669 
 H                     4.87098   0.63172  -1.85157 
 H                     5.98083  -0.36839  -0.923 
 H                     5.79446  -0.65293  -2.66571 
 H                     4.52078  -2.63529  -3.1065 
 H                     3.12025  -3.14733  -2.02089 
 H                    -2.13811   2.08798  -3.48229 
 H                    -0.68016   3.09792  -3.53099 
 H                    -0.5269    1.32988  -3.42092 
 H                    -1.51605   4.42169  -1.45631 
 H                    -2.98251   3.43251  -1.57813 
 H                    -2.10721   3.52383  -0.04213 
 H                     1.04721   2.47472   4.55862 
 H                     1.85849   3.4643    3.3301 
 H                     0.11869   3.20365   3.23977 
 C                    -5.49623   0.08239  -0.11682 
 H                    -6.57337   0.17239   0.06504 
 H                    -4.97605   0.57397   0.71144 
 H                    -5.26511   0.63457  -1.03638 
 

 GradGradGradGradGradGradGradGradGradGradGradGradGradGradGradGradGradGrad
 Berny optimization.
 Initialization pass.
                           ----------------------------
                           !    Initial Parameters    !
                           ! (Angstroms and Degrees)  !
 --------------------------                            --------------------------
 ! Name  Definition              Value          Derivative Info.                !
 --------------------------------------------------------------------------------
 ! R1    R(1,2)                  1.3377         estimate D2E/DX2                !
 ! R2    R(1,6)                  1.5029         estimate D2E/DX2                !
 ! R3    R(1,33)                 1.0891         estimate D2E/DX2                !
 ! R4    R(2,3)                  1.5143         estimate D2E/DX2                !
 ! R5    R(2,32)                 1.509          estimate D2E/DX2                !
 ! R6    R(3,4)                  1.5612         estimate D2E/DX2                !
 ! R7    R(3,20)                 1.5573         estimate D2E/DX2                !
 ! R8    R(3,31)                 1.0995         estimate D2E/DX2                !
 ! R9    R(4,5)                  1.5533         estimate D2E/DX2                !
 ! R10   R(4,7)                  1.555          estimate D2E/DX2                !
 ! R11   R(4,24)                 1.4511         estimate D2E/DX2                !
 ! R12   R(5,6)                  1.5498         estimate D2E/DX2                !
 ! R13   R(5,10)                 1.5537         estimate D2E/DX2                !
 ! R14   R(5,22)                 1.5521         estimate D2E/DX2                !
 ! R15   R(6,34)                 1.1007         estimate D2E/DX2                !
 ! R16   R(6,35)                 1.0941         estimate D2E/DX2                !
 ! R17   R(7,8)                  1.5123         estimate D2E/DX2                !
 ! R18   R(7,17)                 1.5442         estimate D2E/DX2                !
 ! R19   R(7,21)                 1.4153         estimate D2E/DX2                !
 ! R20   R(8,9)                  1.3516         estimate D2E/DX2                !
 ! R21   R(8,19)                 1.3453         estimate D2E/DX2                !
 ! R22   R(9,10)                 1.4721         estimate D2E/DX2                !
 ! R23   R(9,11)                 1.5127         estimate D2E/DX2                !
 ! R24   R(10,16)                1.2238         estimate D2E/DX2                !
 ! R25   R(11,12)                1.2166         estimate D2E/DX2                !
 ! R26   R(11,13)                1.5289         estimate D2E/DX2                !
 ! R27   R(13,14)                1.5359         estimate D2E/DX2                !
 ! R28   R(13,15)                1.5462         estimate D2E/DX2                !
 ! R29   R(13,36)                1.0979         estimate D2E/DX2                !
 ! R30   R(14,37)                1.0984         estimate D2E/DX2                !
 ! R31   R(14,38)                1.0962         estimate D2E/DX2                !
 ! R32   R(14,62)                1.5325         estimate D2E/DX2                !
 ! R33   R(15,39)                1.0957         estimate D2E/DX2                !
 ! R34   R(15,40)                1.0954         estimate D2E/DX2                !
 ! R35   R(15,41)                1.095          estimate D2E/DX2                !
 ! R36   R(17,18)                1.5479         estimate D2E/DX2                !
 ! R37   R(17,20)                1.5419         estimate D2E/DX2                !
 ! R38   R(17,30)                1.0944         estimate D2E/DX2                !
 ! R39   R(18,19)                1.4896         estimate D2E/DX2                !
 ! R40   R(18,28)                1.5305         estimate D2E/DX2                !
 ! R41   R(18,29)                1.5263         estimate D2E/DX2                !
 ! R42   R(20,42)                1.0938         estimate D2E/DX2                !
 ! R43   R(20,43)                1.0956         estimate D2E/DX2                !
 ! R44   R(21,44)                0.9783         estimate D2E/DX2                !
 ! R45   R(22,23)                1.5248         estimate D2E/DX2                !
 ! R46   R(22,45)                1.0936         estimate D2E/DX2                !
 ! R47   R(22,46)                1.093          estimate D2E/DX2                !
 ! R48   R(23,24)                1.4576         estimate D2E/DX2                !
 ! R49   R(23,25)                1.5148         estimate D2E/DX2                !
 ! R50   R(23,47)                1.1015         estimate D2E/DX2                !
 ! R51   R(25,26)                1.51           estimate D2E/DX2                !
 ! R52   R(25,27)                1.3367         estimate D2E/DX2                !
 ! R53   R(26,48)                1.096          estimate D2E/DX2                !
 ! R54   R(26,49)                1.0988         estimate D2E/DX2                !
 ! R55   R(26,50)                1.0939         estimate D2E/DX2                !
 ! R56   R(27,51)                1.0872         estimate D2E/DX2                !
 ! R57   R(27,52)                1.0852         estimate D2E/DX2                !
 ! R58   R(28,53)                1.095          estimate D2E/DX2                !
 ! R59   R(28,54)                1.0961         estimate D2E/DX2                !
 ! R60   R(28,55)                1.0915         estimate D2E/DX2                !
 ! R61   R(29,56)                1.0957         estimate D2E/DX2                !
 ! R62   R(29,57)                1.0946         estimate D2E/DX2                !
 ! R63   R(29,58)                1.0924         estimate D2E/DX2                !
 ! R64   R(32,59)                1.0942         estimate D2E/DX2                !
 ! R65   R(32,60)                1.0996         estimate D2E/DX2                !
 ! R66   R(32,61)                1.0976         estimate D2E/DX2                !
 ! R67   R(62,63)                1.0961         estimate D2E/DX2                !
 ! R68   R(62,64)                1.0946         estimate D2E/DX2                !
 ! R69   R(62,65)                1.0972         estimate D2E/DX2                !
 ! A1    A(2,1,6)              124.4715         estimate D2E/DX2                !
 ! A2    A(2,1,33)             118.9468         estimate D2E/DX2                !
 ! A3    A(6,1,33)             116.5282         estimate D2E/DX2                !
 ! A4    A(1,2,3)              121.427          estimate D2E/DX2                !
 ! A5    A(1,2,32)             121.7673         estimate D2E/DX2                !
 ! A6    A(3,2,32)             116.7394         estimate D2E/DX2                !
 ! A7    A(2,3,4)              115.9873         estimate D2E/DX2                !
 ! A8    A(2,3,20)             113.8682         estimate D2E/DX2                !
 ! A9    A(2,3,31)             107.9925         estimate D2E/DX2                !
 ! A10   A(4,3,20)             106.4314         estimate D2E/DX2                !
 ! A11   A(4,3,31)             104.5137         estimate D2E/DX2                !
 ! A12   A(20,3,31)            107.3548         estimate D2E/DX2                !
 ! A13   A(3,4,5)              118.8661         estimate D2E/DX2                !
 ! A14   A(3,4,7)              104.4288         estimate D2E/DX2                !
 ! A15   A(3,4,24)             108.3392         estimate D2E/DX2                !
 ! A16   A(5,4,7)              112.9576         estimate D2E/DX2                !
 ! A17   A(5,4,24)             105.4844         estimate D2E/DX2                !
 ! A18   A(7,4,24)             106.085          estimate D2E/DX2                !
 ! A19   A(4,5,6)              111.8663         estimate D2E/DX2                !
 ! A20   A(4,5,10)             116.4897         estimate D2E/DX2                !
 ! A21   A(4,5,22)             101.8218         estimate D2E/DX2                !
 ! A22   A(6,5,10)             107.8616         estimate D2E/DX2                !
 ! A23   A(6,5,22)             110.1481         estimate D2E/DX2                !
 ! A24   A(10,5,22)            108.4179         estimate D2E/DX2                !
 ! A25   A(1,6,5)              114.0242         estimate D2E/DX2                !
 ! A26   A(1,6,34)             108.8318         estimate D2E/DX2                !
 ! A27   A(1,6,35)             110.885          estimate D2E/DX2                !
 ! A28   A(5,6,34)             109.5618         estimate D2E/DX2                !
 ! A29   A(5,6,35)             107.3235         estimate D2E/DX2                !
 ! A30   A(34,6,35)            105.8968         estimate D2E/DX2                !
 ! A31   A(4,7,8)              113.0351         estimate D2E/DX2                !
 ! A32   A(4,7,17)             108.0778         estimate D2E/DX2                !
 ! A33   A(4,7,21)             112.094          estimate D2E/DX2                !
 ! A34   A(8,7,17)              99.0936         estimate D2E/DX2                !
 ! A35   A(8,7,21)             108.1211         estimate D2E/DX2                !
 ! A36   A(17,7,21)            115.8492         estimate D2E/DX2                !
 ! A37   A(7,8,9)              125.1635         estimate D2E/DX2                !
 ! A38   A(7,8,19)             110.6282         estimate D2E/DX2                !
 ! A39   A(9,8,19)             124.1296         estimate D2E/DX2                !
 ! A40   A(8,9,10)             118.9477         estimate D2E/DX2                !
 ! A41   A(8,9,11)             122.5186         estimate D2E/DX2                !
 ! A42   A(10,9,11)            118.2558         estimate D2E/DX2                !
 ! A43   A(5,10,9)             120.5326         estimate D2E/DX2                !
 ! A44   A(5,10,16)            118.1052         estimate D2E/DX2                !
 ! A45   A(9,10,16)            121.36           estimate D2E/DX2                !
 ! A46   A(9,11,12)            120.0625         estimate D2E/DX2                !
 ! A47   A(9,11,13)            117.3847         estimate D2E/DX2                !
 ! A48   A(12,11,13)           122.4802         estimate D2E/DX2                !
 ! A49   A(11,13,14)           112.2394         estimate D2E/DX2                !
 ! A50   A(11,13,15)           107.3042         estimate D2E/DX2                !
 ! A51   A(11,13,36)           107.8835         estimate D2E/DX2                !
 ! A52   A(14,13,15)           111.7254         estimate D2E/DX2                !
 ! A53   A(14,13,36)           109.5621         estimate D2E/DX2                !
 ! A54   A(15,13,36)           107.9534         estimate D2E/DX2                !
 ! A55   A(13,14,37)           108.1882         estimate D2E/DX2                !
 ! A56   A(13,14,38)           108.5557         estimate D2E/DX2                !
 ! A57   A(13,14,62)           113.8921         estimate D2E/DX2                !
 ! A58   A(37,14,38)           106.8698         estimate D2E/DX2                !
 ! A59   A(37,14,62)           109.5152         estimate D2E/DX2                !
 ! A60   A(38,14,62)           109.5754         estimate D2E/DX2                !
 ! A61   A(13,15,39)           110.0565         estimate D2E/DX2                !
 ! A62   A(13,15,40)           110.5456         estimate D2E/DX2                !
 ! A63   A(13,15,41)           111.7693         estimate D2E/DX2                !
 ! A64   A(39,15,40)           108.4137         estimate D2E/DX2                !
 ! A65   A(39,15,41)           108.1471         estimate D2E/DX2                !
 ! A66   A(40,15,41)           107.801          estimate D2E/DX2                !
 ! A67   A(7,17,18)            102.8846         estimate D2E/DX2                !
 ! A68   A(7,17,20)            101.5636         estimate D2E/DX2                !
 ! A69   A(7,17,30)            111.7784         estimate D2E/DX2                !
 ! A70   A(18,17,20)           116.1849         estimate D2E/DX2                !
 ! A71   A(18,17,30)           111.7054         estimate D2E/DX2                !
 ! A72   A(20,17,30)           111.8683         estimate D2E/DX2                !
 ! A73   A(17,18,19)           102.1804         estimate D2E/DX2                !
 ! A74   A(17,18,28)           112.9272         estimate D2E/DX2                !
 ! A75   A(17,18,29)           116.0425         estimate D2E/DX2                !
 ! A76   A(19,18,28)           107.8218         estimate D2E/DX2                !
 ! A77   A(19,18,29)           106.1233         estimate D2E/DX2                !
 ! A78   A(28,18,29)           110.8207         estimate D2E/DX2                !
 ! A79   A(8,19,18)            110.5875         estimate D2E/DX2                !
 ! A80   A(3,20,17)            105.9832         estimate D2E/DX2                !
 ! A81   A(3,20,42)            112.079          estimate D2E/DX2                !
 ! A82   A(3,20,43)            109.0993         estimate D2E/DX2                !
 ! A83   A(17,20,42)           112.6748         estimate D2E/DX2                !
 ! A84   A(17,20,43)           109.9468         estimate D2E/DX2                !
 ! A85   A(42,20,43)           107.0397         estimate D2E/DX2                !
 ! A86   A(7,21,44)            104.0563         estimate D2E/DX2                !
 ! A87   A(5,22,23)            102.7326         estimate D2E/DX2                !
 ! A88   A(5,22,45)            110.0178         estimate D2E/DX2                !
 ! A89   A(5,22,46)            111.7159         estimate D2E/DX2                !
 ! A90   A(23,22,45)           110.4153         estimate D2E/DX2                !
 ! A91   A(23,22,46)           113.2454         estimate D2E/DX2                !
 ! A92   A(45,22,46)           108.6184         estimate D2E/DX2                !
 ! A93   A(22,23,24)           104.4964         estimate D2E/DX2                !
 ! A94   A(22,23,25)           119.149          estimate D2E/DX2                !
 ! A95   A(22,23,47)           109.8534         estimate D2E/DX2                !
 ! A96   A(24,23,25)           108.3299         estimate D2E/DX2                !
 ! A97   A(24,23,47)           106.8332         estimate D2E/DX2                !
 ! A98   A(25,23,47)           107.5454         estimate D2E/DX2                !
 ! A99   A(4,24,23)            111.2954         estimate D2E/DX2                !
 ! A100  A(23,25,26)           114.76           estimate D2E/DX2                !
 ! A101  A(23,25,27)           122.8725         estimate D2E/DX2                !
 ! A102  A(26,25,27)           122.3361         estimate D2E/DX2                !
 ! A103  A(25,26,48)           111.0            estimate D2E/DX2                !
 ! A104  A(25,26,49)           110.7891         estimate D2E/DX2                !
 ! A105  A(25,26,50)           111.5018         estimate D2E/DX2                !
 ! A106  A(48,26,49)           106.5432         estimate D2E/DX2                !
 ! A107  A(48,26,50)           108.6825         estimate D2E/DX2                !
 ! A108  A(49,26,50)           108.1469         estimate D2E/DX2                !
 ! A109  A(25,27,51)           120.9835         estimate D2E/DX2                !
 ! A110  A(25,27,52)           122.7873         estimate D2E/DX2                !
 ! A111  A(51,27,52)           116.2251         estimate D2E/DX2                !
 ! A112  A(18,28,53)           109.8385         estimate D2E/DX2                !
 ! A113  A(18,28,54)           109.9434         estimate D2E/DX2                !
 ! A114  A(18,28,55)           110.9738         estimate D2E/DX2                !
 ! A115  A(53,28,54)           108.1421         estimate D2E/DX2                !
 ! A116  A(53,28,55)           109.1485         estimate D2E/DX2                !
 ! A117  A(54,28,55)           108.7363         estimate D2E/DX2                !
 ! A118  A(18,29,56)           109.8509         estimate D2E/DX2                !
 ! A119  A(18,29,57)           110.0348         estimate D2E/DX2                !
 ! A120  A(18,29,58)           112.1137         estimate D2E/DX2                !
 ! A121  A(56,29,57)           108.0973         estimate D2E/DX2                !
 ! A122  A(56,29,58)           108.5541         estimate D2E/DX2                !
 ! A123  A(57,29,58)           108.0839         estimate D2E/DX2                !
 ! A124  A(2,32,59)            111.0711         estimate D2E/DX2                !
 ! A125  A(2,32,60)            111.1546         estimate D2E/DX2                !
 ! A126  A(2,32,61)            112.1816         estimate D2E/DX2                !
 ! A127  A(59,32,60)           107.9133         estimate D2E/DX2                !
 ! A128  A(59,32,61)           107.708          estimate D2E/DX2                !
 ! A129  A(60,32,61)           106.5849         estimate D2E/DX2                !
 ! A130  A(14,62,63)           110.9272         estimate D2E/DX2                !
 ! A131  A(14,62,64)           111.0227         estimate D2E/DX2                !
 ! A132  A(14,62,65)           111.3196         estimate D2E/DX2                !
 ! A133  A(63,62,64)           107.7325         estimate D2E/DX2                !
 ! A134  A(63,62,65)           107.7417         estimate D2E/DX2                !
 ! A135  A(64,62,65)           107.9407         estimate D2E/DX2                !
 ! D1    D(6,1,2,3)              0.8431         estimate D2E/DX2                !
 ! D2    D(6,1,2,32)          -176.0997         estimate D2E/DX2                !
 ! D3    D(33,1,2,3)           178.0873         estimate D2E/DX2                !
 ! D4    D(33,1,2,32)            1.1445         estimate D2E/DX2                !
 ! D5    D(2,1,6,5)            -29.4368         estimate D2E/DX2                !
 ! D6    D(2,1,6,34)            93.2012         estimate D2E/DX2                !
 ! D7    D(2,1,6,35)          -150.7026         estimate D2E/DX2                !
 ! D8    D(33,1,6,5)           153.2585         estimate D2E/DX2                !
 ! D9    D(33,1,6,34)          -84.1036         estimate D2E/DX2                !
 ! D10   D(33,1,6,35)           31.9926         estimate D2E/DX2                !
 ! D11   D(1,2,3,4)             12.0695         estimate D2E/DX2                !
 ! D12   D(1,2,3,20)           136.1116         estimate D2E/DX2                !
 ! D13   D(1,2,3,31)          -104.7672         estimate D2E/DX2                !
 ! D14   D(32,2,3,4)          -170.8409         estimate D2E/DX2                !
 ! D15   D(32,2,3,20)          -46.7988         estimate D2E/DX2                !
 ! D16   D(32,2,3,31)           72.3224         estimate D2E/DX2                !
 ! D17   D(1,2,32,59)            1.2325         estimate D2E/DX2                !
 ! D18   D(1,2,32,60)          121.3998         estimate D2E/DX2                !
 ! D19   D(1,2,32,61)         -119.3716         estimate D2E/DX2                !
 ! D20   D(3,2,32,59)         -175.8465         estimate D2E/DX2                !
 ! D21   D(3,2,32,60)          -55.6791         estimate D2E/DX2                !
 ! D22   D(3,2,32,61)           63.5494         estimate D2E/DX2                !
 ! D23   D(2,3,4,5)              4.3464         estimate D2E/DX2                !
 ! D24   D(2,3,4,7)            131.3402         estimate D2E/DX2                !
 ! D25   D(2,3,4,24)          -115.9116         estimate D2E/DX2                !
 ! D26   D(20,3,4,5)          -123.4656         estimate D2E/DX2                !
 ! D27   D(20,3,4,7)             3.5283         estimate D2E/DX2                !
 ! D28   D(20,3,4,24)          116.2764         estimate D2E/DX2                !
 ! D29   D(31,3,4,5)           123.1071         estimate D2E/DX2                !
 ! D30   D(31,3,4,7)          -109.899          estimate D2E/DX2                !
 ! D31   D(31,3,4,24)            2.8492         estimate D2E/DX2                !
 ! D32   D(2,3,20,17)         -154.1505         estimate D2E/DX2                !
 ! D33   D(2,3,20,42)           82.5565         estimate D2E/DX2                !
 ! D34   D(2,3,20,43)          -35.8094         estimate D2E/DX2                !
 ! D35   D(4,3,20,17)          -25.0972         estimate D2E/DX2                !
 ! D36   D(4,3,20,42)         -148.3903         estimate D2E/DX2                !
 ! D37   D(4,3,20,43)           93.2438         estimate D2E/DX2                !
 ! D38   D(31,3,20,17)          86.3662         estimate D2E/DX2                !
 ! D39   D(31,3,20,42)         -36.9268         estimate D2E/DX2                !
 ! D40   D(31,3,20,43)        -155.2927         estimate D2E/DX2                !
 ! D41   D(3,4,5,6)            -30.5999         estimate D2E/DX2                !
 ! D42   D(3,4,5,10)            94.0988         estimate D2E/DX2                !
 ! D43   D(3,4,5,22)          -148.1932         estimate D2E/DX2                !
 ! D44   D(7,4,5,6)           -153.4551         estimate D2E/DX2                !
 ! D45   D(7,4,5,10)           -28.7564         estimate D2E/DX2                !
 ! D46   D(7,4,5,22)            88.9516         estimate D2E/DX2                !
 ! D47   D(24,4,5,6)            91.104          estimate D2E/DX2                !
 ! D48   D(24,4,5,10)         -144.1973         estimate D2E/DX2                !
 ! D49   D(24,4,5,22)          -26.4892         estimate D2E/DX2                !
 ! D50   D(3,4,7,8)            -89.2472         estimate D2E/DX2                !
 ! D51   D(3,4,7,17)            19.3827         estimate D2E/DX2                !
 ! D52   D(3,4,7,21)           148.2485         estimate D2E/DX2                !
 ! D53   D(5,4,7,8)             41.3213         estimate D2E/DX2                !
 ! D54   D(5,4,7,17)           149.9511         estimate D2E/DX2                !
 ! D55   D(5,4,7,21)           -81.183          estimate D2E/DX2                !
 ! D56   D(24,4,7,8)           156.4023         estimate D2E/DX2                !
 ! D57   D(24,4,7,17)          -94.9678         estimate D2E/DX2                !
 ! D58   D(24,4,7,21)           33.898          estimate D2E/DX2                !
 ! D59   D(3,4,24,23)          134.0834         estimate D2E/DX2                !
 ! D60   D(5,4,24,23)            5.7979         estimate D2E/DX2                !
 ! D61   D(7,4,24,23)         -114.2757         estimate D2E/DX2                !
 ! D62   D(4,5,6,1)             41.9053         estimate D2E/DX2                !
 ! D63   D(4,5,6,34)           -80.3327         estimate D2E/DX2                !
 ! D64   D(4,5,6,35)           165.1272         estimate D2E/DX2                !
 ! D65   D(10,5,6,1)           -87.461          estimate D2E/DX2                !
 ! D66   D(10,5,6,34)          150.3009         estimate D2E/DX2                !
 ! D67   D(10,5,6,35)           35.7608         estimate D2E/DX2                !
 ! D68   D(22,5,6,1)           154.3867         estimate D2E/DX2                !
 ! D69   D(22,5,6,34)           32.1486         estimate D2E/DX2                !
 ! D70   D(22,5,6,35)          -82.3915         estimate D2E/DX2                !
 ! D71   D(4,5,10,9)             3.4111         estimate D2E/DX2                !
 ! D72   D(4,5,10,16)         -177.1218         estimate D2E/DX2                !
 ! D73   D(6,5,10,9)           130.1234         estimate D2E/DX2                !
 ! D74   D(6,5,10,16)          -50.4095         estimate D2E/DX2                !
 ! D75   D(22,5,10,9)         -110.6188         estimate D2E/DX2                !
 ! D76   D(22,5,10,16)          68.8483         estimate D2E/DX2                !
 ! D77   D(4,5,22,23)           36.7273         estimate D2E/DX2                !
 ! D78   D(4,5,22,45)          -80.8491         estimate D2E/DX2                !
 ! D79   D(4,5,22,46)          158.4306         estimate D2E/DX2                !
 ! D80   D(6,5,22,23)          -82.0961         estimate D2E/DX2                !
 ! D81   D(6,5,22,45)          160.3275         estimate D2E/DX2                !
 ! D82   D(6,5,22,46)           39.6072         estimate D2E/DX2                !
 ! D83   D(10,5,22,23)         160.0947         estimate D2E/DX2                !
 ! D84   D(10,5,22,45)          42.5183         estimate D2E/DX2                !
 ! D85   D(10,5,22,46)         -78.202          estimate D2E/DX2                !
 ! D86   D(4,7,8,9)            -31.8515         estimate D2E/DX2                !
 ! D87   D(4,7,8,19)           145.0269         estimate D2E/DX2                !
 ! D88   D(17,7,8,9)          -146.0276         estimate D2E/DX2                !
 ! D89   D(17,7,8,19)           30.8508         estimate D2E/DX2                !
 ! D90   D(21,7,8,9)            92.8427         estimate D2E/DX2                !
 ! D91   D(21,7,8,19)          -90.2789         estimate D2E/DX2                !
 ! D92   D(4,7,17,18)         -154.9829         estimate D2E/DX2                !
 ! D93   D(4,7,17,20)          -34.3958         estimate D2E/DX2                !
 ! D94   D(4,7,17,30)           85.0211         estimate D2E/DX2                !
 ! D95   D(8,7,17,18)          -37.007          estimate D2E/DX2                !
 ! D96   D(8,7,17,20)           83.5801         estimate D2E/DX2                !
 ! D97   D(8,7,17,30)         -157.003          estimate D2E/DX2                !
 ! D98   D(21,7,17,18)          78.3051         estimate D2E/DX2                !
 ! D99   D(21,7,17,20)        -161.1077         estimate D2E/DX2                !
 ! D100  D(21,7,17,30)         -41.6908         estimate D2E/DX2                !
 ! D101  D(4,7,21,44)          -35.2483         estimate D2E/DX2                !
 ! D102  D(8,7,21,44)         -160.5015         estimate D2E/DX2                !
 ! D103  D(17,7,21,44)          89.4184         estimate D2E/DX2                !
 ! D104  D(7,8,9,10)             5.4015         estimate D2E/DX2                !
 ! D105  D(7,8,9,11)           179.2362         estimate D2E/DX2                !
 ! D106  D(19,8,9,10)         -171.0687         estimate D2E/DX2                !
 ! D107  D(19,8,9,11)            2.7661         estimate D2E/DX2                !
 ! D108  D(7,8,19,18)          -11.3582         estimate D2E/DX2                !
 ! D109  D(9,8,19,18)          165.5589         estimate D2E/DX2                !
 ! D110  D(8,9,10,5)             9.6193         estimate D2E/DX2                !
 ! D111  D(8,9,10,16)         -169.8302         estimate D2E/DX2                !
 ! D112  D(11,9,10,5)         -164.4797         estimate D2E/DX2                !
 ! D113  D(11,9,10,16)          16.0708         estimate D2E/DX2                !
 ! D114  D(8,9,11,12)         -119.6432         estimate D2E/DX2                !
 ! D115  D(8,9,11,13)           63.3795         estimate D2E/DX2                !
 ! D116  D(10,9,11,12)          54.2322         estimate D2E/DX2                !
 ! D117  D(10,9,11,13)        -122.7452         estimate D2E/DX2                !
 ! D118  D(9,11,13,14)        -157.2263         estimate D2E/DX2                !
 ! D119  D(9,11,13,15)          79.6632         estimate D2E/DX2                !
 ! D120  D(9,11,13,36)         -36.4263         estimate D2E/DX2                !
 ! D121  D(12,11,13,14)         25.875          estimate D2E/DX2                !
 ! D122  D(12,11,13,15)        -97.2356         estimate D2E/DX2                !
 ! D123  D(12,11,13,36)        146.675          estimate D2E/DX2                !
 ! D124  D(11,13,14,37)       -170.7492         estimate D2E/DX2                !
 ! D125  D(11,13,14,38)        -55.123          estimate D2E/DX2                !
 ! D126  D(11,13,14,62)         67.2371         estimate D2E/DX2                !
 ! D127  D(15,13,14,37)        -50.162          estimate D2E/DX2                !
 ! D128  D(15,13,14,38)         65.4642         estimate D2E/DX2                !
 ! D129  D(15,13,14,62)       -172.1757         estimate D2E/DX2                !
 ! D130  D(36,13,14,37)         69.4239         estimate D2E/DX2                !
 ! D131  D(36,13,14,38)       -174.9499         estimate D2E/DX2                !
 ! D132  D(36,13,14,62)        -52.5898         estimate D2E/DX2                !
 ! D133  D(11,13,15,39)       -175.899          estimate D2E/DX2                !
 ! D134  D(11,13,15,40)         64.3691         estimate D2E/DX2                !
 ! D135  D(11,13,15,41)        -55.7118         estimate D2E/DX2                !
 ! D136  D(14,13,15,39)         60.6743         estimate D2E/DX2                !
 ! D137  D(14,13,15,40)        -59.0577         estimate D2E/DX2                !
 ! D138  D(14,13,15,41)       -179.1386         estimate D2E/DX2                !
 ! D139  D(36,13,15,39)        -59.8557         estimate D2E/DX2                !
 ! D140  D(36,13,15,40)       -179.5876         estimate D2E/DX2                !
 ! D141  D(36,13,15,41)         60.3315         estimate D2E/DX2                !
 ! D142  D(13,14,62,63)        178.0086         estimate D2E/DX2                !
 ! D143  D(13,14,62,64)        -62.2357         estimate D2E/DX2                !
 ! D144  D(13,14,62,65)         58.0445         estimate D2E/DX2                !
 ! D145  D(37,14,62,63)         56.73           estimate D2E/DX2                !
 ! D146  D(37,14,62,64)        176.4857         estimate D2E/DX2                !
 ! D147  D(37,14,62,65)        -63.2341         estimate D2E/DX2                !
 ! D148  D(38,14,62,63)        -60.1935         estimate D2E/DX2                !
 ! D149  D(38,14,62,64)         59.5621         estimate D2E/DX2                !
 ! D150  D(38,14,62,65)        179.8423         estimate D2E/DX2                !
 ! D151  D(7,17,18,19)          31.8208         estimate D2E/DX2                !
 ! D152  D(7,17,18,28)         -83.7269         estimate D2E/DX2                !
 ! D153  D(7,17,18,29)         146.7615         estimate D2E/DX2                !
 ! D154  D(20,17,18,19)        -78.1556         estimate D2E/DX2                !
 ! D155  D(20,17,18,28)        166.2967         estimate D2E/DX2                !
 ! D156  D(20,17,18,29)         36.7852         estimate D2E/DX2                !
 ! D157  D(30,17,18,19)        151.8671         estimate D2E/DX2                !
 ! D158  D(30,17,18,28)         36.3194         estimate D2E/DX2                !
 ! D159  D(30,17,18,29)        -93.1921         estimate D2E/DX2                !
 ! D160  D(7,17,20,3)           35.9972         estimate D2E/DX2                !
 ! D161  D(7,17,20,42)         158.914          estimate D2E/DX2                !
 ! D162  D(7,17,20,43)         -81.7801         estimate D2E/DX2                !
 ! D163  D(18,17,20,3)         146.7446         estimate D2E/DX2                !
 ! D164  D(18,17,20,42)        -90.3386         estimate D2E/DX2                !
 ! D165  D(18,17,20,43)         28.9674         estimate D2E/DX2                !
 ! D166  D(30,17,20,3)         -83.3558         estimate D2E/DX2                !
 ! D167  D(30,17,20,42)         39.561          estimate D2E/DX2                !
 ! D168  D(30,17,20,43)        158.8669         estimate D2E/DX2                !
 ! D169  D(17,18,19,8)         -13.4555         estimate D2E/DX2                !
 ! D170  D(28,18,19,8)         105.7546         estimate D2E/DX2                !
 ! D171  D(29,18,19,8)        -135.4567         estimate D2E/DX2                !
 ! D172  D(17,18,28,53)        169.5043         estimate D2E/DX2                !
 ! D173  D(17,18,28,54)        -71.6111         estimate D2E/DX2                !
 ! D174  D(17,18,28,55)         48.7234         estimate D2E/DX2                !
 ! D175  D(19,18,28,53)         57.38           estimate D2E/DX2                !
 ! D176  D(19,18,28,54)        176.2647         estimate D2E/DX2                !
 ! D177  D(19,18,28,55)        -63.4009         estimate D2E/DX2                !
 ! D178  D(29,18,28,53)        -58.363          estimate D2E/DX2                !
 ! D179  D(29,18,28,54)         60.5216         estimate D2E/DX2                !
 ! D180  D(29,18,28,55)       -179.1439         estimate D2E/DX2                !
 ! D181  D(17,18,29,56)         65.2442         estimate D2E/DX2                !
 ! D182  D(17,18,29,57)       -175.8626         estimate D2E/DX2                !
 ! D183  D(17,18,29,58)        -55.5437         estimate D2E/DX2                !
 ! D184  D(19,18,29,56)        177.9318         estimate D2E/DX2                !
 ! D185  D(19,18,29,57)        -63.175          estimate D2E/DX2                !
 ! D186  D(19,18,29,58)         57.1439         estimate D2E/DX2                !
 ! D187  D(28,18,29,56)        -65.2748         estimate D2E/DX2                !
 ! D188  D(28,18,29,57)         53.6184         estimate D2E/DX2                !
 ! D189  D(28,18,29,58)        173.9373         estimate D2E/DX2                !
 ! D190  D(5,22,23,24)         -34.0103         estimate D2E/DX2                !
 ! D191  D(5,22,23,25)        -155.0833         estimate D2E/DX2                !
 ! D192  D(5,22,23,47)          80.2804         estimate D2E/DX2                !
 ! D193  D(45,22,23,24)         83.2841         estimate D2E/DX2                !
 ! D194  D(45,22,23,25)        -37.7889         estimate D2E/DX2                !
 ! D195  D(45,22,23,47)       -162.4252         estimate D2E/DX2                !
 ! D196  D(46,22,23,24)       -154.6676         estimate D2E/DX2                !
 ! D197  D(46,22,23,25)         84.2593         estimate D2E/DX2                !
 ! D198  D(46,22,23,47)        -40.377          estimate D2E/DX2                !
 ! D199  D(22,23,24,4)          17.9631         estimate D2E/DX2                !
 ! D200  D(25,23,24,4)         145.9621         estimate D2E/DX2                !
 ! D201  D(47,23,24,4)         -98.4417         estimate D2E/DX2                !
 ! D202  D(22,23,25,26)        176.3349         estimate D2E/DX2                !
 ! D203  D(22,23,25,27)         -5.6643         estimate D2E/DX2                !
 ! D204  D(24,23,25,26)         57.2106         estimate D2E/DX2                !
 ! D205  D(24,23,25,27)       -124.7886         estimate D2E/DX2                !
 ! D206  D(47,23,25,26)        -57.9208         estimate D2E/DX2                !
 ! D207  D(47,23,25,27)        120.0799         estimate D2E/DX2                !
 ! D208  D(23,25,26,48)        -58.2907         estimate D2E/DX2                !
 ! D209  D(23,25,26,49)         59.8714         estimate D2E/DX2                !
 ! D210  D(23,25,26,50)       -179.6229         estimate D2E/DX2                !
 ! D211  D(27,25,26,48)        123.6966         estimate D2E/DX2                !
 ! D212  D(27,25,26,49)       -118.1413         estimate D2E/DX2                !
 ! D213  D(27,25,26,50)          2.3644         estimate D2E/DX2                !
 ! D214  D(23,25,27,51)       -178.2072         estimate D2E/DX2                !
 ! D215  D(23,25,27,52)          1.029          estimate D2E/DX2                !
 ! D216  D(26,25,27,51)         -0.3559         estimate D2E/DX2                !
 ! D217  D(26,25,27,52)        178.8803         estimate D2E/DX2                !
 --------------------------------------------------------------------------------
 Trust Radius=3.00D-01 FncErr=1.00D-07 GrdErr=1.00D-06
 Number of steps in this run=    390 maximum allowed number of steps=    390.
 GradGradGradGradGradGradGradGradGradGradGradGradGradGradGradGradGradGrad

 Stoichiometry    C26H34O5
 Framework group  C1[X(C26H34O5)]
 Deg. of freedom   189
 Full point group                 C1      NOp   1
 Largest Abelian subgroup         C1      NOp   1
 Largest concise Abelian subgroup C1      NOp   1
                         Standard orientation:                         
 ---------------------------------------------------------------------
 Center     Atomic      Atomic             Coordinates (Angstroms)
 Number     Number       Type             X           Y           Z
 ---------------------------------------------------------------------
      1          6           0        1.448508    0.271703    3.219031
      2          6           0        1.312776    1.479788    2.660884
      3          6           0        1.464535    1.681274    1.167744
      4          6           0        1.493180    0.382667    0.301660
      5          6           0        1.265320   -0.987512    0.996884
      6          6           0        1.774973   -0.983983    2.460469
      7          6           0        0.477806    0.658107   -0.843344
      8          6           0       -0.933312    0.239536   -0.496275
      9          6           0       -1.262682   -0.797355    0.305704
     10          6           0       -0.190929   -1.529009    1.000681
     11          6           0       -2.697434   -1.153378    0.626626
     12          8           0       -3.086013   -1.137808    1.779420
     13          6           0       -3.589722   -1.592348   -0.534714
     14          6           0       -5.081385   -1.388504   -0.230954
     15          6           0       -3.263262   -3.074352   -0.830821
     16          8           0       -0.413724   -2.579906    1.586919
     17          6           0        0.263571    2.184525   -0.936918
     18          6           0       -1.143007    2.297293   -1.573171
     19          8           0       -1.826221    1.084698   -1.042325
     20          6           0        0.376709    2.603795    0.542597
     21          8           0        0.845152    0.011564   -2.047568
     22          6           0        2.137926   -1.933335    0.129214
     23          6           0        3.341754   -1.061729   -0.211349
     24          8           0        2.795486    0.284337   -0.330861
     25          6           0        4.141412   -1.364073   -1.461795
     26          6           0        5.257580   -0.388755   -1.749916
     27          6           0        3.908931   -2.432216   -2.231079
     28          6           0       -1.117239    2.189938   -3.099653
     29          6           0       -1.986640    3.488527   -1.127258
     30          1           0        1.027628    2.664587   -1.556234
     31          1           0        2.440065    2.155033    0.986370
     32          6           0        1.069225    2.715861    3.491503
     33          1           0        1.362191    0.178051    4.300708
     34          1           0        2.865542   -1.132217    2.471295
     35          1           0        1.348358   -1.861182    2.956131
     36          1           0       -3.310082   -1.001426   -1.416799
     37          1           0       -5.662746   -1.873006   -1.027095
     38          1           0       -5.322048   -1.911430    0.701911
     39          1           0       -3.827102   -3.415705   -1.706098
     40          1           0       -3.533661   -3.705535    0.022682
     41          1           0       -2.197277   -3.222911   -1.032627
     42          1           0        0.617781    3.663820    0.663203
     43          1           0       -0.576715    2.431188    1.053938
     44          1           0        1.822571    0.052525   -2.050650
     45          1           0        1.598322   -2.210840   -0.780560
     46          1           0        2.404755   -2.845715    0.668708
     47          1           0        4.044554   -1.046633    0.636692
     48          1           0        4.870983    0.631719   -1.851571
     49          1           0        5.980832   -0.368393   -0.922999
     50          1           0        5.794457   -0.652929   -2.665706
     51          1           0        4.520777   -2.635286   -3.106501
     52          1           0        3.120245   -3.147333   -2.020888
     53          1           0       -2.138113    2.087983   -3.482291
     54          1           0       -0.680160    3.097919   -3.530992
     55          1           0       -0.526899    1.329877   -3.420922
     56          1           0       -1.516049    4.421691   -1.456308
     57          1           0       -2.982509    3.432513   -1.578134
     58          1           0       -2.107207    3.523833   -0.042131
     59          1           0        1.047207    2.474719    4.558620
     60          1           0        1.858494    3.464296    3.330102
     61          1           0        0.118692    3.203651    3.239765
     62          6           0       -5.496229    0.082389   -0.116815
     63          1           0       -6.573372    0.172393    0.065040
     64          1           0       -4.976053    0.573971    0.711444
     65          1           0       -5.265105    0.634568   -1.036380
 ---------------------------------------------------------------------
 Rotational constants (GHZ):      0.2068257      0.1229088      0.1178884
 Standard basis: 6-311+G(d) (5D, 7F)
 There are   784 symmetry adapted basis functions of A   symmetry.
 Integral buffers will be    131072 words long.
 Raffenetti 2 integral format.
 Two-electron integral symmetry is turned on.
   784 basis functions,  1286 primitive gaussians,   815 cartesian basis functions
   115 alpha electrons      115 beta electrons
       nuclear repulsion energy      3513.3072025037 Hartrees.
 NAtoms=   65 NActive=   65 NUniq=   65 SFac= 1.00D+00 NAtFMM=   50 NAOKFM=T Big=T
 One-electron integrals computed using PRISM.
 NBasis=   784 RedAO= T  NBF=   784
 NBsUse=   777 1.00D-06 NBFU=   777
 Harris functional with IExCor=  402 diagonalized for initial guess.
 ExpMin= 4.38D-02 ExpMax= 8.59D+03 ExpMxC= 1.30D+03 IAcc=2 IRadAn=         0 AccDes= 0.00D+00
 HarFok:  IExCor=  402 AccDes= 0.00D+00 IRadAn=         0 IDoV= 1
 ScaDFX=  1.000000  1.000000  1.000000  1.000000
 FoFCou: FMM=F IPFlag=           0 FMFlag=      100000 FMFlg1=        2001
         NFxFlg=           0 DoJE=T BraDBF=F KetDBF=T FulRan=T
         Omega=  0.000000  0.000000  1.000000  0.000000  0.000000 ICntrl=     500 IOpCl=  0
         NMat0=    1 NMatS0=    1 NMatT0=    0 NMatD0=    1 NMtDS0=    0 NMtDT0=    0
         I1Cent=           4 NGrid=           0.
 Petite list used in FoFCou.
 Initial guess orbital symmetries:
       Occupied  (A) (A) (A) (A) (A) (A) (A) (A) (A) (A) (A) (A)
                 (A) (A) (A) (A) (A) (A) (A) (A) (A) (A) (A) (A)
                 (A) (A) (A) (A) (A) (A) (A) (A) (A) (A) (A) (A)
                 (A) (A) (A) (A) (A) (A) (A) (A) (A) (A) (A) (A)
                 (A) (A) (A) (A) (A) (A) (A) (A) (A) (A) (A) (A)
                 (A) (A) (A) (A) (A) (A) (A) (A) (A) (A) (A) (A)
                 (A) (A) (A) (A) (A) (A) (A) (A) (A) (A) (A) (A)
                 (A) (A) (A) (A) (A) (A) (A) (A) (A) (A) (A) (A)
                 (A) (A) (A) (A) (A) (A) (A) (A) (A) (A) (A) (A)
                 (A) (A) (A) (A) (A) (A) (A)
       Virtual   (A) (A) (A) (A) (A) (A) (A) (A) (A) (A) (A) (A)
                 (A) (A) (A) (A) (A) (A) (A) (A) (A) (A) (A) (A)
                 (A) (A) (A) (A) (A) (A) (A) (A) (A) (A) (A) (A)
                 (A) (A) (A) (A) (A) (A) (A) (A) (A) (A) (A) (A)
                 (A) (A) (A) (A) (A) (A) (A) (A) (A) (A) (A) (A)
                 (A) (A) (A) (A) (A) (A) (A) (A) (A) (A) (A) (A)
                 (A) (A) (A) (A) (A) (A) (A) (A) (A) (A) (A) (A)
                 (A) (A) (A) (A) (A) (A) (A) (A) (A) (A) (A) (A)
                 (A) (A) (A) (A) (A) (A) (A) (A) (A) (A) (A) (A)
                 (A) (A) (A) (A) (A) (A) (A) (A) (A) (A) (A) (A)
                 (A) (A) (A) (A) (A) (A) (A) (A) (A) (A) (A) (A)
                 (A) (A) (A) (A) (A) (A) (A) (A) (A) (A) (A) (A)
                 (A) (A) (A) (A) (A) (A) (A) (A) (A) (A) (A) (A)
                 (A) (A) (A) (A) (A) (A) (A) (A) (A) (A) (A) (A)
                 (A) (A) (A) (A) (A) (A) (A) (A) (A) (A) (A) (A)
                 (A) (A) (A) (A) (A) (A) (A) (A) (A) (A) (A) (A)
                 (A) (A) (A) (A) (A) (A) (A) (A) (A) (A) (A) (A)
                 (A) (A) (A) (A) (A) (A) (A) (A) (A) (A) (A) (A)
                 (A) (A) (A) (A) (A) (A) (A) (A) (A) (A) (A) (A)
                 (A) (A) (A) (A) (A) (A) (A) (A) (A) (A) (A) (A)
                 (A) (A) (A) (A) (A) (A) (A) (A) (A) (A) (A) (A)
                 (A) (A) (A) (A) (A) (A) (A) (A) (A) (A) (A) (A)
                 (A) (A) (A) (A) (A) (A) (A) (A) (A) (A) (A) (A)
                 (A) (A) (A) (A) (A) (A) (A) (A) (A) (A) (A) (A)
                 (A) (A) (A) (A) (A) (A) (A) (A) (A) (A) (A) (A)
                 (A) (A) (A) (A) (A) (A) (A) (A) (A) (A) (A) (A)
                 (A) (A) (A) (A) (A) (A) (A) (A) (A) (A) (A) (A)
                 (A) (A) (A) (A) (A) (A) (A) (A) (A) (A) (A) (A)
                 (A) (A) (A) (A) (A) (A) (A) (A) (A) (A) (A) (A)
                 (A) (A) (A) (A) (A) (A) (A) (A) (A) (A) (A) (A)
                 (A) (A) (A) (A) (A) (A) (A) (A) (A) (A) (A) (A)
                 (A) (A) (A) (A) (A) (A) (A) (A) (A) (A) (A) (A)
                 (A) (A) (A) (A) (A) (A) (A) (A) (A) (A) (A) (A)
                 (A) (A) (A) (A) (A) (A) (A) (A) (A) (A) (A) (A)
                 (A) (A) (A) (A) (A) (A) (A) (A) (A) (A) (A) (A)
                 (A) (A) (A) (A) (A) (A) (A) (A) (A) (A) (A) (A)
                 (A) (A) (A) (A) (A) (A) (A) (A) (A) (A) (A) (A)
                 (A) (A) (A) (A) (A) (A) (A) (A) (A) (A) (A) (A)
                 (A) (A) (A) (A) (A) (A) (A) (A) (A) (A) (A) (A)
                 (A) (A) (A) (A) (A) (A) (A) (A) (A) (A) (A) (A)
                 (A) (A) (A) (A) (A) (A) (A) (A) (A) (A) (A) (A)
                 (A) (A) (A) (A) (A) (A) (A) (A) (A) (A) (A) (A)
                 (A) (A) (A) (A) (A) (A) (A) (A) (A) (A) (A) (A)
                 (A) (A) (A) (A) (A) (A) (A) (A) (A) (A) (A) (A)
                 (A) (A) (A) (A) (A) (A) (A) (A) (A) (A) (A) (A)
                 (A) (A) (A) (A) (A) (A) (A) (A) (A) (A) (A) (A)
                 (A) (A) (A) (A) (A) (A) (A) (A) (A) (A) (A) (A)
                 (A) (A) (A) (A) (A) (A) (A) (A) (A) (A) (A) (A)
                 (A) (A) (A) (A) (A) (A) (A) (A) (A) (A) (A) (A)
                 (A) (A) (A) (A) (A) (A) (A) (A) (A) (A) (A) (A)
                 (A) (A) (A) (A) (A) (A) (A) (A) (A) (A) (A) (A)
                 (A) (A) (A) (A) (A) (A) (A) (A) (A) (A) (A) (A)
                 (A) (A) (A) (A) (A) (A) (A) (A) (A) (A) (A) (A)
                 (A) (A) (A) (A) (A) (A) (A) (A) (A) (A) (A) (A)
                 (A) (A) (A) (A) (A) (A) (A) (A) (A) (A) (A) (A)
                 (A) (A)
 The electronic state of the initial guess is 1-A.
 Requested convergence on RMS density matrix=1.00D-08 within 128 cycles.
 Requested convergence on MAX density matrix=1.00D-06.
 Requested convergence on             energy=1.00D-06.
 No special actions if energy rises.
 SCF Done:  E(RB3LYP) =  -1387.64852005     A.U. after   17 cycles
             Convg  =    0.5509D-08             -V/T =  2.0043

 **********************************************************************

            Population analysis using the SCF density.

 **********************************************************************

 Orbital symmetries:
       Occupied  (A) (A) (A) (A) (A) (A) (A) (A) (A) (A) (A) (A)
                 (A) (A) (A) (A) (A) (A) (A) (A) (A) (A) (A) (A)
                 (A) (A) (A) (A) (A) (A) (A) (A) (A) (A) (A) (A)
                 (A) (A) (A) (A) (A) (A) (A) (A) (A) (A) (A) (A)
                 (A) (A) (A) (A) (A) (A) (A) (A) (A) (A) (A) (A)
                 (A) (A) (A) (A) (A) (A) (A) (A) (A) (A) (A) (A)
                 (A) (A) (A) (A) (A) (A) (A) (A) (A) (A) (A) (A)
                 (A) (A) (A) (A) (A) (A) (A) (A) (A) (A) (A) (A)
                 (A) (A) (A) (A) (A) (A) (A) (A) (A) (A) (A) (A)
                 (A) (A) (A) (A) (A) (A) (A)
       Virtual   (A) (A) (A) (A) (A) (A) (A) (A) (A) (A) (A) (A)
                 (A) (A) (A) (A) (A) (A) (A) (A) (A) (A) (A) (A)
                 (A) (A) (A) (A) (A) (A) (A) (A) (A) (A) (A) (A)
                 (A) (A) (A) (A) (A) (A) (A) (A) (A) (A) (A) (A)
                 (A) (A) (A) (A) (A) (A) (A) (A) (A) (A) (A) (A)
                 (A) (A) (A) (A) (A) (A) (A) (A) (A) (A) (A) (A)
                 (A) (A) (A) (A) (A) (A) (A) (A) (A) (A) (A) (A)
                 (A) (A) (A) (A) (A) (A) (A) (A) (A) (A) (A) (A)
                 (A) (A) (A) (A) (A) (A) (A) (A) (A) (A) (A) (A)
                 (A) (A) (A) (A) (A) (A) (A) (A) (A) (A) (A) (A)
                 (A) (A) (A) (A) (A) (A) (A) (A) (A) (A) (A) (A)
                 (A) (A) (A) (A) (A) (A) (A) (A) (A) (A) (A) (A)
                 (A) (A) (A) (A) (A) (A) (A) (A) (A) (A) (A) (A)
                 (A) (A) (A) (A) (A) (A) (A) (A) (A) (A) (A) (A)
                 (A) (A) (A) (A) (A) (A) (A) (A) (A) (A) (A) (A)
                 (A) (A) (A) (A) (A) (A) (A) (A) (A) (A) (A) (A)
                 (A) (A) (A) (A) (A) (A) (A) (A) (A) (A) (A) (A)
                 (A) (A) (A) (A) (A) (A) (A) (A) (A) (A) (A) (A)
                 (A) (A) (A) (A) (A) (A) (A) (A) (A) (A) (A) (A)
                 (A) (A) (A) (A) (A) (A) (A) (A) (A) (A) (A) (A)
                 (A) (A) (A) (A) (A) (A) (A) (A) (A) (A) (A) (A)
                 (A) (A) (A) (A) (A) (A) (A) (A) (A) (A) (A) (A)
                 (A) (A) (A) (A) (A) (A) (A) (A) (A) (A) (A) (A)
                 (A) (A) (A) (A) (A) (A) (A) (A) (A) (A) (A) (A)
                 (A) (A) (A) (A) (A) (A) (A) (A) (A) (A) (A) (A)
                 (A) (A) (A) (A) (A) (A) (A) (A) (A) (A) (A) (A)
                 (A) (A) (A) (A) (A) (A) (A) (A) (A) (A) (A) (A)
                 (A) (A) (A) (A) (A) (A) (A) (A) (A) (A) (A) (A)
                 (A) (A) (A) (A) (A) (A) (A) (A) (A) (A) (A) (A)
                 (A) (A) (A) (A) (A) (A) (A) (A) (A) (A) (A) (A)
                 (A) (A) (A) (A) (A) (A) (A) (A) (A) (A) (A) (A)
                 (A) (A) (A) (A) (A) (A) (A) (A) (A) (A) (A) (A)
                 (A) (A) (A) (A) (A) (A) (A) (A) (A) (A) (A) (A)
                 (A) (A) (A) (A) (A) (A) (A) (A) (A) (A) (A) (A)
                 (A) (A) (A) (A) (A) (A) (A) (A) (A) (A) (A) (A)
                 (A) (A) (A) (A) (A) (A) (A) (A) (A) (A) (A) (A)
                 (A) (A) (A) (A) (A) (A) (A) (A) (A) (A) (A) (A)
                 (A) (A) (A) (A) (A) (A) (A) (A) (A) (A) (A) (A)
                 (A) (A) (A) (A) (A) (A) (A) (A) (A) (A) (A) (A)
                 (A) (A) (A) (A) (A) (A) (A) (A) (A) (A) (A) (A)
                 (A) (A) (A) (A) (A) (A) (A) (A) (A) (A) (A) (A)
                 (A) (A) (A) (A) (A) (A) (A) (A) (A) (A) (A) (A)
                 (A) (A) (A) (A) (A) (A) (A) (A) (A) (A) (A) (A)
                 (A) (A) (A) (A) (A) (A) (A) (A) (A) (A) (A) (A)
                 (A) (A) (A) (A) (A) (A) (A) (A) (A) (A) (A) (A)
                 (A) (A) (A) (A) (A) (A) (A) (A) (A) (A) (A) (A)
                 (A) (A) (A) (A) (A) (A) (A) (A) (A) (A) (A) (A)
                 (A) (A) (A) (A) (A) (A) (A) (A) (A) (A) (A) (A)
                 (A) (A) (A) (A) (A) (A) (A) (A) (A) (A) (A) (A)
                 (A) (A) (A) (A) (A) (A) (A) (A) (A) (A) (A) (A)
                 (A) (A) (A) (A) (A) (A) (A) (A) (A) (A) (A) (A)
                 (A) (A) (A) (A) (A) (A) (A) (A) (A) (A) (A) (A)
                 (A) (A) (A) (A) (A) (A) (A) (A) (A) (A) (A) (A)
                 (A) (A) (A) (A) (A) (A) (A) (A) (A) (A) (A) (A)
                 (A) (A) (A) (A) (A) (A) (A) (A) (A) (A) (A) (A)
                 (A) (A)
 The electronic state is 1-A.
 Alpha  occ. eigenvalues --  -19.17811 -19.14810 -19.14048 -19.10845 -19.10527
 Alpha  occ. eigenvalues --  -10.26543 -10.26376 -10.26083 -10.25853 -10.25440
 Alpha  occ. eigenvalues --  -10.25340 -10.24335 -10.20743 -10.19972 -10.19889
 Alpha  occ. eigenvalues --  -10.19576 -10.18925 -10.18595 -10.18515 -10.18388
 Alpha  occ. eigenvalues --  -10.17988 -10.17793 -10.17731 -10.17631 -10.17461
 Alpha  occ. eigenvalues --  -10.17205 -10.17177 -10.17004 -10.15875 -10.15724
 Alpha  occ. eigenvalues --  -10.14752  -1.10217  -1.07104  -1.04478  -1.03745
 Alpha  occ. eigenvalues --   -1.03425  -0.87651  -0.84692  -0.83333  -0.82367
 Alpha  occ. eigenvalues --   -0.81105  -0.80348  -0.77687  -0.75115  -0.74107
 Alpha  occ. eigenvalues --   -0.72894  -0.72188  -0.70822  -0.70227  -0.68691
 Alpha  occ. eigenvalues --   -0.65802  -0.65120  -0.63965  -0.62651  -0.61524
 Alpha  occ. eigenvalues --   -0.60349  -0.59882  -0.57899  -0.56095  -0.54345
 Alpha  occ. eigenvalues --   -0.53865  -0.53228  -0.51527  -0.51275  -0.50221
 Alpha  occ. eigenvalues --   -0.49487  -0.48920  -0.47607  -0.47331  -0.46723
 Alpha  occ. eigenvalues --   -0.46200  -0.45434  -0.44699  -0.44301  -0.44188
 Alpha  occ. eigenvalues --   -0.43991  -0.43046  -0.42818  -0.42462  -0.42107
 Alpha  occ. eigenvalues --   -0.41930  -0.41429  -0.41355  -0.41113  -0.40890
 Alpha  occ. eigenvalues --   -0.40157  -0.39942  -0.39330  -0.39100  -0.38729
 Alpha  occ. eigenvalues --   -0.38445  -0.38394  -0.38326  -0.37914  -0.37824
 Alpha  occ. eigenvalues --   -0.37240  -0.36589  -0.36178  -0.35638  -0.35380
 Alpha  occ. eigenvalues --   -0.34806  -0.34511  -0.33879  -0.33542  -0.33026
 Alpha  occ. eigenvalues --   -0.32707  -0.32219  -0.31982  -0.29402  -0.27897
 Alpha  occ. eigenvalues --   -0.27409  -0.26048  -0.25332  -0.24400  -0.24144
 Alpha virt. eigenvalues --   -0.05945  -0.03034  -0.01925  -0.01277  -0.00072
 Alpha virt. eigenvalues --   -0.00010   0.00574   0.00943   0.01517   0.01744
 Alpha virt. eigenvalues --    0.01989   0.02293   0.02998   0.03286   0.03395
 Alpha virt. eigenvalues --    0.03520   0.04191   0.04240   0.04401   0.04679
 Alpha virt. eigenvalues --    0.05089   0.05330   0.05740   0.05932   0.06221
 Alpha virt. eigenvalues --    0.06437   0.06929   0.07100   0.07310   0.07498
 Alpha virt. eigenvalues --    0.07752   0.07995   0.08578   0.08709   0.08881
 Alpha virt. eigenvalues --    0.09129   0.09299   0.09466   0.09570   0.09785
 Alpha virt. eigenvalues --    0.09970   0.10358   0.10629   0.10668   0.11002
 Alpha virt. eigenvalues --    0.11141   0.11854   0.12018   0.12064   0.12253
 Alpha virt. eigenvalues --    0.12356   0.12592   0.12824   0.13468   0.13526
 Alpha virt. eigenvalues --    0.13762   0.13908   0.14407   0.14649   0.14782
 Alpha virt. eigenvalues --    0.14819   0.15137   0.15498   0.15814   0.15961
 Alpha virt. eigenvalues --    0.16195   0.16298   0.16699   0.16778   0.17155
 Alpha virt. eigenvalues --    0.17491   0.17544   0.17727   0.17860   0.18112
 Alpha virt. eigenvalues --    0.18405   0.18540   0.18751   0.18825   0.19114
 Alpha virt. eigenvalues --    0.19263   0.19440   0.19718   0.19877   0.20011
 Alpha virt. eigenvalues --    0.20170   0.20527   0.20933   0.21125   0.21206
 Alpha virt. eigenvalues --    0.21316   0.21534   0.21850   0.21948   0.22064
 Alpha virt. eigenvalues --    0.22223   0.22273   0.22428   0.22817   0.22951
 Alpha virt. eigenvalues --    0.23135   0.23236   0.23563   0.23696   0.23785
 Alpha virt. eigenvalues --    0.23926   0.24229   0.24414   0.24800   0.24986
 Alpha virt. eigenvalues --    0.25273   0.25340   0.25684   0.25857   0.26103
 Alpha virt. eigenvalues --    0.26187   0.26653   0.26761   0.26809   0.26949
 Alpha virt. eigenvalues --    0.27012   0.27271   0.27702   0.27807   0.28111
 Alpha virt. eigenvalues --    0.28243   0.28509   0.28836   0.28991   0.29248
 Alpha virt. eigenvalues --    0.29347   0.29756   0.29996   0.30359   0.30537
 Alpha virt. eigenvalues --    0.31153   0.31352   0.31445   0.31664   0.32105
 Alpha virt. eigenvalues --    0.32354   0.32397   0.32814   0.33427   0.33685
 Alpha virt. eigenvalues --    0.34032   0.34186   0.34254   0.34894   0.34958
 Alpha virt. eigenvalues --    0.35325   0.35592   0.36061   0.36543   0.36670
 Alpha virt. eigenvalues --    0.37133   0.37371   0.37527   0.38060   0.38612
 Alpha virt. eigenvalues --    0.38870   0.39081   0.39927   0.40046   0.40521
 Alpha virt. eigenvalues --    0.40768   0.40928   0.41427   0.41727   0.42121
 Alpha virt. eigenvalues --    0.42834   0.43044   0.43394   0.43631   0.44026
 Alpha virt. eigenvalues --    0.44234   0.44636   0.45346   0.45383   0.45580
 Alpha virt. eigenvalues --    0.45916   0.46379   0.46541   0.47035   0.47103
 Alpha virt. eigenvalues --    0.47633   0.48111   0.48424   0.49064   0.49569
 Alpha virt. eigenvalues --    0.49678   0.50523   0.50981   0.51202   0.51894
 Alpha virt. eigenvalues --    0.52049   0.52709   0.53144   0.53971   0.54433
 Alpha virt. eigenvalues --    0.54859   0.55156   0.55324   0.55657   0.56185
 Alpha virt. eigenvalues --    0.56426   0.56765   0.57102   0.57788   0.58302
 Alpha virt. eigenvalues --    0.58720   0.59236   0.59342   0.59618   0.59975
 Alpha virt. eigenvalues --    0.60110   0.60523   0.60793   0.61021   0.61326
 Alpha virt. eigenvalues --    0.62366   0.62567   0.62976   0.63611   0.63784
 Alpha virt. eigenvalues --    0.64289   0.64710   0.65187   0.65722   0.65937
 Alpha virt. eigenvalues --    0.66194   0.66280   0.66864   0.67155   0.67330
 Alpha virt. eigenvalues --    0.67531   0.67786   0.68514   0.68879   0.69052
 Alpha virt. eigenvalues --    0.69613   0.69695   0.70106   0.70217   0.70478
 Alpha virt. eigenvalues --    0.70867   0.71030   0.71139   0.71509   0.71863
 Alpha virt. eigenvalues --    0.72287   0.72614   0.72780   0.72988   0.73546
 Alpha virt. eigenvalues --    0.73816   0.74259   0.74445   0.74799   0.74986
 Alpha virt. eigenvalues --    0.75514   0.75910   0.76093   0.76324   0.76480
 Alpha virt. eigenvalues --    0.76745   0.77174   0.77901   0.78255   0.78647
 Alpha virt. eigenvalues --    0.79384   0.79664   0.79919   0.80132   0.80952
 Alpha virt. eigenvalues --    0.81326   0.81690   0.82568   0.82649   0.82882
 Alpha virt. eigenvalues --    0.83584   0.84094   0.84351   0.84657   0.85075
 Alpha virt. eigenvalues --    0.86291   0.86738   0.87167   0.88627   0.89069
 Alpha virt. eigenvalues --    0.89460   0.90161   0.90961   0.91631   0.92034
 Alpha virt. eigenvalues --    0.93380   0.94538   0.95026   0.95419   0.96690
 Alpha virt. eigenvalues --    0.96849   0.97726   0.98070   0.99024   1.00775
 Alpha virt. eigenvalues --    1.01746   1.02689   1.02984   1.03751   1.05280
 Alpha virt. eigenvalues --    1.06110   1.07488   1.08311   1.09038   1.09826
 Alpha virt. eigenvalues --    1.10156   1.11964   1.12972   1.13504   1.14565
 Alpha virt. eigenvalues --    1.14675   1.15575   1.16309   1.17844   1.19094
 Alpha virt. eigenvalues --    1.20185   1.21039   1.22551   1.23226   1.24073
 Alpha virt. eigenvalues --    1.24776   1.25317   1.26351   1.27303   1.27597
 Alpha virt. eigenvalues --    1.28859   1.30054   1.30478   1.30915   1.31464
 Alpha virt. eigenvalues --    1.32735   1.33075   1.34130   1.34919   1.35349
 Alpha virt. eigenvalues --    1.36382   1.36777   1.37143   1.38024   1.39824
 Alpha virt. eigenvalues --    1.40833   1.41353   1.42099   1.42681   1.43807
 Alpha virt. eigenvalues --    1.45155   1.45443   1.47075   1.47918   1.48177
 Alpha virt. eigenvalues --    1.50231   1.50835   1.51408   1.52025   1.52330
 Alpha virt. eigenvalues --    1.53467   1.53752   1.54540   1.54809   1.55251
 Alpha virt. eigenvalues --    1.56089   1.56337   1.57718   1.57975   1.58239
 Alpha virt. eigenvalues --    1.58793   1.58900   1.59602   1.59805   1.60722
 Alpha virt. eigenvalues --    1.60937   1.61242   1.61889   1.62475   1.62869
 Alpha virt. eigenvalues --    1.63267   1.63864   1.64192   1.64752   1.65033
 Alpha virt. eigenvalues --    1.65218   1.66173   1.66692   1.67053   1.67340
 Alpha virt. eigenvalues --    1.67722   1.67920   1.68754   1.69453   1.70086
 Alpha virt. eigenvalues --    1.70941   1.71141   1.71776   1.72148   1.72808
 Alpha virt. eigenvalues --    1.73799   1.74649   1.74852   1.75634   1.75894
 Alpha virt. eigenvalues --    1.77139   1.77591   1.78099   1.78474   1.79366
 Alpha virt. eigenvalues --    1.79660   1.81726   1.81868   1.82484   1.84115
 Alpha virt. eigenvalues --    1.84397   1.84761   1.85987   1.86294   1.87121
 Alpha virt. eigenvalues --    1.87517   1.88611   1.89501   1.90082   1.91509
 Alpha virt. eigenvalues --    1.92242   1.92619   1.94155   1.94537   1.96459
 Alpha virt. eigenvalues --    1.97123   1.97810   1.99226   2.00079   2.01497
 Alpha virt. eigenvalues --    2.01870   2.03431   2.04007   2.04910   2.05563
 Alpha virt. eigenvalues --    2.07006   2.08008   2.08677   2.09193   2.11860
 Alpha virt. eigenvalues --    2.12408   2.12942   2.14068   2.14666   2.16702
 Alpha virt. eigenvalues --    2.17166   2.18603   2.19488   2.21190   2.21452
 Alpha virt. eigenvalues --    2.22789   2.22858   2.24243   2.25160   2.26579
 Alpha virt. eigenvalues --    2.28245   2.29335   2.31101   2.32942   2.33387
 Alpha virt. eigenvalues --    2.35239   2.37758   2.38376   2.39896   2.42724
 Alpha virt. eigenvalues --    2.44583   2.46847   2.48152   2.49898   2.51348
 Alpha virt. eigenvalues --    2.51683   2.52770   2.52980   2.54437   2.54678
 Alpha virt. eigenvalues --    2.55562   2.56516   2.56666   2.57502   2.58024
 Alpha virt. eigenvalues --    2.58632   2.59387   2.59616   2.61068   2.61874
 Alpha virt. eigenvalues --    2.63050   2.64331   2.64653   2.65950   2.66420
 Alpha virt. eigenvalues --    2.66847   2.68126   2.69025   2.70006   2.70740
 Alpha virt. eigenvalues --    2.71454   2.71808   2.72498   2.72796   2.74704
 Alpha virt. eigenvalues --    2.75298   2.77327   2.81681   2.83253   2.84855
 Alpha virt. eigenvalues --    2.86147   2.87129   2.88452   2.88758   2.90138
 Alpha virt. eigenvalues --    2.90812   2.91636   2.93227   2.93823   2.95507
 Alpha virt. eigenvalues --    2.95876   2.97240   2.98314   2.99298   2.99577
 Alpha virt. eigenvalues --    3.00522   3.00756   3.01898   3.03000   3.03318
 Alpha virt. eigenvalues --    3.04652   3.06424   3.06844   3.07982   3.08918
 Alpha virt. eigenvalues --    3.09416   3.11279   3.11752   3.12742   3.13173
 Alpha virt. eigenvalues --    3.14059   3.14855   3.15966   3.16665   3.17012
 Alpha virt. eigenvalues --    3.17716   3.19455   3.20479   3.20917   3.21126
 Alpha virt. eigenvalues --    3.22814   3.24181   3.24615   3.25412   3.26085
 Alpha virt. eigenvalues --    3.26864   3.27265   3.28220   3.28929   3.29572
 Alpha virt. eigenvalues --    3.30033   3.31348   3.32644   3.33050   3.34124
 Alpha virt. eigenvalues --    3.34452   3.34586   3.36318   3.37795   3.38707
 Alpha virt. eigenvalues --    3.39783   3.40226   3.41567   3.42340   3.44116
 Alpha virt. eigenvalues --    3.46836   3.47231   3.50389   3.51661   3.53061
 Alpha virt. eigenvalues --    3.54914   3.60484   3.61952   3.64849   3.74356
 Alpha virt. eigenvalues --    3.76398   3.77919   3.79940   3.87854   3.89211
 Alpha virt. eigenvalues --    3.89869   3.96531   3.97842   4.01311   4.02470
 Alpha virt. eigenvalues --    4.05215   4.06125   4.07587   4.09993   4.12624
 Alpha virt. eigenvalues --    4.17029   4.17693   4.19783   4.21856   4.22701
 Alpha virt. eigenvalues --    4.23216   4.27885   4.28926   4.32745   4.45043
 Alpha virt. eigenvalues --    4.61189   5.14866   5.16319   5.17838   5.21686
 Alpha virt. eigenvalues --    5.23845   5.28313   5.31374   5.32822   5.42603
 Alpha virt. eigenvalues --    5.43362   5.56720   5.66220   5.73834   5.78034
 Alpha virt. eigenvalues --    5.82640  23.45055  23.47092  23.51058  23.53612
 Alpha virt. eigenvalues --   23.62018  23.63703  23.66060  23.66756  23.68975
 Alpha virt. eigenvalues --   23.70398  23.73475  23.74360  23.76476  23.78423
 Alpha virt. eigenvalues --   23.79045  23.79508  23.82355  23.84448  23.86219
 Alpha virt. eigenvalues --   23.87118  23.89196  23.89986  23.96179  24.18671
 Alpha virt. eigenvalues --   24.18931  24.22379  49.98741  49.99961  50.02356
 Alpha virt. eigenvalues --   50.03119  50.06707
          Condensed to atoms (all electrons):
 Mulliken atomic charges:
              1
     1  C   -0.636187
     2  C    0.845357
     3  C   -0.273432
     4  C   -0.644074
     5  C    1.416959
     6  C   -0.784402
     7  C   -1.108118
     8  C    0.137412
     9  C    0.253150
    10  C   -0.460647
    11  C    0.265075
    12  O   -0.178318
    13  C    0.007511
    14  C   -0.310407
    15  C   -1.041460
    16  O   -0.158102
    17  C    0.065478
    18  C    0.459793
    19  O    0.166874
    20  C   -1.306450
    21  O    0.019132
    22  C   -0.605321
    23  C   -0.425757
    24  O    0.050364
    25  C    0.929625
    26  C   -1.026978
    27  C   -0.990707
    28  C   -0.715964
    29  C   -0.679999
    30  H    0.229221
    31  H    0.275721
    32  C   -1.099427
    33  H    0.206108
    34  H    0.238540
    35  H    0.279649
    36  H    0.236243
    37  H    0.220624
    38  H    0.261314
    39  H    0.255483
    40  H    0.280460
    41  H    0.277092
    42  H    0.270813
    43  H    0.281311
    44  H    0.281128
    45  H    0.258662
    46  H    0.284129
    47  H    0.235849
    48  H    0.267645
    49  H    0.263362
    50  H    0.255107
    51  H    0.230071
    52  H    0.239511
    53  H    0.263117
    54  H    0.248006
    55  H    0.310745
    56  H    0.262551
    57  H    0.272968
    58  H    0.263545
    59  H    0.257383
    60  H    0.255958
    61  H    0.255769
    62  C   -0.919889
    63  H    0.241949
    64  H    0.260449
    65  H    0.228423
 Sum of Mulliken atomic charges =   0.00000
 Mulliken charges with hydrogens summed into heavy atoms:
              1
     1  C   -0.430078
     2  C    0.845357
     3  C    0.002288
     4  C   -0.644074
     5  C    1.416959
     6  C   -0.266213
     7  C   -1.108118
     8  C    0.137412
     9  C    0.253150
    10  C   -0.460647
    11  C    0.265075
    12  O   -0.178318
    13  C    0.243754
    14  C    0.171531
    15  C   -0.228426
    16  O   -0.158102
    17  C    0.294699
    18  C    0.459793
    19  O    0.166874
    20  C   -0.754325
    21  O    0.300260
    22  C   -0.062531
    23  C   -0.189907
    24  O    0.050364
    25  C    0.929625
    26  C   -0.240863
    27  C   -0.521125
    28  C    0.105905
    29  C    0.119065
    32  C   -0.330316
    62  C   -0.189067
 Sum of Mulliken charges with hydrogens summed into heavy atoms =   0.00000
 Electronic spatial extent (au):  <R**2>=          11439.3827
 Charge=              0.0000 electrons
 Dipole moment (field-independent basis, Debye):
    X=              3.8553    Y=              4.3082    Z=             -3.1190  Tot=              6.5690
 Quadrupole moment (field-independent basis, Debye-Ang):
   XX=           -185.9479   YY=           -183.6810   ZZ=           -191.6626
   XY=             -5.9787   XZ=              8.8620   YZ=              5.5290
 Traceless Quadrupole moment (field-independent basis, Debye-Ang):
   XX=              1.1493   YY=              3.4162   ZZ=             -4.5654
   XY=             -5.9787   XZ=              8.8620   YZ=              5.5290
 Octapole moment (field-independent basis, Debye-Ang**2):
  XXX=             37.7923  YYY=             46.7655  ZZZ=             -5.2987  XYY=              1.9613
  XXY=            -11.9249  XXZ=            -43.6153  XZZ=             28.9450  YZZ=             18.9089
  YYZ=            -30.7858  XYZ=             -7.6665
 Hexadecapole moment (field-independent basis, Debye-Ang**3):
 XXXX=          -8440.3586 YYYY=          -3889.8263 ZZZZ=          -3319.2467 XXXY=              8.2282
 XXXZ=            -20.0434 YYYX=              6.9013 YYYZ=              1.0780 ZZZX=             10.2620
 ZZZY=             -3.8399 XXYY=          -2068.3871 XXZZ=          -1969.0230 YYZZ=          -1198.0780
 XXYZ=             31.5454 YYXZ=             14.3380 ZZXY=            -55.0803
 N-N= 3.513307202504D+03 E-N=-1.025953027111D+04  KE= 1.381710225443D+03
 Calling FoFJK, ICntrl=      2127 FMM=T ISym2X=0 I1Cent= 0 IOpClX= 0 NMat=1 NMatS=1 NMatT=0.
 ***** Axes restored to original set *****
 -------------------------------------------------------------------
 Center     Atomic                   Forces (Hartrees/Bohr)
 Number     Number              X              Y              Z
 -------------------------------------------------------------------
      1        6           0.000007597    0.002068534   -0.000909148
      2        6           0.000720707   -0.002022484    0.001035154
      3        6          -0.000525629    0.000253984   -0.000264529
      4        6          -0.000259101    0.001145053    0.000872753
      5        6           0.000052140   -0.000561409    0.000081646
      6        6          -0.000012533   -0.000054189   -0.000087754
      7        6          -0.002413681    0.000542988    0.001775584
      8        6          -0.002965433   -0.001512504    0.000487229
      9        6           0.001171851    0.001854750    0.000376768
     10        6          -0.001379506   -0.006328789    0.002224244
     11        6          -0.002909310   -0.000447722    0.006609615
     12        8           0.003199765    0.000680313   -0.008363408
     13        6          -0.000306687    0.000149477    0.000082726
     14        6           0.000089394   -0.000088571    0.000049669
     15        6           0.000146528   -0.000155138    0.000361904
     16        8           0.001658327    0.006959836   -0.003897984
     17        6           0.000433462    0.000231428   -0.000200869
     18        6           0.000120600    0.001652954   -0.000911445
     19        8           0.002279601   -0.002690462    0.001748081
     20        6          -0.000452378   -0.000003196    0.000216077
     21        8           0.006239025    0.002068589    0.001002428
     22        6           0.000374486   -0.000279302   -0.000571587
     23        6           0.001150845   -0.001757015    0.000258787
     24        8          -0.000325336    0.000044028    0.000992269
     25        6           0.000307475   -0.001802108   -0.001259794
     26        6          -0.000047783    0.000203668    0.000132591
     27        6           0.000424077    0.001458413    0.001347935
     28        6           0.000244037    0.000106218    0.000441168
     29        6           0.000492143   -0.000262968    0.000041201
     30        1          -0.000947096   -0.000640679    0.000644896
     31        1          -0.001148179   -0.000499852    0.000605048
     32        6          -0.000151271    0.000362505   -0.000014480
     33        1          -0.000024934    0.000026604   -0.000866629
     34        1          -0.001683245    0.000080950    0.000115930
     35        1           0.001267115    0.001369037   -0.000231632
     36        1          -0.000228618   -0.000686735    0.001091250
     37        1           0.000678976    0.000329319    0.001144908
     38        1          -0.000320559    0.000339206   -0.001538938
     39        1           0.000943539    0.000448801    0.001232340
     40        1           0.000504352    0.000572267   -0.001547065
     41        1          -0.001698035   -0.000266978   -0.000003319
     42        1          -0.000504507   -0.001476496   -0.000130848
     43        1           0.001453660    0.000493406   -0.000564004
     44        1          -0.004988505   -0.001349093   -0.002995918
     45        1           0.000733561   -0.000264183    0.001616721
     46        1          -0.000383511    0.001253645   -0.000685402
     47        1          -0.000925051    0.000189970   -0.001284394
     48        1           0.000975608   -0.001423256   -0.000011438
     49        1          -0.001000080    0.000003979   -0.001279612
     50        1          -0.000670339    0.000542511    0.001374281
     51        1          -0.000557759    0.000087628    0.000824007
     52        1           0.000732507    0.000740845   -0.000280013
     53        1           0.001575958    0.000204787    0.000218077
     54        1          -0.000612702   -0.001368174    0.000310538
     55        1          -0.001264797    0.001584578   -0.000247536
     56        1          -0.000865231   -0.001072979    0.000593806
     57        1           0.001485240    0.000405639    0.000717754
     58        1          -0.000045067    0.000272451   -0.001731309
     59        1           0.000020010    0.000614365   -0.001619191
     60        1          -0.001132617   -0.001045576    0.000362175
     61        1           0.001473340   -0.000702872    0.000598846
     62        6           0.000226454   -0.000016840   -0.000007615
     63        1           0.001511244    0.000118703   -0.000207792
     64        1          -0.001286918   -0.000139489   -0.001237131
[...]
                 (A) (A) (A) (A) (A) (A) (A) (A) (A) (A) (A) (A)
                 (A) (A) (A) (A) (A) (A) (A) (A) (A) (A) (A) (A)
                 (A) (A) (A) (A) (A) (A) (A) (A) (A) (A) (A) (A)
                 (A) (A)
 The electronic state is 1-A.
 Alpha  occ. eigenvalues --  -19.17667 -19.14609 -19.13968 -19.10977 -19.10516
 Alpha  occ. eigenvalues --  -10.26328 -10.26295 -10.26020 -10.25881 -10.25364
 Alpha  occ. eigenvalues --  -10.25258 -10.24209 -10.20657 -10.19841 -10.19805
 Alpha  occ. eigenvalues --  -10.19425 -10.18759 -10.18419 -10.18410 -10.18248
 Alpha  occ. eigenvalues --  -10.17847 -10.17681 -10.17635 -10.17510 -10.17483
 Alpha  occ. eigenvalues --  -10.17077 -10.17071 -10.16879 -10.15772 -10.15677
 Alpha  occ. eigenvalues --  -10.14636  -1.10126  -1.06860  -1.04802  -1.03825
 Alpha  occ. eigenvalues --   -1.03678  -0.87662  -0.84705  -0.83361  -0.82401
 Alpha  occ. eigenvalues --   -0.81135  -0.80436  -0.77712  -0.75122  -0.74102
 Alpha  occ. eigenvalues --   -0.72946  -0.72207  -0.70848  -0.70267  -0.68697
 Alpha  occ. eigenvalues --   -0.65801  -0.65122  -0.64003  -0.62710  -0.61491
 Alpha  occ. eigenvalues --   -0.60376  -0.59959  -0.57894  -0.56141  -0.54458
 Alpha  occ. eigenvalues --   -0.53831  -0.53220  -0.51483  -0.51268  -0.50218
 Alpha  occ. eigenvalues --   -0.49527  -0.48908  -0.47635  -0.47299  -0.46695
 Alpha  occ. eigenvalues --   -0.46236  -0.45481  -0.44739  -0.44329  -0.44202
 Alpha  occ. eigenvalues --   -0.44050  -0.43055  -0.42814  -0.42486  -0.42123
 Alpha  occ. eigenvalues --   -0.42004  -0.41422  -0.41334  -0.41109  -0.40882
 Alpha  occ. eigenvalues --   -0.40148  -0.39908  -0.39287  -0.39081  -0.38697
 Alpha  occ. eigenvalues --   -0.38476  -0.38367  -0.38320  -0.37916  -0.37796
 Alpha  occ. eigenvalues --   -0.37243  -0.36773  -0.36163  -0.35699  -0.35347
 Alpha  occ. eigenvalues --   -0.34728  -0.34479  -0.33847  -0.33519  -0.32991
 Alpha  occ. eigenvalues --   -0.32813  -0.32237  -0.32009  -0.29342  -0.27770
 Alpha  occ. eigenvalues --   -0.27408  -0.26004  -0.25297  -0.24367  -0.24203
 Alpha virt. eigenvalues --   -0.05733  -0.02778  -0.01869  -0.01231  -0.00060
 Alpha virt. eigenvalues --    0.00057   0.00619   0.01011   0.01542   0.01761
 Alpha virt. eigenvalues --    0.02003   0.02294   0.03038   0.03277   0.03407
 Alpha virt. eigenvalues --    0.03500   0.04188   0.04288   0.04447   0.04642
 Alpha virt. eigenvalues --    0.05081   0.05331   0.05725   0.05986   0.06208
 Alpha virt. eigenvalues --    0.06492   0.06922   0.07066   0.07300   0.07552
 Alpha virt. eigenvalues --    0.07775   0.07976   0.08549   0.08682   0.08826
 Alpha virt. eigenvalues --    0.09087   0.09302   0.09492   0.09591   0.09822
 Alpha virt. eigenvalues --    0.09959   0.10416   0.10636   0.10779   0.11031
 Alpha virt. eigenvalues --    0.11092   0.11878   0.11996   0.12131   0.12351
 Alpha virt. eigenvalues --    0.12410   0.12657   0.12907   0.13417   0.13519
 Alpha virt. eigenvalues --    0.13726   0.13934   0.14463   0.14678   0.14835
 Alpha virt. eigenvalues --    0.14848   0.15170   0.15421   0.15786   0.16004
 Alpha virt. eigenvalues --    0.16225   0.16337   0.16816   0.16849   0.17188
 Alpha virt. eigenvalues --    0.17528   0.17592   0.17725   0.17942   0.18122
 Alpha virt. eigenvalues --    0.18375   0.18659   0.18780   0.18916   0.19155
 Alpha virt. eigenvalues --    0.19282   0.19553   0.19707   0.19916   0.20031
 Alpha virt. eigenvalues --    0.20217   0.20527   0.21039   0.21139   0.21279
 Alpha virt. eigenvalues --    0.21350   0.21591   0.21988   0.22025   0.22187
 Alpha virt. eigenvalues --    0.22300   0.22319   0.22516   0.22870   0.22951
 Alpha virt. eigenvalues --    0.23169   0.23293   0.23552   0.23786   0.23829
 Alpha virt. eigenvalues --    0.23992   0.24175   0.24419   0.24772   0.24995
 Alpha virt. eigenvalues --    0.25283   0.25397   0.25793   0.25832   0.26067
 Alpha virt. eigenvalues --    0.26185   0.26724   0.26770   0.26861   0.27076
 Alpha virt. eigenvalues --    0.27204   0.27327   0.27795   0.27987   0.28220
 Alpha virt. eigenvalues --    0.28365   0.28618   0.28835   0.29107   0.29401
 Alpha virt. eigenvalues --    0.29444   0.29877   0.30272   0.30340   0.30678
 Alpha virt. eigenvalues --    0.31146   0.31580   0.31677   0.31731   0.32101
 Alpha virt. eigenvalues --    0.32372   0.32553   0.32799   0.33371   0.33846
 Alpha virt. eigenvalues --    0.33913   0.34103   0.34441   0.34948   0.35227
 Alpha virt. eigenvalues --    0.35383   0.35815   0.36063   0.36616   0.36820
 Alpha virt. eigenvalues --    0.36978   0.37416   0.37700   0.38266   0.38656
 Alpha virt. eigenvalues --    0.39067   0.39107   0.40003   0.40081   0.40606
 Alpha virt. eigenvalues --    0.40841   0.40915   0.41447   0.41677   0.42102
 Alpha virt. eigenvalues --    0.42842   0.43284   0.43420   0.43605   0.44010
 Alpha virt. eigenvalues --    0.44312   0.44627   0.45017   0.45383   0.45896
 Alpha virt. eigenvalues --    0.46097   0.46313   0.46546   0.46915   0.47272
 Alpha virt. eigenvalues --    0.47751   0.48421   0.48733   0.49080   0.49440
 Alpha virt. eigenvalues --    0.49740   0.50601   0.51116   0.51364   0.51785
 Alpha virt. eigenvalues --    0.51991   0.52793   0.53115   0.53846   0.54474
 Alpha virt. eigenvalues --    0.54880   0.55199   0.55371   0.55695   0.56393
 Alpha virt. eigenvalues --    0.56581   0.56867   0.57088   0.58059   0.58170
 Alpha virt. eigenvalues --    0.58511   0.59345   0.59419   0.59667   0.59845
 Alpha virt. eigenvalues --    0.60308   0.60575   0.60935   0.61218   0.61494
 Alpha virt. eigenvalues --    0.62379   0.62860   0.63183   0.63641   0.63833
 Alpha virt. eigenvalues --    0.64319   0.64925   0.65065   0.65869   0.66114
 Alpha virt. eigenvalues --    0.66287   0.66554   0.66868   0.67213   0.67380
 Alpha virt. eigenvalues --    0.67674   0.68088   0.68509   0.68706   0.69336
 Alpha virt. eigenvalues --    0.69661   0.69809   0.70187   0.70394   0.70574
 Alpha virt. eigenvalues --    0.70963   0.70976   0.71420   0.71667   0.72098
 Alpha virt. eigenvalues --    0.72339   0.72540   0.72897   0.72909   0.73700
 Alpha virt. eigenvalues --    0.73780   0.74245   0.74531   0.74659   0.75043
 Alpha virt. eigenvalues --    0.75712   0.76059   0.76088   0.76617   0.76809
 Alpha virt. eigenvalues --    0.76881   0.77324   0.77923   0.78577   0.78847
 Alpha virt. eigenvalues --    0.79523   0.79857   0.80024   0.80264   0.81087
 Alpha virt. eigenvalues --    0.81656   0.81817   0.82244   0.82750   0.83159
 Alpha virt. eigenvalues --    0.83366   0.84238   0.84451   0.84644   0.85159
 Alpha virt. eigenvalues --    0.85845   0.86741   0.87195   0.88690   0.88995
 Alpha virt. eigenvalues --    0.89474   0.89933   0.91251   0.91691   0.92005
 Alpha virt. eigenvalues --    0.93364   0.94410   0.95041   0.95931   0.96764
 Alpha virt. eigenvalues --    0.96842   0.97759   0.98297   0.99277   1.00777
 Alpha virt. eigenvalues --    1.01624   1.02546   1.02943   1.03966   1.05428
 Alpha virt. eigenvalues --    1.06442   1.07448   1.08428   1.08962   1.09746
 Alpha virt. eigenvalues --    1.10397   1.11996   1.12874   1.13886   1.14416
 Alpha virt. eigenvalues --    1.14961   1.15642   1.16390   1.17735   1.19045
 Alpha virt. eigenvalues --    1.20523   1.20892   1.22665   1.23143   1.23978
 Alpha virt. eigenvalues --    1.24606   1.25844   1.26241   1.26910   1.27549
 Alpha virt. eigenvalues --    1.28979   1.29890   1.30111   1.31107   1.31403
 Alpha virt. eigenvalues --    1.32622   1.33193   1.33958   1.34820   1.35361
 Alpha virt. eigenvalues --    1.36484   1.36745   1.37177   1.37990   1.40434
 Alpha virt. eigenvalues --    1.40741   1.41843   1.42161   1.42753   1.43668
 Alpha virt. eigenvalues --    1.45170   1.45592   1.47139   1.47930   1.48158
 Alpha virt. eigenvalues --    1.50463   1.50878   1.51303   1.52003   1.52340
 Alpha virt. eigenvalues --    1.53265   1.53990   1.54624   1.54983   1.55371
 Alpha virt. eigenvalues --    1.56001   1.56506   1.57709   1.58049   1.58296
 Alpha virt. eigenvalues --    1.58644   1.58940   1.59536   1.60007   1.61063
 Alpha virt. eigenvalues --    1.61154   1.61494   1.61903   1.62432   1.62693
 Alpha virt. eigenvalues --    1.63575   1.63952   1.64203   1.64798   1.65051
 Alpha virt. eigenvalues --    1.65363   1.66333   1.66768   1.66952   1.67400
 Alpha virt. eigenvalues --    1.67449   1.68041   1.68944   1.69323   1.70116
 Alpha virt. eigenvalues --    1.70702   1.71378   1.71940   1.72311   1.72915
 Alpha virt. eigenvalues --    1.73944   1.74412   1.74618   1.75652   1.75996
 Alpha virt. eigenvalues --    1.77019   1.77678   1.78129   1.78645   1.79311
 Alpha virt. eigenvalues --    1.79662   1.81830   1.82214   1.82698   1.84352
 Alpha virt. eigenvalues --    1.84624   1.84764   1.86045   1.86129   1.87015
 Alpha virt. eigenvalues --    1.87514   1.88498   1.89022   1.90280   1.91574
 Alpha virt. eigenvalues --    1.92253   1.93019   1.94049   1.94467   1.96783
 Alpha virt. eigenvalues --    1.96975   1.98060   1.99482   2.00301   2.01821
 Alpha virt. eigenvalues --    2.02200   2.03569   2.04207   2.05155   2.06151
 Alpha virt. eigenvalues --    2.07188   2.08035   2.08725   2.09350   2.11991
 Alpha virt. eigenvalues --    2.12782   2.13101   2.14301   2.14715   2.16668
 Alpha virt. eigenvalues --    2.17319   2.18852   2.19565   2.21262   2.21741
 Alpha virt. eigenvalues --    2.22680   2.23324   2.24678   2.25419   2.26889
 Alpha virt. eigenvalues --    2.28320   2.29753   2.31841   2.33134   2.33764
 Alpha virt. eigenvalues --    2.35507   2.37933   2.38545   2.40243   2.42838
 Alpha virt. eigenvalues --    2.44766   2.46686   2.48034   2.49955   2.51030
 Alpha virt. eigenvalues --    2.51553   2.52440   2.53123   2.54428   2.54939
 Alpha virt. eigenvalues --    2.55714   2.56664   2.56754   2.57589   2.58157
 Alpha virt. eigenvalues --    2.58725   2.59248   2.59555   2.60631   2.61829
 Alpha virt. eigenvalues --    2.63319   2.64586   2.65167   2.65792   2.66696
 Alpha virt. eigenvalues --    2.67044   2.68318   2.69361   2.70152   2.70792
 Alpha virt. eigenvalues --    2.71571   2.71976   2.72489   2.72878   2.74899
 Alpha virt. eigenvalues --    2.75514   2.77331   2.81936   2.83782   2.84955
 Alpha virt. eigenvalues --    2.86072   2.87037   2.88260   2.89006   2.90283
 Alpha virt. eigenvalues --    2.90926   2.91355   2.93190   2.93987   2.95845
 Alpha virt. eigenvalues --    2.95900   2.97354   2.98705   2.99411   2.99780
 Alpha virt. eigenvalues --    3.00782   3.01071   3.02046   3.03147   3.03474
 Alpha virt. eigenvalues --    3.04791   3.06717   3.07077   3.08113   3.09184
 Alpha virt. eigenvalues --    3.09764   3.11748   3.12149   3.12935   3.13433
 Alpha virt. eigenvalues --    3.14337   3.15112   3.16225   3.16899   3.17241
 Alpha virt. eigenvalues --    3.17899   3.19773   3.20603   3.21176   3.21316
 Alpha virt. eigenvalues --    3.23077   3.25038   3.25170   3.25923   3.26661
 Alpha virt. eigenvalues --    3.27363   3.27777   3.28597   3.29083   3.29988
 Alpha virt. eigenvalues --    3.30214   3.31639   3.32386   3.33437   3.34282
 Alpha virt. eigenvalues --    3.34879   3.35233   3.36597   3.38129   3.39382
 Alpha virt. eigenvalues --    3.40004   3.41054   3.42004   3.42639   3.44736
 Alpha virt. eigenvalues --    3.47078   3.47785   3.50667   3.52029   3.53434
 Alpha virt. eigenvalues --    3.55249   3.60904   3.62157   3.65532   3.74946
 Alpha virt. eigenvalues --    3.76873   3.78223   3.80359   3.88059   3.89603
 Alpha virt. eigenvalues --    3.89968   3.97214   3.98204   4.01643   4.02902
 Alpha virt. eigenvalues --    4.05430   4.05972   4.07586   4.10013   4.12836
 Alpha virt. eigenvalues --    4.17237   4.17874   4.20024   4.21959   4.22781
 Alpha virt. eigenvalues --    4.23552   4.27747   4.28918   4.32967   4.45498
 Alpha virt. eigenvalues --    4.61709   5.14602   5.16019   5.17757   5.21636
 Alpha virt. eigenvalues --    5.23971   5.28171   5.31583   5.33264   5.42289
 Alpha virt. eigenvalues --    5.42877   5.56802   5.66567   5.74356   5.78328
 Alpha virt. eigenvalues --    5.83074  23.45009  23.46950  23.50996  23.53735
 Alpha virt. eigenvalues --   23.62389  23.63961  23.66418  23.67090  23.69230
 Alpha virt. eigenvalues --   23.70811  23.73661  23.74652  23.76899  23.78580
 Alpha virt. eigenvalues --   23.79371  23.79800  23.82666  23.84887  23.86473
 Alpha virt. eigenvalues --   23.87325  23.89530  23.90854  23.96928  24.19972
 Alpha virt. eigenvalues --   24.20561  24.23786  49.98960  49.99847  50.02436
 Alpha virt. eigenvalues --   50.03260  50.07171
          Condensed to atoms (all electrons):
 Mulliken atomic charges:
              1
     1  C   -0.586461
     2  C    0.826814
     3  C   -0.365209
     4  C   -0.680967
     5  C    1.522613
     6  C   -0.793023
     7  C   -1.103485
     8  C    0.134548
     9  C    0.301206
    10  C   -0.493802
    11  C    0.255340
    12  O   -0.176743
    13  C   -0.021106
    14  C   -0.249541
    15  C   -1.057609
    16  O   -0.158063
    17  C   -0.026689
    18  C    0.519087
    19  O    0.160718
    20  C   -1.208385
    21  O    0.004499
    22  C   -0.600132
    23  C   -0.446440
    24  O    0.049800
    25  C    0.933541
    26  C   -1.021580
    27  C   -1.006955
    28  C   -0.737499
    29  C   -0.688962
    30  H    0.229725
    31  H    0.277652
    32  C   -1.101836
    33  H    0.205591
    34  H    0.238588
    35  H    0.279163
    36  H    0.242553
    37  H    0.219342
    38  H    0.259676
    39  H    0.256564
    40  H    0.281837
    41  H    0.280365
    42  H    0.270114
    43  H    0.283229
    44  H    0.286120
    45  H    0.256380
    46  H    0.284023
    47  H    0.235786
    48  H    0.268111
    49  H    0.263553
    50  H    0.255613
    51  H    0.230320
    52  H    0.239533
    53  H    0.263441
    54  H    0.249254
    55  H    0.308860
    56  H    0.263630
    57  H    0.271882
    58  H    0.264263
    59  H    0.257825
    60  H    0.255726
    61  H    0.256377
    62  C   -0.953643
    63  H    0.242399
    64  H    0.263014
    65  H    0.229456
 Sum of Mulliken atomic charges =   0.00000
 Mulliken charges with hydrogens summed into heavy atoms:
              1
     1  C   -0.380871
     2  C    0.826814
     3  C   -0.087556
     4  C   -0.680967
     5  C    1.522613
     6  C   -0.275272
     7  C   -1.103485
     8  C    0.134548
     9  C    0.301206
    10  C   -0.493802
    11  C    0.255340
    12  O   -0.176743
    13  C    0.221447
    14  C    0.229478
    15  C   -0.238843
    16  O   -0.158063
    17  C    0.203036
    18  C    0.519087
    19  O    0.160718
    20  C   -0.655042
    21  O    0.290619
    22  C   -0.059729
    23  C   -0.210654
    24  O    0.049800
    25  C    0.933541
    26  C   -0.234304
    27  C   -0.537102
    28  C    0.084057
    29  C    0.110813
    32  C   -0.331909
    62  C   -0.218774
 Sum of Mulliken charges with hydrogens summed into heavy atoms =   0.00000
 Electronic spatial extent (au):  <R**2>=          11485.8873
 Charge=              0.0000 electrons
 Dipole moment (field-independent basis, Debye):
    X=              3.9058    Y=              3.8841    Z=             -3.2766  Tot=              6.4092
 Quadrupole moment (field-independent basis, Debye-Ang):
   XX=           -186.3441   YY=           -181.9453   ZZ=           -191.9072
   XY=             -4.8697   XZ=              8.9215   YZ=              4.5954
 Traceless Quadrupole moment (field-independent basis, Debye-Ang):
   XX=              0.3881   YY=              4.7869   ZZ=             -5.1750
   XY=             -4.8697   XZ=              8.9215   YZ=              4.5954
 Octapole moment (field-independent basis, Debye-Ang**2):
  XXX=             37.5148  YYY=             43.6499  ZZZ=             -8.3239  XYY=             -0.2496
  XXY=            -15.9913  XXZ=            -42.9385  XZZ=             30.4288  YZZ=             19.6613
  YYZ=            -29.8562  XYZ=             -4.3046
 Hexadecapole moment (field-independent basis, Debye-Ang**3):
 XXXX=          -8464.6788 YYYY=          -3956.8580 ZZZZ=          -3286.8852 XXXY=             10.2598
 XXXZ=            -21.6768 YYYX=              6.9956 YYYZ=              0.8003 ZZZX=             16.1098
 ZZZY=             -4.2764 XXYY=          -2071.8859 XXZZ=          -1970.6249 YYZZ=          -1201.2126
 XXYZ=             28.1937 YYXZ=              5.8030 ZZXY=            -51.9879
 N-N= 3.510986391260D+03 E-N=-1.025511152195D+04  KE= 1.381920227973D+03
 1\1\GINC-B0800\FOpt\RB3LYP\6-311+G(d)\C26H34O5\CAOFEI\13-Apr-2021\0\\#
  opt b3lyp/6-311+g(d) geom=connectivity\\Title Card Required\\0,1\C,1.
 4697638228,0.2893236481,3.2137925509\C,1.3583959038,1.4967979538,2.656
 8007966\C,1.4879993139,1.6913224512,1.1630123205\C,1.4890778366,0.3939
 070911,0.2958601257\C,1.2398122933,-0.972200509,0.9934325455\C,1.75494
 09364,-0.9732233047,2.4540223481\C,0.4697080855,0.6919017764,-0.840151
 5547\C,-0.9447101993,0.2891381516,-0.4908775359\C,-1.2830321552,-0.740
 818126,0.3095880259\C,-0.2242990733,-1.4909411431,0.9983719301\C,-2.72
 81053829,-1.0772832318,0.6215559114\O,-3.145771172,-0.9508467106,1.750
 5128043\C,-3.5800328893,-1.6139070647,-0.5268212176\C,-5.085247598,-1.
 5095785243,-0.248160496\C,-3.1516025176,-3.0730998366,-0.797811525\O,-
 0.4646601923,-2.5316342595,1.5864464767\C,0.2759505439,2.2199652527,-0
 .9217455964\C,-1.1306104125,2.3611486098,-1.548517743\O,-1.8255418608,
 1.1421050602,-1.0364106867\C,0.4054347319,2.6273370535,0.5568982625\O,
 0.8101168226,0.0564186229,-2.0596718255\C,2.0976482277,-1.9345802757,0
 .1310806437\C,3.3123224411,-1.0853018023,-0.2173530025\O,2.7868185366,
 0.2699691242,-0.3409058758\C,4.1110884307,-1.4124999374,-1.4602067247\
 C,5.2488821434,-0.465457798,-1.7480985369\C,3.8646097275,-2.4831300131
 ,-2.217173353\C,-1.1174494764,2.2901179542,-3.0746543882\C,-1.95334287
 61,3.5525498942,-1.0728828352\H,1.0423176712,2.690968837,-1.5416633929
 \H,2.4653443472,2.1519209226,0.9693751068\C,1.1621549768,2.7407846875,
 3.48510229\H,1.3975302418,0.1981810943,4.2955370134\H,2.8390576692,-1.
 1482576158,2.4586152585\H,1.3178746806,-1.8368803471,2.9589368205\H,-3
 .3312813527,-1.0228300537,-1.4172226194\H,-5.6123348867,-2.0769067716,
 -1.0243829024\H,-5.304598757,-2.0077523552,0.7011819878\H,-3.690610257
 5,-3.4638440504,-1.6649846863\H,-3.3761996013,-3.7112159142,0.06057399
 55\H,-2.0819032097,-3.1562744765,-1.0020202606\H,0.6573273005,3.681899
 011,0.6820150563\H,-0.5417394072,2.4628315522,1.0769854087\H,1.7802235
 445,0.0685665037,-2.1054569605\H,1.5529651637,-2.217925043,-0.77107928
 81\H,2.3522767129,-2.8432290041,0.678539086\H,4.0138233208,-1.07425381
 97,0.6287301756\H,4.8894106033,0.5599838557,-1.8706235856\H,5.96102294
 12,-0.447706101,-0.9148654659\H,5.7912074426,-0.7531726728,-2.65060288
 18\H,4.4789197579,-2.7105062324,-3.0831216056\H,3.0601844129,-3.178724
 166,-2.0081714731\H,-2.1399021233,2.224009754,-3.4543562256\H,-0.66325
 82722,3.1960112296,-3.4866740073\H,-0.5534317601,1.4282495567,-3.42764
 18134\H,-1.4661990625,4.4850832829,-1.371237454\H,-2.9455837748,3.5316
 283463,-1.5287110731\H,-2.0810773436,3.5623037073,0.0093133797\H,1.162
 3002153,2.5084250977,4.551797532\H,1.9611656974,3.4694839974,3.3002312
 499\H,0.2184590666,3.2471872253,3.2567928732\C,-5.6238519418,-0.077016
 7883,-0.2147890494\H,-6.7047168639,-0.0713878427,-0.04624345\H,-5.1636
 4319,0.5051527193,0.5863311176\H,-5.4359969541,0.443246767,-1.15989900
 15\\Version=EM64L-G09RevB.01\State=1-A\HF=-1387.6492455\RMSD=6.189e-09
 \RMSF=3.697e-06\Dipole=1.5375533,1.5874909,-1.2141545\Quadrupole=0.240
 0291,3.2258465,-3.4658756,-3.9318886,6.4832253,3.717906\PG=C01 [X(C26H
 34O5)]\\@


 THERE'S A SUCKER BORN EVERY MINUTE

              -- PHINEAS TAYLOR (P.T.) BARNUM
 Job cpu time:  1 days  4 hours 11 minutes 35.8 seconds.
 File lengths (MBytes):  RWF=    372 Int=      0 D2E=      0 Chk=     38 Scr=      1
 Normal termination of Gaussian 09 at Tue Apr 13 17:28:35 2021.
