 Entering Gaussian System, Link 0=g09
 Initial command:
 /public/software/g09/g09/l1.exe /tmp/Gau-2017.inp -scrdir=/tmp/
 Entering Link 1 = /public/software/g09/g09/l1.exe PID=      2018.
  
 Copyright (c) 1988,1990,1992,1993,1995,1998,2003,2009,2010,
            Gaussian, Inc.  All Rights Reserved.
  
 This is part of the Gaussian(R) 09 program.  It is based on
 the Gaussian(R) 03 system (copyright 2003, Gaussian, Inc.),
 the Gaussian(R) 98 system (copyright 1998, Gaussian, Inc.),
 the Gaussian(R) 94 system (copyright 1995, Gaussian, Inc.),
 the Gaussian 92(TM) system (copyright 1992, Gaussian, Inc.),
 the Gaussian 90(TM) system (copyright 1990, Gaussian, Inc.),
 the Gaussian 88(TM) system (copyright 1988, Gaussian, Inc.),
 the Gaussian 86(TM) system (copyright 1986, Carnegie Mellon
 University), and the Gaussian 82(TM) system (copyright 1983,
 Carnegie Mellon University). Gaussian is a federally registered
 trademark of Gaussian, Inc.
  
 This software contains proprietary and confidential information,
 including trade secrets, belonging to Gaussian, Inc.
  
 This software is provided under written license and may be
 used, copied, transmitted, or stored only in accord with that
 written license.
  
 The following legend is applicable only to US Government
 contracts under FAR:
  
                    RESTRICTED RIGHTS LEGEND
  
 Use, reproduction and disclosure by the US Government is
 subject to restrictions as set forth in subparagraphs (a)
 and (c) of the Commercial Computer Software - Restricted
 Rights clause in FAR 52.227-19.
  
 Gaussian, Inc.
 340 Quinnipiac St., Bldg. 40, Wallingford CT 06492
  
  
 ---------------------------------------------------------------
 Warning -- This program may not be used in any manner that
 competes with the business of Gaussian, Inc. or will provide
 assistance to any competitor of Gaussian, Inc.  The licensee
 of this program is prohibited from giving any competitor of
 Gaussian, Inc. access to this program.  By using this program,
 the user acknowledges that Gaussian, Inc. is engaged in the
 business of creating and licensing software in the field of
 computational chemistry and represents and warrants to the
 licensee that it is not a competitor of Gaussian, Inc. and that
 it will not use this program in any manner prohibited above.
 ---------------------------------------------------------------
  

 Cite this work as:
 Gaussian 09, Revision B.01,
 M. J. Frisch, G. W. Trucks, H. B. Schlegel, G. E. Scuseria, 
 M. A. Robb, J. R. Cheeseman, G. Scalmani, V. Barone, B. Mennucci, 
 G. A. Petersson, H. Nakatsuji, M. Caricato, X. Li, H. P. Hratchian, 
 A. F. Izmaylov, J. Bloino, G. Zheng, J. L. Sonnenberg, M. Hada, 
 M. Ehara, K. Toyota, R. Fukuda, J. Hasegawa, M. Ishida, T. Nakajima, 
 Y. Honda, O. Kitao, H. Nakai, T. Vreven, J. A. Montgomery, Jr., 
 J. E. Peralta, F. Ogliaro, M. Bearpark, J. J. Heyd, E. Brothers, 
 K. N. Kudin, V. N. Staroverov, T. Keith, R. Kobayashi, J. Normand, 
 K. Raghavachari, A. Rendell, J. C. Burant, S. S. Iyengar, J. Tomasi, 
 M. Cossi, N. Rega, J. M. Millam, M. Klene, J. E. Knox, J. B. Cross, 
 V. Bakken, C. Adamo, J. Jaramillo, R. Gomperts, R. E. Stratmann, 
 O. Yazyev, A. J. Austin, R. Cammi, C. Pomelli, J. W. Ochterski, 
 R. L. Martin, K. Morokuma, V. G. Zakrzewski, G. A. Voth, 
 P. Salvador, J. J. Dannenberg, S. Dapprich, A. D. Daniels, 
 O. Farkas, J. B. Foresman, J. V. Ortiz, J. Cioslowski, 
 and D. J. Fox, Gaussian, Inc., Wallingford CT, 2010.
 
 ******************************************
 Gaussian 09:  EM64L-G09RevB.01 12-Aug-2010
                13-Apr-2021 
 ******************************************
 %mem=600MW
 %nprocshared=10
 Will use up to   10 processors via shared memory.
 ----------------------------------------
 # opt b3lyp/6-311+g(d) geom=connectivity
 ----------------------------------------
 1/14=-1,18=20,19=15,26=3,38=1,57=2/1,3;
 2/9=110,12=2,17=6,18=5,40=1/2;
 3/5=4,6=6,7=11,11=2,16=1,25=1,30=1,71=1,74=-5/1,2,3;
 4//1;
 5/5=2,38=5/2;
 6/7=2,8=2,9=2,10=2,28=1/1;
 7//1,2,3,16;
 1/14=-1,18=20,19=15/3(2);
 2/9=110/2;
 99//99;
 2/9=110/2;
 3/5=4,6=6,7=11,11=2,16=1,25=1,30=1,71=1,74=-5/1,2,3;
 4/5=5,16=3/1;
 5/5=2,38=5/2;
 7//1,2,3,16;
 1/14=-1,18=20,19=15/3(-5);
 2/9=110/2;
 6/7=2,8=2,9=2,10=2,19=2,28=1/1;
 99/9=1/99;
 -------------------
 Title Card Required
 -------------------
 Symbolic Z-matrix:
 Charge =  0 Multiplicity = 1
 C                     1.46988   0.05522   3.23554 
 C                     1.5344    1.29587   2.73815 
 C                     1.71793   1.53864   1.25426 
 C                     1.50758   0.29753   0.33254 
 C                     1.03277  -1.0346    0.96812 
 C                     1.57419  -1.19645   2.40799 
 C                     0.55873   0.80134  -0.78369 
 C                    -0.90779   0.64406  -0.43263 
 C                    -1.42227  -0.3814    0.29651 
 C                    -0.50063  -1.2871    0.98804 
 C                    -2.91132  -0.52156   0.4961 
 O                    -3.58943   0.45467   0.77011 
 C                    -3.56683  -1.89114   0.28318 
 C                    -4.61594  -1.7773   -0.84535 
 C                    -4.21135  -2.36382   1.59816 
 O                    -0.9102   -2.25117   1.63123 
 C                     0.63191   2.34255  -0.8189 
 C                    -0.73086   2.73474  -1.44049 
 O                    -1.62114   1.64145  -0.95747 
 C                     0.82085   2.67314   0.67653 
 O                     0.76902   0.13971  -2.01735 
 C                     1.68715  -2.07973   0.02819 
 C                     3.03499  -1.42649  -0.31518 
 O                     2.77668  -0.01054  -0.29976 
 C                     3.65921  -1.86208  -1.62432 
 C                     3.83604  -3.35184  -1.78544 
 C                     4.07167  -0.98413  -2.54466 
 C                    -0.72605   2.69383  -2.96996 
 C                    -1.35095   4.03363  -0.93331 
 H                     1.47168   2.69762  -1.42423 
 H                     2.76469   1.83052   1.08728 
 C                     1.50413   2.51358   3.62847 
 H                     1.37532  -0.07754   4.31246 
 H                     2.6267   -1.51576   2.37235 
 H                     1.02176  -2.01777   2.87331 
 H                    -2.79762  -2.6125   -0.0108 
 H                    -5.137    -2.74126  -0.92002 
 H                    -5.36381  -1.03346  -0.54526 
 H                    -3.45047  -2.50646   2.37041 
 H                    -4.73018  -3.31734   1.44538 
 H                    -4.93939  -1.6256    1.95114 
 H                     1.25607   3.66352   0.83739 
 H                    -0.14871   2.66195   1.18625 
 H                     1.73554   0.01063  -2.08021 
 H                     1.08861  -2.2058   -0.87942 
 H                     1.79027  -3.052     0.51706 
 H                     3.76047  -1.64409   0.48602 
 H                     4.40844  -3.77482  -0.94841 
 H                     2.8712   -3.87417  -1.80272 
 H                     4.36767  -3.58867  -2.71125 
 H                     4.53127  -1.31604  -3.47172 
 H                     3.98824   0.08682  -2.39067 
 H                    -1.74948   2.79088  -3.34649 
 H                    -0.13705   3.53042  -3.36337 
 H                    -0.29699   1.75891  -3.33426 
 H                    -0.72025   4.883    -1.21882 
 H                    -2.33941   4.17567  -1.38103 
 H                    -1.46952   4.03456   0.15229 
 H                     1.44121   2.22903   4.68322 
 H                     2.40945   3.12318   3.49595 
 H                     0.65077   3.16698   3.40656 
 C                    -4.03411  -1.40257  -2.21341 
 H                    -4.81706  -1.3883   -2.98042 
 H                    -3.57331  -0.408    -2.19571 
 H                    -3.2686   -2.12072  -2.53312 
 

 GradGradGradGradGradGradGradGradGradGradGradGradGradGradGradGradGradGrad
 Berny optimization.
 Initialization pass.
                           ----------------------------
                           !    Initial Parameters    !
                           ! (Angstroms and Degrees)  !
 --------------------------                            --------------------------
 ! Name  Definition              Value          Derivative Info.                !
 --------------------------------------------------------------------------------
 ! R1    R(1,2)                  1.3382         estimate D2E/DX2                !
 ! R2    R(1,6)                  1.5041         estimate D2E/DX2                !
 ! R3    R(1,33)                 1.0892         estimate D2E/DX2                !
 ! R4    R(2,3)                  1.5148         estimate D2E/DX2                !
 ! R5    R(2,32)                 1.5088         estimate D2E/DX2                !
 ! R6    R(3,4)                  1.5602         estimate D2E/DX2                !
 ! R7    R(3,20)                 1.5574         estimate D2E/DX2                !
 ! R8    R(3,31)                 1.0995         estimate D2E/DX2                !
 ! R9    R(4,5)                  1.5505         estimate D2E/DX2                !
 ! R10   R(4,7)                  1.5492         estimate D2E/DX2                !
 ! R11   R(4,24)                 1.451          estimate D2E/DX2                !
 ! R12   R(5,6)                  1.5468         estimate D2E/DX2                !
 ! R13   R(5,10)                 1.5542         estimate D2E/DX2                !
 ! R14   R(5,22)                 1.5505         estimate D2E/DX2                !
 ! R15   R(6,34)                 1.1005         estimate D2E/DX2                !
 ! R16   R(6,35)                 1.0937         estimate D2E/DX2                !
 ! R17   R(7,8)                  1.5161         estimate D2E/DX2                !
 ! R18   R(7,17)                 1.5433         estimate D2E/DX2                !
 ! R19   R(7,21)                 1.4156         estimate D2E/DX2                !
 ! R20   R(8,9)                  1.3594         estimate D2E/DX2                !
 ! R21   R(8,19)                 1.3338         estimate D2E/DX2                !
 ! R22   R(9,10)                 1.4656         estimate D2E/DX2                !
 ! R23   R(9,11)                 1.5089         estimate D2E/DX2                !
 ! R24   R(10,16)                1.2292         estimate D2E/DX2                !
 ! R25   R(11,12)                1.2198         estimate D2E/DX2                !
 ! R26   R(11,13)                1.5332         estimate D2E/DX2                !
 ! R27   R(13,14)                1.5451         estimate D2E/DX2                !
 ! R28   R(13,15)                1.5388         estimate D2E/DX2                !
 ! R29   R(13,36)                1.0947         estimate D2E/DX2                !
 ! R30   R(14,37)                1.0983         estimate D2E/DX2                !
 ! R31   R(14,38)                1.0967         estimate D2E/DX2                !
 ! R32   R(14,62)                1.5331         estimate D2E/DX2                !
 ! R33   R(15,39)                1.0935         estimate D2E/DX2                !
 ! R34   R(15,40)                1.0962         estimate D2E/DX2                !
 ! R35   R(15,41)                1.0953         estimate D2E/DX2                !
 ! R36   R(17,18)                1.5483         estimate D2E/DX2                !
 ! R37   R(17,20)                1.5431         estimate D2E/DX2                !
 ! R38   R(17,30)                1.0944         estimate D2E/DX2                !
 ! R39   R(18,19)                1.4904         estimate D2E/DX2                !
 ! R40   R(18,28)                1.53           estimate D2E/DX2                !
 ! R41   R(18,29)                1.5261         estimate D2E/DX2                !
 ! R42   R(20,42)                1.0937         estimate D2E/DX2                !
 ! R43   R(20,43)                1.0954         estimate D2E/DX2                !
 ! R44   R(21,44)                0.9771         estimate D2E/DX2                !
 ! R45   R(22,23)                1.5367         estimate D2E/DX2                !
 ! R46   R(22,45)                1.0945         estimate D2E/DX2                !
 ! R47   R(22,46)                1.0931         estimate D2E/DX2                !
 ! R48   R(23,24)                1.4394         estimate D2E/DX2                !
 ! R49   R(23,25)                1.5143         estimate D2E/DX2                !
 ! R50   R(23,47)                1.1025         estimate D2E/DX2                !
 ! R51   R(25,26)                1.5088         estimate D2E/DX2                !
 ! R52   R(25,27)                1.3371         estimate D2E/DX2                !
 ! R53   R(26,48)                1.0987         estimate D2E/DX2                !
 ! R54   R(26,49)                1.0973         estimate D2E/DX2                !
 ! R55   R(26,50)                1.0935         estimate D2E/DX2                !
 ! R56   R(27,51)                1.0867         estimate D2E/DX2                !
 ! R57   R(27,52)                1.0852         estimate D2E/DX2                !
 ! R58   R(28,53)                1.0948         estimate D2E/DX2                !
 ! R59   R(28,54)                1.0962         estimate D2E/DX2                !
 ! R60   R(28,55)                1.0913         estimate D2E/DX2                !
 ! R61   R(29,56)                1.0958         estimate D2E/DX2                !
 ! R62   R(29,57)                1.0944         estimate D2E/DX2                !
 ! R63   R(29,58)                1.0921         estimate D2E/DX2                !
 ! R64   R(32,59)                1.0943         estimate D2E/DX2                !
 ! R65   R(32,60)                1.0994         estimate D2E/DX2                !
 ! R66   R(32,61)                1.0975         estimate D2E/DX2                !
 ! R67   R(62,63)                1.0961         estimate D2E/DX2                !
 ! R68   R(62,64)                1.0963         estimate D2E/DX2                !
 ! R69   R(62,65)                1.0973         estimate D2E/DX2                !
 ! A1    A(2,1,6)              124.3093         estimate D2E/DX2                !
 ! A2    A(2,1,33)             118.9922         estimate D2E/DX2                !
 ! A3    A(6,1,33)             116.6524         estimate D2E/DX2                !
 ! A4    A(1,2,3)              121.2339         estimate D2E/DX2                !
 ! A5    A(1,2,32)             121.8675         estimate D2E/DX2                !
 ! A6    A(3,2,32)             116.817          estimate D2E/DX2                !
 ! A7    A(2,3,4)              115.7794         estimate D2E/DX2                !
 ! A8    A(2,3,20)             114.2266         estimate D2E/DX2                !
 ! A9    A(2,3,31)             107.8592         estimate D2E/DX2                !
 ! A10   A(4,3,20)             106.4191         estimate D2E/DX2                !
 ! A11   A(4,3,31)             104.4664         estimate D2E/DX2                !
 ! A12   A(20,3,31)            107.3779         estimate D2E/DX2                !
 ! A13   A(3,4,5)              118.8534         estimate D2E/DX2                !
 ! A14   A(3,4,7)              104.4503         estimate D2E/DX2                !
 ! A15   A(3,4,24)             107.9643         estimate D2E/DX2                !
 ! A16   A(5,4,7)              112.7806         estimate D2E/DX2                !
 ! A17   A(5,4,24)             105.3112         estimate D2E/DX2                !
 ! A18   A(7,4,24)             106.904          estimate D2E/DX2                !
 ! A19   A(4,5,6)              111.3649         estimate D2E/DX2                !
 ! A20   A(4,5,10)             116.5499         estimate D2E/DX2                !
 ! A21   A(4,5,22)             101.6184         estimate D2E/DX2                !
 ! A22   A(6,5,10)             108.4466         estimate D2E/DX2                !
 ! A23   A(6,5,22)             110.246          estimate D2E/DX2                !
 ! A24   A(10,5,22)            108.3404         estimate D2E/DX2                !
 ! A25   A(1,6,5)              113.6283         estimate D2E/DX2                !
 ! A26   A(1,6,34)             109.0021         estimate D2E/DX2                !
 ! A27   A(1,6,35)             110.8416         estimate D2E/DX2                !
 ! A28   A(5,6,34)             109.5722         estimate D2E/DX2                !
 ! A29   A(5,6,35)             107.3267         estimate D2E/DX2                !
 ! A30   A(34,6,35)            106.1987         estimate D2E/DX2                !
 ! A31   A(4,7,8)              113.07           estimate D2E/DX2                !
 ! A32   A(4,7,17)             108.1887         estimate D2E/DX2                !
 ! A33   A(4,7,21)             112.6394         estimate D2E/DX2                !
 ! A34   A(8,7,17)              98.9019         estimate D2E/DX2                !
 ! A35   A(8,7,21)             107.2771         estimate D2E/DX2                !
 ! A36   A(17,7,21)            116.0921         estimate D2E/DX2                !
 ! A37   A(7,8,9)              124.6482         estimate D2E/DX2                !
 ! A38   A(7,8,19)             110.4036         estimate D2E/DX2                !
 ! A39   A(9,8,19)             124.9407         estimate D2E/DX2                !
 ! A40   A(8,9,10)             118.7683         estimate D2E/DX2                !
 ! A41   A(8,9,11)             120.9647         estimate D2E/DX2                !
 ! A42   A(10,9,11)            120.051          estimate D2E/DX2                !
 ! A43   A(5,10,9)             120.9309         estimate D2E/DX2                !
 ! A44   A(5,10,16)            117.5733         estimate D2E/DX2                !
 ! A45   A(9,10,16)            121.4705         estimate D2E/DX2                !
 ! A46   A(9,11,12)            120.2636         estimate D2E/DX2                !
 ! A47   A(9,11,13)            119.1118         estimate D2E/DX2                !
 ! A48   A(12,11,13)           120.5586         estimate D2E/DX2                !
 ! A49   A(11,13,14)           109.0213         estimate D2E/DX2                !
 ! A50   A(11,13,15)           109.5589         estimate D2E/DX2                !
 ! A51   A(11,13,36)           108.9954         estimate D2E/DX2                !
 ! A52   A(14,13,15)           111.2474         estimate D2E/DX2                !
 ! A53   A(14,13,36)           109.2391         estimate D2E/DX2                !
 ! A54   A(15,13,36)           108.7456         estimate D2E/DX2                !
 ! A55   A(13,14,37)           107.8857         estimate D2E/DX2                !
 ! A56   A(13,14,38)           108.2499         estimate D2E/DX2                !
 ! A57   A(13,14,62)           114.336          estimate D2E/DX2                !
 ! A58   A(37,14,38)           106.8809         estimate D2E/DX2                !
 ! A59   A(37,14,62)           109.5059         estimate D2E/DX2                !
 ! A60   A(38,14,62)           109.7058         estimate D2E/DX2                !
 ! A61   A(13,15,39)           110.6175         estimate D2E/DX2                !
 ! A62   A(13,15,40)           110.2618         estimate D2E/DX2                !
 ! A63   A(13,15,41)           110.2904         estimate D2E/DX2                !
 ! A64   A(39,15,40)           108.3179         estimate D2E/DX2                !
 ! A65   A(39,15,41)           108.8359         estimate D2E/DX2                !
 ! A66   A(40,15,41)           108.4564         estimate D2E/DX2                !
 ! A67   A(7,17,18)            102.731          estimate D2E/DX2                !
 ! A68   A(7,17,20)            101.3986         estimate D2E/DX2                !
 ! A69   A(7,17,30)            111.9004         estimate D2E/DX2                !
 ! A70   A(18,17,20)           116.2664         estimate D2E/DX2                !
 ! A71   A(18,17,30)           111.7856         estimate D2E/DX2                !
 ! A72   A(20,17,30)           111.8735         estimate D2E/DX2                !
 ! A73   A(17,18,19)           102.113          estimate D2E/DX2                !
 ! A74   A(17,18,28)           113.0648         estimate D2E/DX2                !
 ! A75   A(17,18,29)           116.0914         estimate D2E/DX2                !
 ! A76   A(19,18,28)           107.8329         estimate D2E/DX2                !
 ! A77   A(19,18,29)           105.8982         estimate D2E/DX2                !
 ! A78   A(28,18,29)           110.8712         estimate D2E/DX2                !
 ! A79   A(8,19,18)            110.8908         estimate D2E/DX2                !
 ! A80   A(3,20,17)            105.8992         estimate D2E/DX2                !
 ! A81   A(3,20,42)            112.0781         estimate D2E/DX2                !
 ! A82   A(3,20,43)            109.2543         estimate D2E/DX2                !
 ! A83   A(17,20,42)           112.6594         estimate D2E/DX2                !
 ! A84   A(17,20,43)           109.8989         estimate D2E/DX2                !
 ! A85   A(42,20,43)           107.039          estimate D2E/DX2                !
 ! A86   A(7,21,44)            105.3521         estimate D2E/DX2                !
 ! A87   A(5,22,23)            102.6559         estimate D2E/DX2                !
 ! A88   A(5,22,45)            110.4596         estimate D2E/DX2                !
 ! A89   A(5,22,46)            111.6075         estimate D2E/DX2                !
 ! A90   A(23,22,45)           110.0806         estimate D2E/DX2                !
 ! A91   A(23,22,46)           113.2842         estimate D2E/DX2                !
 ! A92   A(45,22,46)           108.663          estimate D2E/DX2                !
 ! A93   A(22,23,24)           104.9741         estimate D2E/DX2                !
 ! A94   A(22,23,25)           115.623          estimate D2E/DX2                !
 ! A95   A(22,23,47)           109.3221         estimate D2E/DX2                !
 ! A96   A(24,23,25)           111.4809         estimate D2E/DX2                !
 ! A97   A(24,23,47)           107.7252         estimate D2E/DX2                !
 ! A98   A(25,23,47)           107.4699         estimate D2E/DX2                !
 ! A99   A(4,24,23)            111.7463         estimate D2E/DX2                !
 ! A100  A(23,25,26)           115.1273         estimate D2E/DX2                !
 ! A101  A(23,25,27)           122.2294         estimate D2E/DX2                !
 ! A102  A(26,25,27)           122.5904         estimate D2E/DX2                !
 ! A103  A(25,26,48)           111.0886         estimate D2E/DX2                !
 ! A104  A(25,26,49)           111.6313         estimate D2E/DX2                !
 ! A105  A(25,26,50)           111.175          estimate D2E/DX2                !
 ! A106  A(48,26,49)           106.6678         estimate D2E/DX2                !
 ! A107  A(48,26,50)           107.9582         estimate D2E/DX2                !
 ! A108  A(49,26,50)           108.1223         estimate D2E/DX2                !
 ! A109  A(25,27,51)           121.1388         estimate D2E/DX2                !
 ! A110  A(25,27,52)           121.7752         estimate D2E/DX2                !
 ! A111  A(51,27,52)           117.0662         estimate D2E/DX2                !
 ! A112  A(18,28,53)           109.7853         estimate D2E/DX2                !
 ! A113  A(18,28,54)           109.8799         estimate D2E/DX2                !
 ! A114  A(18,28,55)           110.969          estimate D2E/DX2                !
 ! A115  A(53,28,54)           108.1308         estimate D2E/DX2                !
 ! A116  A(53,28,55)           109.188          estimate D2E/DX2                !
 ! A117  A(54,28,55)           108.8312         estimate D2E/DX2                !
 ! A118  A(18,29,56)           109.8327         estimate D2E/DX2                !
 ! A119  A(18,29,57)           109.9687         estimate D2E/DX2                !
 ! A120  A(18,29,58)           112.0379         estimate D2E/DX2                !
 ! A121  A(56,29,57)           108.2204         estimate D2E/DX2                !
 ! A122  A(56,29,58)           108.714          estimate D2E/DX2                !
 ! A123  A(57,29,58)           107.9695         estimate D2E/DX2                !
 ! A124  A(2,32,59)            111.1043         estimate D2E/DX2                !
 ! A125  A(2,32,60)            111.091          estimate D2E/DX2                !
 ! A126  A(2,32,61)            112.1354         estimate D2E/DX2                !
 ! A127  A(59,32,60)           107.921          estimate D2E/DX2                !
 ! A128  A(59,32,61)           107.7591         estimate D2E/DX2                !
 ! A129  A(60,32,61)           106.6071         estimate D2E/DX2                !
 ! A130  A(14,62,63)           110.8858         estimate D2E/DX2                !
 ! A131  A(14,62,64)           111.5221         estimate D2E/DX2                !
 ! A132  A(14,62,65)           111.3947         estimate D2E/DX2                !
 ! A133  A(63,62,64)           107.4409         estimate D2E/DX2                !
 ! A134  A(63,62,65)           107.635          estimate D2E/DX2                !
 ! A135  A(64,62,65)           107.772          estimate D2E/DX2                !
 ! D1    D(6,1,2,3)              0.2547         estimate D2E/DX2                !
 ! D2    D(6,1,2,32)          -176.3572         estimate D2E/DX2                !
 ! D3    D(33,1,2,3)           177.6998         estimate D2E/DX2                !
 ! D4    D(33,1,2,32)            1.0879         estimate D2E/DX2                !
 ! D5    D(2,1,6,5)            -30.5004         estimate D2E/DX2                !
 ! D6    D(2,1,6,34)            92.0049         estimate D2E/DX2                !
 ! D7    D(2,1,6,35)          -151.4562         estimate D2E/DX2                !
 ! D8    D(33,1,6,5)           152.0            estimate D2E/DX2                !
 ! D9    D(33,1,6,34)          -85.4947         estimate D2E/DX2                !
 ! D10   D(33,1,6,35)           31.0442         estimate D2E/DX2                !
 ! D11   D(1,2,3,4)             13.0955         estimate D2E/DX2                !
 ! D12   D(1,2,3,20)           137.2584         estimate D2E/DX2                !
 ! D13   D(1,2,3,31)          -103.4613         estimate D2E/DX2                !
 ! D14   D(32,2,3,4)          -170.1285         estimate D2E/DX2                !
 ! D15   D(32,2,3,20)          -45.9656         estimate D2E/DX2                !
 ! D16   D(32,2,3,31)           73.3147         estimate D2E/DX2                !
 ! D17   D(1,2,32,59)            0.8819         estimate D2E/DX2                !
 ! D18   D(1,2,32,60)          121.0387         estimate D2E/DX2                !
 ! D19   D(1,2,32,61)         -119.779          estimate D2E/DX2                !
 ! D20   D(3,2,32,59)         -175.8721         estimate D2E/DX2                !
 ! D21   D(3,2,32,60)          -55.7153         estimate D2E/DX2                !
 ! D22   D(3,2,32,61)           63.467          estimate D2E/DX2                !
 ! D23   D(2,3,4,5)              4.5098         estimate D2E/DX2                !
 ! D24   D(2,3,4,7)            131.273          estimate D2E/DX2                !
 ! D25   D(2,3,4,24)          -115.1984         estimate D2E/DX2                !
 ! D26   D(20,3,4,5)          -123.6165         estimate D2E/DX2                !
 ! D27   D(20,3,4,7)             3.1467         estimate D2E/DX2                !
 ! D28   D(20,3,4,24)          116.6753         estimate D2E/DX2                !
 ! D29   D(31,3,4,5)           122.9558         estimate D2E/DX2                !
 ! D30   D(31,3,4,7)          -110.281          estimate D2E/DX2                !
 ! D31   D(31,3,4,24)            3.2477         estimate D2E/DX2                !
 ! D32   D(2,3,20,17)         -153.919          estimate D2E/DX2                !
 ! D33   D(2,3,20,42)           82.8641         estimate D2E/DX2                !
 ! D34   D(2,3,20,43)          -35.6011         estimate D2E/DX2                !
 ! D35   D(4,3,20,17)          -24.8849         estimate D2E/DX2                !
 ! D36   D(4,3,20,42)         -148.1018         estimate D2E/DX2                !
 ! D37   D(4,3,20,43)           93.433          estimate D2E/DX2                !
 ! D38   D(31,3,20,17)          86.5295         estimate D2E/DX2                !
 ! D39   D(31,3,20,42)         -36.6874         estimate D2E/DX2                !
 ! D40   D(31,3,20,43)        -155.1526         estimate D2E/DX2                !
 ! D41   D(3,4,5,6)            -32.2676         estimate D2E/DX2                !
 ! D42   D(3,4,5,10)            92.8523         estimate D2E/DX2                !
 ! D43   D(3,4,5,22)          -149.6412         estimate D2E/DX2                !
 ! D44   D(7,4,5,6)           -154.9786         estimate D2E/DX2                !
 ! D45   D(7,4,5,10)           -29.8587         estimate D2E/DX2                !
 ! D46   D(7,4,5,22)            87.6478         estimate D2E/DX2                !
 ! D47   D(24,4,5,6)            88.7929         estimate D2E/DX2                !
 ! D48   D(24,4,5,10)         -146.0872         estimate D2E/DX2                !
 ! D49   D(24,4,5,22)          -28.5807         estimate D2E/DX2                !
 ! D50   D(3,4,7,8)            -88.608          estimate D2E/DX2                !
 ! D51   D(3,4,7,17)            19.8726         estimate D2E/DX2                !
 ! D52   D(3,4,7,21)           149.5624         estimate D2E/DX2                !
 ! D53   D(5,4,7,8)             41.8371         estimate D2E/DX2                !
 ! D54   D(5,4,7,17)           150.3177         estimate D2E/DX2                !
 ! D55   D(5,4,7,21)           -79.9925         estimate D2E/DX2                !
 ! D56   D(24,4,7,8)           157.1121         estimate D2E/DX2                !
 ! D57   D(24,4,7,17)          -94.4074         estimate D2E/DX2                !
 ! D58   D(24,4,7,21)           35.2825         estimate D2E/DX2                !
 ! D59   D(3,4,24,23)          137.4012         estimate D2E/DX2                !
 ! D60   D(5,4,24,23)            9.4682         estimate D2E/DX2                !
 ! D61   D(7,4,24,23)         -110.7161         estimate D2E/DX2                !
 ! D62   D(4,5,6,1)             43.9551         estimate D2E/DX2                !
 ! D63   D(4,5,6,34)           -78.2352         estimate D2E/DX2                !
 ! D64   D(4,5,6,35)           166.8626         estimate D2E/DX2                !
 ! D65   D(10,5,6,1)           -85.572          estimate D2E/DX2                !
 ! D66   D(10,5,6,34)          152.2378         estimate D2E/DX2                !
 ! D67   D(10,5,6,35)           37.3356         estimate D2E/DX2                !
 ! D68   D(22,5,6,1)           155.9658         estimate D2E/DX2                !
 ! D69   D(22,5,6,34)           33.7755         estimate D2E/DX2                !
 ! D70   D(22,5,6,35)          -81.1267         estimate D2E/DX2                !
 ! D71   D(4,5,10,9)             7.0388         estimate D2E/DX2                !
 ! D72   D(4,5,10,16)         -171.1558         estimate D2E/DX2                !
 ! D73   D(6,5,10,9)           133.6214         estimate D2E/DX2                !
 ! D74   D(6,5,10,16)          -44.5732         estimate D2E/DX2                !
 ! D75   D(22,5,10,9)         -106.716          estimate D2E/DX2                !
 ! D76   D(22,5,10,16)          75.0894         estimate D2E/DX2                !
 ! D77   D(4,5,22,23)           36.3671         estimate D2E/DX2                !
 ! D78   D(4,5,22,45)          -80.9787         estimate D2E/DX2                !
 ! D79   D(4,5,22,46)          158.015          estimate D2E/DX2                !
 ! D80   D(6,5,22,23)          -81.8137         estimate D2E/DX2                !
 ! D81   D(6,5,22,45)          160.8406         estimate D2E/DX2                !
 ! D82   D(6,5,22,46)           39.8342         estimate D2E/DX2                !
 ! D83   D(10,5,22,23)         159.6591         estimate D2E/DX2                !
 ! D84   D(10,5,22,45)          42.3133         estimate D2E/DX2                !
 ! D85   D(10,5,22,46)         -78.693          estimate D2E/DX2                !
 ! D86   D(4,7,8,9)            -34.6309         estimate D2E/DX2                !
 ! D87   D(4,7,8,19)           146.3264         estimate D2E/DX2                !
 ! D88   D(17,7,8,9)          -148.8439         estimate D2E/DX2                !
 ! D89   D(17,7,8,19)           32.1135         estimate D2E/DX2                !
 ! D90   D(21,7,8,9)            90.1633         estimate D2E/DX2                !
 ! D91   D(21,7,8,19)          -88.8793         estimate D2E/DX2                !
 ! D92   D(4,7,17,18)         -155.3012         estimate D2E/DX2                !
 ! D93   D(4,7,17,20)          -34.7454         estimate D2E/DX2                !
 ! D94   D(4,7,17,30)           84.6387         estimate D2E/DX2                !
 ! D95   D(8,7,17,18)          -37.3346         estimate D2E/DX2                !
 ! D96   D(8,7,17,20)           83.2212         estimate D2E/DX2                !
 ! D97   D(8,7,17,30)         -157.3946         estimate D2E/DX2                !
 ! D98   D(21,7,17,18)          76.9602         estimate D2E/DX2                !
 ! D99   D(21,7,17,20)        -162.484          estimate D2E/DX2                !
 ! D100  D(21,7,17,30)         -43.0998         estimate D2E/DX2                !
 ! D101  D(4,7,21,44)          -37.6855         estimate D2E/DX2                !
 ! D102  D(8,7,21,44)         -162.7397         estimate D2E/DX2                !
 ! D103  D(17,7,21,44)          87.8237         estimate D2E/DX2                !
 ! D104  D(7,8,9,10)            10.721          estimate D2E/DX2                !
 ! D105  D(7,8,9,11)          -174.6161         estimate D2E/DX2                !
 ! D106  D(19,8,9,10)         -170.3736         estimate D2E/DX2                !
 ! D107  D(19,8,9,11)            4.2893         estimate D2E/DX2                !
 ! D108  D(7,8,19,18)          -12.9801         estimate D2E/DX2                !
 ! D109  D(9,8,19,18)          167.9806         estimate D2E/DX2                !
 ! D110  D(8,9,10,5)             3.8582         estimate D2E/DX2                !
 ! D111  D(8,9,10,16)         -178.0181         estimate D2E/DX2                !
 ! D112  D(11,9,10,5)         -170.8547         estimate D2E/DX2                !
 ! D113  D(11,9,10,16)           7.2689         estimate D2E/DX2                !
 ! D114  D(8,9,11,12)          -44.0686         estimate D2E/DX2                !
 ! D115  D(8,9,11,13)          132.9916         estimate D2E/DX2                !
 ! D116  D(10,9,11,12)         130.5263         estimate D2E/DX2                !
 ! D117  D(10,9,11,13)         -52.4134         estimate D2E/DX2                !
 ! D118  D(9,11,13,14)        -119.6066         estimate D2E/DX2                !
 ! D119  D(9,11,13,15)         118.4367         estimate D2E/DX2                !
 ! D120  D(9,11,13,36)          -0.444          estimate D2E/DX2                !
 ! D121  D(12,11,13,14)         57.4447         estimate D2E/DX2                !
 ! D122  D(12,11,13,15)        -64.512          estimate D2E/DX2                !
 ! D123  D(12,11,13,36)        176.6073         estimate D2E/DX2                !
 ! D124  D(11,13,14,37)       -174.9178         estimate D2E/DX2                !
 ! D125  D(11,13,14,38)        -59.5958         estimate D2E/DX2                !
 ! D126  D(11,13,14,62)         63.0069         estimate D2E/DX2                !
 ! D127  D(15,13,14,37)        -53.9883         estimate D2E/DX2                !
 ! D128  D(15,13,14,38)         61.3337         estimate D2E/DX2                !
 ! D129  D(15,13,14,62)       -176.0635         estimate D2E/DX2                !
 ! D130  D(36,13,14,37)         66.0714         estimate D2E/DX2                !
 ! D131  D(36,13,14,38)       -178.6065         estimate D2E/DX2                !
 ! D132  D(36,13,14,62)        -56.0038         estimate D2E/DX2                !
 ! D133  D(11,13,15,39)        -63.2523         estimate D2E/DX2                !
 ! D134  D(11,13,15,40)        176.9573         estimate D2E/DX2                !
 ! D135  D(11,13,15,41)         57.2034         estimate D2E/DX2                !
 ! D136  D(14,13,15,39)        176.1342         estimate D2E/DX2                !
 ! D137  D(14,13,15,40)         56.3437         estimate D2E/DX2                !
 ! D138  D(14,13,15,41)        -63.4102         estimate D2E/DX2                !
 ! D139  D(36,13,15,39)         55.7827         estimate D2E/DX2                !
 ! D140  D(36,13,15,40)        -64.0078         estimate D2E/DX2                !
 ! D141  D(36,13,15,41)        176.2383         estimate D2E/DX2                !
 ! D142  D(13,14,62,63)        177.061          estimate D2E/DX2                !
 ! D143  D(13,14,62,64)        -63.2479         estimate D2E/DX2                !
 ! D144  D(13,14,62,65)         57.2094         estimate D2E/DX2                !
 ! D145  D(37,14,62,63)         55.876          estimate D2E/DX2                !
 ! D146  D(37,14,62,64)        175.5671         estimate D2E/DX2                !
 ! D147  D(37,14,62,65)        -63.9756         estimate D2E/DX2                !
 ! D148  D(38,14,62,63)        -61.1312         estimate D2E/DX2                !
 ! D149  D(38,14,62,64)         58.5599         estimate D2E/DX2                !
 ! D150  D(38,14,62,65)        179.0172         estimate D2E/DX2                !
 ! D151  D(7,17,18,19)          31.3441         estimate D2E/DX2                !
 ! D152  D(7,17,18,28)         -84.2387         estimate D2E/DX2                !
 ! D153  D(7,17,18,29)         145.9931         estimate D2E/DX2                !
 ! D154  D(20,17,18,19)        -78.3769         estimate D2E/DX2                !
 ! D155  D(20,17,18,28)        166.0404         estimate D2E/DX2                !
 ! D156  D(20,17,18,29)         36.2721         estimate D2E/DX2                !
 ! D157  D(30,17,18,19)        151.4835         estimate D2E/DX2                !
 ! D158  D(30,17,18,28)         35.9008         estimate D2E/DX2                !
 ! D159  D(30,17,18,29)        -93.8675         estimate D2E/DX2                !
 ! D160  D(7,17,20,3)           35.9997         estimate D2E/DX2                !
 ! D161  D(7,17,20,42)         158.8486         estimate D2E/DX2                !
 ! D162  D(7,17,20,43)         -81.889          estimate D2E/DX2                !
 ! D163  D(18,17,20,3)         146.4985         estimate D2E/DX2                !
 ! D164  D(18,17,20,42)        -90.6526         estimate D2E/DX2                !
 ! D165  D(18,17,20,43)         28.6098         estimate D2E/DX2                !
 ! D166  D(30,17,20,3)         -83.4037         estimate D2E/DX2                !
 ! D167  D(30,17,20,42)         39.4452         estimate D2E/DX2                !
 ! D168  D(30,17,20,43)        158.7076         estimate D2E/DX2                !
 ! D169  D(17,18,19,8)         -12.1746         estimate D2E/DX2                !
 ! D170  D(28,18,19,8)         107.1633         estimate D2E/DX2                !
 ! D171  D(29,18,19,8)        -134.1015         estimate D2E/DX2                !
 ! D172  D(17,18,28,53)        169.2959         estimate D2E/DX2                !
 ! D173  D(17,18,28,54)        -71.9046         estimate D2E/DX2                !
 ! D174  D(17,18,28,55)         48.5037         estimate D2E/DX2                !
 ! D175  D(19,18,28,53)         57.1749         estimate D2E/DX2                !
 ! D176  D(19,18,28,54)        175.9744         estimate D2E/DX2                !
 ! D177  D(19,18,28,55)        -63.6173         estimate D2E/DX2                !
 ! D178  D(29,18,28,53)        -58.3321         estimate D2E/DX2                !
 ! D179  D(29,18,28,54)         60.4674         estimate D2E/DX2                !
 ! D180  D(29,18,28,55)       -179.1243         estimate D2E/DX2                !
 ! D181  D(17,18,29,56)         65.1623         estimate D2E/DX2                !
 ! D182  D(17,18,29,57)       -175.8449         estimate D2E/DX2                !
 ! D183  D(17,18,29,58)        -55.7654         estimate D2E/DX2                !
 ! D184  D(19,18,29,56)        177.6462         estimate D2E/DX2                !
 ! D185  D(19,18,29,57)        -63.361          estimate D2E/DX2                !
 ! D186  D(19,18,29,58)         56.7185         estimate D2E/DX2                !
 ! D187  D(28,18,29,56)        -65.6498         estimate D2E/DX2                !
 ! D188  D(28,18,29,57)         53.343          estimate D2E/DX2                !
 ! D189  D(28,18,29,58)        173.4225         estimate D2E/DX2                !
 ! D190  D(5,22,23,24)         -31.7017         estimate D2E/DX2                !
 ! D191  D(5,22,23,25)        -154.9787         estimate D2E/DX2                !
 ! D192  D(5,22,23,47)          83.6228         estimate D2E/DX2                !
 ! D193  D(45,22,23,24)         85.9132         estimate D2E/DX2                !
 ! D194  D(45,22,23,25)        -37.3638         estimate D2E/DX2                !
 ! D195  D(45,22,23,47)       -158.7622         estimate D2E/DX2                !
 ! D196  D(46,22,23,24)       -152.2002         estimate D2E/DX2                !
 ! D197  D(46,22,23,25)         84.5229         estimate D2E/DX2                !
 ! D198  D(46,22,23,47)        -36.8756         estimate D2E/DX2                !
 ! D199  D(22,23,24,4)          14.161          estimate D2E/DX2                !
 ! D200  D(25,23,24,4)         140.0572         estimate D2E/DX2                !
 ! D201  D(47,23,24,4)        -102.2667         estimate D2E/DX2                !
 ! D202  D(22,23,25,26)        -54.2704         estimate D2E/DX2                !
 ! D203  D(22,23,25,27)        128.3123         estimate D2E/DX2                !
 ! D204  D(24,23,25,26)       -174.052          estimate D2E/DX2                !
 ! D205  D(24,23,25,27)          8.5307         estimate D2E/DX2                !
 ! D206  D(47,23,25,26)         68.118          estimate D2E/DX2                !
 ! D207  D(47,23,25,27)       -109.2993         estimate D2E/DX2                !
 ! D208  D(23,25,26,48)        -54.8858         estimate D2E/DX2                !
 ! D209  D(23,25,26,49)         64.037          estimate D2E/DX2                !
 ! D210  D(23,25,26,50)       -175.1354         estimate D2E/DX2                !
 ! D211  D(27,25,26,48)        122.5212         estimate D2E/DX2                !
 ! D212  D(27,25,26,49)       -118.556          estimate D2E/DX2                !
 ! D213  D(27,25,26,50)          2.2715         estimate D2E/DX2                !
 ! D214  D(23,25,27,51)        179.0496         estimate D2E/DX2                !
 ! D215  D(23,25,27,52)          0.7144         estimate D2E/DX2                !
 ! D216  D(26,25,27,51)          1.8251         estimate D2E/DX2                !
 ! D217  D(26,25,27,52)       -176.5101         estimate D2E/DX2                !
 --------------------------------------------------------------------------------
 Trust Radius=3.00D-01 FncErr=1.00D-07 GrdErr=1.00D-06
 Number of steps in this run=    390 maximum allowed number of steps=    390.
 GradGradGradGradGradGradGradGradGradGradGradGradGradGradGradGradGradGrad

 Stoichiometry    C26H34O5
 Framework group  C1[X(C26H34O5)]
 Deg. of freedom   189
 Full point group                 C1      NOp   1
 Largest Abelian subgroup         C1      NOp   1
 Largest concise Abelian subgroup C1      NOp   1
                         Standard orientation:                         
 ---------------------------------------------------------------------
 Center     Atomic      Atomic             Coordinates (Angstroms)
 Number     Number       Type             X           Y           Z
 ---------------------------------------------------------------------
      1          6           0        1.469876    0.055224    3.235535
      2          6           0        1.534402    1.295871    2.738150
      3          6           0        1.717925    1.538642    1.254263
      4          6           0        1.507579    0.297532    0.332536
      5          6           0        1.032770   -1.034597    0.968123
      6          6           0        1.574188   -1.196452    2.407985
      7          6           0        0.558734    0.801342   -0.783689
      8          6           0       -0.907790    0.644057   -0.432632
      9          6           0       -1.422266   -0.381401    0.296513
     10          6           0       -0.500631   -1.287095    0.988039
     11          6           0       -2.911322   -0.521559    0.496104
     12          8           0       -3.589433    0.454672    0.770111
     13          6           0       -3.566826   -1.891144    0.283179
     14          6           0       -4.615943   -1.777303   -0.845354
     15          6           0       -4.211351   -2.363817    1.598160
     16          8           0       -0.910203   -2.251172    1.631227
     17          6           0        0.631914    2.342551   -0.818897
     18          6           0       -0.730858    2.734744   -1.440493
     19          8           0       -1.621143    1.641452   -0.957465
     20          6           0        0.820852    2.673143    0.676534
     21          8           0        0.769023    0.139712   -2.017350
     22          6           0        1.687150   -2.079735    0.028190
     23          6           0        3.034991   -1.426488   -0.315177
     24          8           0        2.776680   -0.010544   -0.299756
     25          6           0        3.659211   -1.862078   -1.624316
     26          6           0        3.836042   -3.351836   -1.785441
     27          6           0        4.071671   -0.984126   -2.544662
     28          6           0       -0.726046    2.693825   -2.969955
     29          6           0       -1.350947    4.033631   -0.933311
     30          1           0        1.471683    2.697620   -1.424228
     31          1           0        2.764691    1.830515    1.087279
     32          6           0        1.504131    2.513583    3.628472
     33          1           0        1.375324   -0.077538    4.312458
     34          1           0        2.626704   -1.515760    2.372348
     35          1           0        1.021756   -2.017768    2.873313
     36          1           0       -2.797621   -2.612497   -0.010797
     37          1           0       -5.136996   -2.741264   -0.920017
     38          1           0       -5.363815   -1.033460   -0.545264
     39          1           0       -3.450469   -2.506460    2.370408
     40          1           0       -4.730175   -3.317341    1.445381
     41          1           0       -4.939388   -1.625604    1.951141
     42          1           0        1.256067    3.663523    0.837394
     43          1           0       -0.148710    2.661953    1.186246
     44          1           0        1.735541    0.010628   -2.080211
     45          1           0        1.088610   -2.205801   -0.879418
     46          1           0        1.790274   -3.051998    0.517055
     47          1           0        3.760472   -1.644093    0.486016
     48          1           0        4.408442   -3.774816   -0.948413
     49          1           0        2.871201   -3.874173   -1.802716
     50          1           0        4.367670   -3.588670   -2.711250
     51          1           0        4.531275   -1.316037   -3.471718
     52          1           0        3.988240    0.086818   -2.390667
     53          1           0       -1.749475    2.790884   -3.346495
     54          1           0       -0.137054    3.530422   -3.363371
     55          1           0       -0.296993    1.758910   -3.334260
     56          1           0       -0.720245    4.883002   -1.218815
     57          1           0       -2.339408    4.175666   -1.381027
     58          1           0       -1.469515    4.034555    0.152291
     59          1           0        1.441212    2.229033    4.683224
     60          1           0        2.409454    3.123184    3.495953
     61          1           0        0.650765    3.166980    3.406556
     62          6           0       -4.034113   -1.402570   -2.213405
     63          1           0       -4.817060   -1.388302   -2.980420
     64          1           0       -3.573306   -0.407996   -2.195709
     65          1           0       -3.268605   -2.120721   -2.533119
 ---------------------------------------------------------------------
 Rotational constants (GHZ):      0.1835474      0.1326636      0.1228645
 Standard basis: 6-311+G(d) (5D, 7F)
 There are   784 symmetry adapted basis functions of A   symmetry.
 Integral buffers will be    131072 words long.
 Raffenetti 2 integral format.
 Two-electron integral symmetry is turned on.
   784 basis functions,  1286 primitive gaussians,   815 cartesian basis functions
   115 alpha electrons      115 beta electrons
       nuclear repulsion energy      3520.7471695721 Hartrees.
 NAtoms=   65 NActive=   65 NUniq=   65 SFac= 1.00D+00 NAtFMM=   50 NAOKFM=T Big=T
 One-electron integrals computed using PRISM.
 NBasis=   784 RedAO= T  NBF=   784
 NBsUse=   778 1.00D-06 NBFU=   778
 Harris functional with IExCor=  402 diagonalized for initial guess.
 ExpMin= 4.38D-02 ExpMax= 8.59D+03 ExpMxC= 1.30D+03 IAcc=2 IRadAn=         0 AccDes= 0.00D+00
 HarFok:  IExCor=  402 AccDes= 0.00D+00 IRadAn=         0 IDoV= 1
 ScaDFX=  1.000000  1.000000  1.000000  1.000000
 FoFCou: FMM=F IPFlag=           0 FMFlag=      100000 FMFlg1=        2001
         NFxFlg=           0 DoJE=T BraDBF=F KetDBF=T FulRan=T
         Omega=  0.000000  0.000000  1.000000  0.000000  0.000000 ICntrl=     500 IOpCl=  0
         NMat0=    1 NMatS0=    1 NMatT0=    0 NMatD0=    1 NMtDS0=    0 NMtDT0=    0
         I1Cent=           4 NGrid=           0.
 Petite list used in FoFCou.
 Initial guess orbital symmetries:
       Occupied  (A) (A) (A) (A) (A) (A) (A) (A) (A) (A) (A) (A)
                 (A) (A) (A) (A) (A) (A) (A) (A) (A) (A) (A) (A)
                 (A) (A) (A) (A) (A) (A) (A) (A) (A) (A) (A) (A)
                 (A) (A) (A) (A) (A) (A) (A) (A) (A) (A) (A) (A)
                 (A) (A) (A) (A) (A) (A) (A) (A) (A) (A) (A) (A)
                 (A) (A) (A) (A) (A) (A) (A) (A) (A) (A) (A) (A)
                 (A) (A) (A) (A) (A) (A) (A) (A) (A) (A) (A) (A)
                 (A) (A) (A) (A) (A) (A) (A) (A) (A) (A) (A) (A)
                 (A) (A) (A) (A) (A) (A) (A) (A) (A) (A) (A) (A)
                 (A) (A) (A) (A) (A) (A) (A)
       Virtual   (A) (A) (A) (A) (A) (A) (A) (A) (A) (A) (A) (A)
                 (A) (A) (A) (A) (A) (A) (A) (A) (A) (A) (A) (A)
                 (A) (A) (A) (A) (A) (A) (A) (A) (A) (A) (A) (A)
                 (A) (A) (A) (A) (A) (A) (A) (A) (A) (A) (A) (A)
                 (A) (A) (A) (A) (A) (A) (A) (A) (A) (A) (A) (A)
                 (A) (A) (A) (A) (A) (A) (A) (A) (A) (A) (A) (A)
                 (A) (A) (A) (A) (A) (A) (A) (A) (A) (A) (A) (A)
                 (A) (A) (A) (A) (A) (A) (A) (A) (A) (A) (A) (A)
                 (A) (A) (A) (A) (A) (A) (A) (A) (A) (A) (A) (A)
                 (A) (A) (A) (A) (A) (A) (A) (A) (A) (A) (A) (A)
                 (A) (A) (A) (A) (A) (A) (A) (A) (A) (A) (A) (A)
                 (A) (A) (A) (A) (A) (A) (A) (A) (A) (A) (A) (A)
                 (A) (A) (A) (A) (A) (A) (A) (A) (A) (A) (A) (A)
                 (A) (A) (A) (A) (A) (A) (A) (A) (A) (A) (A) (A)
                 (A) (A) (A) (A) (A) (A) (A) (A) (A) (A) (A) (A)
                 (A) (A) (A) (A) (A) (A) (A) (A) (A) (A) (A) (A)
                 (A) (A) (A) (A) (A) (A) (A) (A) (A) (A) (A) (A)
                 (A) (A) (A) (A) (A) (A) (A) (A) (A) (A) (A) (A)
                 (A) (A) (A) (A) (A) (A) (A) (A) (A) (A) (A) (A)
                 (A) (A) (A) (A) (A) (A) (A) (A) (A) (A) (A) (A)
                 (A) (A) (A) (A) (A) (A) (A) (A) (A) (A) (A) (A)
                 (A) (A) (A) (A) (A) (A) (A) (A) (A) (A) (A) (A)
                 (A) (A) (A) (A) (A) (A) (A) (A) (A) (A) (A) (A)
                 (A) (A) (A) (A) (A) (A) (A) (A) (A) (A) (A) (A)
                 (A) (A) (A) (A) (A) (A) (A) (A) (A) (A) (A) (A)
                 (A) (A) (A) (A) (A) (A) (A) (A) (A) (A) (A) (A)
                 (A) (A) (A) (A) (A) (A) (A) (A) (A) (A) (A) (A)
                 (A) (A) (A) (A) (A) (A) (A) (A) (A) (A) (A) (A)
                 (A) (A) (A) (A) (A) (A) (A) (A) (A) (A) (A) (A)
                 (A) (A) (A) (A) (A) (A) (A) (A) (A) (A) (A) (A)
                 (A) (A) (A) (A) (A) (A) (A) (A) (A) (A) (A) (A)
                 (A) (A) (A) (A) (A) (A) (A) (A) (A) (A) (A) (A)
                 (A) (A) (A) (A) (A) (A) (A) (A) (A) (A) (A) (A)
                 (A) (A) (A) (A) (A) (A) (A) (A) (A) (A) (A) (A)
                 (A) (A) (A) (A) (A) (A) (A) (A) (A) (A) (A) (A)
                 (A) (A) (A) (A) (A) (A) (A) (A) (A) (A) (A) (A)
                 (A) (A) (A) (A) (A) (A) (A) (A) (A) (A) (A) (A)
                 (A) (A) (A) (A) (A) (A) (A) (A) (A) (A) (A) (A)
                 (A) (A) (A) (A) (A) (A) (A) (A) (A) (A) (A) (A)
                 (A) (A) (A) (A) (A) (A) (A) (A) (A) (A) (A) (A)
                 (A) (A) (A) (A) (A) (A) (A) (A) (A) (A) (A) (A)
                 (A) (A) (A) (A) (A) (A) (A) (A) (A) (A) (A) (A)
                 (A) (A) (A) (A) (A) (A) (A) (A) (A) (A) (A) (A)
                 (A) (A) (A) (A) (A) (A) (A) (A) (A) (A) (A) (A)
                 (A) (A) (A) (A) (A) (A) (A) (A) (A) (A) (A) (A)
                 (A) (A) (A) (A) (A) (A) (A) (A) (A) (A) (A) (A)
                 (A) (A) (A) (A) (A) (A) (A) (A) (A) (A) (A) (A)
                 (A) (A) (A) (A) (A) (A) (A) (A) (A) (A) (A) (A)
                 (A) (A) (A) (A) (A) (A) (A) (A) (A) (A) (A) (A)
                 (A) (A) (A) (A) (A) (A) (A) (A) (A) (A) (A) (A)
                 (A) (A) (A) (A) (A) (A) (A) (A) (A) (A) (A) (A)
                 (A) (A) (A) (A) (A) (A) (A) (A) (A) (A) (A) (A)
                 (A) (A) (A) (A) (A) (A) (A) (A) (A) (A) (A) (A)
                 (A) (A) (A) (A) (A) (A) (A) (A) (A) (A) (A) (A)
                 (A) (A) (A) (A) (A) (A) (A) (A) (A) (A) (A) (A)
                 (A) (A) (A)
 The electronic state of the initial guess is 1-A.
 Requested convergence on RMS density matrix=1.00D-08 within 128 cycles.
 Requested convergence on MAX density matrix=1.00D-06.
 Requested convergence on             energy=1.00D-06.
 No special actions if energy rises.
 SCF Done:  E(RB3LYP) =  -1387.65066222     A.U. after   17 cycles
             Convg  =    0.4422D-08             -V/T =  2.0043

 **********************************************************************

            Population analysis using the SCF density.

 **********************************************************************

 Orbital symmetries:
       Occupied  (A) (A) (A) (A) (A) (A) (A) (A) (A) (A) (A) (A)
                 (A) (A) (A) (A) (A) (A) (A) (A) (A) (A) (A) (A)
                 (A) (A) (A) (A) (A) (A) (A) (A) (A) (A) (A) (A)
                 (A) (A) (A) (A) (A) (A) (A) (A) (A) (A) (A) (A)
                 (A) (A) (A) (A) (A) (A) (A) (A) (A) (A) (A) (A)
                 (A) (A) (A) (A) (A) (A) (A) (A) (A) (A) (A) (A)
                 (A) (A) (A) (A) (A) (A) (A) (A) (A) (A) (A) (A)
                 (A) (A) (A) (A) (A) (A) (A) (A) (A) (A) (A) (A)
                 (A) (A) (A) (A) (A) (A) (A) (A) (A) (A) (A) (A)
                 (A) (A) (A) (A) (A) (A) (A)
       Virtual   (A) (A) (A) (A) (A) (A) (A) (A) (A) (A) (A) (A)
                 (A) (A) (A) (A) (A) (A) (A) (A) (A) (A) (A) (A)
                 (A) (A) (A) (A) (A) (A) (A) (A) (A) (A) (A) (A)
                 (A) (A) (A) (A) (A) (A) (A) (A) (A) (A) (A) (A)
                 (A) (A) (A) (A) (A) (A) (A) (A) (A) (A) (A) (A)
                 (A) (A) (A) (A) (A) (A) (A) (A) (A) (A) (A) (A)
                 (A) (A) (A) (A) (A) (A) (A) (A) (A) (A) (A) (A)
                 (A) (A) (A) (A) (A) (A) (A) (A) (A) (A) (A) (A)
                 (A) (A) (A) (A) (A) (A) (A) (A) (A) (A) (A) (A)
                 (A) (A) (A) (A) (A) (A) (A) (A) (A) (A) (A) (A)
                 (A) (A) (A) (A) (A) (A) (A) (A) (A) (A) (A) (A)
                 (A) (A) (A) (A) (A) (A) (A) (A) (A) (A) (A) (A)
                 (A) (A) (A) (A) (A) (A) (A) (A) (A) (A) (A) (A)
                 (A) (A) (A) (A) (A) (A) (A) (A) (A) (A) (A) (A)
                 (A) (A) (A) (A) (A) (A) (A) (A) (A) (A) (A) (A)
                 (A) (A) (A) (A) (A) (A) (A) (A) (A) (A) (A) (A)
                 (A) (A) (A) (A) (A) (A) (A) (A) (A) (A) (A) (A)
                 (A) (A) (A) (A) (A) (A) (A) (A) (A) (A) (A) (A)
                 (A) (A) (A) (A) (A) (A) (A) (A) (A) (A) (A) (A)
                 (A) (A) (A) (A) (A) (A) (A) (A) (A) (A) (A) (A)
                 (A) (A) (A) (A) (A) (A) (A) (A) (A) (A) (A) (A)
                 (A) (A) (A) (A) (A) (A) (A) (A) (A) (A) (A) (A)
                 (A) (A) (A) (A) (A) (A) (A) (A) (A) (A) (A) (A)
                 (A) (A) (A) (A) (A) (A) (A) (A) (A) (A) (A) (A)
                 (A) (A) (A) (A) (A) (A) (A) (A) (A) (A) (A) (A)
                 (A) (A) (A) (A) (A) (A) (A) (A) (A) (A) (A) (A)
                 (A) (A) (A) (A) (A) (A) (A) (A) (A) (A) (A) (A)
                 (A) (A) (A) (A) (A) (A) (A) (A) (A) (A) (A) (A)
                 (A) (A) (A) (A) (A) (A) (A) (A) (A) (A) (A) (A)
                 (A) (A) (A) (A) (A) (A) (A) (A) (A) (A) (A) (A)
                 (A) (A) (A) (A) (A) (A) (A) (A) (A) (A) (A) (A)
                 (A) (A) (A) (A) (A) (A) (A) (A) (A) (A) (A) (A)
                 (A) (A) (A) (A) (A) (A) (A) (A) (A) (A) (A) (A)
                 (A) (A) (A) (A) (A) (A) (A) (A) (A) (A) (A) (A)
                 (A) (A) (A) (A) (A) (A) (A) (A) (A) (A) (A) (A)
                 (A) (A) (A) (A) (A) (A) (A) (A) (A) (A) (A) (A)
                 (A) (A) (A) (A) (A) (A) (A) (A) (A) (A) (A) (A)
                 (A) (A) (A) (A) (A) (A) (A) (A) (A) (A) (A) (A)
                 (A) (A) (A) (A) (A) (A) (A) (A) (A) (A) (A) (A)
                 (A) (A) (A) (A) (A) (A) (A) (A) (A) (A) (A) (A)
                 (A) (A) (A) (A) (A) (A) (A) (A) (A) (A) (A) (A)
                 (A) (A) (A) (A) (A) (A) (A) (A) (A) (A) (A) (A)
                 (A) (A) (A) (A) (A) (A) (A) (A) (A) (A) (A) (A)
                 (A) (A) (A) (A) (A) (A) (A) (A) (A) (A) (A) (A)
                 (A) (A) (A) (A) (A) (A) (A) (A) (A) (A) (A) (A)
                 (A) (A) (A) (A) (A) (A) (A) (A) (A) (A) (A) (A)
                 (A) (A) (A) (A) (A) (A) (A) (A) (A) (A) (A) (A)
                 (A) (A) (A) (A) (A) (A) (A) (A) (A) (A) (A) (A)
                 (A) (A) (A) (A) (A) (A) (A) (A) (A) (A) (A) (A)
                 (A) (A) (A) (A) (A) (A) (A) (A) (A) (A) (A) (A)
                 (A) (A) (A) (A) (A) (A) (A) (A) (A) (A) (A) (A)
                 (A) (A) (A) (A) (A) (A) (A) (A) (A) (A) (A) (A)
                 (A) (A) (A) (A) (A) (A) (A) (A) (A) (A) (A) (A)
                 (A) (A) (A) (A) (A) (A) (A) (A) (A) (A) (A) (A)
                 (A) (A) (A) (A) (A) (A) (A) (A) (A) (A) (A) (A)
                 (A) (A) (A)
 The electronic state is 1-A.
 Alpha  occ. eigenvalues --  -19.17784 -19.14839 -19.14091 -19.10689 -19.10472
 Alpha  occ. eigenvalues --  -10.26936 -10.26632 -10.25882 -10.25593 -10.25460
 Alpha  occ. eigenvalues --  -10.25377 -10.24570 -10.20873 -10.20055 -10.19945
 Alpha  occ. eigenvalues --  -10.19616 -10.18935 -10.18899 -10.18647 -10.18555
 Alpha  occ. eigenvalues --  -10.18189 -10.17875 -10.17592 -10.17328 -10.17292
 Alpha  occ. eigenvalues --  -10.17145 -10.16951 -10.16716 -10.15787 -10.14887
 Alpha  occ. eigenvalues --  -10.14498  -1.10434  -1.07298  -1.04254  -1.03934
 Alpha  occ. eigenvalues --   -1.03476  -0.87793  -0.84617  -0.83402  -0.82412
 Alpha  occ. eigenvalues --   -0.81201  -0.79841  -0.77662  -0.75216  -0.74148
 Alpha  occ. eigenvalues --   -0.72628  -0.72032  -0.70626  -0.70420  -0.68865
 Alpha  occ. eigenvalues --   -0.66135  -0.64565  -0.64059  -0.62343  -0.61633
 Alpha  occ. eigenvalues --   -0.60495  -0.59713  -0.57987  -0.55616  -0.54904
 Alpha  occ. eigenvalues --   -0.53771  -0.53217  -0.51819  -0.51295  -0.50238
 Alpha  occ. eigenvalues --   -0.49210  -0.48717  -0.47797  -0.47224  -0.46835
 Alpha  occ. eigenvalues --   -0.45962  -0.45458  -0.44810  -0.44592  -0.44159
 Alpha  occ. eigenvalues --   -0.43670  -0.42998  -0.42709  -0.42437  -0.42208
 Alpha  occ. eigenvalues --   -0.41875  -0.41542  -0.41095  -0.40980  -0.40679
 Alpha  occ. eigenvalues --   -0.40017  -0.39978  -0.39669  -0.39112  -0.38845
 Alpha  occ. eigenvalues --   -0.38603  -0.38253  -0.38023  -0.37972  -0.37437
 Alpha  occ. eigenvalues --   -0.37178  -0.36011  -0.35935  -0.35542  -0.35410
 Alpha  occ. eigenvalues --   -0.34983  -0.34553  -0.33944  -0.33465  -0.33093
 Alpha  occ. eigenvalues --   -0.32367  -0.32157  -0.31394  -0.29632  -0.27855
 Alpha  occ. eigenvalues --   -0.27049  -0.26032  -0.25285  -0.24577  -0.24016
 Alpha virt. eigenvalues --   -0.06280  -0.02914  -0.01710  -0.01114  -0.00226
 Alpha virt. eigenvalues --    0.00235   0.00530   0.01234   0.01513   0.01767
 Alpha virt. eigenvalues --    0.01995   0.02618   0.02875   0.03370   0.03666
 Alpha virt. eigenvalues --    0.03912   0.03939   0.04402   0.04556   0.05097
 Alpha virt. eigenvalues --    0.05297   0.05462   0.05517   0.06256   0.06330
 Alpha virt. eigenvalues --    0.06633   0.06820   0.07053   0.07353   0.07615
 Alpha virt. eigenvalues --    0.07794   0.07854   0.08178   0.08585   0.08850
 Alpha virt. eigenvalues --    0.09056   0.09120   0.09464   0.09563   0.09814
 Alpha virt. eigenvalues --    0.09972   0.10382   0.10548   0.10968   0.11206
 Alpha virt. eigenvalues --    0.11308   0.11538   0.11898   0.12051   0.12447
 Alpha virt. eigenvalues --    0.12567   0.12728   0.13074   0.13173   0.13422
 Alpha virt. eigenvalues --    0.13792   0.14010   0.14222   0.14491   0.14693
 Alpha virt. eigenvalues --    0.14974   0.15138   0.15499   0.15836   0.16170
 Alpha virt. eigenvalues --    0.16352   0.16487   0.16701   0.17002   0.17235
 Alpha virt. eigenvalues --    0.17415   0.17493   0.17950   0.18037   0.18197
 Alpha virt. eigenvalues --    0.18347   0.18506   0.18594   0.18772   0.18980
 Alpha virt. eigenvalues --    0.19264   0.19410   0.19548   0.19802   0.20128
 Alpha virt. eigenvalues --    0.20218   0.20449   0.20640   0.20865   0.21033
 Alpha virt. eigenvalues --    0.21286   0.21530   0.21570   0.21946   0.22017
 Alpha virt. eigenvalues --    0.22146   0.22262   0.22427   0.22580   0.23016
 Alpha virt. eigenvalues --    0.23206   0.23355   0.23452   0.23707   0.23860
 Alpha virt. eigenvalues --    0.24128   0.24311   0.24512   0.24812   0.24943
 Alpha virt. eigenvalues --    0.25213   0.25318   0.25533   0.25761   0.25930
 Alpha virt. eigenvalues --    0.26244   0.26576   0.26621   0.26694   0.26966
 Alpha virt. eigenvalues --    0.27305   0.27497   0.27596   0.28014   0.28274
 Alpha virt. eigenvalues --    0.28305   0.28446   0.28724   0.28792   0.29287
 Alpha virt. eigenvalues --    0.29913   0.30189   0.30342   0.30588   0.30717
 Alpha virt. eigenvalues --    0.30971   0.31234   0.31399   0.31689   0.31977
 Alpha virt. eigenvalues --    0.32041   0.32227   0.32646   0.32912   0.33091
 Alpha virt. eigenvalues --    0.33547   0.34163   0.34382   0.34892   0.35243
 Alpha virt. eigenvalues --    0.35364   0.35534   0.35729   0.36273   0.36447
 Alpha virt. eigenvalues --    0.37013   0.37452   0.37747   0.38183   0.38327
 Alpha virt. eigenvalues --    0.38677   0.39115   0.39789   0.39985   0.40438
 Alpha virt. eigenvalues --    0.40746   0.40971   0.41535   0.41891   0.42151
 Alpha virt. eigenvalues --    0.42493   0.42731   0.42881   0.43548   0.43650
 Alpha virt. eigenvalues --    0.43817   0.44880   0.45095   0.45354   0.45613
 Alpha virt. eigenvalues --    0.45753   0.45958   0.46631   0.47164   0.47361
 Alpha virt. eigenvalues --    0.47541   0.48015   0.48161   0.48380   0.48959
 Alpha virt. eigenvalues --    0.49064   0.50156   0.50420   0.50645   0.51603
 Alpha virt. eigenvalues --    0.51740   0.51995   0.52682   0.53557   0.53565
 Alpha virt. eigenvalues --    0.54109   0.54449   0.54616   0.55205   0.55462
 Alpha virt. eigenvalues --    0.56375   0.56815   0.57039   0.57334   0.57516
 Alpha virt. eigenvalues --    0.58084   0.58186   0.58465   0.58921   0.59171
 Alpha virt. eigenvalues --    0.59907   0.60004   0.60371   0.61116   0.61615
 Alpha virt. eigenvalues --    0.62333   0.62757   0.63052   0.64008   0.64384
 Alpha virt. eigenvalues --    0.64469   0.64861   0.65256   0.65483   0.65709
 Alpha virt. eigenvalues --    0.66139   0.66460   0.66984   0.67192   0.67446
 Alpha virt. eigenvalues --    0.67596   0.68156   0.68240   0.68560   0.68747
 Alpha virt. eigenvalues --    0.69007   0.69478   0.69710   0.69849   0.70052
 Alpha virt. eigenvalues --    0.70254   0.70464   0.70909   0.71490   0.71853
 Alpha virt. eigenvalues --    0.72047   0.72298   0.72703   0.72982   0.73244
 Alpha virt. eigenvalues --    0.73384   0.73549   0.74044   0.74665   0.74852
 Alpha virt. eigenvalues --    0.75300   0.75558   0.75958   0.76535   0.77044
 Alpha virt. eigenvalues --    0.77465   0.77744   0.77864   0.78375   0.78583
 Alpha virt. eigenvalues --    0.78920   0.79275   0.79787   0.80266   0.80368
 Alpha virt. eigenvalues --    0.80553   0.81414   0.81681   0.82078   0.82313
 Alpha virt. eigenvalues --    0.83019   0.83473   0.83972   0.84213   0.84671
 Alpha virt. eigenvalues --    0.85619   0.86078   0.86715   0.87903   0.88293
 Alpha virt. eigenvalues --    0.88690   0.89766   0.90108   0.91035   0.92128
 Alpha virt. eigenvalues --    0.92814   0.93355   0.94078   0.95252   0.96048
 Alpha virt. eigenvalues --    0.96775   0.98100   0.99096   0.99666   1.00006
 Alpha virt. eigenvalues --    1.01390   1.01766   1.03944   1.04329   1.04871
 Alpha virt. eigenvalues --    1.05611   1.06887   1.07154   1.09010   1.10226
 Alpha virt. eigenvalues --    1.10787   1.12093   1.13000   1.13425   1.13537
 Alpha virt. eigenvalues --    1.14759   1.16117   1.16259   1.16674   1.18295
 Alpha virt. eigenvalues --    1.19405   1.20315   1.21357   1.22831   1.23006
 Alpha virt. eigenvalues --    1.23630   1.24487   1.24850   1.26337   1.26784
 Alpha virt. eigenvalues --    1.27948   1.28993   1.30036   1.31080   1.31640
 Alpha virt. eigenvalues --    1.32703   1.33748   1.34157   1.34423   1.34806
 Alpha virt. eigenvalues --    1.35668   1.36328   1.36951   1.37881   1.39012
 Alpha virt. eigenvalues --    1.39427   1.40678   1.41278   1.42450   1.42736
 Alpha virt. eigenvalues --    1.44049   1.45022   1.45786   1.46838   1.47285
 Alpha virt. eigenvalues --    1.48421   1.48949   1.49479   1.50539   1.51639
 Alpha virt. eigenvalues --    1.52285   1.53192   1.54081   1.54126   1.54660
 Alpha virt. eigenvalues --    1.55807   1.56318   1.56880   1.57449   1.57825
 Alpha virt. eigenvalues --    1.57958   1.59096   1.59658   1.60134   1.60566
 Alpha virt. eigenvalues --    1.60720   1.61565   1.61734   1.62077   1.63014
 Alpha virt. eigenvalues --    1.63155   1.63732   1.64254   1.64567   1.65156
 Alpha virt. eigenvalues --    1.65792   1.65985   1.66208   1.66702   1.66733
 Alpha virt. eigenvalues --    1.67050   1.67696   1.68321   1.69001   1.69749
 Alpha virt. eigenvalues --    1.70237   1.70844   1.71351   1.71638   1.72105
 Alpha virt. eigenvalues --    1.72889   1.73395   1.74419   1.75135   1.75191
 Alpha virt. eigenvalues --    1.76107   1.76737   1.77644   1.78524   1.79004
 Alpha virt. eigenvalues --    1.79422   1.80687   1.81459   1.82815   1.83221
 Alpha virt. eigenvalues --    1.84149   1.84741   1.85421   1.85664   1.86903
 Alpha virt. eigenvalues --    1.87121   1.89229   1.89383   1.90062   1.91063
 Alpha virt. eigenvalues --    1.91759   1.92566   1.92964   1.94190   1.95703
 Alpha virt. eigenvalues --    1.96043   1.97079   1.97691   1.99539   1.99788
 Alpha virt. eigenvalues --    2.02080   2.02412   2.03493   2.05034   2.05196
 Alpha virt. eigenvalues --    2.05896   2.07341   2.08046   2.08793   2.08867
 Alpha virt. eigenvalues --    2.10073   2.10682   2.13406   2.13785   2.15451
 Alpha virt. eigenvalues --    2.15980   2.17308   2.20043   2.21535   2.21822
 Alpha virt. eigenvalues --    2.22095   2.22785   2.23489   2.25540   2.26528
 Alpha virt. eigenvalues --    2.27405   2.28222   2.29163   2.30510   2.31806
 Alpha virt. eigenvalues --    2.33292   2.34705   2.36920   2.39075   2.39666
 Alpha virt. eigenvalues --    2.43883   2.44291   2.47990   2.49004   2.49664
 Alpha virt. eigenvalues --    2.51319   2.52300   2.52509   2.53051   2.53683
 Alpha virt. eigenvalues --    2.54499   2.55610   2.55977   2.56899   2.57666
 Alpha virt. eigenvalues --    2.57998   2.59147   2.60152   2.60668   2.61184
 Alpha virt. eigenvalues --    2.61977   2.62929   2.63350   2.64080   2.65402
 Alpha virt. eigenvalues --    2.66192   2.67002   2.68370   2.68954   2.69233
 Alpha virt. eigenvalues --    2.70159   2.70943   2.71629   2.72729   2.73899
 Alpha virt. eigenvalues --    2.74824   2.76259   2.77280   2.79303   2.83732
 Alpha virt. eigenvalues --    2.84119   2.85300   2.87799   2.89159   2.89810
 Alpha virt. eigenvalues --    2.90353   2.92261   2.93333   2.94446   2.94812
 Alpha virt. eigenvalues --    2.95654   2.97041   2.98098   2.98630   2.98889
 Alpha virt. eigenvalues --    2.99436   3.00458   3.01242   3.02657   3.03813
 Alpha virt. eigenvalues --    3.04256   3.04616   3.05457   3.06537   3.07578
 Alpha virt. eigenvalues --    3.09705   3.09768   3.11076   3.11810   3.12243
 Alpha virt. eigenvalues --    3.13561   3.14907   3.15551   3.16206   3.16823
 Alpha virt. eigenvalues --    3.17209   3.18195   3.19847   3.20559   3.21353
 Alpha virt. eigenvalues --    3.22040   3.23216   3.24091   3.24890   3.25805
 Alpha virt. eigenvalues --    3.26236   3.27280   3.27642   3.28395   3.28567
 Alpha virt. eigenvalues --    3.30118   3.30147   3.31096   3.32255   3.33850
 Alpha virt. eigenvalues --    3.34280   3.35608   3.36385   3.37457   3.38182
 Alpha virt. eigenvalues --    3.38727   3.39098   3.40799   3.41944   3.42777
 Alpha virt. eigenvalues --    3.44382   3.46556   3.47912   3.51220   3.52684
 Alpha virt. eigenvalues --    3.53772   3.55306   3.59480   3.61817   3.63813
 Alpha virt. eigenvalues --    3.74160   3.76770   3.78592   3.79475   3.87727
 Alpha virt. eigenvalues --    3.89173   3.90995   3.96788   3.98255   4.01088
 Alpha virt. eigenvalues --    4.02804   4.05835   4.07459   4.10108   4.10891
 Alpha virt. eigenvalues --    4.12268   4.15317   4.17843   4.19964   4.21763
 Alpha virt. eigenvalues --    4.22595   4.23761   4.25394   4.30023   4.32707
 Alpha virt. eigenvalues --    4.44691   4.60667   5.13361   5.17954   5.18141
 Alpha virt. eigenvalues --    5.22413   5.23633   5.29712   5.32751   5.33826
 Alpha virt. eigenvalues --    5.42054   5.43692   5.57748   5.67868   5.74007
 Alpha virt. eigenvalues --    5.79315   5.84067  23.46377  23.48449  23.51587
 Alpha virt. eigenvalues --   23.53057  23.63660  23.65087  23.66096  23.67119
 Alpha virt. eigenvalues --   23.68963  23.70356  23.72860  23.73555  23.76633
 Alpha virt. eigenvalues --   23.78811  23.78986  23.79731  23.82151  23.84383
 Alpha virt. eigenvalues --   23.86686  23.86811  23.89180  23.89489  23.96115
 Alpha virt. eigenvalues --   24.15383  24.18925  24.21960  49.99238  50.00715
 Alpha virt. eigenvalues --   50.02898  50.03176  50.07076
          Condensed to atoms (all electrons):
 Mulliken atomic charges:
              1
     1  C   -0.499915
     2  C    0.688142
     3  C   -0.137937
     4  C   -0.183670
     5  C    1.055361
     6  C   -0.549163
     7  C   -1.363507
     8  C    0.145104
     9  C    0.552419
    10  C   -0.793262
    11  C    0.051315
    12  O   -0.184426
    13  C    0.320573
    14  C   -0.389166
    15  C   -1.100479
    16  O   -0.189165
    17  C   -0.040903
    18  C    0.575187
    19  O    0.154808
    20  C   -1.189362
    21  O    0.002475
    22  C   -0.972793
    23  C   -0.317504
    24  O   -0.072980
    25  C    1.014866
    26  C   -1.122525
    27  C   -0.783762
    28  C   -0.794220
    29  C   -0.687485
    30  H    0.233440
    31  H    0.274706
    32  C   -1.007588
    33  H    0.202109
    34  H    0.242556
    35  H    0.283071
    36  H    0.227656
    37  H    0.220362
    38  H    0.264286
    39  H    0.278397
    40  H    0.231539
    41  H    0.266138
    42  H    0.267106
    43  H    0.279200
    44  H    0.273709
    45  H    0.294470
    46  H    0.277899
    47  H    0.247351
    48  H    0.261727
    49  H    0.267708
    50  H    0.259413
    51  H    0.223597
    52  H    0.245644
    53  H    0.264209
    54  H    0.250574
    55  H    0.313151
    56  H    0.258977
    57  H    0.271453
    58  H    0.264269
    59  H    0.256457
    60  H    0.256593
    61  H    0.259303
    62  C   -0.955153
    63  H    0.247148
    64  H    0.269803
    65  H    0.240694
 Sum of Mulliken atomic charges =   0.00000
 Mulliken charges with hydrogens summed into heavy atoms:
              1
     1  C   -0.297807
     2  C    0.688142
     3  C    0.136770
     4  C   -0.183670
     5  C    1.055361
     6  C   -0.023536
     7  C   -1.363507
     8  C    0.145104
     9  C    0.552419
    10  C   -0.793262
    11  C    0.051315
    12  O   -0.184426
    13  C    0.548228
    14  C    0.095482
    15  C   -0.324406
    16  O   -0.189165
    17  C    0.192537
    18  C    0.575187
    19  O    0.154808
    20  C   -0.643056
    21  O    0.276183
    22  C   -0.400423
    23  C   -0.070153
    24  O   -0.072980
    25  C    1.014866
    26  C   -0.333676
    27  C   -0.314520
    28  C    0.033714
    29  C    0.107214
    32  C   -0.235235
    62  C   -0.197507
 Sum of Mulliken charges with hydrogens summed into heavy atoms =   0.00000
 Electronic spatial extent (au):  <R**2>=          11273.5584
 Charge=              0.0000 electrons
 Dipole moment (field-independent basis, Debye):
    X=              5.0457    Y=              1.7052    Z=             -1.5756  Tot=              5.5542
 Quadrupole moment (field-independent basis, Debye-Ang):
   XX=           -197.0157   YY=           -175.2314   ZZ=           -187.9408
   XY=             -1.7985   XZ=              4.7396   YZ=              1.5375
 Traceless Quadrupole moment (field-independent basis, Debye-Ang):
   XX=            -10.2864   YY=             11.4979   ZZ=             -1.2114
   XY=             -1.7985   XZ=              4.7396   YZ=              1.5375
 Octapole moment (field-independent basis, Debye-Ang**2):
  XXX=             28.6379  YYY=             41.3608  ZZZ=              3.4434  XYY=             24.5431
  XXY=            -39.0756  XXZ=            -30.9386  XZZ=             19.4007  YZZ=             15.8978
  YYZ=            -29.4983  XYZ=              5.8265
 Hexadecapole moment (field-independent basis, Debye-Ang**3):
 XXXX=          -7581.7746 YYYY=          -4437.5671 ZZZZ=          -3621.1409 XXXY=              0.2722
 XXXZ=             21.9228 YYYX=            -70.9225 YYYZ=             -7.9540 ZZZX=            -36.7059
 ZZZY=            -10.2276 XXYY=          -1885.0616 XXZZ=          -1797.7899 YYZZ=          -1351.0191
 XXYZ=              4.8551 YYXZ=              5.6549 ZZXY=            -44.4000
 N-N= 3.520747169572D+03 E-N=-1.027449086352D+04  KE= 1.381711335859D+03
 Calling FoFJK, ICntrl=      2127 FMM=T ISym2X=0 I1Cent= 0 IOpClX= 0 NMat=1 NMatS=1 NMatT=0.
 ***** Axes restored to original set *****
 -------------------------------------------------------------------
 Center     Atomic                   Forces (Hartrees/Bohr)
 Number     Number              X              Y              Z
 -------------------------------------------------------------------
      1        6           0.000311470    0.001980187   -0.000780869
      2        6           0.000351098   -0.002014846    0.000918163
      3        6          -0.000462361    0.000386111   -0.000227832
      4        6           0.000009805    0.001055023    0.000993029
      5        6          -0.000067632   -0.000337468    0.000076024
      6        6           0.000001138    0.000023502   -0.000206330
      7        6          -0.001996026    0.000859691    0.001803867
      8        6          -0.003526769    0.000200497   -0.000988866
      9        6           0.001109174    0.001541579    0.000974154
     10        6          -0.002313867   -0.005426811    0.002583117
     11        6          -0.004416489    0.005298317    0.000660002
     12        8           0.005136658   -0.006530302   -0.000802975
     13        6          -0.000190126    0.000233587   -0.000275512
     14        6          -0.000344028    0.000263693   -0.000124950
     15        6           0.000266590    0.000330378    0.000184320
     16        8           0.002179674    0.006435203   -0.004069207
     17        6           0.000426052    0.000104852   -0.000159338
     18        6           0.000410230    0.001548914   -0.000832552
     19        8           0.002617486   -0.003803136    0.001921929
     20        6          -0.000437002    0.000087709    0.000249279
     21        8           0.006469943    0.000807519    0.000695952
     22        6          -0.000098066   -0.000333818   -0.000355397
     23        6           0.000620736   -0.002190042   -0.000084086
     24        8           0.000060828   -0.000184585    0.000662549
     25        6           0.001413846    0.000919497   -0.001328908
     26        6          -0.000200829   -0.000182139    0.000174240
     27        6          -0.000737376   -0.001492735    0.001624164
     28        6           0.000245940    0.000049540    0.000442496
     29        6           0.000436797   -0.000406708    0.000066384
     30        1          -0.001047253   -0.000461817    0.000618897
     31        1          -0.001226793   -0.000316445    0.000574499
     32        6          -0.000079330    0.000421840   -0.000007847
     33        1           0.000002317    0.000089837   -0.000849380
     34        1          -0.001621573    0.000339673    0.000175043
     35        1           0.001519931    0.001102910   -0.000229824
     36        1          -0.000811565    0.000816136    0.000267586
     37        1           0.000540735    0.001281030    0.000319559
     38        1           0.000419178   -0.001470300   -0.000556584
     39        1          -0.001604302   -0.000052778   -0.000710150
     40        1           0.000750188    0.001317319    0.000380461
     41        1           0.000782070   -0.001544607   -0.000195201
     42        1          -0.000777294   -0.001348198   -0.000190274
     43        1           0.001502336    0.000247982   -0.000604344
     44        1          -0.005246784   -0.000170675   -0.002381499
     45        1           0.000752288   -0.000486523    0.001384358
     46        1          -0.000166039    0.001378098   -0.000657411
     47        1          -0.000829893    0.000704760   -0.001309279
     48        1          -0.000796135    0.000493728   -0.001317888
     49        1           0.001562319    0.000675900   -0.000065398
     50        1          -0.000785671    0.000129371    0.001495891
     51        1          -0.000415884    0.000354083    0.000864641
     52        1           0.000301774   -0.000984553   -0.000397826
     53        1           0.001605225   -0.000103975    0.000221365
     54        1          -0.000859938   -0.001243523    0.000251327
     55        1          -0.000995911    0.001803592   -0.000176588
     56        1          -0.001037418   -0.000923641    0.000516110
     57        1           0.001484986    0.000067846    0.000759200
     58        1          -0.000018415    0.000372036   -0.001724826
     59        1           0.000123398    0.000682197   -0.001582539
     60        1          -0.001304820   -0.000860954    0.000306080
     61        1           0.001360049   -0.001003080    0.000545231
     62        6           0.000208294   -0.000090880    0.000184850
     63        1           0.001254338    0.000037529    0.000924965
     64        1          -0.000731120   -0.001572581   -0.000701605
[...]
                 (A) (A) (A) (A) (A) (A) (A) (A) (A) (A) (A) (A)
                 (A) (A) (A) (A) (A) (A) (A) (A) (A) (A) (A) (A)
                 (A) (A) (A) (A) (A) (A) (A) (A) (A) (A) (A) (A)
                 (A) (A)
 The electronic state is 1-A.
 Alpha  occ. eigenvalues --  -19.17651 -19.14684 -19.13977 -19.10664 -19.10661
 Alpha  occ. eigenvalues --  -10.26699 -10.26503 -10.25870 -10.25637 -10.25390
 Alpha  occ. eigenvalues --  -10.25313 -10.24438 -10.20783 -10.19932 -10.19832
 Alpha  occ. eigenvalues --  -10.19482 -10.18841 -10.18749 -10.18461 -10.18409
 Alpha  occ. eigenvalues --  -10.18058 -10.17770 -10.17507 -10.17197 -10.17148
 Alpha  occ. eigenvalues --  -10.17014 -10.16902 -10.16797 -10.15915 -10.14890
 Alpha  occ. eigenvalues --  -10.14464  -1.10366  -1.07084  -1.04547  -1.03895
 Alpha  occ. eigenvalues --   -1.03853  -0.87805  -0.84656  -0.83439  -0.82443
 Alpha  occ. eigenvalues --   -0.81239  -0.80008  -0.77702  -0.75213  -0.74150
 Alpha  occ. eigenvalues --   -0.72670  -0.72167  -0.70701  -0.70443  -0.68877
 Alpha  occ. eigenvalues --   -0.66160  -0.64630  -0.64092  -0.62435  -0.61609
 Alpha  occ. eigenvalues --   -0.60550  -0.59798  -0.57990  -0.55733  -0.54949
 Alpha  occ. eigenvalues --   -0.53708  -0.53291  -0.51760  -0.51298  -0.50244
 Alpha  occ. eigenvalues --   -0.49314  -0.48749  -0.47806  -0.47257  -0.46819
 Alpha  occ. eigenvalues --   -0.45999  -0.45497  -0.44829  -0.44547  -0.44173
 Alpha  occ. eigenvalues --   -0.43783  -0.43040  -0.42753  -0.42520  -0.42229
 Alpha  occ. eigenvalues --   -0.41877  -0.41590  -0.41218  -0.41030  -0.40744
 Alpha  occ. eigenvalues --   -0.40062  -0.39950  -0.39649  -0.39117  -0.38940
 Alpha  occ. eigenvalues --   -0.38573  -0.38278  -0.38025  -0.37989  -0.37488
 Alpha  occ. eigenvalues --   -0.37123  -0.36062  -0.35979  -0.35596  -0.35473
 Alpha  occ. eigenvalues --   -0.34941  -0.34622  -0.33931  -0.33530  -0.33040
 Alpha  occ. eigenvalues --   -0.32472  -0.32192  -0.31543  -0.29560  -0.27789
 Alpha  occ. eigenvalues --   -0.27006  -0.26046  -0.25238  -0.24536  -0.24063
 Alpha virt. eigenvalues --   -0.06035  -0.02734  -0.01610  -0.01071  -0.00203
 Alpha virt. eigenvalues --    0.00288   0.00584   0.01233   0.01540   0.01775
 Alpha virt. eigenvalues --    0.01994   0.02634   0.02877   0.03360   0.03669
 Alpha virt. eigenvalues --    0.03902   0.03969   0.04389   0.04567   0.05071
 Alpha virt. eigenvalues --    0.05318   0.05486   0.05515   0.06267   0.06312
 Alpha virt. eigenvalues --    0.06684   0.06824   0.07082   0.07341   0.07594
 Alpha virt. eigenvalues --    0.07827   0.07863   0.08189   0.08625   0.08938
 Alpha virt. eigenvalues --    0.09084   0.09142   0.09486   0.09596   0.09877
 Alpha virt. eigenvalues --    0.10038   0.10428   0.10712   0.10933   0.11245
 Alpha virt. eigenvalues --    0.11381   0.11549   0.11898   0.12095   0.12471
 Alpha virt. eigenvalues --    0.12629   0.12870   0.13085   0.13173   0.13475
 Alpha virt. eigenvalues --    0.13828   0.14039   0.14274   0.14508   0.14745
 Alpha virt. eigenvalues --    0.15073   0.15229   0.15533   0.15957   0.16149
 Alpha virt. eigenvalues --    0.16457   0.16493   0.16737   0.17059   0.17317
 Alpha virt. eigenvalues --    0.17512   0.17706   0.18044   0.18125   0.18179
 Alpha virt. eigenvalues --    0.18425   0.18565   0.18590   0.18787   0.19020
 Alpha virt. eigenvalues --    0.19349   0.19485   0.19619   0.19875   0.20219
 Alpha virt. eigenvalues --    0.20346   0.20537   0.20679   0.20925   0.21024
 Alpha virt. eigenvalues --    0.21367   0.21592   0.21649   0.22042   0.22159
 Alpha virt. eigenvalues --    0.22291   0.22432   0.22505   0.22640   0.23110
 Alpha virt. eigenvalues --    0.23122   0.23410   0.23481   0.23689   0.23950
 Alpha virt. eigenvalues --    0.24330   0.24523   0.24718   0.24896   0.25014
 Alpha virt. eigenvalues --    0.25289   0.25382   0.25800   0.26020   0.26186
 Alpha virt. eigenvalues --    0.26459   0.26603   0.26722   0.27024   0.27067
 Alpha virt. eigenvalues --    0.27332   0.27550   0.27604   0.28259   0.28456
 Alpha virt. eigenvalues --    0.28524   0.28761   0.28769   0.29195   0.29483
 Alpha virt. eigenvalues --    0.30127   0.30255   0.30394   0.30736   0.30977
 Alpha virt. eigenvalues --    0.31057   0.31210   0.31531   0.31952   0.32011
 Alpha virt. eigenvalues --    0.32215   0.32527   0.32916   0.33121   0.33364
 Alpha virt. eigenvalues --    0.34248   0.34422   0.34770   0.35312   0.35383
 Alpha virt. eigenvalues --    0.35684   0.35865   0.36278   0.36430   0.36978
 Alpha virt. eigenvalues --    0.37312   0.37674   0.37757   0.38205   0.38510
 Alpha virt. eigenvalues --    0.38990   0.39347   0.40045   0.40268   0.40516
 Alpha virt. eigenvalues --    0.40911   0.41546   0.41678   0.41767   0.42498
 Alpha virt. eigenvalues --    0.42740   0.43198   0.43454   0.43660   0.43708
 Alpha virt. eigenvalues --    0.44422   0.45134   0.45453   0.45663   0.45758
 Alpha virt. eigenvalues --    0.46182   0.46534   0.46889   0.47478   0.47660
 Alpha virt. eigenvalues --    0.48042   0.48221   0.48279   0.48780   0.48901
 Alpha virt. eigenvalues --    0.49949   0.50181   0.50704   0.51000   0.51591
 Alpha virt. eigenvalues --    0.51890   0.52521   0.53281   0.53419   0.53621
 Alpha virt. eigenvalues --    0.54486   0.54649   0.55050   0.55572   0.55816
 Alpha virt. eigenvalues --    0.56243   0.56715   0.57258   0.57550   0.58010
 Alpha virt. eigenvalues --    0.58105   0.58396   0.58970   0.59398   0.59875
 Alpha virt. eigenvalues --    0.59927   0.60299   0.61269   0.61367   0.62469
 Alpha virt. eigenvalues --    0.62843   0.63033   0.63464   0.64189   0.64461
 Alpha virt. eigenvalues --    0.64965   0.65172   0.65458   0.65914   0.66102
 Alpha virt. eigenvalues --    0.66243   0.66928   0.67209   0.67433   0.67606
 Alpha virt. eigenvalues --    0.68234   0.68303   0.68461   0.68655   0.69068
 Alpha virt. eigenvalues --    0.69392   0.69758   0.69918   0.70281   0.70395
 Alpha virt. eigenvalues --    0.70747   0.70847   0.71287   0.71802   0.72202
 Alpha virt. eigenvalues --    0.72307   0.72626   0.72990   0.73135   0.73519
 Alpha virt. eigenvalues --    0.73636   0.74052   0.74498   0.74964   0.75228
 Alpha virt. eigenvalues --    0.75571   0.75965   0.76308   0.77137   0.77259
 Alpha virt. eigenvalues --    0.77768   0.78198   0.78470   0.78557   0.79062
 Alpha virt. eigenvalues --    0.79270   0.80005   0.80198   0.80367   0.80463
 Alpha virt. eigenvalues --    0.81481   0.81579   0.81950   0.82255   0.83110
 Alpha virt. eigenvalues --    0.83385   0.83850   0.84386   0.84502   0.85469
 Alpha virt. eigenvalues --    0.86190   0.86792   0.87878   0.88130   0.88739
 Alpha virt. eigenvalues --    0.89455   0.90233   0.91231   0.92385   0.92727
 Alpha virt. eigenvalues --    0.93064   0.94137   0.95348   0.96001   0.96892
 Alpha virt. eigenvalues --    0.98084   0.98977   0.99755   1.00127   1.01162
 Alpha virt. eigenvalues --    1.01817   1.03935   1.04522   1.05132   1.05688
 Alpha virt. eigenvalues --    1.06716   1.07173   1.09130   1.10389   1.10718
 Alpha virt. eigenvalues --    1.11922   1.13128   1.13393   1.13835   1.14554
 Alpha virt. eigenvalues --    1.16054   1.16220   1.16787   1.18761   1.19581
 Alpha virt. eigenvalues --    1.20244   1.21691   1.22847   1.23186   1.23880
 Alpha virt. eigenvalues --    1.24489   1.25020   1.26378   1.27085   1.28103
 Alpha virt. eigenvalues --    1.29103   1.30077   1.31049   1.31138   1.32565
 Alpha virt. eigenvalues --    1.33919   1.34245   1.34436   1.34791   1.35726
 Alpha virt. eigenvalues --    1.36010   1.37348   1.37920   1.38596   1.39961
 Alpha virt. eigenvalues --    1.40835   1.41307   1.42236   1.42481   1.43848
 Alpha virt. eigenvalues --    1.44453   1.45805   1.47117   1.47477   1.48545
 Alpha virt. eigenvalues --    1.48909   1.49121   1.50499   1.51618   1.52177
 Alpha virt. eigenvalues --    1.53179   1.54064   1.54141   1.54829   1.55721
 Alpha virt. eigenvalues --    1.56003   1.56535   1.57369   1.57726   1.57913
 Alpha virt. eigenvalues --    1.59248   1.59726   1.60103   1.60555   1.60955
 Alpha virt. eigenvalues --    1.61052   1.61483   1.62226   1.63014   1.63061
 Alpha virt. eigenvalues --    1.63663   1.64147   1.64779   1.64996   1.65882
 Alpha virt. eigenvalues --    1.66251   1.66281   1.66471   1.66937   1.67155
 Alpha virt. eigenvalues --    1.67919   1.68229   1.69429   1.69676   1.70255
 Alpha virt. eigenvalues --    1.70769   1.71260   1.71512   1.72039   1.72852
 Alpha virt. eigenvalues --    1.73346   1.74335   1.75093   1.75392   1.76072
 Alpha virt. eigenvalues --    1.76912   1.77716   1.78381   1.79107   1.79605
 Alpha virt. eigenvalues --    1.80838   1.81598   1.82617   1.83400   1.84249
 Alpha virt. eigenvalues --    1.84802   1.85759   1.86013   1.87048   1.87398
 Alpha virt. eigenvalues --    1.88882   1.89199   1.90267   1.91113   1.92100
 Alpha virt. eigenvalues --    1.92636   1.93257   1.94399   1.95681   1.96362
 Alpha virt. eigenvalues --    1.97124   1.97625   1.99598   2.00097   2.02164
 Alpha virt. eigenvalues --    2.02724   2.03355   2.05017   2.05423   2.06342
 Alpha virt. eigenvalues --    2.07320   2.08101   2.08929   2.09139   2.09964
 Alpha virt. eigenvalues --    2.10857   2.13591   2.13976   2.15576   2.16244
 Alpha virt. eigenvalues --    2.17387   2.20012   2.21705   2.21916   2.22264
 Alpha virt. eigenvalues --    2.22939   2.23651   2.25822   2.26697   2.27680
 Alpha virt. eigenvalues --    2.28295   2.29327   2.31105   2.32111   2.33434
 Alpha virt. eigenvalues --    2.34926   2.36728   2.39109   2.39869   2.43914
 Alpha virt. eigenvalues --    2.44375   2.47219   2.48168   2.49803   2.51433
 Alpha virt. eigenvalues --    2.52328   2.52649   2.53143   2.53851   2.54778
 Alpha virt. eigenvalues --    2.55669   2.56135   2.57044   2.57703   2.58033
 Alpha virt. eigenvalues --    2.59256   2.60149   2.60642   2.61148   2.61947
 Alpha virt. eigenvalues --    2.62866   2.63619   2.64348   2.65489   2.66502
 Alpha virt. eigenvalues --    2.66749   2.68606   2.68901   2.69347   2.70016
 Alpha virt. eigenvalues --    2.70962   2.71270   2.72624   2.73791   2.75015
 Alpha virt. eigenvalues --    2.76565   2.77599   2.79081   2.83772   2.84340
 Alpha virt. eigenvalues --    2.85074   2.87581   2.89109   2.89946   2.90652
 Alpha virt. eigenvalues --    2.92247   2.93344   2.94203   2.94885   2.96075
 Alpha virt. eigenvalues --    2.97260   2.97970   2.98640   2.99041   2.99689
 Alpha virt. eigenvalues --    3.00686   3.01599   3.02580   3.04096   3.04457
 Alpha virt. eigenvalues --    3.04700   3.05870   3.06769   3.07940   3.09879
 Alpha virt. eigenvalues --    3.10042   3.11307   3.11957   3.12423   3.13929
 Alpha virt. eigenvalues --    3.15091   3.15705   3.16413   3.17249   3.17297
 Alpha virt. eigenvalues --    3.18383   3.20141   3.20705   3.21941   3.22085
 Alpha virt. eigenvalues --    3.23388   3.24450   3.25278   3.26187   3.26744
 Alpha virt. eigenvalues --    3.27438   3.27887   3.28710   3.28943   3.30400
 Alpha virt. eigenvalues --    3.30792   3.31337   3.32943   3.34082   3.34602
 Alpha virt. eigenvalues --    3.35964   3.36708   3.37858   3.38741   3.38991
 Alpha virt. eigenvalues --    3.39656   3.41710   3.41972   3.43201   3.44876
 Alpha virt. eigenvalues --    3.47088   3.48472   3.51600   3.53313   3.54147
 Alpha virt. eigenvalues --    3.55420   3.59994   3.61819   3.63885   3.74749
 Alpha virt. eigenvalues --    3.77684   3.78817   3.80113   3.88021   3.89482
 Alpha virt. eigenvalues --    3.91455   3.97379   3.98692   4.01263   4.03301
 Alpha virt. eigenvalues --    4.05962   4.07433   4.10659   4.10878   4.12477
 Alpha virt. eigenvalues --    4.15186   4.18032   4.20077   4.21888   4.22688
 Alpha virt. eigenvalues --    4.23964   4.25375   4.29052   4.32842   4.45174
 Alpha virt. eigenvalues --    4.61318   5.13909   5.17674   5.18216   5.22056
 Alpha virt. eigenvalues --    5.23849   5.29533   5.33155   5.33789   5.42200
 Alpha virt. eigenvalues --    5.43563   5.57879   5.68105   5.74189   5.79335
 Alpha virt. eigenvalues --    5.84478  23.46273  23.48262  23.51507  23.53103
 Alpha virt. eigenvalues --   23.63802  23.65533  23.66387  23.67374  23.69061
 Alpha virt. eigenvalues --   23.70633  23.73063  23.73710  23.77028  23.78943
 Alpha virt. eigenvalues --   23.79251  23.80050  23.82480  23.84708  23.86849
 Alpha virt. eigenvalues --   23.87006  23.89506  23.90352  23.97006  24.17444
 Alpha virt. eigenvalues --   24.20171  24.23327  49.99476  50.00599  50.02991
 Alpha virt. eigenvalues --   50.03277  50.07693
          Condensed to atoms (all electrons):
 Mulliken atomic charges:
              1
     1  C   -0.115419
     2  C    0.595775
     3  C   -0.119111
     4  C   -0.398868
     5  C    0.937378
     6  C   -0.675784
     7  C   -1.226484
     8  C    0.191717
     9  C    0.571907
    10  C   -0.768833
    11  C    0.075396
    12  O   -0.184873
    13  C    0.255075
    14  C   -0.374745
    15  C   -1.113167
    16  O   -0.188929
    17  C   -0.171434
    18  C    0.562533
    19  O    0.149015
    20  C   -1.121981
    21  O   -0.002909
    22  C   -0.812111
    23  C   -0.422502
    24  O   -0.074866
    25  C    1.014368
    26  C   -1.116046
    27  C   -0.775684
    28  C   -0.816611
    29  C   -0.665945
    30  H    0.235309
    31  H    0.274179
    32  C   -1.035744
    33  H    0.202235
    34  H    0.243020
    35  H    0.283203
    36  H    0.229625
    37  H    0.222060
    38  H    0.264585
    39  H    0.277697
    40  H    0.232629
    41  H    0.269339
    42  H    0.265514
    43  H    0.280595
    44  H    0.275355
    45  H    0.291201
    46  H    0.277376
    47  H    0.248361
    48  H    0.262391
    49  H    0.267976
    50  H    0.259949
    51  H    0.223053
    52  H    0.242941
    53  H    0.264658
    54  H    0.253559
    55  H    0.311076
    56  H    0.260266
    57  H    0.270578
    58  H    0.264940
    59  H    0.257361
    60  H    0.254521
    61  H    0.260519
    62  C   -0.958181
    63  H    0.247150
    64  H    0.271385
    65  H    0.242458
 Sum of Mulliken atomic charges =   0.00000
 Mulliken charges with hydrogens summed into heavy atoms:
              1
     1  C    0.086815
     2  C    0.595775
     3  C    0.155068
     4  C   -0.398868
     5  C    0.937378
     6  C   -0.149561
     7  C   -1.226484
     8  C    0.191717
     9  C    0.571907
    10  C   -0.768833
    11  C    0.075396
    12  O   -0.184873
    13  C    0.484700
    14  C    0.111900
    15  C   -0.333502
    16  O   -0.188929
    17  C    0.063874
    18  C    0.562533
    19  O    0.149015
    20  C   -0.575873
    21  O    0.272446
    22  C   -0.243534
    23  C   -0.174141
    24  O   -0.074866
    25  C    1.014368
    26  C   -0.325730
    27  C   -0.309690
    28  C    0.012682
    29  C    0.129839
    32  C   -0.263342
    62  C   -0.197189
 Sum of Mulliken charges with hydrogens summed into heavy atoms =   0.00000
 Electronic spatial extent (au):  <R**2>=          11263.2264
 Charge=              0.0000 electrons
 Dipole moment (field-independent basis, Debye):
    X=              4.8154    Y=              1.7887    Z=             -1.8509  Tot=              5.4602
 Quadrupole moment (field-independent basis, Debye-Ang):
   XX=           -195.9976   YY=           -174.9381   ZZ=           -188.4834
   XY=             -2.3541   XZ=              5.8244   YZ=              1.4688
 Traceless Quadrupole moment (field-independent basis, Debye-Ang):
   XX=             -9.5246   YY=             11.5349   ZZ=             -2.0104
   XY=             -2.3541   XZ=              5.8244   YZ=              1.4688
 Octapole moment (field-independent basis, Debye-Ang**2):
  XXX=             24.8410  YYY=             41.5541  ZZZ=              2.0873  XYY=             21.2807
  XXY=            -39.2275  XXZ=            -33.1127  XZZ=             21.4471  YZZ=             16.1586
  YYZ=            -29.3848  XYZ=              6.4999
 Hexadecapole moment (field-independent basis, Debye-Ang**3):
 XXXX=          -7565.6452 YYYY=          -4430.8194 ZZZZ=          -3598.8318 XXXY=            -12.7939
 XXXZ=             34.7192 YYYX=            -69.3906 YYYZ=             -5.1229 ZZZX=            -33.1209
 ZZZY=            -10.8370 XXYY=          -1878.9742 XXZZ=          -1800.2573 YYZZ=          -1348.3011
 XXYZ=              2.7590 YYXZ=              5.2450 ZZXY=            -41.4056
 N-N= 3.521942870507D+03 E-N=-1.027706021449D+04  KE= 1.381922267260D+03
 1\1\GINC-B0805\FOpt\RB3LYP\6-311+G(d)\C26H34O5\CAOFEI\13-Apr-2021\0\\#
  opt b3lyp/6-311+g(d) geom=connectivity\\Title Card Required\\0,1\C,1.
 5128738249,0.0845203359,3.229044232\C,1.5694758487,1.3171166855,2.7194
 708071\C,1.716447328,1.5458590334,1.2313789454\C,1.5020865653,0.296462
 8401,0.3228361784\C,1.0391429451,-1.0310778695,0.9783389807\C,1.599306
 0588,-1.1730016403,2.4118454372\C,0.5377080327,0.790722976,-0.78560155
 08\C,-0.9242949894,0.6212136318,-0.4248843839\C,-1.4196574989,-0.38841
 83352,0.3302297654\C,-0.4917818901,-1.2881076042,1.0157918308\C,-2.905
 0937984,-0.5368758448,0.5674372423\O,-3.5577107335,0.4086131094,0.9580
 521536\C,-3.5681011822,-1.8834210025,0.2613743337\C,-4.5914782655,-1.7
 08757074,-0.8824043517\C,-4.2430733423,-2.432493621,1.5283524089\O,-0.
 8974714838,-2.2412324078,1.667789146\C,0.596641129,2.3309953405,-0.823
 265099\C,-0.7718972257,2.7152708651,-1.4335260826\O,-1.6487921486,1.60
 21934427,-0.9585920785\C,0.7986932658,2.6661485691,0.6666656232\O,0.73
 92452289,0.139779382,-2.0273480567\C,1.6912192553,-2.085713925,0.04950
 87539\C,3.0325742319,-1.4331327886,-0.3104552511\O,2.7652727372,-0.017
 2528603,-0.3197579322\C,3.6628885499,-1.8942630741,-1.605347373\C,3.85
 4176402,-3.3846014376,-1.7220163644\C,4.0673340929,-1.0408036706,-2.54
 77861367\C,-0.7764480939,2.6998223139,-2.9607373275\C,-1.3988946451,3.
 999451673,-0.9050667558\H,1.4267903768,2.6892033456,-1.4365088256\H,2.
 7548229062,1.8473558503,1.0428316702\C,1.5633132035,2.5440071685,3.594
 6709709\H,1.4417626803,-0.0390230474,4.3076313151\H,2.6487981476,-1.49
 19246857,2.3641618183\H,1.0623573738,-1.9891489564,2.8984707686\H,-2.7
 9606514,-2.5886911447,-0.0584934034\H,-5.1214900526,-2.661082267,-0.99
 98227987\H,-5.3402167625,-0.9739520394,-0.569194686\H,-3.5112674748,-2
 .5998471672,2.320241535\H,-4.732507892,-3.3865025318,1.3113872608\H,-5
 .0001795957,-1.7350926602,1.8949546179\H,1.222373195,3.6601416328,0.82
 02660002\H,-0.1606926242,2.6453820805,1.1897723944\H,1.6958421615,0.00
 62119875,-2.1241756862\H,1.089010295,-2.2343543352,-0.8497678011\H,1.8
 023443615,-3.046695445,0.553737853\H,3.7596895671,-1.6257858742,0.4921
 090658\H,4.4206741213,-3.7786802479,-0.8702873831\H,2.8969827567,-3.91
 56167666,-1.7344068956\H,4.3960974247,-3.6443779239,-2.6326714141\H,4.
 5336035849,-1.3940530888,-3.4619047638\H,3.9741806626,0.0322301204,-2.
 4275751807\H,-1.7984736496,2.8072586671,-3.3315557157\H,-0.1898505786,
 3.540124016,-3.3435328938\H,-0.3546226696,1.7748264745,-3.3500434219\H
 ,-0.7729693422,4.8563342797,-1.169942184\H,-2.3833997021,4.1493797505,
 -1.3530966179\H,-1.524010508,3.9828536654,0.1770141998\H,1.5362700274,
 2.2747417203,4.6523480422\H,2.459479224,3.1537646684,3.4263109858\H,0.
 7027454888,3.19043262,3.3946730583\C,-3.9857136828,-1.2961836628,-2.22
 67545409\H,-4.7562385693,-1.2487312619,-3.0018306187\H,-3.5137586072,-
 0.3108855033,-2.1781553098\H,-3.2272579068,-2.0111784805,-2.5618225102
 \\Version=EM64L-G09RevB.01\State=1-A\HF=-1387.6513378\RMSD=4.713e-09\R
 MSF=4.647e-06\Dipole=1.9103799,0.6756379,-0.7132419\Quadrupole=-7.1906
 243,8.6209694,-1.4303451,-1.5191464,4.3044505,1.0476766\PG=C01 [X(C26H
 34O5)]\\@


 I HAVE NOT FAILED, I HAVE ONLY DISCOVERED 10,000
 WAYS THAT DIDN'T WORK.  -- THOMAS A. EDISON
 Job cpu time:  1 days  5 hours 21 minutes 46.0 seconds.
 File lengths (MBytes):  RWF=    372 Int=      0 D2E=      0 Chk=     36 Scr=      1
 Normal termination of Gaussian 09 at Tue Apr 13 16:54:43 2021.
