 Entering Gaussian System, Link 0=g09
 Initial command:
 /public/software/g09/g09/l1.exe /tmp/Gau-29903.inp -scrdir=/tmp/
 Entering Link 1 = /public/software/g09/g09/l1.exe PID=     29904.
  
 Copyright (c) 1988,1990,1992,1993,1995,1998,2003,2009,2010,
            Gaussian, Inc.  All Rights Reserved.
  
 This is part of the Gaussian(R) 09 program.  It is based on
 the Gaussian(R) 03 system (copyright 2003, Gaussian, Inc.),
 the Gaussian(R) 98 system (copyright 1998, Gaussian, Inc.),
 the Gaussian(R) 94 system (copyright 1995, Gaussian, Inc.),
 the Gaussian 92(TM) system (copyright 1992, Gaussian, Inc.),
 the Gaussian 90(TM) system (copyright 1990, Gaussian, Inc.),
 the Gaussian 88(TM) system (copyright 1988, Gaussian, Inc.),
 the Gaussian 86(TM) system (copyright 1986, Carnegie Mellon
 University), and the Gaussian 82(TM) system (copyright 1983,
 Carnegie Mellon University). Gaussian is a federally registered
 trademark of Gaussian, Inc.
  
 This software contains proprietary and confidential information,
 including trade secrets, belonging to Gaussian, Inc.
  
 This software is provided under written license and may be
 used, copied, transmitted, or stored only in accord with that
 written license.
  
 The following legend is applicable only to US Government
 contracts under FAR:
  
                    RESTRICTED RIGHTS LEGEND
  
 Use, reproduction and disclosure by the US Government is
 subject to restrictions as set forth in subparagraphs (a)
 and (c) of the Commercial Computer Software - Restricted
 Rights clause in FAR 52.227-19.
  
 Gaussian, Inc.
 340 Quinnipiac St., Bldg. 40, Wallingford CT 06492
  
  
 ---------------------------------------------------------------
 Warning -- This program may not be used in any manner that
 competes with the business of Gaussian, Inc. or will provide
 assistance to any competitor of Gaussian, Inc.  The licensee
 of this program is prohibited from giving any competitor of
 Gaussian, Inc. access to this program.  By using this program,
 the user acknowledges that Gaussian, Inc. is engaged in the
 business of creating and licensing software in the field of
 computational chemistry and represents and warrants to the
 licensee that it is not a competitor of Gaussian, Inc. and that
 it will not use this program in any manner prohibited above.
 ---------------------------------------------------------------
  

 Cite this work as:
 Gaussian 09, Revision B.01,
 M. J. Frisch, G. W. Trucks, H. B. Schlegel, G. E. Scuseria, 
 M. A. Robb, J. R. Cheeseman, G. Scalmani, V. Barone, B. Mennucci, 
 G. A. Petersson, H. Nakatsuji, M. Caricato, X. Li, H. P. Hratchian, 
 A. F. Izmaylov, J. Bloino, G. Zheng, J. L. Sonnenberg, M. Hada, 
 M. Ehara, K. Toyota, R. Fukuda, J. Hasegawa, M. Ishida, T. Nakajima, 
 Y. Honda, O. Kitao, H. Nakai, T. Vreven, J. A. Montgomery, Jr., 
 J. E. Peralta, F. Ogliaro, M. Bearpark, J. J. Heyd, E. Brothers, 
 K. N. Kudin, V. N. Staroverov, T. Keith, R. Kobayashi, J. Normand, 
 K. Raghavachari, A. Rendell, J. C. Burant, S. S. Iyengar, J. Tomasi, 
 M. Cossi, N. Rega, J. M. Millam, M. Klene, J. E. Knox, J. B. Cross, 
 V. Bakken, C. Adamo, J. Jaramillo, R. Gomperts, R. E. Stratmann, 
 O. Yazyev, A. J. Austin, R. Cammi, C. Pomelli, J. W. Ochterski, 
 R. L. Martin, K. Morokuma, V. G. Zakrzewski, G. A. Voth, 
 P. Salvador, J. J. Dannenberg, S. Dapprich, A. D. Daniels, 
 O. Farkas, J. B. Foresman, J. V. Ortiz, J. Cioslowski, 
 and D. J. Fox, Gaussian, Inc., Wallingford CT, 2010.
 
 ******************************************
 Gaussian 09:  EM64L-G09RevB.01 12-Aug-2010
                13-Apr-2021 
 ******************************************
 %mem=600MW
 %nprocshared=10
 Will use up to   10 processors via shared memory.
 ----------------------------------------
 # opt b3lyp/6-311+g(d) geom=connectivity
 ----------------------------------------
 1/14=-1,18=20,19=15,26=3,38=1,57=2/1,3;
 2/9=110,12=2,17=6,18=5,40=1/2;
 3/5=4,6=6,7=11,11=2,16=1,25=1,30=1,71=1,74=-5/1,2,3;
 4//1;
 5/5=2,38=5/2;
 6/7=2,8=2,9=2,10=2,28=1/1;
 7//1,2,3,16;
 1/14=-1,18=20,19=15/3(2);
 2/9=110/2;
 99//99;
 2/9=110/2;
 3/5=4,6=6,7=11,11=2,16=1,25=1,30=1,71=1,74=-5/1,2,3;
 4/5=5,16=3/1;
 5/5=2,38=5/2;
 7//1,2,3,16;
 1/14=-1,18=20,19=15/3(-5);
 2/9=110/2;
 6/7=2,8=2,9=2,10=2,19=2,28=1/1;
 99/9=1/99;
 -------------------
 Title Card Required
 -------------------
 Symbolic Z-matrix:
 Charge =  0 Multiplicity = 1
 C                     1.57888   0.00161   3.15583 
 C                     1.66048   1.2484    2.6797 
 C                     1.75088   1.52419   1.1941 
 C                     1.48979   0.30989   0.2445 
 C                     1.06829  -1.05556   0.86656 
 C                     1.60553  -1.23909   2.31051 
 C                     0.46264   0.84682  -0.78824 
 C                    -0.97747   0.64332  -0.36809 
 C                    -1.43246  -0.4428    0.31026 
 C                    -0.45536  -1.37454   0.88076 
 C                    -2.90668  -0.63314   0.56824 
 O                    -3.59092   0.30857   0.93336 
 C                    -3.54419  -2.00193   0.3022 
 C                    -4.66384  -1.84035  -0.74983 
 C                    -4.09556  -2.57611   1.61948 
 O                    -0.80646  -2.41363   1.43546 
 C                     0.51309   2.38829  -0.76601 
 C                    -0.8927    2.78397  -1.27929 
 O                    -1.73482   1.65734  -0.78831 
 C                     0.80129   2.66531   0.72154 
 O                     0.63035   0.2478   -2.05962 
 C                     1.77514  -2.06685  -0.07529 
 C                     3.09327  -1.35106  -0.38373 
 O                     2.7059    0.03934  -0.51112 
 C                     3.84828  -1.8285   -1.60588 
 C                     3.29448  -1.52059  -2.97512 
 C                     4.97181  -2.53414  -1.44133 
 C                    -0.98665   2.80717  -2.80639 
 C                    -1.49627   4.05024  -0.67819 
 H                     1.30524   2.77693  -1.41347 
 H                     2.78014   1.83593   0.96602 
 C                     1.72718   2.44599   3.59563 
 H                     1.54313  -0.14914   4.23418 
 H                     2.63985  -1.61257   2.27289 
 H                     1.02117  -2.04004   2.77288 
 H                    -2.77958  -2.68272  -0.08476 
 H                    -5.16734  -2.81039  -0.85831 
 H                    -5.40769  -1.13764  -0.35554 
 H                    -3.28535  -2.75243   2.33238 
 H                    -4.60402  -3.52944   1.43421 
 H                    -4.81455  -1.88048   2.0653 
 H                     1.23267   3.65602   0.88986 
 H                    -0.12971   2.61784   1.29712 
 H                     1.59942   0.14923  -2.13368 
 H                     1.1942   -2.21468  -0.99088 
 H                     1.92039  -3.03846   0.40343 
 H                     3.76682  -1.4368    0.47914 
 H                     2.23893  -1.80147  -3.07244 
 H                     3.3705   -0.44745  -3.19612 
 H                     3.85526  -2.05092  -3.7501 
 H                     5.51486  -2.94927  -2.28624 
 H                     5.38687  -2.73039  -0.45571 
 H                    -2.03351   2.90132  -3.11267 
 H                    -0.43675   3.66969  -3.20032 
 H                    -0.56784   1.8965   -3.2383 
 H                    -0.89812   4.92137  -0.968 
 H                    -2.51403   4.19343  -1.05394 
 H                    -1.54287   4.00467   0.41198 
 H                     1.72586   2.13886   4.64593 
 H                     2.64069   3.03075   3.41563 
 H                     0.88235   3.13045   3.44639 
 C                    -4.17544  -1.36105  -2.12177 
 H                    -5.004    -1.31639  -2.83799 
 H                    -3.73637  -0.35819  -2.06402 
 H                    -3.4154   -2.03656  -2.5339 
 

 GradGradGradGradGradGradGradGradGradGradGradGradGradGradGradGradGradGrad
 Berny optimization.
 Initialization pass.
                           ----------------------------
                           !    Initial Parameters    !
                           ! (Angstroms and Degrees)  !
 --------------------------                            --------------------------
 ! Name  Definition              Value          Derivative Info.                !
 --------------------------------------------------------------------------------
 ! R1    R(1,2)                  1.3371         estimate D2E/DX2                !
 ! R2    R(1,6)                  1.5015         estimate D2E/DX2                !
 ! R3    R(1,33)                 1.0894         estimate D2E/DX2                !
 ! R4    R(2,3)                  1.5137         estimate D2E/DX2                !
 ! R5    R(2,32)                 1.5092         estimate D2E/DX2                !
 ! R6    R(3,4)                  1.5635         estimate D2E/DX2                !
 ! R7    R(3,20)                 1.5579         estimate D2E/DX2                !
 ! R8    R(3,31)                 1.0994         estimate D2E/DX2                !
 ! R9    R(4,5)                  1.5585         estimate D2E/DX2                !
 ! R10   R(4,7)                  1.5524         estimate D2E/DX2                !
 ! R11   R(4,24)                 1.4571         estimate D2E/DX2                !
 ! R12   R(5,6)                  1.5515         estimate D2E/DX2                !
 ! R13   R(5,10)                 1.5567         estimate D2E/DX2                !
 ! R14   R(5,22)                 1.5522         estimate D2E/DX2                !
 ! R15   R(6,34)                 1.1003         estimate D2E/DX2                !
 ! R16   R(6,35)                 1.094          estimate D2E/DX2                !
 ! R17   R(7,8)                  1.5139         estimate D2E/DX2                !
 ! R18   R(7,17)                 1.5425         estimate D2E/DX2                !
 ! R19   R(7,21)                 1.4154         estimate D2E/DX2                !
 ! R20   R(8,9)                  1.359          estimate D2E/DX2                !
 ! R21   R(8,19)                 1.3336         estimate D2E/DX2                !
 ! R22   R(9,10)                 1.4657         estimate D2E/DX2                !
 ! R23   R(9,11)                 1.5087         estimate D2E/DX2                !
 ! R24   R(10,16)                1.2291         estimate D2E/DX2                !
 ! R25   R(11,12)                1.22           estimate D2E/DX2                !
 ! R26   R(11,13)                1.5332         estimate D2E/DX2                !
 ! R27   R(13,14)                1.5448         estimate D2E/DX2                !
 ! R28   R(13,15)                1.5391         estimate D2E/DX2                !
 ! R29   R(13,36)                1.0945         estimate D2E/DX2                !
 ! R30   R(14,37)                1.0983         estimate D2E/DX2                !
 ! R31   R(14,38)                1.0966         estimate D2E/DX2                !
 ! R32   R(14,62)                1.5331         estimate D2E/DX2                !
 ! R33   R(15,39)                1.0935         estimate D2E/DX2                !
 ! R34   R(15,40)                1.0962         estimate D2E/DX2                !
 ! R35   R(15,41)                1.0953         estimate D2E/DX2                !
 ! R36   R(17,18)                1.548          estimate D2E/DX2                !
 ! R37   R(17,20)                1.5403         estimate D2E/DX2                !
 ! R38   R(17,30)                1.0944         estimate D2E/DX2                !
 ! R39   R(18,19)                1.4898         estimate D2E/DX2                !
 ! R40   R(18,28)                1.5302         estimate D2E/DX2                !
 ! R41   R(18,29)                1.5261         estimate D2E/DX2                !
 ! R42   R(20,42)                1.0936         estimate D2E/DX2                !
 ! R43   R(20,43)                1.0956         estimate D2E/DX2                !
 ! R44   R(21,44)                0.9769         estimate D2E/DX2                !
 ! R45   R(22,23)                1.5313         estimate D2E/DX2                !
 ! R46   R(22,45)                1.0944         estimate D2E/DX2                !
 ! R47   R(22,46)                1.0928         estimate D2E/DX2                !
 ! R48   R(23,24)                1.449          estimate D2E/DX2                !
 ! R49   R(23,25)                1.5138         estimate D2E/DX2                !
 ! R50   R(23,47)                1.098          estimate D2E/DX2                !
 ! R51   R(25,26)                1.5087         estimate D2E/DX2                !
 ! R52   R(25,27)                1.3369         estimate D2E/DX2                !
 ! R53   R(26,48)                1.0966         estimate D2E/DX2                !
 ! R54   R(26,49)                1.0983         estimate D2E/DX2                !
 ! R55   R(26,50)                1.0938         estimate D2E/DX2                !
 ! R56   R(27,51)                1.0868         estimate D2E/DX2                !
 ! R57   R(27,52)                1.0873         estimate D2E/DX2                !
 ! R58   R(28,53)                1.0948         estimate D2E/DX2                !
 ! R59   R(28,54)                1.0961         estimate D2E/DX2                !
 ! R60   R(28,55)                1.0915         estimate D2E/DX2                !
 ! R61   R(29,56)                1.0957         estimate D2E/DX2                !
 ! R62   R(29,57)                1.0943         estimate D2E/DX2                !
 ! R63   R(29,58)                1.0921         estimate D2E/DX2                !
 ! R64   R(32,59)                1.0943         estimate D2E/DX2                !
 ! R65   R(32,60)                1.0995         estimate D2E/DX2                !
 ! R66   R(32,61)                1.0975         estimate D2E/DX2                !
 ! R67   R(62,63)                1.0961         estimate D2E/DX2                !
 ! R68   R(62,64)                1.0963         estimate D2E/DX2                !
 ! R69   R(62,65)                1.0972         estimate D2E/DX2                !
 ! A1    A(2,1,6)              124.6753         estimate D2E/DX2                !
 ! A2    A(2,1,33)             118.9142         estimate D2E/DX2                !
 ! A3    A(6,1,33)             116.3272         estimate D2E/DX2                !
 ! A4    A(1,2,3)              121.5348         estimate D2E/DX2                !
 ! A5    A(1,2,32)             121.7709         estimate D2E/DX2                !
 ! A6    A(3,2,32)             116.6432         estimate D2E/DX2                !
 ! A7    A(2,3,4)              116.3993         estimate D2E/DX2                !
 ! A8    A(2,3,20)             113.2498         estimate D2E/DX2                !
 ! A9    A(2,3,31)             108.131          estimate D2E/DX2                !
 ! A10   A(4,3,20)             106.4311         estimate D2E/DX2                !
 ! A11   A(4,3,31)             104.5115         estimate D2E/DX2                !
 ! A12   A(20,3,31)            107.4593         estimate D2E/DX2                !
 ! A13   A(3,4,5)              118.8935         estimate D2E/DX2                !
 ! A14   A(3,4,7)              104.2361         estimate D2E/DX2                !
 ! A15   A(3,4,24)             108.6515         estimate D2E/DX2                !
 ! A16   A(5,4,7)              112.9299         estimate D2E/DX2                !
 ! A17   A(5,4,24)             105.6658         estimate D2E/DX2                !
 ! A18   A(7,4,24)             105.7519         estimate D2E/DX2                !
 ! A19   A(4,5,6)              112.423          estimate D2E/DX2                !
 ! A20   A(4,5,10)             116.6061         estimate D2E/DX2                !
 ! A21   A(4,5,22)             101.8561         estimate D2E/DX2                !
 ! A22   A(6,5,10)             107.8288         estimate D2E/DX2                !
 ! A23   A(6,5,22)             109.2657         estimate D2E/DX2                !
 ! A24   A(10,5,22)            108.5253         estimate D2E/DX2                !
 ! A25   A(1,6,5)              114.8372         estimate D2E/DX2                !
 ! A26   A(1,6,34)             108.4452         estimate D2E/DX2                !
 ! A27   A(1,6,35)             110.9493         estimate D2E/DX2                !
 ! A28   A(5,6,34)             109.5012         estimate D2E/DX2                !
 ! A29   A(5,6,35)             107.1567         estimate D2E/DX2                !
 ! A30   A(34,6,35)            105.5483         estimate D2E/DX2                !
 ! A31   A(4,7,8)              113.4716         estimate D2E/DX2                !
 ! A32   A(4,7,17)             108.326          estimate D2E/DX2                !
 ! A33   A(4,7,21)             111.8873         estimate D2E/DX2                !
 ! A34   A(8,7,17)              99.2915         estimate D2E/DX2                !
 ! A35   A(8,7,21)             107.7653         estimate D2E/DX2                !
 ! A36   A(17,7,21)            115.5957         estimate D2E/DX2                !
 ! A37   A(7,8,9)              124.3643         estimate D2E/DX2                !
 ! A38   A(7,8,19)             110.522          estimate D2E/DX2                !
 ! A39   A(9,8,19)             125.0901         estimate D2E/DX2                !
 ! A40   A(8,9,10)             118.6296         estimate D2E/DX2                !
 ! A41   A(8,9,11)             120.8867         estimate D2E/DX2                !
 ! A42   A(10,9,11)            120.3084         estimate D2E/DX2                !
 ! A43   A(5,10,9)             121.2423         estimate D2E/DX2                !
 ! A44   A(5,10,16)            117.189          estimate D2E/DX2                !
 ! A45   A(9,10,16)            121.5102         estimate D2E/DX2                !
 ! A46   A(9,11,12)            120.1227         estimate D2E/DX2                !
 ! A47   A(9,11,13)            119.292          estimate D2E/DX2                !
 ! A48   A(12,11,13)           120.5207         estimate D2E/DX2                !
 ! A49   A(11,13,14)           109.035          estimate D2E/DX2                !
 ! A50   A(11,13,15)           109.4813         estimate D2E/DX2                !
 ! A51   A(11,13,36)           109.0377         estimate D2E/DX2                !
 ! A52   A(14,13,15)           111.2365         estimate D2E/DX2                !
 ! A53   A(14,13,36)           109.3062         estimate D2E/DX2                !
 ! A54   A(15,13,36)           108.7126         estimate D2E/DX2                !
 ! A55   A(13,14,37)           107.8874         estimate D2E/DX2                !
 ! A56   A(13,14,38)           108.2876         estimate D2E/DX2                !
 ! A57   A(13,14,62)           114.2815         estimate D2E/DX2                !
 ! A58   A(37,14,38)           106.8885         estimate D2E/DX2                !
 ! A59   A(37,14,62)           109.498          estimate D2E/DX2                !
 ! A60   A(38,14,62)           109.725          estimate D2E/DX2                !
 ! A61   A(13,15,39)           110.6518         estimate D2E/DX2                !
 ! A62   A(13,15,40)           110.2394         estimate D2E/DX2                !
 ! A63   A(13,15,41)           110.2796         estimate D2E/DX2                !
 ! A64   A(39,15,40)           108.2777         estimate D2E/DX2                !
 ! A65   A(39,15,41)           108.8701         estimate D2E/DX2                !
 ! A66   A(40,15,41)           108.4609         estimate D2E/DX2                !
 ! A67   A(7,17,18)            102.7656         estimate D2E/DX2                !
 ! A68   A(7,17,20)            101.5232         estimate D2E/DX2                !
 ! A69   A(7,17,30)            111.7182         estimate D2E/DX2                !
 ! A70   A(18,17,20)           116.3694         estimate D2E/DX2                !
 ! A71   A(18,17,30)           111.7398         estimate D2E/DX2                !
 ! A72   A(20,17,30)           111.8414         estimate D2E/DX2                !
 ! A73   A(17,18,19)           102.1667         estimate D2E/DX2                !
 ! A74   A(17,18,28)           112.9888         estimate D2E/DX2                !
 ! A75   A(17,18,29)           116.1455         estimate D2E/DX2                !
 ! A76   A(19,18,28)           107.7977         estimate D2E/DX2                !
 ! A77   A(19,18,29)           105.9084         estimate D2E/DX2                !
 ! A78   A(28,18,29)           110.8684         estimate D2E/DX2                !
 ! A79   A(8,19,18)            110.9684         estimate D2E/DX2                !
 ! A80   A(3,20,17)            105.9764         estimate D2E/DX2                !
 ! A81   A(3,20,42)            112.1128         estimate D2E/DX2                !
 ! A82   A(3,20,43)            109.0787         estimate D2E/DX2                !
 ! A83   A(17,20,42)           112.6666         estimate D2E/DX2                !
 ! A84   A(17,20,43)           109.9122         estimate D2E/DX2                !
 ! A85   A(42,20,43)           107.0732         estimate D2E/DX2                !
 ! A86   A(7,21,44)            103.2            estimate D2E/DX2                !
 ! A87   A(5,22,23)            102.1017         estimate D2E/DX2                !
 ! A88   A(5,22,45)            110.7278         estimate D2E/DX2                !
 ! A89   A(5,22,46)            111.96           estimate D2E/DX2                !
 ! A90   A(23,22,45)           110.5832         estimate D2E/DX2                !
 ! A91   A(23,22,46)           112.9176         estimate D2E/DX2                !
 ! A92   A(45,22,46)           108.4784         estimate D2E/DX2                !
 ! A93   A(22,23,24)           103.6583         estimate D2E/DX2                !
 ! A94   A(22,23,25)           116.391          estimate D2E/DX2                !
 ! A95   A(22,23,47)           109.4661         estimate D2E/DX2                !
 ! A96   A(24,23,25)           111.4075         estimate D2E/DX2                !
 ! A97   A(24,23,47)           107.9405         estimate D2E/DX2                !
 ! A98   A(25,23,47)           107.6901         estimate D2E/DX2                !
 ! A99   A(4,24,23)            110.837          estimate D2E/DX2                !
 ! A100  A(23,25,26)           119.0283         estimate D2E/DX2                !
 ! A101  A(23,25,27)           119.0945         estimate D2E/DX2                !
 ! A102  A(26,25,27)           121.8629         estimate D2E/DX2                !
 ! A103  A(25,26,48)           112.4321         estimate D2E/DX2                !
 ! A104  A(25,26,49)           110.8926         estimate D2E/DX2                !
 ! A105  A(25,26,50)           110.8475         estimate D2E/DX2                !
 ! A106  A(48,26,49)           107.3993         estimate D2E/DX2                !
 ! A107  A(48,26,50)           107.8445         estimate D2E/DX2                !
 ! A108  A(49,26,50)           107.1999         estimate D2E/DX2                !
 ! A109  A(25,27,51)           121.7264         estimate D2E/DX2                !
 ! A110  A(25,27,52)           121.8464         estimate D2E/DX2                !
 ! A111  A(51,27,52)           116.4255         estimate D2E/DX2                !
 ! A112  A(18,28,53)           109.8294         estimate D2E/DX2                !
 ! A113  A(18,28,54)           109.8638         estimate D2E/DX2                !
 ! A114  A(18,28,55)           111.0214         estimate D2E/DX2                !
 ! A115  A(53,28,54)           108.1497         estimate D2E/DX2                !
 ! A116  A(53,28,55)           109.1446         estimate D2E/DX2                !
 ! A117  A(54,28,55)           108.7734         estimate D2E/DX2                !
 ! A118  A(18,29,56)           109.8513         estimate D2E/DX2                !
 ! A119  A(18,29,57)           109.9469         estimate D2E/DX2                !
 ! A120  A(18,29,58)           112.051          estimate D2E/DX2                !
 ! A121  A(56,29,57)           108.2312         estimate D2E/DX2                !
 ! A122  A(56,29,58)           108.6925         estimate D2E/DX2                !
 ! A123  A(57,29,58)           107.9702         estimate D2E/DX2                !
 ! A124  A(2,32,59)            111.0842         estimate D2E/DX2                !
 ! A125  A(2,32,60)            111.0638         estimate D2E/DX2                !
 ! A126  A(2,32,61)            112.2309         estimate D2E/DX2                !
 ! A127  A(59,32,60)           107.9032         estimate D2E/DX2                !
 ! A128  A(59,32,61)           107.7364         estimate D2E/DX2                !
 ! A129  A(60,32,61)           106.5961         estimate D2E/DX2                !
 ! A130  A(14,62,63)           110.8951         estimate D2E/DX2                !
 ! A131  A(14,62,64)           111.4961         estimate D2E/DX2                !
 ! A132  A(14,62,65)           111.3664         estimate D2E/DX2                !
 ! A133  A(63,62,64)           107.4511         estimate D2E/DX2                !
 ! A134  A(63,62,65)           107.6541         estimate D2E/DX2                !
 ! A135  A(64,62,65)           107.7909         estimate D2E/DX2                !
 ! D1    D(6,1,2,3)              1.7921         estimate D2E/DX2                !
 ! D2    D(6,1,2,32)          -175.5203         estimate D2E/DX2                !
 ! D3    D(33,1,2,3)           178.3441         estimate D2E/DX2                !
 ! D4    D(33,1,2,32)            1.0317         estimate D2E/DX2                !
 ! D5    D(2,1,6,5)            -27.9062         estimate D2E/DX2                !
 ! D6    D(2,1,6,34)            94.9238         estimate D2E/DX2                !
 ! D7    D(2,1,6,35)          -149.5922         estimate D2E/DX2                !
 ! D8    D(33,1,6,5)           155.4612         estimate D2E/DX2                !
 ! D9    D(33,1,6,34)          -81.7088         estimate D2E/DX2                !
 ! D10   D(33,1,6,35)           33.7752         estimate D2E/DX2                !
 ! D11   D(1,2,3,4)             10.4947         estimate D2E/DX2                !
 ! D12   D(1,2,3,20)           134.3411         estimate D2E/DX2                !
 ! D13   D(1,2,3,31)          -106.6929         estimate D2E/DX2                !
 ! D14   D(32,2,3,4)          -172.0616         estimate D2E/DX2                !
 ! D15   D(32,2,3,20)          -48.2152         estimate D2E/DX2                !
 ! D16   D(32,2,3,31)           70.7508         estimate D2E/DX2                !
 ! D17   D(1,2,32,59)            1.4963         estimate D2E/DX2                !
 ! D18   D(1,2,32,60)          121.5989         estimate D2E/DX2                !
 ! D19   D(1,2,32,61)         -119.1873         estimate D2E/DX2                !
 ! D20   D(3,2,32,59)         -175.9409         estimate D2E/DX2                !
 ! D21   D(3,2,32,60)          -55.8383         estimate D2E/DX2                !
 ! D22   D(3,2,32,61)           63.3755         estimate D2E/DX2                !
 ! D23   D(2,3,4,5)              3.9734         estimate D2E/DX2                !
 ! D24   D(2,3,4,7)            130.7799         estimate D2E/DX2                !
 ! D25   D(2,3,4,24)          -116.8099         estimate D2E/DX2                !
 ! D26   D(20,3,4,5)          -123.3166         estimate D2E/DX2                !
 ! D27   D(20,3,4,7)             3.4899         estimate D2E/DX2                !
 ! D28   D(20,3,4,24)          115.9            estimate D2E/DX2                !
 ! D29   D(31,3,4,5)           123.1401         estimate D2E/DX2                !
 ! D30   D(31,3,4,7)          -110.0535         estimate D2E/DX2                !
 ! D31   D(31,3,4,24)            2.3567         estimate D2E/DX2                !
 ! D32   D(2,3,20,17)         -154.1965         estimate D2E/DX2                !
 ! D33   D(2,3,20,42)           82.5046         estimate D2E/DX2                !
 ! D34   D(2,3,20,43)          -35.9104         estimate D2E/DX2                !
 ! D35   D(4,3,20,17)          -25.0558         estimate D2E/DX2                !
 ! D36   D(4,3,20,42)         -148.3547         estimate D2E/DX2                !
 ! D37   D(4,3,20,43)           93.2303         estimate D2E/DX2                !
 ! D38   D(31,3,20,17)          86.4511         estimate D2E/DX2                !
 ! D39   D(31,3,20,42)         -36.8478         estimate D2E/DX2                !
 ! D40   D(31,3,20,43)        -155.2628         estimate D2E/DX2                !
 ! D41   D(3,4,5,6)            -27.8618         estimate D2E/DX2                !
 ! D42   D(3,4,5,10)            97.3873         estimate D2E/DX2                !
 ! D43   D(3,4,5,22)          -144.6917         estimate D2E/DX2                !
 ! D44   D(7,4,5,6)           -150.4396         estimate D2E/DX2                !
 ! D45   D(7,4,5,10)           -25.1905         estimate D2E/DX2                !
 ! D46   D(7,4,5,22)            92.7305         estimate D2E/DX2                !
 ! D47   D(24,4,5,6)            94.4242         estimate D2E/DX2                !
 ! D48   D(24,4,5,10)         -140.3267         estimate D2E/DX2                !
 ! D49   D(24,4,5,22)          -22.4057         estimate D2E/DX2                !
 ! D50   D(3,4,7,8)            -89.79           estimate D2E/DX2                !
 ! D51   D(3,4,7,17)            19.4332         estimate D2E/DX2                !
 ! D52   D(3,4,7,21)           148.0065         estimate D2E/DX2                !
 ! D53   D(5,4,7,8)             40.6452         estimate D2E/DX2                !
 ! D54   D(5,4,7,17)           149.8684         estimate D2E/DX2                !
 ! D55   D(5,4,7,21)           -81.5583         estimate D2E/DX2                !
 ! D56   D(24,4,7,8)           155.7297         estimate D2E/DX2                !
 ! D57   D(24,4,7,17)          -95.0471         estimate D2E/DX2                !
 ! D58   D(24,4,7,21)           33.5262         estimate D2E/DX2                !
 ! D59   D(3,4,24,23)          127.0455         estimate D2E/DX2                !
 ! D60   D(5,4,24,23)           -1.5854         estimate D2E/DX2                !
 ! D61   D(7,4,24,23)         -121.554          estimate D2E/DX2                !
 ! D62   D(4,5,6,1)             38.707          estimate D2E/DX2                !
 ! D63   D(4,5,6,34)           -83.5542         estimate D2E/DX2                !
 ! D64   D(4,5,6,35)           162.4332         estimate D2E/DX2                !
 ! D65   D(10,5,6,1)           -91.207          estimate D2E/DX2                !
 ! D66   D(10,5,6,34)          146.5318         estimate D2E/DX2                !
 ! D67   D(10,5,6,35)           32.5192         estimate D2E/DX2                !
 ! D68   D(22,5,6,1)           151.0203         estimate D2E/DX2                !
 ! D69   D(22,5,6,34)           28.7591         estimate D2E/DX2                !
 ! D70   D(22,5,6,35)          -85.2535         estimate D2E/DX2                !
 ! D71   D(4,5,10,9)             1.2164         estimate D2E/DX2                !
 ! D72   D(4,5,10,16)         -176.0425         estimate D2E/DX2                !
 ! D73   D(6,5,10,9)           128.7507         estimate D2E/DX2                !
 ! D74   D(6,5,10,16)          -48.5083         estimate D2E/DX2                !
 ! D75   D(22,5,10,9)         -113.0002         estimate D2E/DX2                !
 ! D76   D(22,5,10,16)          69.7409         estimate D2E/DX2                !
 ! D77   D(4,5,22,23)           36.8457         estimate D2E/DX2                !
 ! D78   D(4,5,22,45)          -80.9021         estimate D2E/DX2                !
 ! D79   D(4,5,22,46)          157.9011         estimate D2E/DX2                !
 ! D80   D(6,5,22,23)          -82.249          estimate D2E/DX2                !
 ! D81   D(6,5,22,45)          160.0033         estimate D2E/DX2                !
 ! D82   D(6,5,22,46)           38.8065         estimate D2E/DX2                !
 ! D83   D(10,5,22,23)         160.4167         estimate D2E/DX2                !
 ! D84   D(10,5,22,45)          42.6689         estimate D2E/DX2                !
 ! D85   D(10,5,22,46)         -78.5279         estimate D2E/DX2                !
 ! D86   D(4,7,8,9)            -36.099          estimate D2E/DX2                !
 ! D87   D(4,7,8,19)           145.5947         estimate D2E/DX2                !
 ! D88   D(17,7,8,9)          -150.8315         estimate D2E/DX2                !
 ! D89   D(17,7,8,19)           30.8621         estimate D2E/DX2                !
 ! D90   D(21,7,8,9)            88.3647         estimate D2E/DX2                !
 ! D91   D(21,7,8,19)          -89.9417         estimate D2E/DX2                !
 ! D92   D(4,7,17,18)         -155.195          estimate D2E/DX2                !
 ! D93   D(4,7,17,20)          -34.4663         estimate D2E/DX2                !
 ! D94   D(4,7,17,30)           84.8684         estimate D2E/DX2                !
 ! D95   D(8,7,17,18)          -36.5526         estimate D2E/DX2                !
 ! D96   D(8,7,17,20)           84.1761         estimate D2E/DX2                !
 ! D97   D(8,7,17,30)         -156.4893         estimate D2E/DX2                !
 ! D98   D(21,7,17,18)          78.357          estimate D2E/DX2                !
 ! D99   D(21,7,17,20)        -160.9143         estimate D2E/DX2                !
 ! D100  D(21,7,17,30)         -41.5797         estimate D2E/DX2                !
 ! D101  D(4,7,21,44)          -36.5263         estimate D2E/DX2                !
 ! D102  D(8,7,21,44)         -161.9378         estimate D2E/DX2                !
 ! D103  D(17,7,21,44)          88.0959         estimate D2E/DX2                !
 ! D104  D(7,8,9,10)            11.0412         estimate D2E/DX2                !
 ! D105  D(7,8,9,11)          -173.7558         estimate D2E/DX2                !
 ! D106  D(19,8,9,10)         -170.8974         estimate D2E/DX2                !
 ! D107  D(19,8,9,11)            4.3056         estimate D2E/DX2                !
 ! D108  D(7,8,19,18)          -11.7225         estimate D2E/DX2                !
 ! D109  D(9,8,19,18)          169.9861         estimate D2E/DX2                !
 ! D110  D(8,9,10,5)             7.2098         estimate D2E/DX2                !
 ! D111  D(8,9,10,16)         -175.6501         estimate D2E/DX2                !
 ! D112  D(11,9,10,5)         -168.0218         estimate D2E/DX2                !
 ! D113  D(11,9,10,16)           9.1183         estimate D2E/DX2                !
 ! D114  D(8,9,11,12)          -43.6188         estimate D2E/DX2                !
 ! D115  D(8,9,11,13)          133.4728         estimate D2E/DX2                !
 ! D116  D(10,9,11,12)         131.504          estimate D2E/DX2                !
 ! D117  D(10,9,11,13)         -51.4045         estimate D2E/DX2                !
 ! D118  D(9,11,13,14)        -120.5453         estimate D2E/DX2                !
 ! D119  D(9,11,13,15)         117.5514         estimate D2E/DX2                !
 ! D120  D(9,11,13,36)          -1.2686         estimate D2E/DX2                !
 ! D121  D(12,11,13,14)         56.5344         estimate D2E/DX2                !
 ! D122  D(12,11,13,15)        -65.3689         estimate D2E/DX2                !
 ! D123  D(12,11,13,36)        175.811          estimate D2E/DX2                !
 ! D124  D(11,13,14,37)       -174.9101         estimate D2E/DX2                !
 ! D125  D(11,13,14,38)        -59.5589         estimate D2E/DX2                !
 ! D126  D(11,13,14,62)         63.0597         estimate D2E/DX2                !
 ! D127  D(15,13,14,37)        -54.0753         estimate D2E/DX2                !
 ! D128  D(15,13,14,38)         61.276          estimate D2E/DX2                !
 ! D129  D(15,13,14,62)       -176.1055         estimate D2E/DX2                !
 ! D130  D(36,13,14,37)         65.9802         estimate D2E/DX2                !
 ! D131  D(36,13,14,38)       -178.6685         estimate D2E/DX2                !
 ! D132  D(36,13,14,62)        -56.0499         estimate D2E/DX2                !
 ! D133  D(11,13,15,39)        -63.4098         estimate D2E/DX2                !
 ! D134  D(11,13,15,40)        176.8422         estimate D2E/DX2                !
 ! D135  D(11,13,15,41)         57.1038         estimate D2E/DX2                !
 ! D136  D(14,13,15,39)        176.0179         estimate D2E/DX2                !
 ! D137  D(14,13,15,40)         56.2699         estimate D2E/DX2                !
 ! D138  D(14,13,15,41)        -63.4685         estimate D2E/DX2                !
 ! D139  D(36,13,15,39)         55.6115         estimate D2E/DX2                !
 ! D140  D(36,13,15,40)        -64.1365         estimate D2E/DX2                !
 ! D141  D(36,13,15,41)        176.1251         estimate D2E/DX2                !
 ! D142  D(13,14,62,63)        177.0128         estimate D2E/DX2                !
 ! D143  D(13,14,62,64)        -63.2944         estimate D2E/DX2                !
 ! D144  D(13,14,62,65)         57.1496         estimate D2E/DX2                !
 ! D145  D(37,14,62,63)         55.8688         estimate D2E/DX2                !
 ! D146  D(37,14,62,64)        175.5616         estimate D2E/DX2                !
 ! D147  D(37,14,62,65)        -63.9943         estimate D2E/DX2                !
 ! D148  D(38,14,62,63)        -61.1541         estimate D2E/DX2                !
 ! D149  D(38,14,62,64)         58.5387         estimate D2E/DX2                !
 ! D150  D(38,14,62,65)        178.9827         estimate D2E/DX2                !
 ! D151  D(7,17,18,19)          31.1339         estimate D2E/DX2                !
 ! D152  D(7,17,18,28)         -84.4049         estimate D2E/DX2                !
 ! D153  D(7,17,18,29)         145.8545         estimate D2E/DX2                !
 ! D154  D(20,17,18,19)        -78.7998         estimate D2E/DX2                !
 ! D155  D(20,17,18,28)        165.6614         estimate D2E/DX2                !
 ! D156  D(20,17,18,29)         35.9208         estimate D2E/DX2                !
 ! D157  D(30,17,18,19)        151.0556         estimate D2E/DX2                !
 ! D158  D(30,17,18,28)         35.5168         estimate D2E/DX2                !
 ! D159  D(30,17,18,29)        -94.2238         estimate D2E/DX2                !
 ! D160  D(7,17,20,3)           35.9414         estimate D2E/DX2                !
 ! D161  D(7,17,20,42)         158.8906         estimate D2E/DX2                !
 ! D162  D(7,17,20,43)         -81.79           estimate D2E/DX2                !
 ! D163  D(18,17,20,3)         146.5981         estimate D2E/DX2                !
 ! D164  D(18,17,20,42)        -90.4527         estimate D2E/DX2                !
 ! D165  D(18,17,20,43)         28.8667         estimate D2E/DX2                !
 ! D166  D(30,17,20,3)         -83.3055         estimate D2E/DX2                !
 ! D167  D(30,17,20,42)         39.6437         estimate D2E/DX2                !
 ! D168  D(30,17,20,43)        158.9631         estimate D2E/DX2                !
 ! D169  D(17,18,19,8)         -12.8312         estimate D2E/DX2                !
 ! D170  D(28,18,19,8)         106.4317         estimate D2E/DX2                !
 ! D171  D(29,18,19,8)        -134.8487         estimate D2E/DX2                !
 ! D172  D(17,18,28,53)        169.1914         estimate D2E/DX2                !
 ! D173  D(17,18,28,54)        -71.9688         estimate D2E/DX2                !
 ! D174  D(17,18,28,55)         48.3904         estimate D2E/DX2                !
 ! D175  D(19,18,28,53)         57.0659         estimate D2E/DX2                !
 ! D176  D(19,18,28,54)        175.9056         estimate D2E/DX2                !
 ! D177  D(19,18,28,55)        -63.7351         estimate D2E/DX2                !
 ! D178  D(29,18,28,53)        -58.4316         estimate D2E/DX2                !
 ! D179  D(29,18,28,54)         60.4082         estimate D2E/DX2                !
 ! D180  D(29,18,28,55)       -179.2326         estimate D2E/DX2                !
 ! D181  D(17,18,29,56)         65.1776         estimate D2E/DX2                !
 ! D182  D(17,18,29,57)       -175.8184         estimate D2E/DX2                !
 ! D183  D(17,18,29,58)        -55.7443         estimate D2E/DX2                !
 ! D184  D(19,18,29,56)        177.7617         estimate D2E/DX2                !
 ! D185  D(19,18,29,57)        -63.2343         estimate D2E/DX2                !
 ! D186  D(19,18,29,58)         56.8398         estimate D2E/DX2                !
 ! D187  D(28,18,29,56)        -65.5716         estimate D2E/DX2                !
 ! D188  D(28,18,29,57)         53.4324         estimate D2E/DX2                !
 ! D189  D(28,18,29,58)        173.5065         estimate D2E/DX2                !
 ! D190  D(5,22,23,24)         -38.5488         estimate D2E/DX2                !
 ! D191  D(5,22,23,25)        -161.2258         estimate D2E/DX2                !
 ! D192  D(5,22,23,47)          76.4186         estimate D2E/DX2                !
 ! D193  D(45,22,23,24)         79.3023         estimate D2E/DX2                !
 ! D194  D(45,22,23,25)        -43.3747         estimate D2E/DX2                !
 ! D195  D(45,22,23,47)       -165.7303         estimate D2E/DX2                !
 ! D196  D(46,22,23,24)       -158.9388         estimate D2E/DX2                !
 ! D197  D(46,22,23,25)         78.3842         estimate D2E/DX2                !
 ! D198  D(46,22,23,47)        -43.9715         estimate D2E/DX2                !
 ! D199  D(22,23,24,4)          25.4448         estimate D2E/DX2                !
 ! D200  D(25,23,24,4)         151.3607         estimate D2E/DX2                !
 ! D201  D(47,23,24,4)         -90.605          estimate D2E/DX2                !
 ! D202  D(22,23,25,26)         71.1196         estimate D2E/DX2                !
 ! D203  D(22,23,25,27)       -107.5282         estimate D2E/DX2                !
 ! D204  D(24,23,25,26)        -47.4141         estimate D2E/DX2                !
 ! D205  D(24,23,25,27)        133.9381         estimate D2E/DX2                !
 ! D206  D(47,23,25,26)       -165.5991         estimate D2E/DX2                !
 ! D207  D(47,23,25,27)         15.7531         estimate D2E/DX2                !
 ! D208  D(23,25,26,48)        -50.6178         estimate D2E/DX2                !
 ! D209  D(23,25,26,49)         69.6377         estimate D2E/DX2                !
 ! D210  D(23,25,26,50)       -171.4118         estimate D2E/DX2                !
 ! D211  D(27,25,26,48)        127.991          estimate D2E/DX2                !
 ! D212  D(27,25,26,49)       -111.7535         estimate D2E/DX2                !
 ! D213  D(27,25,26,50)          7.197          estimate D2E/DX2                !
 ! D214  D(23,25,27,51)        176.2289         estimate D2E/DX2                !
 ! D215  D(23,25,27,52)         -3.2675         estimate D2E/DX2                !
 ! D216  D(26,25,27,51)         -2.379          estimate D2E/DX2                !
 ! D217  D(26,25,27,52)        178.1247         estimate D2E/DX2                !
 --------------------------------------------------------------------------------
 Trust Radius=3.00D-01 FncErr=1.00D-07 GrdErr=1.00D-06
 Number of steps in this run=    390 maximum allowed number of steps=    390.
 GradGradGradGradGradGradGradGradGradGradGradGradGradGradGradGradGradGrad

 Stoichiometry    C26H34O5
 Framework group  C1[X(C26H34O5)]
 Deg. of freedom   189
 Full point group                 C1      NOp   1
 Largest Abelian subgroup         C1      NOp   1
 Largest concise Abelian subgroup C1      NOp   1
                         Standard orientation:                         
 ---------------------------------------------------------------------
 Center     Atomic      Atomic             Coordinates (Angstroms)
 Number     Number       Type             X           Y           Z
 ---------------------------------------------------------------------
      1          6           0        1.578877    0.001609    3.155825
      2          6           0        1.660476    1.248403    2.679696
      3          6           0        1.750876    1.524188    1.194096
      4          6           0        1.489794    0.309893    0.244495
      5          6           0        1.068293   -1.055555    0.866561
      6          6           0        1.605531   -1.239086    2.310507
      7          6           0        0.462636    0.846824   -0.788242
      8          6           0       -0.977473    0.643321   -0.368089
      9          6           0       -1.432464   -0.442804    0.310257
     10          6           0       -0.455358   -1.374544    0.880757
     11          6           0       -2.906679   -0.633142    0.568240
     12          8           0       -3.590924    0.308567    0.933362
     13          6           0       -3.544186   -2.001926    0.302204
     14          6           0       -4.663838   -1.840346   -0.749832
     15          6           0       -4.095564   -2.576109    1.619478
     16          8           0       -0.806455   -2.413634    1.435464
     17          6           0        0.513093    2.388289   -0.766014
     18          6           0       -0.892696    2.783974   -1.279290
     19          8           0       -1.734820    1.657343   -0.788309
     20          6           0        0.801285    2.665305    0.721540
     21          8           0        0.630350    0.247799   -2.059618
     22          6           0        1.775136   -2.066851   -0.075293
     23          6           0        3.093266   -1.351055   -0.383725
     24          8           0        2.705902    0.039341   -0.511118
     25          6           0        3.848283   -1.828500   -1.605875
     26          6           0        3.294483   -1.520590   -2.975116
     27          6           0        4.971805   -2.534138   -1.441334
     28          6           0       -0.986652    2.807174   -2.806388
     29          6           0       -1.496267    4.050240   -0.678188
     30          1           0        1.305244    2.776934   -1.413465
     31          1           0        2.780144    1.835931    0.966021
     32          6           0        1.727180    2.445994    3.595633
     33          1           0        1.543128   -0.149137    4.234177
     34          1           0        2.639850   -1.612572    2.272894
     35          1           0        1.021174   -2.040035    2.772875
     36          1           0       -2.779581   -2.682718   -0.084762
     37          1           0       -5.167344   -2.810391   -0.858312
     38          1           0       -5.407689   -1.137637   -0.355538
     39          1           0       -3.285350   -2.752433    2.332376
     40          1           0       -4.604023   -3.529436    1.434205
     41          1           0       -4.814545   -1.880475    2.065304
     42          1           0        1.232666    3.656016    0.889858
     43          1           0       -0.129712    2.617841    1.297115
     44          1           0        1.599424    0.149232   -2.133684
     45          1           0        1.194201   -2.214684   -0.990882
     46          1           0        1.920386   -3.038464    0.403434
     47          1           0        3.766816   -1.436801    0.479143
     48          1           0        2.238925   -1.801465   -3.072441
     49          1           0        3.370502   -0.447447   -3.196115
     50          1           0        3.855258   -2.050924   -3.750095
     51          1           0        5.514858   -2.949268   -2.286243
     52          1           0        5.386872   -2.730393   -0.455712
     53          1           0       -2.033510    2.901317   -3.112672
     54          1           0       -0.436751    3.669691   -3.200315
     55          1           0       -0.567840    1.896495   -3.238303
     56          1           0       -0.898124    4.921372   -0.968002
     57          1           0       -2.514029    4.193426   -1.053938
     58          1           0       -1.542874    4.004672    0.411977
     59          1           0        1.725861    2.138861    4.645927
     60          1           0        2.640690    3.030749    3.415634
     61          1           0        0.882354    3.130454    3.446385
     62          6           0       -4.175444   -1.361051   -2.121767
     63          1           0       -5.004004   -1.316390   -2.837994
     64          1           0       -3.736365   -0.358186   -2.064024
     65          1           0       -3.415403   -2.036558   -2.533897
 ---------------------------------------------------------------------
 Rotational constants (GHZ):      0.1871938      0.1298290      0.1197196
 Standard basis: 6-311+G(d) (5D, 7F)
 There are   784 symmetry adapted basis functions of A   symmetry.
 Integral buffers will be    131072 words long.
 Raffenetti 2 integral format.
 Two-electron integral symmetry is turned on.
   784 basis functions,  1286 primitive gaussians,   815 cartesian basis functions
   115 alpha electrons      115 beta electrons
       nuclear repulsion energy      3512.5548211543 Hartrees.
 NAtoms=   65 NActive=   65 NUniq=   65 SFac= 1.00D+00 NAtFMM=   50 NAOKFM=T Big=T
 One-electron integrals computed using PRISM.
 NBasis=   784 RedAO= T  NBF=   784
 NBsUse=   777 1.00D-06 NBFU=   777
 Harris functional with IExCor=  402 diagonalized for initial guess.
 ExpMin= 4.38D-02 ExpMax= 8.59D+03 ExpMxC= 1.30D+03 IAcc=2 IRadAn=         0 AccDes= 0.00D+00
 HarFok:  IExCor=  402 AccDes= 0.00D+00 IRadAn=         0 IDoV= 1
 ScaDFX=  1.000000  1.000000  1.000000  1.000000
 FoFCou: FMM=F IPFlag=           0 FMFlag=      100000 FMFlg1=        2001
         NFxFlg=           0 DoJE=T BraDBF=F KetDBF=T FulRan=T
         Omega=  0.000000  0.000000  1.000000  0.000000  0.000000 ICntrl=     500 IOpCl=  0
         NMat0=    1 NMatS0=    1 NMatT0=    0 NMatD0=    1 NMtDS0=    0 NMtDT0=    0
         I1Cent=           4 NGrid=           0.
 Petite list used in FoFCou.
 Initial guess orbital symmetries:
       Occupied  (A) (A) (A) (A) (A) (A) (A) (A) (A) (A) (A) (A)
                 (A) (A) (A) (A) (A) (A) (A) (A) (A) (A) (A) (A)
                 (A) (A) (A) (A) (A) (A) (A) (A) (A) (A) (A) (A)
                 (A) (A) (A) (A) (A) (A) (A) (A) (A) (A) (A) (A)
                 (A) (A) (A) (A) (A) (A) (A) (A) (A) (A) (A) (A)
                 (A) (A) (A) (A) (A) (A) (A) (A) (A) (A) (A) (A)
                 (A) (A) (A) (A) (A) (A) (A) (A) (A) (A) (A) (A)
                 (A) (A) (A) (A) (A) (A) (A) (A) (A) (A) (A) (A)
                 (A) (A) (A) (A) (A) (A) (A) (A) (A) (A) (A) (A)
                 (A) (A) (A) (A) (A) (A) (A)
       Virtual   (A) (A) (A) (A) (A) (A) (A) (A) (A) (A) (A) (A)
                 (A) (A) (A) (A) (A) (A) (A) (A) (A) (A) (A) (A)
                 (A) (A) (A) (A) (A) (A) (A) (A) (A) (A) (A) (A)
                 (A) (A) (A) (A) (A) (A) (A) (A) (A) (A) (A) (A)
                 (A) (A) (A) (A) (A) (A) (A) (A) (A) (A) (A) (A)
                 (A) (A) (A) (A) (A) (A) (A) (A) (A) (A) (A) (A)
                 (A) (A) (A) (A) (A) (A) (A) (A) (A) (A) (A) (A)
                 (A) (A) (A) (A) (A) (A) (A) (A) (A) (A) (A) (A)
                 (A) (A) (A) (A) (A) (A) (A) (A) (A) (A) (A) (A)
                 (A) (A) (A) (A) (A) (A) (A) (A) (A) (A) (A) (A)
                 (A) (A) (A) (A) (A) (A) (A) (A) (A) (A) (A) (A)
                 (A) (A) (A) (A) (A) (A) (A) (A) (A) (A) (A) (A)
                 (A) (A) (A) (A) (A) (A) (A) (A) (A) (A) (A) (A)
                 (A) (A) (A) (A) (A) (A) (A) (A) (A) (A) (A) (A)
                 (A) (A) (A) (A) (A) (A) (A) (A) (A) (A) (A) (A)
                 (A) (A) (A) (A) (A) (A) (A) (A) (A) (A) (A) (A)
                 (A) (A) (A) (A) (A) (A) (A) (A) (A) (A) (A) (A)
                 (A) (A) (A) (A) (A) (A) (A) (A) (A) (A) (A) (A)
                 (A) (A) (A) (A) (A) (A) (A) (A) (A) (A) (A) (A)
                 (A) (A) (A) (A) (A) (A) (A) (A) (A) (A) (A) (A)
                 (A) (A) (A) (A) (A) (A) (A) (A) (A) (A) (A) (A)
                 (A) (A) (A) (A) (A) (A) (A) (A) (A) (A) (A) (A)
                 (A) (A) (A) (A) (A) (A) (A) (A) (A) (A) (A) (A)
                 (A) (A) (A) (A) (A) (A) (A) (A) (A) (A) (A) (A)
                 (A) (A) (A) (A) (A) (A) (A) (A) (A) (A) (A) (A)
                 (A) (A) (A) (A) (A) (A) (A) (A) (A) (A) (A) (A)
                 (A) (A) (A) (A) (A) (A) (A) (A) (A) (A) (A) (A)
                 (A) (A) (A) (A) (A) (A) (A) (A) (A) (A) (A) (A)
                 (A) (A) (A) (A) (A) (A) (A) (A) (A) (A) (A) (A)
                 (A) (A) (A) (A) (A) (A) (A) (A) (A) (A) (A) (A)
                 (A) (A) (A) (A) (A) (A) (A) (A) (A) (A) (A) (A)
                 (A) (A) (A) (A) (A) (A) (A) (A) (A) (A) (A) (A)
                 (A) (A) (A) (A) (A) (A) (A) (A) (A) (A) (A) (A)
                 (A) (A) (A) (A) (A) (A) (A) (A) (A) (A) (A) (A)
                 (A) (A) (A) (A) (A) (A) (A) (A) (A) (A) (A) (A)
                 (A) (A) (A) (A) (A) (A) (A) (A) (A) (A) (A) (A)
                 (A) (A) (A) (A) (A) (A) (A) (A) (A) (A) (A) (A)
                 (A) (A) (A) (A) (A) (A) (A) (A) (A) (A) (A) (A)
                 (A) (A) (A) (A) (A) (A) (A) (A) (A) (A) (A) (A)
                 (A) (A) (A) (A) (A) (A) (A) (A) (A) (A) (A) (A)
                 (A) (A) (A) (A) (A) (A) (A) (A) (A) (A) (A) (A)
                 (A) (A) (A) (A) (A) (A) (A) (A) (A) (A) (A) (A)
                 (A) (A) (A) (A) (A) (A) (A) (A) (A) (A) (A) (A)
                 (A) (A) (A) (A) (A) (A) (A) (A) (A) (A) (A) (A)
                 (A) (A) (A) (A) (A) (A) (A) (A) (A) (A) (A) (A)
                 (A) (A) (A) (A) (A) (A) (A) (A) (A) (A) (A) (A)
                 (A) (A) (A) (A) (A) (A) (A) (A) (A) (A) (A) (A)
                 (A) (A) (A) (A) (A) (A) (A) (A) (A) (A) (A) (A)
                 (A) (A) (A) (A) (A) (A) (A) (A) (A) (A) (A) (A)
                 (A) (A) (A) (A) (A) (A) (A) (A) (A) (A) (A) (A)
                 (A) (A) (A) (A) (A) (A) (A) (A) (A) (A) (A) (A)
                 (A) (A) (A) (A) (A) (A) (A) (A) (A) (A) (A) (A)
                 (A) (A) (A) (A) (A) (A) (A) (A) (A) (A) (A) (A)
                 (A) (A) (A) (A) (A) (A) (A) (A) (A) (A) (A) (A)
                 (A) (A) (A) (A) (A) (A) (A) (A) (A) (A) (A) (A)
                 (A) (A)
 The electronic state of the initial guess is 1-A.
 Requested convergence on RMS density matrix=1.00D-08 within 128 cycles.
 Requested convergence on MAX density matrix=1.00D-06.
 Requested convergence on             energy=1.00D-06.
 No special actions if energy rises.
 SCF Done:  E(RB3LYP) =  -1387.64838301     A.U. after   17 cycles
             Convg  =    0.4646D-08             -V/T =  2.0043

 **********************************************************************

            Population analysis using the SCF density.

 **********************************************************************

 Orbital symmetries:
       Occupied  (A) (A) (A) (A) (A) (A) (A) (A) (A) (A) (A) (A)
                 (A) (A) (A) (A) (A) (A) (A) (A) (A) (A) (A) (A)
                 (A) (A) (A) (A) (A) (A) (A) (A) (A) (A) (A) (A)
                 (A) (A) (A) (A) (A) (A) (A) (A) (A) (A) (A) (A)
                 (A) (A) (A) (A) (A) (A) (A) (A) (A) (A) (A) (A)
                 (A) (A) (A) (A) (A) (A) (A) (A) (A) (A) (A) (A)
                 (A) (A) (A) (A) (A) (A) (A) (A) (A) (A) (A) (A)
                 (A) (A) (A) (A) (A) (A) (A) (A) (A) (A) (A) (A)
                 (A) (A) (A) (A) (A) (A) (A) (A) (A) (A) (A) (A)
                 (A) (A) (A) (A) (A) (A) (A)
       Virtual   (A) (A) (A) (A) (A) (A) (A) (A) (A) (A) (A) (A)
                 (A) (A) (A) (A) (A) (A) (A) (A) (A) (A) (A) (A)
                 (A) (A) (A) (A) (A) (A) (A) (A) (A) (A) (A) (A)
                 (A) (A) (A) (A) (A) (A) (A) (A) (A) (A) (A) (A)
                 (A) (A) (A) (A) (A) (A) (A) (A) (A) (A) (A) (A)
                 (A) (A) (A) (A) (A) (A) (A) (A) (A) (A) (A) (A)
                 (A) (A) (A) (A) (A) (A) (A) (A) (A) (A) (A) (A)
                 (A) (A) (A) (A) (A) (A) (A) (A) (A) (A) (A) (A)
                 (A) (A) (A) (A) (A) (A) (A) (A) (A) (A) (A) (A)
                 (A) (A) (A) (A) (A) (A) (A) (A) (A) (A) (A) (A)
                 (A) (A) (A) (A) (A) (A) (A) (A) (A) (A) (A) (A)
                 (A) (A) (A) (A) (A) (A) (A) (A) (A) (A) (A) (A)
                 (A) (A) (A) (A) (A) (A) (A) (A) (A) (A) (A) (A)
                 (A) (A) (A) (A) (A) (A) (A) (A) (A) (A) (A) (A)
                 (A) (A) (A) (A) (A) (A) (A) (A) (A) (A) (A) (A)
                 (A) (A) (A) (A) (A) (A) (A) (A) (A) (A) (A) (A)
                 (A) (A) (A) (A) (A) (A) (A) (A) (A) (A) (A) (A)
                 (A) (A) (A) (A) (A) (A) (A) (A) (A) (A) (A) (A)
                 (A) (A) (A) (A) (A) (A) (A) (A) (A) (A) (A) (A)
                 (A) (A) (A) (A) (A) (A) (A) (A) (A) (A) (A) (A)
                 (A) (A) (A) (A) (A) (A) (A) (A) (A) (A) (A) (A)
                 (A) (A) (A) (A) (A) (A) (A) (A) (A) (A) (A) (A)
                 (A) (A) (A) (A) (A) (A) (A) (A) (A) (A) (A) (A)
                 (A) (A) (A) (A) (A) (A) (A) (A) (A) (A) (A) (A)
                 (A) (A) (A) (A) (A) (A) (A) (A) (A) (A) (A) (A)
                 (A) (A) (A) (A) (A) (A) (A) (A) (A) (A) (A) (A)
                 (A) (A) (A) (A) (A) (A) (A) (A) (A) (A) (A) (A)
                 (A) (A) (A) (A) (A) (A) (A) (A) (A) (A) (A) (A)
                 (A) (A) (A) (A) (A) (A) (A) (A) (A) (A) (A) (A)
                 (A) (A) (A) (A) (A) (A) (A) (A) (A) (A) (A) (A)
                 (A) (A) (A) (A) (A) (A) (A) (A) (A) (A) (A) (A)
                 (A) (A) (A) (A) (A) (A) (A) (A) (A) (A) (A) (A)
                 (A) (A) (A) (A) (A) (A) (A) (A) (A) (A) (A) (A)
                 (A) (A) (A) (A) (A) (A) (A) (A) (A) (A) (A) (A)
                 (A) (A) (A) (A) (A) (A) (A) (A) (A) (A) (A) (A)
                 (A) (A) (A) (A) (A) (A) (A) (A) (A) (A) (A) (A)
                 (A) (A) (A) (A) (A) (A) (A) (A) (A) (A) (A) (A)
                 (A) (A) (A) (A) (A) (A) (A) (A) (A) (A) (A) (A)
                 (A) (A) (A) (A) (A) (A) (A) (A) (A) (A) (A) (A)
                 (A) (A) (A) (A) (A) (A) (A) (A) (A) (A) (A) (A)
                 (A) (A) (A) (A) (A) (A) (A) (A) (A) (A) (A) (A)
                 (A) (A) (A) (A) (A) (A) (A) (A) (A) (A) (A) (A)
                 (A) (A) (A) (A) (A) (A) (A) (A) (A) (A) (A) (A)
                 (A) (A) (A) (A) (A) (A) (A) (A) (A) (A) (A) (A)
                 (A) (A) (A) (A) (A) (A) (A) (A) (A) (A) (A) (A)
                 (A) (A) (A) (A) (A) (A) (A) (A) (A) (A) (A) (A)
                 (A) (A) (A) (A) (A) (A) (A) (A) (A) (A) (A) (A)
                 (A) (A) (A) (A) (A) (A) (A) (A) (A) (A) (A) (A)
                 (A) (A) (A) (A) (A) (A) (A) (A) (A) (A) (A) (A)
                 (A) (A) (A) (A) (A) (A) (A) (A) (A) (A) (A) (A)
                 (A) (A) (A) (A) (A) (A) (A) (A) (A) (A) (A) (A)
                 (A) (A) (A) (A) (A) (A) (A) (A) (A) (A) (A) (A)
                 (A) (A) (A) (A) (A) (A) (A) (A) (A) (A) (A) (A)
                 (A) (A) (A) (A) (A) (A) (A) (A) (A) (A) (A) (A)
                 (A) (A) (A) (A) (A) (A) (A) (A) (A) (A) (A) (A)
                 (A) (A)
 The electronic state is 1-A.
 Alpha  occ. eigenvalues --  -19.17883 -19.14985 -19.14183 -19.10687 -19.10488
 Alpha  occ. eigenvalues --  -10.26983 -10.26676 -10.25957 -10.25623 -10.25554
 Alpha  occ. eigenvalues --  -10.25525 -10.24325 -10.21011 -10.19992 -10.19960
 Alpha  occ. eigenvalues --  -10.19684 -10.18933 -10.18739 -10.18710 -10.18581
 Alpha  occ. eigenvalues --  -10.18178 -10.17941 -10.17680 -10.17667 -10.17359
 Alpha  occ. eigenvalues --  -10.17218 -10.17058 -10.16709 -10.15781 -10.14908
 Alpha  occ. eigenvalues --  -10.14539  -1.10534  -1.07278  -1.04290  -1.03945
 Alpha  occ. eigenvalues --   -1.03507  -0.87730  -0.84628  -0.83435  -0.82425
 Alpha  occ. eigenvalues --   -0.81201  -0.79851  -0.77721  -0.75197  -0.74168
 Alpha  occ. eigenvalues --   -0.72617  -0.72034  -0.70866  -0.70679  -0.68732
 Alpha  occ. eigenvalues --   -0.66173  -0.64609  -0.63965  -0.62350  -0.61612
 Alpha  occ. eigenvalues --   -0.60410  -0.59730  -0.58064  -0.55719  -0.54913
 Alpha  occ. eigenvalues --   -0.53777  -0.53214  -0.51732  -0.51473  -0.50494
 Alpha  occ. eigenvalues --   -0.49146  -0.48533  -0.47944  -0.47227  -0.46641
 Alpha  occ. eigenvalues --   -0.46048  -0.45429  -0.44982  -0.44690  -0.44578
 Alpha  occ. eigenvalues --   -0.43492  -0.42916  -0.42561  -0.42434  -0.42357
 Alpha  occ. eigenvalues --   -0.41898  -0.41556  -0.41123  -0.41062  -0.40722
 Alpha  occ. eigenvalues --   -0.40207  -0.40064  -0.39344  -0.39259  -0.38917
 Alpha  occ. eigenvalues --   -0.38668  -0.38304  -0.38260  -0.37721  -0.37616
 Alpha  occ. eigenvalues --   -0.37340  -0.36171  -0.35953  -0.35506  -0.35375
 Alpha  occ. eigenvalues --   -0.34897  -0.34575  -0.33977  -0.33497  -0.33274
 Alpha  occ. eigenvalues --   -0.32427  -0.32189  -0.31420  -0.29671  -0.28452
 Alpha  occ. eigenvalues --   -0.26875  -0.26041  -0.25366  -0.24587  -0.24035
 Alpha virt. eigenvalues --   -0.06357  -0.03005  -0.01614  -0.01060  -0.00292
 Alpha virt. eigenvalues --    0.00118   0.00258   0.01200   0.01480   0.01809
 Alpha virt. eigenvalues --    0.02006   0.02539   0.02864   0.03334   0.03573
 Alpha virt. eigenvalues --    0.03880   0.04004   0.04250   0.04591   0.04917
 Alpha virt. eigenvalues --    0.05269   0.05307   0.05816   0.06021   0.06321
 Alpha virt. eigenvalues --    0.06531   0.06657   0.07241   0.07307   0.07470
 Alpha virt. eigenvalues --    0.07747   0.07993   0.08293   0.08402   0.08673
 Alpha virt. eigenvalues --    0.08943   0.09110   0.09428   0.09602   0.10027
 Alpha virt. eigenvalues --    0.10227   0.10509   0.10563   0.10829   0.11197
 Alpha virt. eigenvalues --    0.11329   0.11590   0.11956   0.12034   0.12219
 Alpha virt. eigenvalues --    0.12754   0.12934   0.13089   0.13268   0.13582
 Alpha virt. eigenvalues --    0.13670   0.14002   0.14131   0.14510   0.14693
 Alpha virt. eigenvalues --    0.14875   0.14964   0.15444   0.15703   0.15834
 Alpha virt. eigenvalues --    0.15958   0.16617   0.16916   0.17130   0.17206
 Alpha virt. eigenvalues --    0.17530   0.17744   0.17777   0.18036   0.18236
 Alpha virt. eigenvalues --    0.18365   0.18393   0.18512   0.18625   0.18854
 Alpha virt. eigenvalues --    0.19308   0.19418   0.19675   0.19785   0.19991
 Alpha virt. eigenvalues --    0.20183   0.20497   0.20747   0.20877   0.20978
 Alpha virt. eigenvalues --    0.21211   0.21516   0.21782   0.21833   0.21994
 Alpha virt. eigenvalues --    0.22298   0.22487   0.22559   0.22684   0.23051
 Alpha virt. eigenvalues --    0.23145   0.23353   0.23530   0.23752   0.24140
 Alpha virt. eigenvalues --    0.24453   0.24487   0.24643   0.25064   0.25176
 Alpha virt. eigenvalues --    0.25352   0.25586   0.25725   0.25805   0.26143
 Alpha virt. eigenvalues --    0.26281   0.26567   0.26608   0.26901   0.26958
 Alpha virt. eigenvalues --    0.27293   0.27453   0.27472   0.27913   0.28208
 Alpha virt. eigenvalues --    0.28228   0.28513   0.28905   0.29183   0.29309
 Alpha virt. eigenvalues --    0.29828   0.30021   0.30318   0.30426   0.30629
 Alpha virt. eigenvalues --    0.31134   0.31241   0.31535   0.31617   0.32089
 Alpha virt. eigenvalues --    0.32314   0.32452   0.32751   0.33146   0.33519
 Alpha virt. eigenvalues --    0.33630   0.34095   0.34387   0.35049   0.35076
 Alpha virt. eigenvalues --    0.35532   0.35813   0.36081   0.36356   0.36640
 Alpha virt. eigenvalues --    0.37108   0.37531   0.37832   0.38365   0.38533
 Alpha virt. eigenvalues --    0.38951   0.39216   0.39568   0.40432   0.40547
 Alpha virt. eigenvalues --    0.41020   0.41114   0.41414   0.41785   0.42186
 Alpha virt. eigenvalues --    0.42317   0.42874   0.43110   0.43475   0.43934
 Alpha virt. eigenvalues --    0.44636   0.44935   0.45369   0.45543   0.45963
 Alpha virt. eigenvalues --    0.46049   0.46296   0.46396   0.46976   0.47434
 Alpha virt. eigenvalues --    0.47753   0.48464   0.48691   0.49131   0.49422
 Alpha virt. eigenvalues --    0.49679   0.49892   0.50723   0.51119   0.51388
 Alpha virt. eigenvalues --    0.51551   0.52012   0.52745   0.53489   0.53815
 Alpha virt. eigenvalues --    0.54215   0.54939   0.55490   0.55694   0.56331
 Alpha virt. eigenvalues --    0.56895   0.57220   0.57648   0.57920   0.58198
 Alpha virt. eigenvalues --    0.58371   0.58763   0.59058   0.59329   0.59674
 Alpha virt. eigenvalues --    0.59886   0.60325   0.60715   0.61855   0.61921
 Alpha virt. eigenvalues --    0.62640   0.62953   0.63424   0.63509   0.64015
 Alpha virt. eigenvalues --    0.64965   0.65327   0.65463   0.65709   0.66111
 Alpha virt. eigenvalues --    0.66297   0.66841   0.66946   0.67458   0.68047
 Alpha virt. eigenvalues --    0.68318   0.68436   0.68766   0.69074   0.69435
 Alpha virt. eigenvalues --    0.69693   0.69961   0.70365   0.70410   0.70693
 Alpha virt. eigenvalues --    0.70753   0.71126   0.71493   0.71707   0.72116
 Alpha virt. eigenvalues --    0.72198   0.72557   0.72701   0.72867   0.73264
 Alpha virt. eigenvalues --    0.73851   0.74130   0.74692   0.74863   0.75177
 Alpha virt. eigenvalues --    0.75379   0.75812   0.76667   0.77231   0.77387
 Alpha virt. eigenvalues --    0.77859   0.77890   0.77991   0.78511   0.78892
 Alpha virt. eigenvalues --    0.79501   0.79613   0.80286   0.80467   0.80889
 Alpha virt. eigenvalues --    0.81099   0.81572   0.81795   0.82813   0.83334
 Alpha virt. eigenvalues --    0.83597   0.83893   0.84699   0.84845   0.85501
 Alpha virt. eigenvalues --    0.85827   0.86831   0.88046   0.88285   0.88604
 Alpha virt. eigenvalues --    0.89602   0.90849   0.90986   0.92473   0.93378
 Alpha virt. eigenvalues --    0.93740   0.93904   0.94879   0.95693   0.96591
 Alpha virt. eigenvalues --    0.97277   0.98125   0.98837   1.00269   1.01282
 Alpha virt. eigenvalues --    1.02330   1.03096   1.04139   1.05237   1.05682
 Alpha virt. eigenvalues --    1.06394   1.07421   1.07994   1.08674   1.10626
 Alpha virt. eigenvalues --    1.11571   1.11875   1.12813   1.14690   1.14895
 Alpha virt. eigenvalues --    1.16039   1.16845   1.17287   1.17686   1.19126
 Alpha virt. eigenvalues --    1.20975   1.21299   1.21470   1.21964   1.23822
 Alpha virt. eigenvalues --    1.24192   1.24932   1.25971   1.26348   1.27848
 Alpha virt. eigenvalues --    1.28161   1.28883   1.30215   1.30562   1.31950
 Alpha virt. eigenvalues --    1.32431   1.33552   1.33836   1.34778   1.35756
 Alpha virt. eigenvalues --    1.36035   1.36858   1.37353   1.38626   1.39017
 Alpha virt. eigenvalues --    1.40666   1.41316   1.42075   1.42312   1.43187
 Alpha virt. eigenvalues --    1.44275   1.44970   1.46324   1.47360   1.48014
 Alpha virt. eigenvalues --    1.48512   1.49533   1.50023   1.51044   1.52340
 Alpha virt. eigenvalues --    1.52827   1.53697   1.54085   1.54323   1.55408
 Alpha virt. eigenvalues --    1.55976   1.56485   1.57705   1.57949   1.58579
 Alpha virt. eigenvalues --    1.59382   1.59765   1.59808   1.60500   1.61198
 Alpha virt. eigenvalues --    1.61263   1.61641   1.62108   1.62610   1.63325
 Alpha virt. eigenvalues --    1.63673   1.64406   1.64602   1.65285   1.65780
 Alpha virt. eigenvalues --    1.65921   1.66178   1.66464   1.67246   1.67334
 Alpha virt. eigenvalues --    1.67867   1.68216   1.68739   1.69796   1.70556
 Alpha virt. eigenvalues --    1.70969   1.71475   1.72076   1.72413   1.72885
 Alpha virt. eigenvalues --    1.73540   1.74516   1.74957   1.75670   1.76143
 Alpha virt. eigenvalues --    1.76589   1.77149   1.78092   1.78616   1.79466
 Alpha virt. eigenvalues --    1.80507   1.81682   1.82540   1.83571   1.84051
 Alpha virt. eigenvalues --    1.84711   1.84945   1.85551   1.86477   1.87149
 Alpha virt. eigenvalues --    1.87656   1.89104   1.89398   1.89714   1.91499
 Alpha virt. eigenvalues --    1.91738   1.93127   1.94299   1.95177   1.96289
 Alpha virt. eigenvalues --    1.97479   1.98638   1.99548   2.01363   2.01666
 Alpha virt. eigenvalues --    2.02493   2.02952   2.04238   2.05242   2.06284
 Alpha virt. eigenvalues --    2.06718   2.07980   2.08134   2.08736   2.09453
 Alpha virt. eigenvalues --    2.10135   2.12295   2.14514   2.16150   2.16967
 Alpha virt. eigenvalues --    2.17413   2.19959   2.20949   2.21971   2.22275
 Alpha virt. eigenvalues --    2.23036   2.23330   2.25382   2.25932   2.26984
 Alpha virt. eigenvalues --    2.28315   2.29158   2.30248   2.32483   2.33208
 Alpha virt. eigenvalues --    2.34559   2.35591   2.37484   2.39197   2.42935
 Alpha virt. eigenvalues --    2.43926   2.46613   2.48535   2.49573   2.50806
 Alpha virt. eigenvalues --    2.51755   2.52382   2.52673   2.54669   2.55005
 Alpha virt. eigenvalues --    2.55404   2.55951   2.56868   2.57336   2.58233
 Alpha virt. eigenvalues --    2.58721   2.59950   2.60166   2.60649   2.62521
 Alpha virt. eigenvalues --    2.62964   2.63546   2.64764   2.65800   2.66384
 Alpha virt. eigenvalues --    2.67376   2.68540   2.69191   2.69646   2.70014
 Alpha virt. eigenvalues --    2.71081   2.71598   2.72825   2.74781   2.75172
 Alpha virt. eigenvalues --    2.75789   2.76864   2.77619   2.82915   2.83717
 Alpha virt. eigenvalues --    2.85078   2.87677   2.88604   2.89072   2.89829
 Alpha virt. eigenvalues --    2.91773   2.92985   2.93994   2.94703   2.95595
 Alpha virt. eigenvalues --    2.96897   2.97798   2.98729   2.98969   2.99449
 Alpha virt. eigenvalues --    2.99902   3.00538   3.02323   3.03344   3.04144
 Alpha virt. eigenvalues --    3.04651   3.04724   3.06959   3.07227   3.09212
 Alpha virt. eigenvalues --    3.09346   3.10606   3.11456   3.12092   3.13275
 Alpha virt. eigenvalues --    3.14691   3.14977   3.16620   3.17034   3.18200
 Alpha virt. eigenvalues --    3.19763   3.19977   3.20506   3.21122   3.22215
 Alpha virt. eigenvalues --    3.23227   3.24123   3.24936   3.25544   3.26487
 Alpha virt. eigenvalues --    3.27280   3.28034   3.29128   3.29422   3.29570
 Alpha virt. eigenvalues --    3.30586   3.31379   3.32297   3.33959   3.34387
 Alpha virt. eigenvalues --    3.35430   3.37081   3.37972   3.38587   3.38999
 Alpha virt. eigenvalues --    3.39732   3.40190   3.41824   3.42422   3.45599
 Alpha virt. eigenvalues --    3.47008   3.47574   3.49948   3.52528   3.53300
 Alpha virt. eigenvalues --    3.54815   3.59338   3.61109   3.63761   3.74119
 Alpha virt. eigenvalues --    3.76451   3.78763   3.80786   3.87226   3.88662
 Alpha virt. eigenvalues --    3.90881   3.96272   3.98200   4.01164   4.02714
 Alpha virt. eigenvalues --    4.04815   4.07077   4.09752   4.10645   4.11889
 Alpha virt. eigenvalues --    4.15163   4.17395   4.18546   4.20792   4.22804
 Alpha virt. eigenvalues --    4.23754   4.25062   4.29618   4.32583   4.45619
 Alpha virt. eigenvalues --    4.61003   5.13147   5.17267   5.17682   5.21474
 Alpha virt. eigenvalues --    5.23655   5.29462   5.31866   5.34214   5.41810
 Alpha virt. eigenvalues --    5.43127   5.56640   5.66445   5.73288   5.79056
 Alpha virt. eigenvalues --    5.83757  23.45785  23.47522  23.51540  23.52902
 Alpha virt. eigenvalues --   23.63567  23.64876  23.65950  23.67343  23.68364
 Alpha virt. eigenvalues --   23.70413  23.73055  23.74070  23.76556  23.78286
 Alpha virt. eigenvalues --   23.78677  23.79471  23.82092  23.84561  23.86628
 Alpha virt. eigenvalues --   23.86791  23.88611  23.89480  23.96138  24.15410
 Alpha virt. eigenvalues --   24.18996  24.22451  49.98788  50.00619  50.02657
 Alpha virt. eigenvalues --   50.03073  50.06696
          Condensed to atoms (all electrons):
 Mulliken atomic charges:
              1
     1  C   -0.289369
     2  C    0.533451
     3  C   -0.229443
     4  C   -0.131890
     5  C    1.269830
     6  C   -0.899889
     7  C   -1.197164
     8  C    0.338757
     9  C    0.730075
    10  C   -0.798162
    11  C   -0.010499
    12  O   -0.185770
    13  C    0.323746
    14  C   -0.382882
    15  C   -1.093388
    16  O   -0.197060
    17  C   -0.346719
    18  C    0.572119
    19  O    0.154808
    20  C   -1.042868
    21  O    0.020771
    22  C   -0.875230
    23  C   -0.493929
    24  O    0.020827
    25  C    1.121292
    26  C   -1.160739
    27  C   -0.974863
    28  C   -0.771592
    29  C   -0.696315
    30  H    0.235381
    31  H    0.274878
    32  C   -1.092700
    33  H    0.203949
    34  H    0.251115
    35  H    0.281036
    36  H    0.229099
    37  H    0.220421
    38  H    0.264031
    39  H    0.277640
    40  H    0.231748
    41  H    0.265982
    42  H    0.265593
    43  H    0.284130
    44  H    0.263139
    45  H    0.267891
    46  H    0.275371
    47  H    0.223450
    48  H    0.288245
    49  H    0.282232
    50  H    0.262220
    51  H    0.227626
    52  H    0.215755
    53  H    0.265589
    54  H    0.251613
    55  H    0.314226
    56  H    0.259507
    57  H    0.271951
    58  H    0.264432
    59  H    0.255735
    60  H    0.255248
    61  H    0.259598
    62  C   -0.960549
    63  H    0.247022
    64  H    0.268751
    65  H    0.240739
 Sum of Mulliken atomic charges =   0.00000
 Mulliken charges with hydrogens summed into heavy atoms:
              1
     1  C   -0.085420
     2  C    0.533451
     3  C    0.045435
     4  C   -0.131890
     5  C    1.269830
     6  C   -0.367737
     7  C   -1.197164
     8  C    0.338757
     9  C    0.730075
    10  C   -0.798162
    11  C   -0.010499
    12  O   -0.185770
    13  C    0.552845
    14  C    0.101571
    15  C   -0.318018
    16  O   -0.197060
    17  C   -0.111338
    18  C    0.572119
    19  O    0.154808
    20  C   -0.493145
    21  O    0.283911
    22  C   -0.331968
    23  C   -0.270479
    24  O    0.020827
    25  C    1.121292
    26  C   -0.328042
    27  C   -0.531483
    28  C    0.059836
    29  C    0.099574
    32  C   -0.322120
    62  C   -0.204037
 Sum of Mulliken charges with hydrogens summed into heavy atoms =   0.00000
 Electronic spatial extent (au):  <R**2>=          11400.0531
 Charge=              0.0000 electrons
 Dipole moment (field-independent basis, Debye):
    X=              4.8394    Y=              2.4095    Z=             -1.7465  Tot=              5.6812
 Quadrupole moment (field-independent basis, Debye-Ang):
   XX=           -196.0593   YY=           -179.3426   ZZ=           -185.8272
   XY=             -1.5918   XZ=              5.3377   YZ=              1.7479
 Traceless Quadrupole moment (field-independent basis, Debye-Ang):
   XX=             -8.9829   YY=              7.7338   ZZ=              1.2492
   XY=             -1.5918   XZ=              5.3377   YZ=              1.7479
 Octapole moment (field-independent basis, Debye-Ang**2):
  XXX=             36.5740  YYY=             65.5184  ZZZ=             -2.1203  XYY=              9.6534
  XXY=            -39.9694  XXZ=            -30.6989  XZZ=             24.7216  YZZ=              8.2867
  YYZ=            -25.2158  XYZ=              8.5200
 Hexadecapole moment (field-independent basis, Debye-Ang**3):
 XXXX=          -7837.8884 YYYY=          -4440.2616 ZZZZ=          -3508.9296 XXXY=            -56.5432
 XXXZ=             36.4710 YYYX=            -22.0335 YYYZ=            -23.4805 ZZZX=            -50.8269
 ZZZY=              1.7361 XXYY=          -1939.0585 XXZZ=          -1840.4457 YYZZ=          -1321.3636
 XXYZ=             13.0637 YYXZ=             13.3635 ZZXY=            -49.4972
 N-N= 3.512554821154D+03 E-N=-1.025801413822D+04  KE= 1.381710792480D+03
 Calling FoFJK, ICntrl=      2127 FMM=T ISym2X=0 I1Cent= 0 IOpClX= 0 NMat=1 NMatS=1 NMatT=0.
 ***** Axes restored to original set *****
 -------------------------------------------------------------------
 Center     Atomic                   Forces (Hartrees/Bohr)
 Number     Number              X              Y              Z
 -------------------------------------------------------------------
      1        6           0.000337222    0.001945323   -0.000793700
      2        6           0.000252077   -0.002032744    0.000867938
      3        6          -0.000393100    0.000390332   -0.000189323
      4        6          -0.000320444    0.001268005    0.000886348
      5        6           0.000002986   -0.000409987    0.000038586
      6        6           0.000046316   -0.000078624   -0.000145879
      7        6          -0.001910232    0.000790660    0.001715551
      8        6          -0.003458229    0.000141094   -0.000880189
      9        6           0.001093506    0.001603836    0.001026535
     10        6          -0.001947997   -0.005876991    0.002223703
     11        6          -0.004445765    0.005164429    0.001212293
     12        8           0.005212078   -0.006356113   -0.001458937
     13        6          -0.000190588    0.000243835   -0.000275084
     14        6          -0.000352980    0.000259332   -0.000062671
     15        6           0.000243251    0.000320479    0.000209990
     16        8           0.001832653    0.006950495   -0.003527974
     17        6           0.000407606    0.000161605   -0.000183585
     18        6           0.000323605    0.001577993   -0.000767626
     19        8           0.002734315   -0.003820062    0.001556501
     20        6          -0.000393672    0.000085417    0.000231974
     21        8           0.006024142    0.001211662    0.000998298
     22        6           0.000081593   -0.000396106   -0.000680191
     23        6           0.000939385   -0.002146214    0.000455294
     24        8           0.000276675   -0.000346314    0.000936196
     25        6           0.001198714   -0.001054472    0.000088769
     26        6          -0.000070990    0.000057552   -0.000137130
     27        6          -0.001223211    0.000865967   -0.000140624
     28        6           0.000281514    0.000040844    0.000425092
     29        6           0.000443327   -0.000396445    0.000012632
     30        1          -0.000983431   -0.000497769    0.000679011
     31        1          -0.001188870   -0.000321673    0.000695156
     32        6          -0.000036799    0.000434491    0.000010965
     33        1          -0.000052473    0.000105419   -0.000830328
     34        1          -0.001658625    0.000452891    0.000178353
     35        1           0.001540067    0.001147573   -0.000245951
     36        1          -0.000831898    0.000775127    0.000360648
     37        1           0.000525219    0.001269991    0.000363566
     38        1           0.000413005   -0.001415642   -0.000681518
     39        1          -0.001638845   -0.000037126   -0.000624585
     40        1           0.000750567    0.001306440    0.000423097
     41        1           0.000798077   -0.001500621   -0.000359070
     42        1          -0.000761947   -0.001362339   -0.000200570
     43        1           0.001443102    0.000283220   -0.000688718
     44        1          -0.005024178   -0.000615729   -0.002387953
     45        1           0.000840873   -0.000396137    0.001352510
     46        1          -0.000191530    0.001390776   -0.000636479
     47        1          -0.000924638    0.000635985   -0.001362003
     48        1           0.001802812    0.000139435   -0.000203654
     49        1          -0.000030433   -0.001716694    0.000087596
     50        1          -0.000967270    0.000917559    0.001026005
     51        1          -0.000437559    0.000373847    0.000814737
     52        1          -0.000373049    0.000226682   -0.000933123
     53        1           0.001628640   -0.000083759    0.000111454
     54        1          -0.000822079   -0.001268498    0.000249246
     55        1          -0.001016298    0.001782813   -0.000024962
     56        1          -0.000987607   -0.000959297    0.000545080
     57        1           0.001540587    0.000057615    0.000662798
     58        1          -0.000139613    0.000441033   -0.001704903
     59        1           0.000044346    0.000716901   -0.001570176
     60        1          -0.001319429   -0.000820271    0.000369561
     61        1           0.001347374   -0.001052917    0.000432471
     62        6           0.000230881   -0.000103605    0.000154604
     63        1           0.001308109    0.000007295    0.000844252
     64        1          -0.000739946   -0.001531867   -0.000766722
[...]
 Alpha  occ. eigenvalues --  -19.17741 -19.14768 -19.14081 -19.10662 -19.10647
 Alpha  occ. eigenvalues --  -10.26727 -10.26534 -10.25929 -10.25651 -10.25465
 Alpha  occ. eigenvalues --  -10.25429 -10.24183 -10.20914 -10.19905 -10.19831
 Alpha  occ. eigenvalues --  -10.19522 -10.18761 -10.18631 -10.18505 -10.18425
 Alpha  occ. eigenvalues --  -10.18079 -10.17835 -10.17626 -10.17573 -10.17207
 Alpha  occ. eigenvalues --  -10.17077 -10.16991 -10.16772 -10.15896 -10.14907
 Alpha  occ. eigenvalues --  -10.14490  -1.10455  -1.07040  -1.04564  -1.03898
 Alpha  occ. eigenvalues --   -1.03881  -0.87725  -0.84650  -0.83463  -0.82445
 Alpha  occ. eigenvalues --   -0.81227  -0.80002  -0.77745  -0.75197  -0.74155
 Alpha  occ. eigenvalues --   -0.72653  -0.72153  -0.70913  -0.70733  -0.68749
 Alpha  occ. eigenvalues --   -0.66179  -0.64659  -0.63976  -0.62430  -0.61573
 Alpha  occ. eigenvalues --   -0.60454  -0.59806  -0.58041  -0.55829  -0.54973
 Alpha  occ. eigenvalues --   -0.53723  -0.53271  -0.51667  -0.51439  -0.50503
 Alpha  occ. eigenvalues --   -0.49257  -0.48569  -0.47945  -0.47240  -0.46626
 Alpha  occ. eigenvalues --   -0.46068  -0.45439  -0.45032  -0.44680  -0.44540
 Alpha  occ. eigenvalues --   -0.43608  -0.42966  -0.42661  -0.42438  -0.42362
 Alpha  occ. eigenvalues --   -0.41896  -0.41567  -0.41234  -0.41087  -0.40780
 Alpha  occ. eigenvalues --   -0.40206  -0.40062  -0.39356  -0.39262  -0.38887
 Alpha  occ. eigenvalues --   -0.38718  -0.38311  -0.38213  -0.37727  -0.37649
 Alpha  occ. eigenvalues --   -0.37320  -0.36147  -0.36027  -0.35545  -0.35431
 Alpha  occ. eigenvalues --   -0.34835  -0.34627  -0.33955  -0.33559  -0.33200
 Alpha  occ. eigenvalues --   -0.32475  -0.32263  -0.31560  -0.29563  -0.28353
 Alpha  occ. eigenvalues --   -0.26919  -0.26046  -0.25304  -0.24524  -0.24069
 Alpha virt. eigenvalues --   -0.06092  -0.02819  -0.01582  -0.01026  -0.00270
 Alpha virt. eigenvalues --    0.00126   0.00333   0.01189   0.01481   0.01849
 Alpha virt. eigenvalues --    0.02002   0.02524   0.02848   0.03346   0.03594
 Alpha virt. eigenvalues --    0.03893   0.04020   0.04280   0.04532   0.04898
 Alpha virt. eigenvalues --    0.05252   0.05288   0.05792   0.06058   0.06344
 Alpha virt. eigenvalues --    0.06528   0.06695   0.07263   0.07346   0.07472
 Alpha virt. eigenvalues --    0.07778   0.07946   0.08282   0.08459   0.08668
 Alpha virt. eigenvalues --    0.08974   0.09203   0.09439   0.09585   0.10068
 Alpha virt. eigenvalues --    0.10259   0.10547   0.10587   0.10872   0.11264
 Alpha virt. eigenvalues --    0.11403   0.11587   0.11967   0.12020   0.12223
 Alpha virt. eigenvalues --    0.12809   0.13017   0.13156   0.13238   0.13637
 Alpha virt. eigenvalues --    0.13643   0.14001   0.14170   0.14553   0.14757
 Alpha virt. eigenvalues --    0.14977   0.15043   0.15458   0.15707   0.15940
 Alpha virt. eigenvalues --    0.16008   0.16642   0.16994   0.17199   0.17257
 Alpha virt. eigenvalues --    0.17603   0.17724   0.17846   0.18073   0.18248
 Alpha virt. eigenvalues --    0.18339   0.18384   0.18540   0.18702   0.18886
 Alpha virt. eigenvalues --    0.19353   0.19409   0.19634   0.19847   0.20130
 Alpha virt. eigenvalues --    0.20284   0.20623   0.20809   0.20877   0.21089
 Alpha virt. eigenvalues --    0.21272   0.21562   0.21800   0.21851   0.22057
 Alpha virt. eigenvalues --    0.22348   0.22571   0.22589   0.22717   0.23089
 Alpha virt. eigenvalues --    0.23256   0.23268   0.23609   0.23817   0.24152
 Alpha virt. eigenvalues --    0.24495   0.24549   0.24694   0.25025   0.25358
 Alpha virt. eigenvalues --    0.25461   0.25602   0.25851   0.25928   0.26252
 Alpha virt. eigenvalues --    0.26427   0.26571   0.26751   0.26993   0.27039
 Alpha virt. eigenvalues --    0.27198   0.27547   0.27574   0.28011   0.28307
 Alpha virt. eigenvalues --    0.28381   0.28570   0.28815   0.29332   0.29473
 Alpha virt. eigenvalues --    0.29809   0.30044   0.30382   0.30489   0.30617
 Alpha virt. eigenvalues --    0.31248   0.31328   0.31649   0.31674   0.32173
 Alpha virt. eigenvalues --    0.32349   0.32562   0.32820   0.33237   0.33509
 Alpha virt. eigenvalues --    0.33783   0.34029   0.34396   0.35073   0.35162
 Alpha virt. eigenvalues --    0.35516   0.36038   0.36066   0.36439   0.36637
 Alpha virt. eigenvalues --    0.37043   0.37622   0.37946   0.38413   0.38599
 Alpha virt. eigenvalues --    0.38890   0.39300   0.39770   0.40351   0.40700
 Alpha virt. eigenvalues --    0.41154   0.41311   0.41720   0.41911   0.42351
 Alpha virt. eigenvalues --    0.42444   0.43035   0.43250   0.43426   0.44060
 Alpha virt. eigenvalues --    0.44720   0.44944   0.45472   0.45711   0.45879
 Alpha virt. eigenvalues --    0.46209   0.46376   0.46640   0.47072   0.47429
 Alpha virt. eigenvalues --    0.47887   0.48478   0.48781   0.49018   0.49377
 Alpha virt. eigenvalues --    0.49745   0.49934   0.50545   0.51036   0.51589
 Alpha virt. eigenvalues --    0.51704   0.52052   0.52862   0.53346   0.53501
 Alpha virt. eigenvalues --    0.54051   0.55076   0.55617   0.55895   0.56227
 Alpha virt. eigenvalues --    0.56805   0.57050   0.57528   0.58186   0.58202
 Alpha virt. eigenvalues --    0.58384   0.59010   0.59111   0.59558   0.59864
 Alpha virt. eigenvalues --    0.60030   0.60438   0.60892   0.61999   0.62179
 Alpha virt. eigenvalues --    0.62864   0.63132   0.63491   0.63656   0.63832
 Alpha virt. eigenvalues --    0.64994   0.65347   0.65548   0.65929   0.66203
 Alpha virt. eigenvalues --    0.66546   0.66816   0.67126   0.67638   0.68085
 Alpha virt. eigenvalues --    0.68536   0.68573   0.68997   0.69109   0.69598
 Alpha virt. eigenvalues --    0.69955   0.70007   0.70449   0.70621   0.70782
 Alpha virt. eigenvalues --    0.70928   0.71215   0.71692   0.71788   0.72173
 Alpha virt. eigenvalues --    0.72229   0.72691   0.72909   0.73140   0.73549
 Alpha virt. eigenvalues --    0.74030   0.74210   0.74548   0.75033   0.75195
 Alpha virt. eigenvalues --    0.75431   0.75849   0.76941   0.77306   0.77689
 Alpha virt. eigenvalues --    0.77952   0.78065   0.78297   0.78578   0.78906
 Alpha virt. eigenvalues --    0.79689   0.79896   0.80209   0.80526   0.81050
 Alpha virt. eigenvalues --    0.81181   0.81453   0.82039   0.82927   0.83540
 Alpha virt. eigenvalues --    0.83679   0.83802   0.84545   0.84881   0.85204
 Alpha virt. eigenvalues --    0.85950   0.86801   0.88164   0.88376   0.88498
 Alpha virt. eigenvalues --    0.89777   0.90909   0.91055   0.92564   0.93312
 Alpha virt. eigenvalues --    0.93843   0.93943   0.94660   0.95560   0.96385
 Alpha virt. eigenvalues --    0.96915   0.98211   0.98705   1.00422   1.01310
 Alpha virt. eigenvalues --    1.02342   1.03141   1.04248   1.05457   1.05937
 Alpha virt. eigenvalues --    1.06653   1.07781   1.08215   1.08511   1.10992
 Alpha virt. eigenvalues --    1.11588   1.11820   1.12788   1.14689   1.15087
 Alpha virt. eigenvalues --    1.16075   1.16810   1.17438   1.18149   1.19299
 Alpha virt. eigenvalues --    1.20828   1.21346   1.21506   1.22445   1.24186
 Alpha virt. eigenvalues --    1.24455   1.25200   1.26047   1.26370   1.27732
 Alpha virt. eigenvalues --    1.28396   1.28849   1.30165   1.30613   1.31702
 Alpha virt. eigenvalues --    1.32582   1.33617   1.33942   1.34758   1.35777
 Alpha virt. eigenvalues --    1.36310   1.37049   1.37393   1.38795   1.39774
 Alpha virt. eigenvalues --    1.40795   1.41272   1.41896   1.42341   1.43156
 Alpha virt. eigenvalues --    1.43872   1.44631   1.46805   1.47535   1.48101
 Alpha virt. eigenvalues --    1.48393   1.49132   1.50094   1.51099   1.52505
 Alpha virt. eigenvalues --    1.52761   1.53767   1.54247   1.54489   1.55414
 Alpha virt. eigenvalues --    1.56180   1.56507   1.57559   1.57973   1.58571
 Alpha virt. eigenvalues --    1.59455   1.59844   1.59890   1.60511   1.60974
 Alpha virt. eigenvalues --    1.61320   1.61640   1.62118   1.62573   1.63466
 Alpha virt. eigenvalues --    1.63949   1.64571   1.64741   1.65154   1.65894
 Alpha virt. eigenvalues --    1.66071   1.66394   1.66695   1.67447   1.67560
 Alpha virt. eigenvalues --    1.68011   1.68639   1.68865   1.69846   1.70661
 Alpha virt. eigenvalues --    1.71025   1.71534   1.72036   1.72240   1.73022
 Alpha virt. eigenvalues --    1.73542   1.74512   1.75041   1.75750   1.76483
 Alpha virt. eigenvalues --    1.76827   1.77182   1.78398   1.78630   1.79554
 Alpha virt. eigenvalues --    1.80878   1.81954   1.82877   1.83416   1.84431
 Alpha virt. eigenvalues --    1.84876   1.85251   1.85926   1.86834   1.87398
 Alpha virt. eigenvalues --    1.87770   1.88595   1.89448   1.90509   1.91799
 Alpha virt. eigenvalues --    1.92021   1.93002   1.94495   1.95245   1.96732
 Alpha virt. eigenvalues --    1.97329   1.98647   2.00104   2.01687   2.02121
 Alpha virt. eigenvalues --    2.02683   2.03374   2.04602   2.05412   2.06627
 Alpha virt. eigenvalues --    2.06927   2.07979   2.08486   2.09028   2.09636
 Alpha virt. eigenvalues --    2.10149   2.12574   2.14735   2.16199   2.17351
 Alpha virt. eigenvalues --    2.17574   2.19999   2.21211   2.22076   2.22391
 Alpha virt. eigenvalues --    2.23070   2.23567   2.25567   2.26384   2.27320
 Alpha virt. eigenvalues --    2.28553   2.29363   2.30477   2.32729   2.33458
 Alpha virt. eigenvalues --    2.34980   2.35580   2.37584   2.39397   2.43094
 Alpha virt. eigenvalues --    2.44054   2.46432   2.47804   2.49420   2.50364
 Alpha virt. eigenvalues --    2.51812   2.52425   2.52831   2.55009   2.55074
 Alpha virt. eigenvalues --    2.55709   2.56203   2.57124   2.57611   2.58304
 Alpha virt. eigenvalues --    2.58629   2.59722   2.60183   2.60957   2.62601
 Alpha virt. eigenvalues --    2.63030   2.63843   2.64874   2.66039   2.66808
 Alpha virt. eigenvalues --    2.67718   2.68689   2.69474   2.69660   2.69963
 Alpha virt. eigenvalues --    2.71411   2.71793   2.72987   2.74765   2.75235
 Alpha virt. eigenvalues --    2.76094   2.77288   2.77893   2.83110   2.84089
 Alpha virt. eigenvalues --    2.85064   2.87551   2.88820   2.88926   2.89982
 Alpha virt. eigenvalues --    2.91753   2.92895   2.94371   2.94562   2.95908
 Alpha virt. eigenvalues --    2.97116   2.98033   2.98994   2.99285   2.99624
 Alpha virt. eigenvalues --    3.00030   3.00973   3.02481   3.03543   3.04306
 Alpha virt. eigenvalues --    3.04993   3.05067   3.07321   3.07402   3.09435
 Alpha virt. eigenvalues --    3.09462   3.10926   3.11767   3.12279   3.13498
 Alpha virt. eigenvalues --    3.15156   3.15391   3.16686   3.17307   3.18399
 Alpha virt. eigenvalues --    3.20018   3.20256   3.20993   3.21539   3.22429
 Alpha virt. eigenvalues --    3.23531   3.24433   3.25269   3.25884   3.27027
 Alpha virt. eigenvalues --    3.27556   3.28125   3.29588   3.29766   3.30094
 Alpha virt. eigenvalues --    3.31264   3.31639   3.33015   3.34261   3.34643
 Alpha virt. eigenvalues --    3.35768   3.37601   3.38773   3.39001   3.39492
 Alpha virt. eigenvalues --    3.40176   3.41131   3.42215   3.42636   3.46217
 Alpha virt. eigenvalues --    3.47381   3.48238   3.50256   3.52935   3.54104
 Alpha virt. eigenvalues --    3.55184   3.59899   3.61283   3.63872   3.74917
 Alpha virt. eigenvalues --    3.77354   3.79556   3.81265   3.87540   3.89088
 Alpha virt. eigenvalues --    3.91394   3.96880   3.98680   4.01559   4.03097
 Alpha virt. eigenvalues --    4.04979   4.07021   4.10290   4.10638   4.12198
 Alpha virt. eigenvalues --    4.15113   4.17762   4.18699   4.20746   4.22848
 Alpha virt. eigenvalues --    4.23986   4.25319   4.28584   4.32822   4.46097
 Alpha virt. eigenvalues --    4.61602   5.13675   5.17194   5.17799   5.21554
 Alpha virt. eigenvalues --    5.23752   5.29508   5.32135   5.34169   5.41869
 Alpha virt. eigenvalues --    5.43241   5.56874   5.66689   5.73530   5.79063
 Alpha virt. eigenvalues --    5.84214  23.45573  23.47684  23.51506  23.52942
 Alpha virt. eigenvalues --   23.63784  23.65302  23.66136  23.67562  23.68579
 Alpha virt. eigenvalues --   23.70758  23.73352  23.74200  23.76932  23.78636
 Alpha virt. eigenvalues --   23.79029  23.79751  23.82396  23.84877  23.86884
 Alpha virt. eigenvalues --   23.87128  23.88930  23.90385  23.97008  24.17498
 Alpha virt. eigenvalues --   24.19836  24.23845  49.99055  50.00558  50.02798
 Alpha virt. eigenvalues --   50.03185  50.07338
          Condensed to atoms (all electrons):
 Mulliken atomic charges:
              1
     1  C   -0.315914
     2  C    0.568683
     3  C   -0.258240
     4  C   -0.214478
     5  C    1.354818
     6  C   -0.965897
     7  C   -1.179850
     8  C    0.359419
     9  C    0.751631
    10  C   -0.712713
    11  C    0.044211
    12  O   -0.186805
    13  C    0.250638
    14  C   -0.368808
    15  C   -1.101747
    16  O   -0.198314
    17  C   -0.356374
    18  C    0.568669
    19  O    0.142692
    20  C   -1.050324
    21  O    0.027431
    22  C   -0.847592
    23  C   -0.467667
    24  O    0.025913
    25  C    1.082039
    26  C   -1.173024
    27  C   -0.977339
    28  C   -0.794648
    29  C   -0.698940
    30  H    0.234597
    31  H    0.276411
    32  C   -1.089520
    33  H    0.204376
    34  H    0.252717
    35  H    0.280984
    36  H    0.231065
    37  H    0.222096
    38  H    0.264148
    39  H    0.277039
    40  H    0.232643
    41  H    0.268829
    42  H    0.265588
    43  H    0.283500
    44  H    0.257376
    45  H    0.264683
    46  H    0.275932
    47  H    0.221063
    48  H    0.285040
    49  H    0.279998
    50  H    0.263217
    51  H    0.227828
    52  H    0.217274
    53  H    0.265813
    54  H    0.254671
    55  H    0.312608
    56  H    0.260625
    57  H    0.270538
    58  H    0.264675
    59  H    0.256123
    60  H    0.255353
    61  H    0.260300
    62  C   -0.964838
    63  H    0.247359
    64  H    0.269693
    65  H    0.242729
 Sum of Mulliken atomic charges =   0.00000
 Mulliken charges with hydrogens summed into heavy atoms:
              1
     1  C   -0.111538
     2  C    0.568683
     3  C    0.018171
     4  C   -0.214478
     5  C    1.354818
     6  C   -0.432197
     7  C   -1.179850
     8  C    0.359419
     9  C    0.751631
    10  C   -0.712713
    11  C    0.044211
    12  O   -0.186805
    13  C    0.481704
    14  C    0.117436
    15  C   -0.323237
    16  O   -0.198314
    17  C   -0.121777
    18  C    0.568669
    19  O    0.142692
    20  C   -0.501237
    21  O    0.284806
    22  C   -0.306977
    23  C   -0.246604
    24  O    0.025913
    25  C    1.082039
    26  C   -0.344769
    27  C   -0.532238
    28  C    0.038445
    29  C    0.096898
    32  C   -0.317744
    62  C   -0.205057
 Sum of Mulliken charges with hydrogens summed into heavy atoms =   0.00000
 Electronic spatial extent (au):  <R**2>=          11389.9602
 Charge=              0.0000 electrons
 Dipole moment (field-independent basis, Debye):
    X=              4.6365    Y=              2.4555    Z=             -2.0114  Tot=              5.6189
 Quadrupole moment (field-independent basis, Debye-Ang):
   XX=           -194.7003   YY=           -179.2912   ZZ=           -186.2287
   XY=             -2.0666   XZ=              6.1803   YZ=              1.9338
 Traceless Quadrupole moment (field-independent basis, Debye-Ang):
   XX=             -7.9602   YY=              7.4489   ZZ=              0.5114
   XY=             -2.0666   XZ=              6.1803   YZ=              1.9338
 Octapole moment (field-independent basis, Debye-Ang**2):
  XXX=             34.6784  YYY=             65.8067  ZZZ=             -3.5368  XYY=              5.9455
  XXY=            -39.4061  XXZ=            -33.0600  XZZ=             26.9439  YZZ=              7.6137
  YYZ=            -25.5848  XYZ=              9.3582
 Hexadecapole moment (field-independent basis, Debye-Ang**3):
 XXXX=          -7820.5334 YYYY=          -4413.1594 ZZZZ=          -3483.2250 XXXY=            -67.4106
 XXXZ=             43.9761 YYYX=            -15.1669 YYYZ=            -18.8496 ZZZX=            -47.8916
 ZZZY=              0.5689 XXYY=          -1943.6809 XXZZ=          -1847.6129 YYZZ=          -1311.6988
 XXYZ=             14.2757 YYXZ=             12.3572 ZZXY=            -48.0110
 N-N= 3.513785396733D+03 E-N=-1.026067458990D+04  KE= 1.381920499240D+03
 1\1\GINC-B0604\FOpt\RB3LYP\6-311+G(d)\C26H34O5\CAOFEI\13-Apr-2021\0\\#
  opt b3lyp/6-311+g(d) geom=connectivity\\Title Card Required\\0,1\C,1.
 6057126363,0.023749824,3.1486667606\C,1.6814729934,1.2628280276,2.6605
 792748\C,1.7469617244,1.5245670813,1.1730685134\C,1.484407847,0.302494
 4795,0.2346851928\C,1.0756829566,-1.0605231163,0.8728902199\C,1.621424
 051,-1.2228953875,2.3153385957\C,0.4451354276,0.8300632489,-0.79122113
 82\C,-0.9898022875,0.6185866911,-0.3597963796\C,-1.4267301943,-0.45377
 0311,0.3425188617\C,-0.4449190533,-1.3866451963,0.8973331497\C,-2.8952
 232226,-0.6492799194,0.6403279742\O,-3.5430124107,0.2575290091,1.12096
 96608\C,-3.552154454,-1.9864195282,0.2842932126\C,-4.6546029295,-1.757
 9093492,-0.7725957545\C,-4.1285802662,-2.6346861133,1.5536666712\O,-0.
 7929349815,-2.4216729198,1.4499053227\C,0.485440011,2.3705056992,-0.77
 35064493\C,-0.9248496499,2.7605710128,-1.2741580604\O,-1.756324284,1.6
 193373349,-0.7867560488\C,0.7860325049,2.6548319973,0.7075404736\O,0.5
 978780107,0.2373295645,-2.0679633308\C,1.7906529297,-2.0794171302,-0.0
 53599091\C,3.0994233404,-1.3568278392,-0.3747098462\O,2.695997015,0.02
 80702571,-0.5262276267\C,3.8666645694,-1.8434176198,-1.5833156408\C,3.
 2901050153,-1.6209659895,-2.9575675187\C,5.0271989613,-2.4775683963,-1
 .4015017349\C,-1.0308568129,2.8035452775,-2.7974344193\C,-1.5287833575
 ,4.0157132101,-0.6564054232\H,1.2678411534,2.7596129734,-1.4291670133\
 H,2.7695125777,1.8417226328,0.9321313989\C,1.7648508757,2.4695389974,3
 .5602792508\H,1.5855685086,-0.1180843821,4.2274326334\H,2.6530661712,-
 1.5957987081,2.2744615565\H,1.048837298,-2.0185964853,2.7954638618\H,-
 2.7910065232,-2.6508355307,-0.1331039083\H,-5.1724686232,-2.712458845,
 -0.9217500051\H,-5.3947445655,-1.0647344079,-0.3598783917\H,-3.3406418
 164,-2.8427725748,2.2793794987\H,-4.6179545177,-3.5808507082,1.3048252
 755\H,-4.8680331087,-1.9785658241,2.0191447356\H,1.2109092451,3.647256
 1164,0.8670215499\H,-0.1351313368,2.6049600235,1.2936902616\H,1.555099
 2035,0.1218781142,-2.1786677782\H,1.2112807824,-2.2559507999,-0.962439
 819\H,1.9470610209,-3.0373697843,0.4437937378\H,3.7711698384,-1.413871
 8286,0.4884291718\H,2.2561737212,-1.9688313355,-3.0396182197\H,3.30026
 7792,-0.5576202491,-3.221451157\H,3.8769221885,-2.1432816189,-3.715091
 2841\H,5.5879231933,-2.8933129004,-2.2326808746\H,5.4584218368,-2.6111
 820909,-0.4140349724\H,-2.0762218454,2.9100291716,-3.0964515932\H,-0.4
 805869951,3.6661228745,-3.1845103143\H,-0.6245855041,1.9008104898,-3.2
 507642899\H,-0.9310579971,4.8902032626,-0.9285443464\H,-2.5422246931,4
 .1691421212,-1.0328289541\H,-1.5822391237,3.957129686,0.4301635106\H,1
 .7935284285,2.176771036,4.6116653459\H,2.667746821,3.056337373,3.35099
 02164\H,0.9144130329,3.1461780942,3.4278311358\C,-4.1490813212,-1.2390
 099557,-2.121662694\H,-4.9706478164,-1.1577313362,-2.839361022\H,-3.69
 54015933,-0.2477168222,-2.0344353106\H,-3.400327398,-1.9103306774,-2.5
 544386143\\Version=EM64L-G09RevB.01\State=1-A\HF=-1387.6491098\RMSD=5.
 805e-09\RMSF=4.950e-06\Dipole=1.8381023,0.9449791,-0.7844695\Quadrupol
 e=-5.9785375,5.5683978,0.4101397,-1.4067581,4.5929974,1.3883453\PG=C01
  [X(C26H34O5)]\\@


 The juvenile sea squirt wanders through the sea searching
 for a suitable rock or hunk of coral to cling to and make
 its home for life.  For this task it has a rudimentary
 nervous system.  When it finds its spot and takes root, it
 doesn't need its brain any more so it eats it.
 It's rather like getting tenure.

                               -- source unknown
 Job cpu time:  1 days  6 hours 52 minutes 40.6 seconds.
 File lengths (MBytes):  RWF=    372 Int=      0 D2E=      0 Chk=     38 Scr=      1
 Normal termination of Gaussian 09 at Tue Apr 13 18:36:13 2021.
