 Entering Gaussian System, Link 0=g09
 Initial command:
 /public/software/g09/g09/l1.exe /tmp/Gau-15541.inp -scrdir=/tmp/
 Entering Link 1 = /public/software/g09/g09/l1.exe PID=     15542.
  
 Copyright (c) 1988,1990,1992,1993,1995,1998,2003,2009,2010,
            Gaussian, Inc.  All Rights Reserved.
  
 This is part of the Gaussian(R) 09 program.  It is based on
 the Gaussian(R) 03 system (copyright 2003, Gaussian, Inc.),
 the Gaussian(R) 98 system (copyright 1998, Gaussian, Inc.),
 the Gaussian(R) 94 system (copyright 1995, Gaussian, Inc.),
 the Gaussian 92(TM) system (copyright 1992, Gaussian, Inc.),
 the Gaussian 90(TM) system (copyright 1990, Gaussian, Inc.),
 the Gaussian 88(TM) system (copyright 1988, Gaussian, Inc.),
 the Gaussian 86(TM) system (copyright 1986, Carnegie Mellon
 University), and the Gaussian 82(TM) system (copyright 1983,
 Carnegie Mellon University). Gaussian is a federally registered
 trademark of Gaussian, Inc.
  
 This software contains proprietary and confidential information,
 including trade secrets, belonging to Gaussian, Inc.
  
 This software is provided under written license and may be
 used, copied, transmitted, or stored only in accord with that
 written license.
  
 The following legend is applicable only to US Government
 contracts under FAR:
  
                    RESTRICTED RIGHTS LEGEND
  
 Use, reproduction and disclosure by the US Government is
 subject to restrictions as set forth in subparagraphs (a)
 and (c) of the Commercial Computer Software - Restricted
 Rights clause in FAR 52.227-19.
  
 Gaussian, Inc.
 340 Quinnipiac St., Bldg. 40, Wallingford CT 06492
  
  
 ---------------------------------------------------------------
 Warning -- This program may not be used in any manner that
 competes with the business of Gaussian, Inc. or will provide
 assistance to any competitor of Gaussian, Inc.  The licensee
 of this program is prohibited from giving any competitor of
 Gaussian, Inc. access to this program.  By using this program,
 the user acknowledges that Gaussian, Inc. is engaged in the
 business of creating and licensing software in the field of
 computational chemistry and represents and warrants to the
 licensee that it is not a competitor of Gaussian, Inc. and that
 it will not use this program in any manner prohibited above.
 ---------------------------------------------------------------
  

 Cite this work as:
 Gaussian 09, Revision B.01,
 M. J. Frisch, G. W. Trucks, H. B. Schlegel, G. E. Scuseria, 
 M. A. Robb, J. R. Cheeseman, G. Scalmani, V. Barone, B. Mennucci, 
 G. A. Petersson, H. Nakatsuji, M. Caricato, X. Li, H. P. Hratchian, 
 A. F. Izmaylov, J. Bloino, G. Zheng, J. L. Sonnenberg, M. Hada, 
 M. Ehara, K. Toyota, R. Fukuda, J. Hasegawa, M. Ishida, T. Nakajima, 
 Y. Honda, O. Kitao, H. Nakai, T. Vreven, J. A. Montgomery, Jr., 
 J. E. Peralta, F. Ogliaro, M. Bearpark, J. J. Heyd, E. Brothers, 
 K. N. Kudin, V. N. Staroverov, T. Keith, R. Kobayashi, J. Normand, 
 K. Raghavachari, A. Rendell, J. C. Burant, S. S. Iyengar, J. Tomasi, 
 M. Cossi, N. Rega, J. M. Millam, M. Klene, J. E. Knox, J. B. Cross, 
 V. Bakken, C. Adamo, J. Jaramillo, R. Gomperts, R. E. Stratmann, 
 O. Yazyev, A. J. Austin, R. Cammi, C. Pomelli, J. W. Ochterski, 
 R. L. Martin, K. Morokuma, V. G. Zakrzewski, G. A. Voth, 
 P. Salvador, J. J. Dannenberg, S. Dapprich, A. D. Daniels, 
 O. Farkas, J. B. Foresman, J. V. Ortiz, J. Cioslowski, 
 and D. J. Fox, Gaussian, Inc., Wallingford CT, 2010.
 
 ******************************************
 Gaussian 09:  EM64L-G09RevB.01 12-Aug-2010
                13-Apr-2021 
 ******************************************
 %mem=600MW
 %nprocshared=10
 Will use up to   10 processors via shared memory.
 ----------------------------------------
 # opt b3lyp/6-311+g(d) geom=connectivity
 ----------------------------------------
 1/14=-1,18=20,19=15,26=3,38=1,57=2/1,3;
 2/9=110,12=2,17=6,18=5,40=1/2;
 3/5=4,6=6,7=11,11=2,16=1,25=1,30=1,71=1,74=-5/1,2,3;
 4//1;
 5/5=2,38=5/2;
 6/7=2,8=2,9=2,10=2,28=1/1;
 7//1,2,3,16;
 1/14=-1,18=20,19=15/3(2);
 2/9=110/2;
 99//99;
 2/9=110/2;
 3/5=4,6=6,7=11,11=2,16=1,25=1,30=1,71=1,74=-5/1,2,3;
 4/5=5,16=3/1;
 5/5=2,38=5/2;
 7//1,2,3,16;
 1/14=-1,18=20,19=15/3(-5);
 2/9=110/2;
 6/7=2,8=2,9=2,10=2,19=2,28=1/1;
 99/9=1/99;
 -------------------
 Title Card Required
 -------------------
 Symbolic Z-matrix:
 Charge =  0 Multiplicity = 1
 C                     1.52634   0.60103   3.17843 
 C                     1.50626   1.75228   2.49677 
 C                     1.65099   1.77506   0.98901 
 C                     1.49862   0.39727   0.272 
 C                     1.11991  -0.84679   1.11491 
 C                     1.69726  -0.75347   2.54825 
 C                     0.4954    0.6683   -0.8775 
 C                    -0.94809   0.48915  -0.45325 
 C                    -1.38574  -0.42101   0.4535 
 C                    -0.39401  -1.18353   1.22003 
 C                    -2.86344  -0.53435   0.77817 
 O                    -3.49495   0.47205   1.04918 
 C                    -3.51077  -1.91399   0.70762 
 C                    -3.42141  -2.47522  -0.73856 
 C                    -4.93887  -1.88585   1.26035 
 O                    -0.71861  -2.0854    1.98927 
 C                     0.47496   2.18798  -1.15005 
 C                    -0.92356   2.40351  -1.77784 
 O                    -1.73486   1.35232  -1.10307 
 C                     0.67609   2.75426   0.2708 
 O                     0.71577  -0.1645   -2.00107 
 C                     1.8205   -1.98451   0.32822 
 C                     3.11612  -1.31333  -0.15317 
 O                     2.77036   0.07066  -0.34454 
 C                     3.73629  -1.908    -1.39995 
 C                     4.00634  -3.39122  -1.33656 
 C                     4.06927  -1.1605   -2.45749 
 C                    -0.95373   2.12618  -3.28257 
 C                    -1.6073    3.73046  -1.45793 
 H                     1.27697   2.49264  -1.82957 
 H                     2.6756    2.09525   0.75193 
 C                     1.41376   3.08781   3.19232 
 H                     1.45597   0.6295    4.26495 
 H                     2.76751  -1.009     2.53077 
 H                     1.20943  -1.52709   3.14806 
 H                    -2.89     -2.5657    1.33401 
 H                    -2.36446  -2.56086  -1.02046 
 H                    -3.817    -3.49928  -0.72112 
 H                    -5.38817  -2.88409   1.19999 
 H                    -5.57376  -1.18438   0.71203 
 H                    -4.94299  -1.57137   2.30868 
 H                     1.05283   3.78097   0.26551 
 H                    -0.2802    2.76447   0.80435 
 H                     1.6866   -0.24174  -2.0795 
 H                     1.21292  -2.28869  -0.53001 
 H                     1.99677  -2.86015   0.95837 
 H                     3.87204  -1.36257   0.648 
 H                     4.62447  -3.64336  -0.46391 
 H                     3.078    -3.96872  -1.24229 
 H                     4.53115  -3.73553  -2.23206 
 H                     4.5274   -1.60426  -3.3373 
 H                     3.92115  -0.08551  -2.46717 
 H                    -1.98998   2.10763  -3.63546 
 H                    -0.42481   2.92238  -3.81914 
 H                    -0.48011   1.17076  -3.5148 
 H                    -1.03357   4.55846  -1.88924 
 H                    -2.61115   3.74696  -1.89337 
 H                    -1.70458   3.89375  -0.38245 
 H                     1.38627   2.96468   4.27929 
 H                     2.27656   3.72319   2.94572 
 H                     0.51736   3.64769   2.89644 
 C                    -4.16293  -1.65588  -1.80246 
 H                    -4.03633  -2.10918  -2.79241 
 H                    -5.23798  -1.60368  -1.59866 
 H                    -3.78529  -0.62825  -1.85565 
 

 GradGradGradGradGradGradGradGradGradGradGradGradGradGradGradGradGradGrad
 Berny optimization.
 Initialization pass.
                           ----------------------------
                           !    Initial Parameters    !
                           ! (Angstroms and Degrees)  !
 --------------------------                            --------------------------
 ! Name  Definition              Value          Derivative Info.                !
 --------------------------------------------------------------------------------
 ! R1    R(1,2)                  1.3381         estimate D2E/DX2                !
 ! R2    R(1,6)                  1.5037         estimate D2E/DX2                !
 ! R3    R(1,33)                 1.0892         estimate D2E/DX2                !
 ! R4    R(2,3)                  1.5149         estimate D2E/DX2                !
 ! R5    R(2,32)                 1.5086         estimate D2E/DX2                !
 ! R6    R(3,4)                  1.5607         estimate D2E/DX2                !
 ! R7    R(3,20)                 1.5573         estimate D2E/DX2                !
 ! R8    R(3,31)                 1.0993         estimate D2E/DX2                !
 ! R9    R(4,5)                  1.5497         estimate D2E/DX2                !
 ! R10   R(4,7)                  1.5496         estimate D2E/DX2                !
 ! R11   R(4,24)                 1.4506         estimate D2E/DX2                !
 ! R12   R(5,6)                  1.5481         estimate D2E/DX2                !
 ! R13   R(5,10)                 1.5545         estimate D2E/DX2                !
 ! R14   R(5,22)                 1.5505         estimate D2E/DX2                !
 ! R15   R(6,34)                 1.1005         estimate D2E/DX2                !
 ! R16   R(6,35)                 1.0937         estimate D2E/DX2                !
 ! R17   R(7,8)                  1.5152         estimate D2E/DX2                !
 ! R18   R(7,17)                 1.5441         estimate D2E/DX2                !
 ! R19   R(7,21)                 1.4158         estimate D2E/DX2                !
 ! R20   R(8,9)                  1.3572         estimate D2E/DX2                !
 ! R21   R(8,19)                 1.3365         estimate D2E/DX2                !
 ! R22   R(9,10)                 1.4672         estimate D2E/DX2                !
 ! R23   R(9,11)                 1.5172         estimate D2E/DX2                !
 ! R24   R(10,16)                1.229          estimate D2E/DX2                !
 ! R25   R(11,12)                1.2186         estimate D2E/DX2                !
 ! R26   R(11,13)                1.5256         estimate D2E/DX2                !
 ! R27   R(13,14)                1.5538         estimate D2E/DX2                !
 ! R28   R(13,15)                1.5316         estimate D2E/DX2                !
 ! R29   R(13,36)                1.0966         estimate D2E/DX2                !
 ! R30   R(14,37)                1.0972         estimate D2E/DX2                !
 ! R31   R(14,38)                1.098          estimate D2E/DX2                !
 ! R32   R(14,62)                1.534          estimate D2E/DX2                !
 ! R33   R(15,39)                1.0964         estimate D2E/DX2                !
 ! R34   R(15,40)                1.0935         estimate D2E/DX2                !
 ! R35   R(15,41)                1.0945         estimate D2E/DX2                !
 ! R36   R(17,18)                1.548          estimate D2E/DX2                !
 ! R37   R(17,20)                1.5427         estimate D2E/DX2                !
 ! R38   R(17,30)                1.0944         estimate D2E/DX2                !
 ! R39   R(18,19)                1.4895         estimate D2E/DX2                !
 ! R40   R(18,28)                1.5304         estimate D2E/DX2                !
 ! R41   R(18,29)                1.5266         estimate D2E/DX2                !
 ! R42   R(20,42)                1.0937         estimate D2E/DX2                !
 ! R43   R(20,43)                1.0951         estimate D2E/DX2                !
 ! R44   R(21,44)                0.9771         estimate D2E/DX2                !
 ! R45   R(22,23)                1.5365         estimate D2E/DX2                !
 ! R46   R(22,45)                1.0946         estimate D2E/DX2                !
 ! R47   R(22,46)                1.0931         estimate D2E/DX2                !
 ! R48   R(23,24)                1.4393         estimate D2E/DX2                !
 ! R49   R(23,25)                1.5142         estimate D2E/DX2                !
 ! R50   R(23,47)                1.1026         estimate D2E/DX2                !
 ! R51   R(25,26)                1.5089         estimate D2E/DX2                !
 ! R52   R(25,27)                1.3372         estimate D2E/DX2                !
 ! R53   R(26,48)                1.0987         estimate D2E/DX2                !
 ! R54   R(26,49)                1.0974         estimate D2E/DX2                !
 ! R55   R(26,50)                1.0936         estimate D2E/DX2                !
 ! R56   R(27,51)                1.0867         estimate D2E/DX2                !
 ! R57   R(27,52)                1.0852         estimate D2E/DX2                !
 ! R58   R(28,53)                1.0948         estimate D2E/DX2                !
 ! R59   R(28,54)                1.0962         estimate D2E/DX2                !
 ! R60   R(28,55)                1.0914         estimate D2E/DX2                !
 ! R61   R(29,56)                1.0958         estimate D2E/DX2                !
 ! R62   R(29,57)                1.0944         estimate D2E/DX2                !
 ! R63   R(29,58)                1.0921         estimate D2E/DX2                !
 ! R64   R(32,59)                1.0943         estimate D2E/DX2                !
 ! R65   R(32,60)                1.0995         estimate D2E/DX2                !
 ! R66   R(32,61)                1.0975         estimate D2E/DX2                !
 ! R67   R(62,63)                1.0961         estimate D2E/DX2                !
 ! R68   R(62,64)                1.0954         estimate D2E/DX2                !
 ! R69   R(62,65)                1.0961         estimate D2E/DX2                !
 ! A1    A(2,1,6)              124.2794         estimate D2E/DX2                !
 ! A2    A(2,1,33)             118.9953         estimate D2E/DX2                !
 ! A3    A(6,1,33)             116.6776         estimate D2E/DX2                !
 ! A4    A(1,2,3)              121.2354         estimate D2E/DX2                !
 ! A5    A(1,2,32)             121.8502         estimate D2E/DX2                !
 ! A6    A(3,2,32)             116.8354         estimate D2E/DX2                !
 ! A7    A(2,3,4)              115.7642         estimate D2E/DX2                !
 ! A8    A(2,3,20)             114.1221         estimate D2E/DX2                !
 ! A9    A(2,3,31)             107.9431         estimate D2E/DX2                !
 ! A10   A(4,3,20)             106.3865         estimate D2E/DX2                !
 ! A11   A(4,3,31)             104.4206         estimate D2E/DX2                !
 ! A12   A(20,3,31)            107.5103         estimate D2E/DX2                !
 ! A13   A(3,4,5)              118.8606         estimate D2E/DX2                !
 ! A14   A(3,4,7)              104.4539         estimate D2E/DX2                !
 ! A15   A(3,4,24)             107.9662         estimate D2E/DX2                !
 ! A16   A(5,4,7)              112.6857         estimate D2E/DX2                !
 ! A17   A(5,4,24)             105.3483         estimate D2E/DX2                !
 ! A18   A(7,4,24)             106.9586         estimate D2E/DX2                !
 ! A19   A(4,5,6)              111.3505         estimate D2E/DX2                !
 ! A20   A(4,5,10)             116.6596         estimate D2E/DX2                !
 ! A21   A(4,5,22)             101.6926         estimate D2E/DX2                !
 ! A22   A(6,5,10)             108.2802         estimate D2E/DX2                !
 ! A23   A(6,5,22)             110.2112         estimate D2E/DX2                !
 ! A24   A(10,5,22)            108.3857         estimate D2E/DX2                !
 ! A25   A(1,6,5)              113.5746         estimate D2E/DX2                !
 ! A26   A(1,6,34)             109.0491         estimate D2E/DX2                !
 ! A27   A(1,6,35)             110.8931         estimate D2E/DX2                !
 ! A28   A(5,6,34)             109.512          estimate D2E/DX2                !
 ! A29   A(5,6,35)             107.3842         estimate D2E/DX2                !
 ! A30   A(34,6,35)            106.1553         estimate D2E/DX2                !
 ! A31   A(4,7,8)              112.8541         estimate D2E/DX2                !
 ! A32   A(4,7,17)             108.1589         estimate D2E/DX2                !
 ! A33   A(4,7,21)             112.646          estimate D2E/DX2                !
 ! A34   A(8,7,17)              98.8111         estimate D2E/DX2                !
 ! A35   A(8,7,21)             107.5146         estimate D2E/DX2                !
 ! A36   A(17,7,21)            116.1618         estimate D2E/DX2                !
 ! A37   A(7,8,9)              124.9979         estimate D2E/DX2                !
 ! A38   A(7,8,19)             110.3843         estimate D2E/DX2                !
 ! A39   A(9,8,19)             124.6172         estimate D2E/DX2                !
 ! A40   A(8,9,10)             118.66           estimate D2E/DX2                !
 ! A41   A(8,9,11)             120.4722         estimate D2E/DX2                !
 ! A42   A(10,9,11)            120.5129         estimate D2E/DX2                !
 ! A43   A(5,10,9)             120.6903         estimate D2E/DX2                !
 ! A44   A(5,10,16)            117.2918         estimate D2E/DX2                !
 ! A45   A(9,10,16)            121.9963         estimate D2E/DX2                !
 ! A46   A(9,11,12)            119.3811         estimate D2E/DX2                !
 ! A47   A(9,11,13)            118.095          estimate D2E/DX2                !
 ! A48   A(12,11,13)           122.4953         estimate D2E/DX2                !
 ! A49   A(11,13,14)           110.1986         estimate D2E/DX2                !
 ! A50   A(11,13,15)           111.244          estimate D2E/DX2                !
 ! A51   A(11,13,36)           105.7142         estimate D2E/DX2                !
 ! A52   A(14,13,15)           113.3371         estimate D2E/DX2                !
 ! A53   A(14,13,36)           106.5252         estimate D2E/DX2                !
 ! A54   A(15,13,36)           109.4281         estimate D2E/DX2                !
 ! A55   A(13,14,37)           108.826          estimate D2E/DX2                !
 ! A56   A(13,14,38)           107.5402         estimate D2E/DX2                !
 ! A57   A(13,14,62)           115.1368         estimate D2E/DX2                !
 ! A58   A(37,14,38)           106.1625         estimate D2E/DX2                !
 ! A59   A(37,14,62)           109.2177         estimate D2E/DX2                !
 ! A60   A(38,14,62)           109.5746         estimate D2E/DX2                !
 ! A61   A(13,15,39)           110.2137         estimate D2E/DX2                !
 ! A62   A(13,15,40)           111.8505         estimate D2E/DX2                !
 ! A63   A(13,15,41)           110.76           estimate D2E/DX2                !
 ! A64   A(39,15,40)           108.5741         estimate D2E/DX2                !
 ! A65   A(39,15,41)           108.229          estimate D2E/DX2                !
 ! A66   A(40,15,41)           107.0836         estimate D2E/DX2                !
 ! A67   A(7,17,18)            102.7425         estimate D2E/DX2                !
 ! A68   A(7,17,20)            101.3601         estimate D2E/DX2                !
 ! A69   A(7,17,30)            111.954          estimate D2E/DX2                !
 ! A70   A(18,17,20)           116.1158         estimate D2E/DX2                !
 ! A71   A(18,17,30)           111.8072         estimate D2E/DX2                !
 ! A72   A(20,17,30)           111.9699         estimate D2E/DX2                !
 ! A73   A(17,18,19)           102.1282         estimate D2E/DX2                !
 ! A74   A(17,18,28)           113.037          estimate D2E/DX2                !
 ! A75   A(17,18,29)           116.145          estimate D2E/DX2                !
 ! A76   A(19,18,28)           107.8668         estimate D2E/DX2                !
 ! A77   A(19,18,29)           105.9353         estimate D2E/DX2                !
 ! A78   A(28,18,29)           110.7764         estimate D2E/DX2                !
 ! A79   A(8,19,18)            110.8188         estimate D2E/DX2                !
 ! A80   A(3,20,17)            105.9965         estimate D2E/DX2                !
 ! A81   A(3,20,42)            112.1407         estimate D2E/DX2                !
 ! A82   A(3,20,43)            109.1371         estimate D2E/DX2                !
 ! A83   A(17,20,42)           112.6467         estimate D2E/DX2                !
 ! A84   A(17,20,43)           109.773          estimate D2E/DX2                !
 ! A85   A(42,20,43)           107.1229         estimate D2E/DX2                !
 ! A86   A(7,21,44)            105.359          estimate D2E/DX2                !
 ! A87   A(5,22,23)            102.6761         estimate D2E/DX2                !
 ! A88   A(5,22,45)            110.5417         estimate D2E/DX2                !
 ! A89   A(5,22,46)            111.6025         estimate D2E/DX2                !
 ! A90   A(23,22,45)           110.1074         estimate D2E/DX2                !
 ! A91   A(23,22,46)           113.2385         estimate D2E/DX2                !
 ! A92   A(45,22,46)           108.5947         estimate D2E/DX2                !
 ! A93   A(22,23,24)           105.0181         estimate D2E/DX2                !
 ! A94   A(22,23,25)           115.5808         estimate D2E/DX2                !
 ! A95   A(22,23,47)           109.3259         estimate D2E/DX2                !
 ! A96   A(24,23,25)           111.5032         estimate D2E/DX2                !
 ! A97   A(24,23,47)           107.7134         estimate D2E/DX2                !
 ! A98   A(25,23,47)           107.4557         estimate D2E/DX2                !
 ! A99   A(4,24,23)            111.7531         estimate D2E/DX2                !
 ! A100  A(23,25,26)           115.1349         estimate D2E/DX2                !
 ! A101  A(23,25,27)           122.2534         estimate D2E/DX2                !
 ! A102  A(26,25,27)           122.5578         estimate D2E/DX2                !
 ! A103  A(25,26,48)           111.0778         estimate D2E/DX2                !
 ! A104  A(25,26,49)           111.6849         estimate D2E/DX2                !
 ! A105  A(25,26,50)           111.1597         estimate D2E/DX2                !
 ! A106  A(48,26,49)           106.6746         estimate D2E/DX2                !
 ! A107  A(48,26,50)           107.9473         estimate D2E/DX2                !
 ! A108  A(49,26,50)           108.0975         estimate D2E/DX2                !
 ! A109  A(25,27,51)           121.1328         estimate D2E/DX2                !
 ! A110  A(25,27,52)           121.7917         estimate D2E/DX2                !
 ! A111  A(51,27,52)           117.0547         estimate D2E/DX2                !
 ! A112  A(18,28,53)           109.7942         estimate D2E/DX2                !
 ! A113  A(18,28,54)           109.8862         estimate D2E/DX2                !
 ! A114  A(18,28,55)           111.0576         estimate D2E/DX2                !
 ! A115  A(53,28,54)           108.1334         estimate D2E/DX2                !
 ! A116  A(53,28,55)           109.1069         estimate D2E/DX2                !
 ! A117  A(54,28,55)           108.803          estimate D2E/DX2                !
 ! A118  A(18,29,56)           109.8649         estimate D2E/DX2                !
 ! A119  A(18,29,57)           109.9107         estimate D2E/DX2                !
 ! A120  A(18,29,58)           112.0987         estimate D2E/DX2                !
 ! A121  A(56,29,57)           108.1964         estimate D2E/DX2                !
 ! A122  A(56,29,58)           108.7389         estimate D2E/DX2                !
 ! A123  A(57,29,58)           107.9306         estimate D2E/DX2                !
 ! A124  A(2,32,59)            111.094          estimate D2E/DX2                !
 ! A125  A(2,32,60)            111.1031         estimate D2E/DX2                !
 ! A126  A(2,32,61)            112.1716         estimate D2E/DX2                !
 ! A127  A(59,32,60)           107.9101         estimate D2E/DX2                !
 ! A128  A(59,32,61)           107.7385         estimate D2E/DX2                !
 ! A129  A(60,32,61)           106.5982         estimate D2E/DX2                !
 ! A130  A(14,62,63)           110.4658         estimate D2E/DX2                !
 ! A131  A(14,62,64)           111.7664         estimate D2E/DX2                !
 ! A132  A(14,62,65)           111.5842         estimate D2E/DX2                !
 ! A133  A(63,62,64)           107.5223         estimate D2E/DX2                !
 ! A134  A(63,62,65)           107.7033         estimate D2E/DX2                !
 ! A135  A(64,62,65)           107.6065         estimate D2E/DX2                !
 ! D1    D(6,1,2,3)              0.3755         estimate D2E/DX2                !
 ! D2    D(6,1,2,32)          -176.2877         estimate D2E/DX2                !
 ! D3    D(33,1,2,3)           177.7738         estimate D2E/DX2                !
 ! D4    D(33,1,2,32)            1.1106         estimate D2E/DX2                !
 ! D5    D(2,1,6,5)            -30.7775         estimate D2E/DX2                !
 ! D6    D(2,1,6,34)            91.6479         estimate D2E/DX2                !
 ! D7    D(2,1,6,35)          -151.8082         estimate D2E/DX2                !
 ! D8    D(33,1,6,5)           151.7692         estimate D2E/DX2                !
 ! D9    D(33,1,6,34)          -85.8054         estimate D2E/DX2                !
 ! D10   D(33,1,6,35)           30.7385         estimate D2E/DX2                !
 ! D11   D(1,2,3,4)             13.2795         estimate D2E/DX2                !
 ! D12   D(1,2,3,20)           137.2903         estimate D2E/DX2                !
 ! D13   D(1,2,3,31)          -103.2691         estimate D2E/DX2                !
 ! D14   D(32,2,3,4)          -169.8969         estimate D2E/DX2                !
 ! D15   D(32,2,3,20)          -45.886          estimate D2E/DX2                !
 ! D16   D(32,2,3,31)           73.5546         estimate D2E/DX2                !
 ! D17   D(1,2,32,59)            0.9845         estimate D2E/DX2                !
 ! D18   D(1,2,32,60)          121.1286         estimate D2E/DX2                !
 ! D19   D(1,2,32,61)         -119.6678         estimate D2E/DX2                !
 ! D20   D(3,2,32,59)         -175.8182         estimate D2E/DX2                !
 ! D21   D(3,2,32,60)          -55.674          estimate D2E/DX2                !
 ! D22   D(3,2,32,61)           63.5295         estimate D2E/DX2                !
 ! D23   D(2,3,4,5)              4.2244         estimate D2E/DX2                !
 ! D24   D(2,3,4,7)            130.8673         estimate D2E/DX2                !
 ! D25   D(2,3,4,24)          -115.5396         estimate D2E/DX2                !
 ! D26   D(20,3,4,5)          -123.7227         estimate D2E/DX2                !
 ! D27   D(20,3,4,7)             2.9202         estimate D2E/DX2                !
 ! D28   D(20,3,4,24)          116.5132         estimate D2E/DX2                !
 ! D29   D(31,3,4,5)           122.7345         estimate D2E/DX2                !
 ! D30   D(31,3,4,7)          -110.6226         estimate D2E/DX2                !
 ! D31   D(31,3,4,24)            2.9705         estimate D2E/DX2                !
 ! D32   D(2,3,20,17)         -153.6371         estimate D2E/DX2                !
 ! D33   D(2,3,20,42)           83.0581         estimate D2E/DX2                !
 ! D34   D(2,3,20,43)          -35.4738         estimate D2E/DX2                !
 ! D35   D(4,3,20,17)          -24.7273         estimate D2E/DX2                !
 ! D36   D(4,3,20,42)         -148.0321         estimate D2E/DX2                !
 ! D37   D(4,3,20,43)           93.436          estimate D2E/DX2                !
 ! D38   D(31,3,20,17)          86.6784         estimate D2E/DX2                !
 ! D39   D(31,3,20,42)         -36.6264         estimate D2E/DX2                !
 ! D40   D(31,3,20,43)        -155.1583         estimate D2E/DX2                !
 ! D41   D(3,4,5,6)            -32.1331         estimate D2E/DX2                !
 ! D42   D(3,4,5,10)            92.8333         estimate D2E/DX2                !
 ! D43   D(3,4,5,22)          -149.5007         estimate D2E/DX2                !
 ! D44   D(7,4,5,6)           -154.7677         estimate D2E/DX2                !
 ! D45   D(7,4,5,10)           -29.8013         estimate D2E/DX2                !
 ! D46   D(7,4,5,22)            87.8647         estimate D2E/DX2                !
 ! D47   D(24,4,5,6)            88.9645         estimate D2E/DX2                !
 ! D48   D(24,4,5,10)         -146.0691         estimate D2E/DX2                !
 ! D49   D(24,4,5,22)          -28.4031         estimate D2E/DX2                !
 ! D50   D(3,4,7,8)            -88.1896         estimate D2E/DX2                !
 ! D51   D(3,4,7,17)            20.0612         estimate D2E/DX2                !
 ! D52   D(3,4,7,21)           149.8246         estimate D2E/DX2                !
 ! D53   D(5,4,7,8)             42.2016         estimate D2E/DX2                !
 ! D54   D(5,4,7,17)           150.4524         estimate D2E/DX2                !
 ! D55   D(5,4,7,21)           -79.7843         estimate D2E/DX2                !
 ! D56   D(24,4,7,8)           157.5038         estimate D2E/DX2                !
 ! D57   D(24,4,7,17)          -94.2454         estimate D2E/DX2                !
 ! D58   D(24,4,7,21)           35.518          estimate D2E/DX2                !
 ! D59   D(3,4,24,23)          137.3718         estimate D2E/DX2                !
 ! D60   D(5,4,24,23)            9.4059         estimate D2E/DX2                !
 ! D61   D(7,4,24,23)         -110.7147         estimate D2E/DX2                !
 ! D62   D(4,5,6,1)             44.101          estimate D2E/DX2                !
 ! D63   D(4,5,6,34)           -78.0682         estimate D2E/DX2                !
 ! D64   D(4,5,6,35)           167.0805         estimate D2E/DX2                !
 ! D65   D(10,5,6,1)           -85.429          estimate D2E/DX2                !
 ! D66   D(10,5,6,34)          152.4017         estimate D2E/DX2                !
 ! D67   D(10,5,6,35)           37.5505         estimate D2E/DX2                !
 ! D68   D(22,5,6,1)           156.1736         estimate D2E/DX2                !
 ! D69   D(22,5,6,34)           34.0043         estimate D2E/DX2                !
 ! D70   D(22,5,6,35)          -80.8469         estimate D2E/DX2                !
 ! D71   D(4,5,10,9)             5.3115         estimate D2E/DX2                !
 ! D72   D(4,5,10,16)         -173.0288         estimate D2E/DX2                !
 ! D73   D(6,5,10,9)           131.8158         estimate D2E/DX2                !
 ! D74   D(6,5,10,16)          -46.5245         estimate D2E/DX2                !
 ! D75   D(22,5,10,9)         -108.6324         estimate D2E/DX2                !
 ! D76   D(22,5,10,16)          73.0273         estimate D2E/DX2                !
 ! D77   D(4,5,22,23)           36.133          estimate D2E/DX2                !
 ! D78   D(4,5,22,45)          -81.2913         estimate D2E/DX2                !
 ! D79   D(4,5,22,46)          157.7361         estimate D2E/DX2                !
 ! D80   D(6,5,22,23)          -82.0554         estimate D2E/DX2                !
 ! D81   D(6,5,22,45)          160.5203         estimate D2E/DX2                !
 ! D82   D(6,5,22,46)           39.5477         estimate D2E/DX2                !
 ! D83   D(10,5,22,23)         159.6119         estimate D2E/DX2                !
 ! D84   D(10,5,22,45)          42.1876         estimate D2E/DX2                !
 ! D85   D(10,5,22,46)         -78.785          estimate D2E/DX2                !
 ! D86   D(4,7,8,9)            -33.855          estimate D2E/DX2                !
 ! D87   D(4,7,8,19)           146.3971         estimate D2E/DX2                !
 ! D88   D(17,7,8,9)          -147.9075         estimate D2E/DX2                !
 ! D89   D(17,7,8,19)           32.3446         estimate D2E/DX2                !
 ! D90   D(21,7,8,9)            90.9761         estimate D2E/DX2                !
 ! D91   D(21,7,8,19)          -88.7719         estimate D2E/DX2                !
 ! D92   D(4,7,17,18)         -155.1987         estimate D2E/DX2                !
 ! D93   D(4,7,17,20)          -34.8173         estimate D2E/DX2                !
 ! D94   D(4,7,17,30)           84.6823         estimate D2E/DX2                !
 ! D95   D(8,7,17,18)          -37.5231         estimate D2E/DX2                !
 ! D96   D(8,7,17,20)           82.8583         estimate D2E/DX2                !
 ! D97   D(8,7,17,30)         -157.6421         estimate D2E/DX2                !
 ! D98   D(21,7,17,18)          77.0244         estimate D2E/DX2                !
 ! D99   D(21,7,17,20)        -162.5942         estimate D2E/DX2                !
 ! D100  D(21,7,17,30)         -43.0946         estimate D2E/DX2                !
 ! D101  D(4,7,21,44)          -38.1815         estimate D2E/DX2                !
 ! D102  D(8,7,21,44)         -163.1377         estimate D2E/DX2                !
 ! D103  D(17,7,21,44)          87.3518         estimate D2E/DX2                !
 ! D104  D(7,8,9,10)             8.281          estimate D2E/DX2                !
 ! D105  D(7,8,9,11)          -178.523          estimate D2E/DX2                !
 ! D106  D(19,8,9,10)         -172.0062         estimate D2E/DX2                !
 ! D107  D(19,8,9,11)            1.1898         estimate D2E/DX2                !
 ! D108  D(7,8,19,18)          -13.2051         estimate D2E/DX2                !
 ! D109  D(9,8,19,18)          167.0458         estimate D2E/DX2                !
 ! D110  D(8,9,10,5)             6.7948         estimate D2E/DX2                !
 ! D111  D(8,9,10,16)         -174.9444         estimate D2E/DX2                !
 ! D112  D(11,9,10,5)         -166.3984         estimate D2E/DX2                !
 ! D113  D(11,9,10,16)          11.8624         estimate D2E/DX2                !
 ! D114  D(8,9,11,12)          -49.582          estimate D2E/DX2                !
 ! D115  D(8,9,11,13)          128.5227         estimate D2E/DX2                !
 ! D116  D(10,9,11,12)         123.4873         estimate D2E/DX2                !
 ! D117  D(10,9,11,13)         -58.408          estimate D2E/DX2                !
 ! D118  D(9,11,13,14)         -61.8341         estimate D2E/DX2                !
 ! D119  D(9,11,13,15)         171.5892         estimate D2E/DX2                !
 ! D120  D(9,11,13,36)          52.8966         estimate D2E/DX2                !
 ! D121  D(12,11,13,14)        116.2077         estimate D2E/DX2                !
 ! D122  D(12,11,13,15)        -10.3689         estimate D2E/DX2                !
 ! D123  D(12,11,13,36)       -129.0615         estimate D2E/DX2                !
 ! D124  D(11,13,14,37)         60.4796         estimate D2E/DX2                !
 ! D125  D(11,13,14,38)        175.0742         estimate D2E/DX2                !
 ! D126  D(11,13,14,62)        -62.4846         estimate D2E/DX2                !
 ! D127  D(15,13,14,37)       -174.1254         estimate D2E/DX2                !
 ! D128  D(15,13,14,38)        -59.5308         estimate D2E/DX2                !
 ! D129  D(15,13,14,62)         62.9104         estimate D2E/DX2                !
 ! D130  D(36,13,14,37)        -53.7362         estimate D2E/DX2                !
 ! D131  D(36,13,14,38)         60.8584         estimate D2E/DX2                !
 ! D132  D(36,13,14,62)       -176.7004         estimate D2E/DX2                !
 ! D133  D(11,13,15,39)        179.8972         estimate D2E/DX2                !
 ! D134  D(11,13,15,40)         59.0096         estimate D2E/DX2                !
 ! D135  D(11,13,15,41)        -60.3629         estimate D2E/DX2                !
 ! D136  D(14,13,15,39)         55.0647         estimate D2E/DX2                !
 ! D137  D(14,13,15,40)        -65.823          estimate D2E/DX2                !
 ! D138  D(14,13,15,41)        174.8046         estimate D2E/DX2                !
 ! D139  D(36,13,15,39)        -63.6635         estimate D2E/DX2                !
 ! D140  D(36,13,15,40)        175.4488         estimate D2E/DX2                !
 ! D141  D(36,13,15,41)         56.0764         estimate D2E/DX2                !
 ! D142  D(13,14,62,63)        179.0717         estimate D2E/DX2                !
 ! D143  D(13,14,62,64)        -61.2554         estimate D2E/DX2                !
 ! D144  D(13,14,62,65)         59.2902         estimate D2E/DX2                !
 ! D145  D(37,14,62,63)         56.3166         estimate D2E/DX2                !
 ! D146  D(37,14,62,64)        175.9895         estimate D2E/DX2                !
 ! D147  D(37,14,62,65)        -63.4649         estimate D2E/DX2                !
 ! D148  D(38,14,62,63)        -59.5848         estimate D2E/DX2                !
 ! D149  D(38,14,62,64)         60.0882         estimate D2E/DX2                !
 ! D150  D(38,14,62,65)       -179.3662         estimate D2E/DX2                !
 ! D151  D(7,17,18,19)          31.4284         estimate D2E/DX2                !
 ! D152  D(7,17,18,28)         -84.1907         estimate D2E/DX2                !
 ! D153  D(7,17,18,29)         146.1566         estimate D2E/DX2                !
 ! D154  D(20,17,18,19)        -78.1911         estimate D2E/DX2                !
 ! D155  D(20,17,18,28)        166.1898         estimate D2E/DX2                !
 ! D156  D(20,17,18,29)         36.5371         estimate D2E/DX2                !
 ! D157  D(30,17,18,19)        151.6489         estimate D2E/DX2                !
 ! D158  D(30,17,18,28)         36.0297         estimate D2E/DX2                !
 ! D159  D(30,17,18,29)        -93.6229         estimate D2E/DX2                !
 ! D160  D(7,17,20,3)           35.9597         estimate D2E/DX2                !
 ! D161  D(7,17,20,42)         158.9452         estimate D2E/DX2                !
 ! D162  D(7,17,20,43)         -81.7803         estimate D2E/DX2                !
 ! D163  D(18,17,20,3)         146.3891         estimate D2E/DX2                !
 ! D164  D(18,17,20,42)        -90.6254         estimate D2E/DX2                !
 ! D165  D(18,17,20,43)         28.649          estimate D2E/DX2                !
 ! D166  D(30,17,20,3)         -83.5285         estimate D2E/DX2                !
 ! D167  D(30,17,20,42)         39.457          estimate D2E/DX2                !
 ! D168  D(30,17,20,43)        158.7314         estimate D2E/DX2                !
 ! D169  D(17,18,19,8)         -12.0937         estimate D2E/DX2                !
 ! D170  D(28,18,19,8)         107.2346         estimate D2E/DX2                !
 ! D171  D(29,18,19,8)        -134.1042         estimate D2E/DX2                !
 ! D172  D(17,18,28,53)        169.3255         estimate D2E/DX2                !
 ! D173  D(17,18,28,54)        -71.8627         estimate D2E/DX2                !
 ! D174  D(17,18,28,55)         48.5716         estimate D2E/DX2                !
 ! D175  D(19,18,28,53)         57.1805         estimate D2E/DX2                !
 ! D176  D(19,18,28,54)        175.9923         estimate D2E/DX2                !
 ! D177  D(19,18,28,55)        -63.5735         estimate D2E/DX2                !
 ! D178  D(29,18,28,53)        -58.3395         estimate D2E/DX2                !
 ! D179  D(29,18,28,54)         60.4724         estimate D2E/DX2                !
 ! D180  D(29,18,28,55)       -179.0934         estimate D2E/DX2                !
 ! D181  D(17,18,29,56)         64.9166         estimate D2E/DX2                !
 ! D182  D(17,18,29,57)       -176.136          estimate D2E/DX2                !
 ! D183  D(17,18,29,58)        -56.1052         estimate D2E/DX2                !
 ! D184  D(19,18,29,56)        177.4707         estimate D2E/DX2                !
 ! D185  D(19,18,29,57)        -63.5819         estimate D2E/DX2                !
 ! D186  D(19,18,29,58)         56.449          estimate D2E/DX2                !
 ! D187  D(28,18,29,56)        -65.8123         estimate D2E/DX2                !
 ! D188  D(28,18,29,57)         53.1351         estimate D2E/DX2                !
 ! D189  D(28,18,29,58)        173.166          estimate D2E/DX2                !
 ! D190  D(5,22,23,24)         -31.4918         estimate D2E/DX2                !
 ! D191  D(5,22,23,25)        -154.8034         estimate D2E/DX2                !
 ! D192  D(5,22,23,47)          83.8435         estimate D2E/DX2                !
 ! D193  D(45,22,23,24)         86.2405         estimate D2E/DX2                !
 ! D194  D(45,22,23,25)        -37.0711         estimate D2E/DX2                !
 ! D195  D(45,22,23,47)       -158.4242         estimate D2E/DX2                !
 ! D196  D(46,22,23,24)       -151.9734         estimate D2E/DX2                !
 ! D197  D(46,22,23,25)         84.715          estimate D2E/DX2                !
 ! D198  D(46,22,23,47)        -36.6381         estimate D2E/DX2                !
 ! D199  D(22,23,24,4)          14.0789         estimate D2E/DX2                !
 ! D200  D(25,23,24,4)         139.9664         estimate D2E/DX2                !
 ! D201  D(47,23,24,4)        -102.3693         estimate D2E/DX2                !
 ! D202  D(22,23,25,26)        -54.4268         estimate D2E/DX2                !
 ! D203  D(22,23,25,27)        128.1814         estimate D2E/DX2                !
 ! D204  D(24,23,25,26)       -174.2533         estimate D2E/DX2                !
 ! D205  D(24,23,25,27)          8.3548         estimate D2E/DX2                !
 ! D206  D(47,23,25,26)         67.9271         estimate D2E/DX2                !
 ! D207  D(47,23,25,27)       -109.4647         estimate D2E/DX2                !
 ! D208  D(23,25,26,48)        -54.8619         estimate D2E/DX2                !
 ! D209  D(23,25,26,49)         64.0976         estimate D2E/DX2                !
 ! D210  D(23,25,26,50)       -175.0802         estimate D2E/DX2                !
 ! D211  D(27,25,26,48)        122.5211         estimate D2E/DX2                !
 ! D212  D(27,25,26,49)       -118.5194         estimate D2E/DX2                !
 ! D213  D(27,25,26,50)          2.3028         estimate D2E/DX2                !
 ! D214  D(23,25,27,51)        179.0579         estimate D2E/DX2                !
 ! D215  D(23,25,27,52)          0.7673         estimate D2E/DX2                !
 ! D216  D(26,25,27,51)          1.8595         estimate D2E/DX2                !
 ! D217  D(26,25,27,52)       -176.4311         estimate D2E/DX2                !
 --------------------------------------------------------------------------------
 Trust Radius=3.00D-01 FncErr=1.00D-07 GrdErr=1.00D-06
 Number of steps in this run=    390 maximum allowed number of steps=    390.
 GradGradGradGradGradGradGradGradGradGradGradGradGradGradGradGradGradGrad

 Stoichiometry    C26H34O5
 Framework group  C1[X(C26H34O5)]
 Deg. of freedom   189
 Full point group                 C1      NOp   1
 Largest Abelian subgroup         C1      NOp   1
 Largest concise Abelian subgroup C1      NOp   1
                         Standard orientation:                         
 ---------------------------------------------------------------------
 Center     Atomic      Atomic             Coordinates (Angstroms)
 Number     Number       Type             X           Y           Z
 ---------------------------------------------------------------------
      1          6           0        1.526340    0.601032    3.178431
      2          6           0        1.506260    1.752282    2.496765
      3          6           0        1.650987    1.775064    0.989010
      4          6           0        1.498619    0.397265    0.272003
      5          6           0        1.119907   -0.846786    1.114908
      6          6           0        1.697264   -0.753467    2.548251
      7          6           0        0.495399    0.668298   -0.877504
      8          6           0       -0.948094    0.489154   -0.453248
      9          6           0       -1.385739   -0.421007    0.453500
     10          6           0       -0.394006   -1.183531    1.220034
     11          6           0       -2.863438   -0.534351    0.778167
     12          8           0       -3.494949    0.472046    1.049184
     13          6           0       -3.510766   -1.913989    0.707618
     14          6           0       -3.421408   -2.475221   -0.738564
     15          6           0       -4.938873   -1.885851    1.260351
     16          8           0       -0.718608   -2.085404    1.989267
     17          6           0        0.474956    2.187983   -1.150052
     18          6           0       -0.923559    2.403508   -1.777841
     19          8           0       -1.734857    1.352315   -1.103070
     20          6           0        0.676093    2.754263    0.270804
     21          8           0        0.715771   -0.164497   -2.001066
     22          6           0        1.820504   -1.984509    0.328224
     23          6           0        3.116124   -1.313325   -0.153167
     24          8           0        2.770360    0.070660   -0.344538
     25          6           0        3.736291   -1.907995   -1.399951
     26          6           0        4.006341   -3.391217   -1.336557
     27          6           0        4.069269   -1.160497   -2.457489
     28          6           0       -0.953730    2.126181   -3.282574
     29          6           0       -1.607299    3.730464   -1.457931
     30          1           0        1.276974    2.492637   -1.829572
     31          1           0        2.675599    2.095245    0.751927
     32          6           0        1.413761    3.087814    3.192317
     33          1           0        1.455966    0.629504    4.264950
     34          1           0        2.767510   -1.009003    2.530769
     35          1           0        1.209434   -1.527090    3.148055
     36          1           0       -2.889995   -2.565697    1.334010
     37          1           0       -2.364457   -2.560856   -1.020455
     38          1           0       -3.817004   -3.499279   -0.721119
     39          1           0       -5.388172   -2.884089    1.199988
     40          1           0       -5.573761   -1.184378    0.712034
     41          1           0       -4.942993   -1.571365    2.308675
     42          1           0        1.052834    3.780973    0.265506
     43          1           0       -0.280199    2.764466    0.804354
     44          1           0        1.686604   -0.241738   -2.079499
     45          1           0        1.212919   -2.288687   -0.530007
     46          1           0        1.996767   -2.860152    0.958369
     47          1           0        3.872043   -1.362568    0.647997
     48          1           0        4.624469   -3.643363   -0.463913
     49          1           0        3.078003   -3.968718   -1.242289
     50          1           0        4.531152   -3.735531   -2.232064
     51          1           0        4.527395   -1.604255   -3.337300
     52          1           0        3.921151   -0.085511   -2.467174
     53          1           0       -1.989981    2.107631   -3.635456
     54          1           0       -0.424810    2.922379   -3.819140
     55          1           0       -0.480106    1.170758   -3.514799
     56          1           0       -1.033566    4.558464   -1.889236
     57          1           0       -2.611154    3.746959   -1.893374
     58          1           0       -1.704582    3.893754   -0.382451
     59          1           0        1.386271    2.964683    4.279293
     60          1           0        2.276557    3.723193    2.945715
     61          1           0        0.517360    3.647690    2.896441
     62          6           0       -4.162934   -1.655875   -1.802459
     63          1           0       -4.036333   -2.109178   -2.792406
     64          1           0       -5.237975   -1.603677   -1.598659
     65          1           0       -3.785285   -0.628253   -1.855652
 ---------------------------------------------------------------------
 Rotational constants (GHZ):      0.1877112      0.1327774      0.1236320
 Standard basis: 6-311+G(d) (5D, 7F)
 There are   784 symmetry adapted basis functions of A   symmetry.
 Integral buffers will be    131072 words long.
 Raffenetti 2 integral format.
 Two-electron integral symmetry is turned on.
   784 basis functions,  1286 primitive gaussians,   815 cartesian basis functions
   115 alpha electrons      115 beta electrons
       nuclear repulsion energy      3529.1835021890 Hartrees.
 NAtoms=   65 NActive=   65 NUniq=   65 SFac= 1.00D+00 NAtFMM=   50 NAOKFM=T Big=T
 One-electron integrals computed using PRISM.
 NBasis=   784 RedAO= T  NBF=   784
 NBsUse=   777 1.00D-06 NBFU=   777
 Harris functional with IExCor=  402 diagonalized for initial guess.
 ExpMin= 4.38D-02 ExpMax= 8.59D+03 ExpMxC= 1.30D+03 IAcc=2 IRadAn=         0 AccDes= 0.00D+00
 HarFok:  IExCor=  402 AccDes= 0.00D+00 IRadAn=         0 IDoV= 1
 ScaDFX=  1.000000  1.000000  1.000000  1.000000
 FoFCou: FMM=F IPFlag=           0 FMFlag=      100000 FMFlg1=        2001
         NFxFlg=           0 DoJE=T BraDBF=F KetDBF=T FulRan=T
         Omega=  0.000000  0.000000  1.000000  0.000000  0.000000 ICntrl=     500 IOpCl=  0
         NMat0=    1 NMatS0=    1 NMatT0=    0 NMatD0=    1 NMtDS0=    0 NMtDT0=    0
         I1Cent=           4 NGrid=           0.
 Petite list used in FoFCou.
 Initial guess orbital symmetries:
       Occupied  (A) (A) (A) (A) (A) (A) (A) (A) (A) (A) (A) (A)
                 (A) (A) (A) (A) (A) (A) (A) (A) (A) (A) (A) (A)
                 (A) (A) (A) (A) (A) (A) (A) (A) (A) (A) (A) (A)
                 (A) (A) (A) (A) (A) (A) (A) (A) (A) (A) (A) (A)
                 (A) (A) (A) (A) (A) (A) (A) (A) (A) (A) (A) (A)
                 (A) (A) (A) (A) (A) (A) (A) (A) (A) (A) (A) (A)
                 (A) (A) (A) (A) (A) (A) (A) (A) (A) (A) (A) (A)
                 (A) (A) (A) (A) (A) (A) (A) (A) (A) (A) (A) (A)
                 (A) (A) (A) (A) (A) (A) (A) (A) (A) (A) (A) (A)
                 (A) (A) (A) (A) (A) (A) (A)
       Virtual   (A) (A) (A) (A) (A) (A) (A) (A) (A) (A) (A) (A)
                 (A) (A) (A) (A) (A) (A) (A) (A) (A) (A) (A) (A)
                 (A) (A) (A) (A) (A) (A) (A) (A) (A) (A) (A) (A)
                 (A) (A) (A) (A) (A) (A) (A) (A) (A) (A) (A) (A)
                 (A) (A) (A) (A) (A) (A) (A) (A) (A) (A) (A) (A)
                 (A) (A) (A) (A) (A) (A) (A) (A) (A) (A) (A) (A)
                 (A) (A) (A) (A) (A) (A) (A) (A) (A) (A) (A) (A)
                 (A) (A) (A) (A) (A) (A) (A) (A) (A) (A) (A) (A)
                 (A) (A) (A) (A) (A) (A) (A) (A) (A) (A) (A) (A)
                 (A) (A) (A) (A) (A) (A) (A) (A) (A) (A) (A) (A)
                 (A) (A) (A) (A) (A) (A) (A) (A) (A) (A) (A) (A)
                 (A) (A) (A) (A) (A) (A) (A) (A) (A) (A) (A) (A)
                 (A) (A) (A) (A) (A) (A) (A) (A) (A) (A) (A) (A)
                 (A) (A) (A) (A) (A) (A) (A) (A) (A) (A) (A) (A)
                 (A) (A) (A) (A) (A) (A) (A) (A) (A) (A) (A) (A)
                 (A) (A) (A) (A) (A) (A) (A) (A) (A) (A) (A) (A)
                 (A) (A) (A) (A) (A) (A) (A) (A) (A) (A) (A) (A)
                 (A) (A) (A) (A) (A) (A) (A) (A) (A) (A) (A) (A)
                 (A) (A) (A) (A) (A) (A) (A) (A) (A) (A) (A) (A)
                 (A) (A) (A) (A) (A) (A) (A) (A) (A) (A) (A) (A)
                 (A) (A) (A) (A) (A) (A) (A) (A) (A) (A) (A) (A)
                 (A) (A) (A) (A) (A) (A) (A) (A) (A) (A) (A) (A)
                 (A) (A) (A) (A) (A) (A) (A) (A) (A) (A) (A) (A)
                 (A) (A) (A) (A) (A) (A) (A) (A) (A) (A) (A) (A)
                 (A) (A) (A) (A) (A) (A) (A) (A) (A) (A) (A) (A)
                 (A) (A) (A) (A) (A) (A) (A) (A) (A) (A) (A) (A)
                 (A) (A) (A) (A) (A) (A) (A) (A) (A) (A) (A) (A)
                 (A) (A) (A) (A) (A) (A) (A) (A) (A) (A) (A) (A)
                 (A) (A) (A) (A) (A) (A) (A) (A) (A) (A) (A) (A)
                 (A) (A) (A) (A) (A) (A) (A) (A) (A) (A) (A) (A)
                 (A) (A) (A) (A) (A) (A) (A) (A) (A) (A) (A) (A)
                 (A) (A) (A) (A) (A) (A) (A) (A) (A) (A) (A) (A)
                 (A) (A) (A) (A) (A) (A) (A) (A) (A) (A) (A) (A)
                 (A) (A) (A) (A) (A) (A) (A) (A) (A) (A) (A) (A)
                 (A) (A) (A) (A) (A) (A) (A) (A) (A) (A) (A) (A)
                 (A) (A) (A) (A) (A) (A) (A) (A) (A) (A) (A) (A)
                 (A) (A) (A) (A) (A) (A) (A) (A) (A) (A) (A) (A)
                 (A) (A) (A) (A) (A) (A) (A) (A) (A) (A) (A) (A)
                 (A) (A) (A) (A) (A) (A) (A) (A) (A) (A) (A) (A)
                 (A) (A) (A) (A) (A) (A) (A) (A) (A) (A) (A) (A)
                 (A) (A) (A) (A) (A) (A) (A) (A) (A) (A) (A) (A)
                 (A) (A) (A) (A) (A) (A) (A) (A) (A) (A) (A) (A)
                 (A) (A) (A) (A) (A) (A) (A) (A) (A) (A) (A) (A)
                 (A) (A) (A) (A) (A) (A) (A) (A) (A) (A) (A) (A)
                 (A) (A) (A) (A) (A) (A) (A) (A) (A) (A) (A) (A)
                 (A) (A) (A) (A) (A) (A) (A) (A) (A) (A) (A) (A)
                 (A) (A) (A) (A) (A) (A) (A) (A) (A) (A) (A) (A)
                 (A) (A) (A) (A) (A) (A) (A) (A) (A) (A) (A) (A)
                 (A) (A) (A) (A) (A) (A) (A) (A) (A) (A) (A) (A)
                 (A) (A) (A) (A) (A) (A) (A) (A) (A) (A) (A) (A)
                 (A) (A) (A) (A) (A) (A) (A) (A) (A) (A) (A) (A)
                 (A) (A) (A) (A) (A) (A) (A) (A) (A) (A) (A) (A)
                 (A) (A) (A) (A) (A) (A) (A) (A) (A) (A) (A) (A)
                 (A) (A) (A) (A) (A) (A) (A) (A) (A) (A) (A) (A)
                 (A) (A) (A) (A) (A) (A) (A) (A) (A) (A) (A) (A)
                 (A) (A)
 The electronic state of the initial guess is 1-A.
 Requested convergence on RMS density matrix=1.00D-08 within 128 cycles.
 Requested convergence on MAX density matrix=1.00D-06.
 Requested convergence on             energy=1.00D-06.
 No special actions if energy rises.
 SCF Done:  E(RB3LYP) =  -1387.64995954     A.U. after   17 cycles
             Convg  =    0.4149D-08             -V/T =  2.0043

 **********************************************************************

            Population analysis using the SCF density.

 **********************************************************************

 Orbital symmetries:
       Occupied  (A) (A) (A) (A) (A) (A) (A) (A) (A) (A) (A) (A)
                 (A) (A) (A) (A) (A) (A) (A) (A) (A) (A) (A) (A)
                 (A) (A) (A) (A) (A) (A) (A) (A) (A) (A) (A) (A)
                 (A) (A) (A) (A) (A) (A) (A) (A) (A) (A) (A) (A)
                 (A) (A) (A) (A) (A) (A) (A) (A) (A) (A) (A) (A)
                 (A) (A) (A) (A) (A) (A) (A) (A) (A) (A) (A) (A)
                 (A) (A) (A) (A) (A) (A) (A) (A) (A) (A) (A) (A)
                 (A) (A) (A) (A) (A) (A) (A) (A) (A) (A) (A) (A)
                 (A) (A) (A) (A) (A) (A) (A) (A) (A) (A) (A) (A)
                 (A) (A) (A) (A) (A) (A) (A)
       Virtual   (A) (A) (A) (A) (A) (A) (A) (A) (A) (A) (A) (A)
                 (A) (A) (A) (A) (A) (A) (A) (A) (A) (A) (A) (A)
                 (A) (A) (A) (A) (A) (A) (A) (A) (A) (A) (A) (A)
                 (A) (A) (A) (A) (A) (A) (A) (A) (A) (A) (A) (A)
                 (A) (A) (A) (A) (A) (A) (A) (A) (A) (A) (A) (A)
                 (A) (A) (A) (A) (A) (A) (A) (A) (A) (A) (A) (A)
                 (A) (A) (A) (A) (A) (A) (A) (A) (A) (A) (A) (A)
                 (A) (A) (A) (A) (A) (A) (A) (A) (A) (A) (A) (A)
                 (A) (A) (A) (A) (A) (A) (A) (A) (A) (A) (A) (A)
                 (A) (A) (A) (A) (A) (A) (A) (A) (A) (A) (A) (A)
                 (A) (A) (A) (A) (A) (A) (A) (A) (A) (A) (A) (A)
                 (A) (A) (A) (A) (A) (A) (A) (A) (A) (A) (A) (A)
                 (A) (A) (A) (A) (A) (A) (A) (A) (A) (A) (A) (A)
                 (A) (A) (A) (A) (A) (A) (A) (A) (A) (A) (A) (A)
                 (A) (A) (A) (A) (A) (A) (A) (A) (A) (A) (A) (A)
                 (A) (A) (A) (A) (A) (A) (A) (A) (A) (A) (A) (A)
                 (A) (A) (A) (A) (A) (A) (A) (A) (A) (A) (A) (A)
                 (A) (A) (A) (A) (A) (A) (A) (A) (A) (A) (A) (A)
                 (A) (A) (A) (A) (A) (A) (A) (A) (A) (A) (A) (A)
                 (A) (A) (A) (A) (A) (A) (A) (A) (A) (A) (A) (A)
                 (A) (A) (A) (A) (A) (A) (A) (A) (A) (A) (A) (A)
                 (A) (A) (A) (A) (A) (A) (A) (A) (A) (A) (A) (A)
                 (A) (A) (A) (A) (A) (A) (A) (A) (A) (A) (A) (A)
                 (A) (A) (A) (A) (A) (A) (A) (A) (A) (A) (A) (A)
                 (A) (A) (A) (A) (A) (A) (A) (A) (A) (A) (A) (A)
                 (A) (A) (A) (A) (A) (A) (A) (A) (A) (A) (A) (A)
                 (A) (A) (A) (A) (A) (A) (A) (A) (A) (A) (A) (A)
                 (A) (A) (A) (A) (A) (A) (A) (A) (A) (A) (A) (A)
                 (A) (A) (A) (A) (A) (A) (A) (A) (A) (A) (A) (A)
                 (A) (A) (A) (A) (A) (A) (A) (A) (A) (A) (A) (A)
                 (A) (A) (A) (A) (A) (A) (A) (A) (A) (A) (A) (A)
                 (A) (A) (A) (A) (A) (A) (A) (A) (A) (A) (A) (A)
                 (A) (A) (A) (A) (A) (A) (A) (A) (A) (A) (A) (A)
                 (A) (A) (A) (A) (A) (A) (A) (A) (A) (A) (A) (A)
                 (A) (A) (A) (A) (A) (A) (A) (A) (A) (A) (A) (A)
                 (A) (A) (A) (A) (A) (A) (A) (A) (A) (A) (A) (A)
                 (A) (A) (A) (A) (A) (A) (A) (A) (A) (A) (A) (A)
                 (A) (A) (A) (A) (A) (A) (A) (A) (A) (A) (A) (A)
                 (A) (A) (A) (A) (A) (A) (A) (A) (A) (A) (A) (A)
                 (A) (A) (A) (A) (A) (A) (A) (A) (A) (A) (A) (A)
                 (A) (A) (A) (A) (A) (A) (A) (A) (A) (A) (A) (A)
                 (A) (A) (A) (A) (A) (A) (A) (A) (A) (A) (A) (A)
                 (A) (A) (A) (A) (A) (A) (A) (A) (A) (A) (A) (A)
                 (A) (A) (A) (A) (A) (A) (A) (A) (A) (A) (A) (A)
                 (A) (A) (A) (A) (A) (A) (A) (A) (A) (A) (A) (A)
                 (A) (A) (A) (A) (A) (A) (A) (A) (A) (A) (A) (A)
                 (A) (A) (A) (A) (A) (A) (A) (A) (A) (A) (A) (A)
                 (A) (A) (A) (A) (A) (A) (A) (A) (A) (A) (A) (A)
                 (A) (A) (A) (A) (A) (A) (A) (A) (A) (A) (A) (A)
                 (A) (A) (A) (A) (A) (A) (A) (A) (A) (A) (A) (A)
                 (A) (A) (A) (A) (A) (A) (A) (A) (A) (A) (A) (A)
                 (A) (A) (A) (A) (A) (A) (A) (A) (A) (A) (A) (A)
                 (A) (A) (A) (A) (A) (A) (A) (A) (A) (A) (A) (A)
                 (A) (A) (A) (A) (A) (A) (A) (A) (A) (A) (A) (A)
                 (A) (A) (A) (A) (A) (A) (A) (A) (A) (A) (A) (A)
                 (A) (A)
 The electronic state is 1-A.
 Alpha  occ. eigenvalues --  -19.17614 -19.14780 -19.14057 -19.10746 -19.10648
 Alpha  occ. eigenvalues --  -10.26730 -10.26708 -10.25811 -10.25682 -10.25387
 Alpha  occ. eigenvalues --  -10.25300 -10.24521 -10.20850 -10.20027 -10.19878
 Alpha  occ. eigenvalues --  -10.19536 -10.18878 -10.18786 -10.18626 -10.18484
 Alpha  occ. eigenvalues --  -10.18167 -10.17866 -10.17530 -10.17302 -10.17211
 Alpha  occ. eigenvalues --  -10.17071 -10.16915 -10.16752 -10.16510 -10.14990
 Alpha  occ. eigenvalues --  -10.14497  -1.10259  -1.07230  -1.04308  -1.03891
 Alpha  occ. eigenvalues --   -1.03594  -0.87730  -0.84566  -0.83363  -0.82379
 Alpha  occ. eigenvalues --   -0.81136  -0.80200  -0.77541  -0.75166  -0.74077
 Alpha  occ. eigenvalues --   -0.72518  -0.71951  -0.70566  -0.70393  -0.68812
 Alpha  occ. eigenvalues --   -0.66385  -0.65080  -0.64129  -0.62449  -0.61552
 Alpha  occ. eigenvalues --   -0.60365  -0.59588  -0.57931  -0.55601  -0.54863
 Alpha  occ. eigenvalues --   -0.53765  -0.53117  -0.51808  -0.51210  -0.50169
 Alpha  occ. eigenvalues --   -0.48840  -0.48084  -0.47594  -0.47251  -0.46754
 Alpha  occ. eigenvalues --   -0.45966  -0.45754  -0.45310  -0.44801  -0.44234
 Alpha  occ. eigenvalues --   -0.44073  -0.43922  -0.43057  -0.42596  -0.42149
 Alpha  occ. eigenvalues --   -0.41703  -0.41695  -0.41356  -0.40824  -0.40094
 Alpha  occ. eigenvalues --   -0.39888  -0.39624  -0.39071  -0.38714  -0.38541
 Alpha  occ. eigenvalues --   -0.38225  -0.38135  -0.37976  -0.37853  -0.37552
 Alpha  occ. eigenvalues --   -0.37105  -0.36607  -0.36337  -0.35777  -0.35552
 Alpha  occ. eigenvalues --   -0.34937  -0.34521  -0.34264  -0.33750  -0.33051
 Alpha  occ. eigenvalues --   -0.32338  -0.32177  -0.31865  -0.29581  -0.27781
 Alpha  occ. eigenvalues --   -0.27007  -0.25896  -0.25301  -0.24491  -0.24055
 Alpha virt. eigenvalues --   -0.06137  -0.02656  -0.01687  -0.01053  -0.00233
 Alpha virt. eigenvalues --    0.00267   0.00605   0.01149   0.01529   0.01761
 Alpha virt. eigenvalues --    0.02078   0.02551   0.02934   0.03337   0.03657
 Alpha virt. eigenvalues --    0.03797   0.04037   0.04473   0.04638   0.04880
 Alpha virt. eigenvalues --    0.05159   0.05424   0.05730   0.06322   0.06429
 Alpha virt. eigenvalues --    0.06652   0.07016   0.07130   0.07294   0.07476
 Alpha virt. eigenvalues --    0.07526   0.08002   0.08379   0.08655   0.08859
 Alpha virt. eigenvalues --    0.09059   0.09118   0.09462   0.09778   0.09931
 Alpha virt. eigenvalues --    0.09989   0.10299   0.10664   0.10854   0.11225
 Alpha virt. eigenvalues --    0.11345   0.11567   0.11975   0.12063   0.12413
 Alpha virt. eigenvalues --    0.12774   0.12913   0.12989   0.13042   0.13406
 Alpha virt. eigenvalues --    0.13856   0.14107   0.14321   0.14754   0.14995
 Alpha virt. eigenvalues --    0.15213   0.15439   0.15579   0.15731   0.15957
 Alpha virt. eigenvalues --    0.16277   0.16370   0.16666   0.17050   0.17267
 Alpha virt. eigenvalues --    0.17478   0.17765   0.17926   0.18050   0.18188
 Alpha virt. eigenvalues --    0.18370   0.18634   0.18771   0.18992   0.19110
 Alpha virt. eigenvalues --    0.19269   0.19605   0.19634   0.19904   0.20013
 Alpha virt. eigenvalues --    0.20234   0.20399   0.20726   0.20926   0.21091
 Alpha virt. eigenvalues --    0.21278   0.21475   0.21683   0.21884   0.22137
 Alpha virt. eigenvalues --    0.22306   0.22359   0.22711   0.22921   0.23061
 Alpha virt. eigenvalues --    0.23143   0.23323   0.23726   0.23892   0.23986
 Alpha virt. eigenvalues --    0.24185   0.24293   0.24606   0.24772   0.24940
 Alpha virt. eigenvalues --    0.25021   0.25318   0.25354   0.25625   0.25921
 Alpha virt. eigenvalues --    0.26034   0.26164   0.26433   0.26565   0.26664
 Alpha virt. eigenvalues --    0.27165   0.27400   0.27779   0.28220   0.28322
 Alpha virt. eigenvalues --    0.28516   0.28838   0.28843   0.29438   0.29604
 Alpha virt. eigenvalues --    0.29922   0.30225   0.30335   0.30656   0.30879
 Alpha virt. eigenvalues --    0.31097   0.31372   0.31509   0.31809   0.32240
 Alpha virt. eigenvalues --    0.32371   0.32674   0.33296   0.33461   0.33761
 Alpha virt. eigenvalues --    0.33986   0.34508   0.34803   0.35143   0.35516
 Alpha virt. eigenvalues --    0.35636   0.35893   0.36560   0.36729   0.37007
 Alpha virt. eigenvalues --    0.37630   0.37832   0.38223   0.38267   0.38617
 Alpha virt. eigenvalues --    0.39114   0.39428   0.39601   0.40384   0.40516
 Alpha virt. eigenvalues --    0.41020   0.41241   0.41342   0.41697   0.42055
 Alpha virt. eigenvalues --    0.42660   0.43132   0.43379   0.43659   0.44264
 Alpha virt. eigenvalues --    0.44378   0.44588   0.45126   0.45386   0.45703
 Alpha virt. eigenvalues --    0.46312   0.46582   0.46727   0.47317   0.47534
 Alpha virt. eigenvalues --    0.47721   0.48187   0.48337   0.48894   0.49046
 Alpha virt. eigenvalues --    0.49788   0.50356   0.51132   0.51251   0.51906
 Alpha virt. eigenvalues --    0.52300   0.52424   0.52925   0.53735   0.53856
 Alpha virt. eigenvalues --    0.54354   0.54857   0.55078   0.55617   0.56247
 Alpha virt. eigenvalues --    0.56839   0.57091   0.57140   0.57502   0.58048
 Alpha virt. eigenvalues --    0.58357   0.58470   0.59006   0.59615   0.60166
 Alpha virt. eigenvalues --    0.60417   0.60884   0.61692   0.62039   0.62688
 Alpha virt. eigenvalues --    0.62881   0.63532   0.63732   0.64271   0.64551
 Alpha virt. eigenvalues --    0.64931   0.65181   0.65397   0.65680   0.66014
 Alpha virt. eigenvalues --    0.66181   0.66744   0.67041   0.67249   0.67726
 Alpha virt. eigenvalues --    0.67913   0.68052   0.68170   0.68384   0.68695
 Alpha virt. eigenvalues --    0.68989   0.69612   0.69859   0.70200   0.70411
 Alpha virt. eigenvalues --    0.70531   0.70786   0.71213   0.71682   0.71828
 Alpha virt. eigenvalues --    0.72483   0.72673   0.72907   0.73183   0.73311
 Alpha virt. eigenvalues --    0.73715   0.74396   0.74748   0.74849   0.74974
 Alpha virt. eigenvalues --    0.75391   0.75527   0.76254   0.76639   0.77234
 Alpha virt. eigenvalues --    0.77682   0.78138   0.78378   0.78875   0.79019
 Alpha virt. eigenvalues --    0.79496   0.79882   0.80214   0.80643   0.80942
 Alpha virt. eigenvalues --    0.81394   0.81497   0.81706   0.82025   0.82725
 Alpha virt. eigenvalues --    0.83464   0.84113   0.84657   0.85228   0.85688
 Alpha virt. eigenvalues --    0.85787   0.86634   0.87387   0.87806   0.88537
 Alpha virt. eigenvalues --    0.89364   0.89854   0.90122   0.92009   0.92350
 Alpha virt. eigenvalues --    0.93466   0.94713   0.95155   0.95947   0.97192
 Alpha virt. eigenvalues --    0.98521   0.98852   0.99810   1.00531   1.01109
 Alpha virt. eigenvalues --    1.01942   1.02713   1.04223   1.04907   1.05167
 Alpha virt. eigenvalues --    1.06958   1.07365   1.08569   1.09895   1.10613
 Alpha virt. eigenvalues --    1.11789   1.12200   1.12831   1.13512   1.15442
 Alpha virt. eigenvalues --    1.15687   1.16359   1.17569   1.17915   1.19431
 Alpha virt. eigenvalues --    1.20474   1.21341   1.21528   1.23298   1.23926
 Alpha virt. eigenvalues --    1.24697   1.25158   1.25680   1.26566   1.27504
 Alpha virt. eigenvalues --    1.29022   1.29586   1.30631   1.31910   1.32437
 Alpha virt. eigenvalues --    1.33309   1.33866   1.34487   1.34989   1.35357
 Alpha virt. eigenvalues --    1.37102   1.37813   1.37966   1.38515   1.39641
 Alpha virt. eigenvalues --    1.39964   1.41257   1.42187   1.43676   1.43993
 Alpha virt. eigenvalues --    1.44486   1.46353   1.46877   1.48030   1.49105
 Alpha virt. eigenvalues --    1.49395   1.50215   1.50831   1.51605   1.52400
 Alpha virt. eigenvalues --    1.53291   1.53743   1.54505   1.55042   1.55764
 Alpha virt. eigenvalues --    1.56765   1.56902   1.57493   1.57743   1.57921
 Alpha virt. eigenvalues --    1.58544   1.59164   1.60112   1.60676   1.60894
 Alpha virt. eigenvalues --    1.61103   1.61561   1.62330   1.62735   1.62902
 Alpha virt. eigenvalues --    1.63431   1.63626   1.64008   1.65172   1.65571
 Alpha virt. eigenvalues --    1.66295   1.66555   1.66624   1.66773   1.67370
 Alpha virt. eigenvalues --    1.68274   1.68537   1.69196   1.69698   1.70223
 Alpha virt. eigenvalues --    1.71132   1.71357   1.71721   1.72550   1.73172
 Alpha virt. eigenvalues --    1.73458   1.74084   1.74785   1.75614   1.76871
 Alpha virt. eigenvalues --    1.77618   1.77819   1.78463   1.78779   1.80001
 Alpha virt. eigenvalues --    1.80959   1.81637   1.83113   1.83195   1.84109
 Alpha virt. eigenvalues --    1.85304   1.85709   1.86448   1.86915   1.87456
 Alpha virt. eigenvalues --    1.88520   1.89147   1.90832   1.91335   1.91570
 Alpha virt. eigenvalues --    1.92284   1.93220   1.94739   1.95389   1.96604
 Alpha virt. eigenvalues --    1.97669   1.98047   1.99113   2.01294   2.02510
 Alpha virt. eigenvalues --    2.02941   2.03564   2.05221   2.06212   2.06455
 Alpha virt. eigenvalues --    2.07024   2.07697   2.08099   2.09187   2.10193
 Alpha virt. eigenvalues --    2.11130   2.13237   2.13595   2.15128   2.15982
 Alpha virt. eigenvalues --    2.17483   2.18424   2.21128   2.21173   2.22138
 Alpha virt. eigenvalues --    2.22343   2.23418   2.24822   2.26155   2.27235
 Alpha virt. eigenvalues --    2.28315   2.29241   2.31273   2.32092   2.33350
 Alpha virt. eigenvalues --    2.34889   2.36603   2.38999   2.39635   2.44013
 Alpha virt. eigenvalues --    2.44245   2.47755   2.49034   2.49818   2.51465
 Alpha virt. eigenvalues --    2.52519   2.52895   2.53593   2.54616   2.55035
 Alpha virt. eigenvalues --    2.55485   2.55748   2.56175   2.57005   2.57406
 Alpha virt. eigenvalues --    2.58481   2.59411   2.59869   2.60734   2.60892
 Alpha virt. eigenvalues --    2.62108   2.63317   2.63483   2.65553   2.66631
 Alpha virt. eigenvalues --    2.67132   2.69101   2.69506   2.69888   2.71029
 Alpha virt. eigenvalues --    2.71482   2.72349   2.73674   2.74158   2.74816
 Alpha virt. eigenvalues --    2.75768   2.77215   2.79428   2.84229   2.84577
 Alpha virt. eigenvalues --    2.86125   2.87354   2.88441   2.89823   2.90159
 Alpha virt. eigenvalues --    2.91195   2.91812   2.93652   2.94782   2.94983
 Alpha virt. eigenvalues --    2.96830   2.97125   2.98483   2.99087   2.99683
 Alpha virt. eigenvalues --    3.00505   3.01299   3.02687   3.04237   3.04540
 Alpha virt. eigenvalues --    3.05939   3.06157   3.07113   3.07922   3.09364
 Alpha virt. eigenvalues --    3.09653   3.11521   3.11972   3.12819   3.14072
 Alpha virt. eigenvalues --    3.15187   3.16206   3.16565   3.17071   3.17999
 Alpha virt. eigenvalues --    3.18665   3.18997   3.20200   3.21069   3.22203
 Alpha virt. eigenvalues --    3.22815   3.24157   3.25222   3.25641   3.26186
 Alpha virt. eigenvalues --    3.26539   3.27531   3.28234   3.28329   3.29997
 Alpha virt. eigenvalues --    3.30242   3.31165   3.31986   3.32584   3.34262
 Alpha virt. eigenvalues --    3.35547   3.36410   3.37545   3.38029   3.39318
 Alpha virt. eigenvalues --    3.39827   3.40509   3.41606   3.42599   3.43939
 Alpha virt. eigenvalues --    3.46607   3.47424   3.50707   3.51171   3.53663
 Alpha virt. eigenvalues --    3.55139   3.59301   3.61926   3.65933   3.73860
 Alpha virt. eigenvalues --    3.76583   3.78738   3.80754   3.88032   3.88598
 Alpha virt. eigenvalues --    3.89184   3.96740   3.98479   4.01159   4.02853
 Alpha virt. eigenvalues --    4.05699   4.07464   4.10186   4.11121   4.12461
 Alpha virt. eigenvalues --    4.16285   4.17903   4.19901   4.21771   4.22620
 Alpha virt. eigenvalues --    4.23737   4.25294   4.29762   4.32778   4.44622
 Alpha virt. eigenvalues --    4.60948   5.13347   5.17386   5.17963   5.22271
 Alpha virt. eigenvalues --    5.23677   5.28105   5.31859   5.33062   5.43021
 Alpha virt. eigenvalues --    5.43737   5.57890   5.67908   5.74305   5.78928
 Alpha virt. eigenvalues --    5.83920  23.46376  23.47833  23.51437  23.52649
 Alpha virt. eigenvalues --   23.62142  23.65612  23.66201  23.66852  23.68896
 Alpha virt. eigenvalues --   23.70234  23.72862  23.73816  23.76749  23.79146
 Alpha virt. eigenvalues --   23.79270  23.80212  23.82165  23.84100  23.86499
 Alpha virt. eigenvalues --   23.87164  23.89179  23.90150  23.96050  24.16505
 Alpha virt. eigenvalues --   24.18948  24.22099  49.99363  50.00650  50.02027
 Alpha virt. eigenvalues --   50.03332  50.07069
          Condensed to atoms (all electrons):
 Mulliken atomic charges:
              1
     1  C   -0.231279
     2  C    0.718405
     3  C   -0.155337
     4  C   -0.356375
     5  C    0.834711
     6  C   -0.685718
     7  C   -1.182045
     8  C    0.349329
     9  C    0.657053
    10  C   -0.882174
    11  C   -0.216806
    12  O   -0.162197
    13  C    0.404629
    14  C   -0.393524
    15  C   -0.932722
    16  O   -0.198716
    17  C   -0.222616
    18  C    0.610580
    19  O    0.159877
    20  C   -1.117464
    21  O    0.014821
    22  C   -0.829426
    23  C   -0.425878
    24  O   -0.055600
    25  C    1.032662
    26  C   -1.132762
    27  C   -0.773186
    28  C   -0.850902
    29  C   -0.696790
    30  H    0.235235
    31  H    0.276647
    32  C   -1.040039
    33  H    0.202051
    34  H    0.243464
    35  H    0.281709
    36  H    0.285011
    37  H    0.242920
    38  H    0.227564
    39  H    0.235746
    40  H    0.267439
    41  H    0.262067
    42  H    0.264695
    43  H    0.281225
    44  H    0.269765
    45  H    0.295730
    46  H    0.280240
    47  H    0.247493
    48  H    0.261372
    49  H    0.267346
    50  H    0.259139
    51  H    0.223444
    52  H    0.245684
    53  H    0.264328
    54  H    0.250777
    55  H    0.312079
    56  H    0.258769
    57  H    0.270908
    58  H    0.263938
    59  H    0.256385
    60  H    0.254875
    61  H    0.258529
    62  C   -1.061026
    63  H    0.242165
    64  H    0.248650
    65  H    0.283127
 Sum of Mulliken atomic charges =   0.00000
 Mulliken charges with hydrogens summed into heavy atoms:
              1
     1  C   -0.029228
     2  C    0.718405
     3  C    0.121310
     4  C   -0.356375
     5  C    0.834711
     6  C   -0.160545
     7  C   -1.182045
     8  C    0.349329
     9  C    0.657053
    10  C   -0.882174
    11  C   -0.216806
    12  O   -0.162197
    13  C    0.689640
    14  C    0.076959
    15  C   -0.167470
    16  O   -0.198716
    17  C    0.012619
    18  C    0.610580
    19  O    0.159877
    20  C   -0.571545
    21  O    0.284586
    22  C   -0.253456
    23  C   -0.178385
    24  O   -0.055600
    25  C    1.032662
    26  C   -0.344904
    27  C   -0.304058
    28  C   -0.023718
    29  C    0.096824
    32  C   -0.270250
    62  C   -0.287084
 Sum of Mulliken charges with hydrogens summed into heavy atoms =   0.00000
 Electronic spatial extent (au):  <R**2>=          11186.6806
 Charge=              0.0000 electrons
 Dipole moment (field-independent basis, Debye):
    X=              4.6739    Y=              1.5045    Z=             -2.1792  Tot=              5.3719
 Quadrupole moment (field-independent basis, Debye-Ang):
   XX=           -195.6210   YY=           -175.9817   ZZ=           -188.6938
   XY=             -1.5679   XZ=              5.9348   YZ=             -0.1637
 Traceless Quadrupole moment (field-independent basis, Debye-Ang):
   XX=             -8.8555   YY=             10.7838   ZZ=             -1.9283
   XY=             -1.5679   XZ=              5.9348   YZ=             -0.1637
 Octapole moment (field-independent basis, Debye-Ang**2):
  XXX=             31.4958  YYY=             30.6049  ZZZ=             -6.0257  XYY=             19.2484
  XXY=            -46.1664  XXZ=            -25.3310  XZZ=             19.1841  YZZ=             22.5270
  YYZ=            -28.3272  XYZ=              8.2411
 Hexadecapole moment (field-independent basis, Debye-Ang**3):
 XXXX=          -7653.0630 YYYY=          -4353.7467 ZZZZ=          -3520.4746 XXXY=            -25.9651
 XXXZ=             28.3297 YYYX=            -56.2852 YYYZ=             -9.3889 ZZZX=            -26.5022
 ZZZY=             -4.2825 XXYY=          -1871.0498 XXZZ=          -1807.1928 YYZZ=          -1323.4067
 XXYZ=            -16.1318 YYXZ=              0.6381 ZZXY=            -39.3277
 N-N= 3.529183502189D+03 E-N=-1.029135704227D+04  KE= 1.381708703514D+03
 Calling FoFJK, ICntrl=      2127 FMM=T ISym2X=0 I1Cent= 0 IOpClX= 0 NMat=1 NMatS=1 NMatT=0.
 ***** Axes restored to original set *****
 -------------------------------------------------------------------
 Center     Atomic                   Forces (Hartrees/Bohr)
 Number     Number              X              Y              Z
 -------------------------------------------------------------------
      1        6           0.000138442    0.001880405   -0.001113484
      2        6           0.000508582   -0.001878016    0.001232774
      3        6          -0.000498504    0.000293996   -0.000254923
      4        6          -0.000055850    0.001173566    0.000838675
      5        6          -0.000036417   -0.000402981    0.000081386
      6        6          -0.000020131   -0.000037156   -0.000145239
      7        6          -0.002029330    0.001105770    0.001808992
      8        6          -0.003512879   -0.000350742   -0.000610826
      9        6           0.001334052    0.001837472    0.000670005
     10        6          -0.002082170   -0.004715194    0.002958857
     11        6          -0.003971119    0.005275778    0.000836181
     12        8           0.004739895   -0.006609410   -0.000916628
     13        6          -0.000187606    0.000434838    0.000165294
     14        6           0.000354391   -0.000270598   -0.000356936
     15        6           0.000183867    0.000091984   -0.000069796
     16        8           0.001541365    0.005685657   -0.004532560
     17        6           0.000438390    0.000157316   -0.000225468
     18        6           0.000321427    0.001407663   -0.001052904
     19        8           0.002703099   -0.003325017    0.002269573
     20        6          -0.000455497    0.000111179    0.000231587
     21        8           0.006474515    0.001284828    0.000291450
     22        6          -0.000030188   -0.000404312   -0.000331126
     23        6           0.000757434   -0.002171878    0.000208356
     24        8           0.000064678   -0.000068347    0.000687909
     25        6           0.001287396    0.000795127   -0.001473748
     26        6          -0.000181662   -0.000166115    0.000206791
     27        6          -0.000589197   -0.001243950    0.001832026
     28        6           0.000233941    0.000140396    0.000410911
     29        6           0.000438845   -0.000340025    0.000139587
     30        1          -0.000995035   -0.000424143    0.000715249
     31        1          -0.001189314   -0.000313707    0.000650684
     32        6          -0.000110638    0.000381180   -0.000067150
     33        1          -0.000010925   -0.000052316   -0.000854168
     34        1          -0.001648395    0.000251106    0.000161561
     35        1           0.001415534    0.001152562   -0.000444742
     36        1          -0.000855904    0.000733634   -0.000755863
     37        1          -0.001448303   -0.000414937    0.000275624
     38        1           0.000866269    0.001224722    0.000072786
     39        1           0.000434684    0.001398892    0.000202809
     40        1           0.000458817   -0.001301072    0.001227723
     41        1          -0.000420001   -0.000655575   -0.001467415
     42        1          -0.000693012   -0.001412861    0.000050106
     43        1           0.001544158    0.000263319   -0.000678130
     44        1          -0.005269977   -0.000843265   -0.002135710
     45        1           0.000798969   -0.000230037    0.001424354
     46        1          -0.000266751    0.001247891   -0.000855832
     47        1          -0.000901416    0.000447665   -0.001381893
     48        1          -0.000858174    0.000237591   -0.001357898
     49        1           0.001516762    0.000741183   -0.000209044
     50        1          -0.000751235    0.000315989    0.001481289
     51        1          -0.000420342    0.000457495    0.000815670
     52        1           0.000361485   -0.001010250   -0.000251520
     53        1           0.001626347    0.000020547    0.000180636
     54        1          -0.000767718   -0.001226743    0.000462613
     55        1          -0.001101964    0.001709886   -0.000420789
     56        1          -0.000970530   -0.000879901    0.000685240
     57        1           0.001504785    0.000269497    0.000702305
     58        1          -0.000076022    0.000098893   -0.001761447
     59        1           0.000057825    0.000425988   -0.001666660
     60        1          -0.001238332   -0.000871620    0.000471106
     61        1           0.001428260   -0.000815535    0.000654062
     62        6          -0.000115704    0.000071026    0.000222875
     63        1          -0.000308200    0.000806260    0.001300634
     64        1           0.001519513    0.000054644   -0.000776998
[...]
                 (A) (A) (A) (A) (A) (A) (A) (A) (A) (A) (A) (A)
                 (A) (A) (A) (A) (A) (A) (A) (A) (A) (A) (A) (A)
                 (A) (A) (A) (A) (A) (A) (A) (A) (A) (A) (A) (A)
                 (A) (A)
 The electronic state is 1-A.
 Alpha  occ. eigenvalues --  -19.17524 -19.14635 -19.13953 -19.10801 -19.10698
 Alpha  occ. eigenvalues --  -10.26568 -10.26528 -10.25817 -10.25713 -10.25332
 Alpha  occ. eigenvalues --  -10.25251 -10.24400 -10.20766 -10.19913 -10.19780
 Alpha  occ. eigenvalues --  -10.19412 -10.18800 -10.18657 -10.18446 -10.18338
 Alpha  occ. eigenvalues --  -10.18043 -10.17738 -10.17469 -10.17180 -10.17076
 Alpha  occ. eigenvalues --  -10.16940 -10.16876 -10.16839 -10.16503 -10.14936
 Alpha  occ. eigenvalues --  -10.14496  -1.10220  -1.07034  -1.04592  -1.03951
 Alpha  occ. eigenvalues --   -1.03834  -0.87750  -0.84615  -0.83408  -0.82419
 Alpha  occ. eigenvalues --   -0.81181  -0.80322  -0.77598  -0.75172  -0.74091
 Alpha  occ. eigenvalues --   -0.72565  -0.72081  -0.70657  -0.70422  -0.68830
 Alpha  occ. eigenvalues --   -0.66438  -0.65161  -0.64136  -0.62521  -0.61545
 Alpha  occ. eigenvalues --   -0.60427  -0.59660  -0.57941  -0.55716  -0.54922
 Alpha  occ. eigenvalues --   -0.53717  -0.53188  -0.51748  -0.51212  -0.50186
 Alpha  occ. eigenvalues --   -0.48857  -0.48154  -0.47636  -0.47308  -0.46753
 Alpha  occ. eigenvalues --   -0.46024  -0.45799  -0.45399  -0.44834  -0.44240
 Alpha  occ. eigenvalues --   -0.44080  -0.43961  -0.43059  -0.42608  -0.42176
 Alpha  occ. eigenvalues --   -0.41826  -0.41709  -0.41413  -0.40831  -0.40153
 Alpha  occ. eigenvalues --   -0.39876  -0.39612  -0.39070  -0.38783  -0.38509
 Alpha  occ. eigenvalues --   -0.38278  -0.38174  -0.38008  -0.37902  -0.37585
 Alpha  occ. eigenvalues --   -0.37098  -0.36712  -0.36462  -0.35776  -0.35600
 Alpha  occ. eigenvalues --   -0.34911  -0.34554  -0.34246  -0.33778  -0.33010
 Alpha  occ. eigenvalues --   -0.32394  -0.32176  -0.31925  -0.29521  -0.27726
 Alpha  occ. eigenvalues --   -0.26972  -0.25930  -0.25276  -0.24479  -0.24063
 Alpha virt. eigenvalues --   -0.05919  -0.02476  -0.01603  -0.01031  -0.00213
 Alpha virt. eigenvalues --    0.00313   0.00647   0.01145   0.01547   0.01770
 Alpha virt. eigenvalues --    0.02081   0.02534   0.02910   0.03312   0.03625
 Alpha virt. eigenvalues --    0.03784   0.04043   0.04452   0.04626   0.04818
 Alpha virt. eigenvalues --    0.05162   0.05435   0.05741   0.06293   0.06478
 Alpha virt. eigenvalues --    0.06691   0.07025   0.07164   0.07265   0.07481
 Alpha virt. eigenvalues --    0.07534   0.07931   0.08413   0.08701   0.08873
 Alpha virt. eigenvalues --    0.08989   0.09147   0.09490   0.09828   0.09983
 Alpha virt. eigenvalues --    0.10056   0.10375   0.10697   0.10780   0.11166
 Alpha virt. eigenvalues --    0.11383   0.11610   0.11963   0.12067   0.12402
 Alpha virt. eigenvalues --    0.12833   0.12929   0.13014   0.13071   0.13460
 Alpha virt. eigenvalues --    0.13843   0.14054   0.14285   0.14805   0.15007
 Alpha virt. eigenvalues --    0.15247   0.15436   0.15577   0.15774   0.15997
 Alpha virt. eigenvalues --    0.16345   0.16377   0.16686   0.17055   0.17322
 Alpha virt. eigenvalues --    0.17530   0.17746   0.17888   0.18121   0.18182
 Alpha virt. eigenvalues --    0.18384   0.18657   0.18819   0.19048   0.19107
 Alpha virt. eigenvalues --    0.19297   0.19536   0.19669   0.19859   0.20129
 Alpha virt. eigenvalues --    0.20300   0.20407   0.20809   0.21015   0.21170
 Alpha virt. eigenvalues --    0.21282   0.21538   0.21701   0.21901   0.22238
 Alpha virt. eigenvalues --    0.22360   0.22395   0.22716   0.22976   0.23030
 Alpha virt. eigenvalues --    0.23191   0.23285   0.23755   0.23928   0.24019
 Alpha virt. eigenvalues --    0.24284   0.24340   0.24645   0.24793   0.25029
 Alpha virt. eigenvalues --    0.25092   0.25344   0.25561   0.25672   0.25938
 Alpha virt. eigenvalues --    0.26119   0.26199   0.26394   0.26644   0.26667
 Alpha virt. eigenvalues --    0.27296   0.27412   0.27828   0.28264   0.28381
 Alpha virt. eigenvalues --    0.28502   0.28789   0.28913   0.29457   0.29631
 Alpha virt. eigenvalues --    0.29999   0.30247   0.30309   0.30676   0.31030
 Alpha virt. eigenvalues --    0.31164   0.31463   0.31545   0.31914   0.32320
 Alpha virt. eigenvalues --    0.32359   0.32662   0.33394   0.33536   0.33825
 Alpha virt. eigenvalues --    0.34033   0.34580   0.34981   0.35155   0.35480
 Alpha virt. eigenvalues --    0.35545   0.35873   0.36697   0.36865   0.37074
 Alpha virt. eigenvalues --    0.37731   0.37821   0.38141   0.38454   0.38620
 Alpha virt. eigenvalues --    0.39135   0.39540   0.39615   0.40448   0.40602
 Alpha virt. eigenvalues --    0.41029   0.41250   0.41460   0.41750   0.42029
 Alpha virt. eigenvalues --    0.42655   0.43004   0.43401   0.43820   0.44285
 Alpha virt. eigenvalues --    0.44498   0.44697   0.45278   0.45492   0.45902
 Alpha virt. eigenvalues --    0.46415   0.46805   0.47008   0.47391   0.47472
 Alpha virt. eigenvalues --    0.47762   0.48301   0.48499   0.48781   0.49155
 Alpha virt. eigenvalues --    0.49719   0.50515   0.51155   0.51361   0.52111
 Alpha virt. eigenvalues --    0.52300   0.52381   0.52916   0.53627   0.53879
 Alpha virt. eigenvalues --    0.54448   0.54808   0.55299   0.55599   0.56235
 Alpha virt. eigenvalues --    0.56784   0.57077   0.57298   0.57587   0.58151
 Alpha virt. eigenvalues --    0.58386   0.58592   0.58953   0.59663   0.60260
 Alpha virt. eigenvalues --    0.60543   0.60841   0.61777   0.62073   0.62887
 Alpha virt. eigenvalues --    0.63148   0.63658   0.63911   0.64180   0.64533
 Alpha virt. eigenvalues --    0.65003   0.65267   0.65563   0.65727   0.66226
 Alpha virt. eigenvalues --    0.66261   0.66666   0.67058   0.67354   0.67773
 Alpha virt. eigenvalues --    0.67910   0.68091   0.68132   0.68572   0.68831
 Alpha virt. eigenvalues --    0.69177   0.69642   0.69896   0.70101   0.70385
 Alpha virt. eigenvalues --    0.70478   0.70869   0.71193   0.71751   0.71921
 Alpha virt. eigenvalues --    0.72573   0.72678   0.72857   0.73135   0.73584
 Alpha virt. eigenvalues --    0.73834   0.74459   0.74801   0.74929   0.75229
 Alpha virt. eigenvalues --    0.75462   0.75598   0.76328   0.76780   0.77363
 Alpha virt. eigenvalues --    0.77870   0.78165   0.78442   0.78934   0.79325
 Alpha virt. eigenvalues --    0.79517   0.79975   0.80219   0.80591   0.80907
 Alpha virt. eigenvalues --    0.81460   0.81820   0.81907   0.82215   0.82585
 Alpha virt. eigenvalues --    0.83577   0.83922   0.84604   0.85179   0.85652
 Alpha virt. eigenvalues --    0.85897   0.86899   0.87413   0.88011   0.88618
 Alpha virt. eigenvalues --    0.88976   0.89965   0.90405   0.91981   0.92447
 Alpha virt. eigenvalues --    0.93374   0.94451   0.95245   0.95960   0.96925
 Alpha virt. eigenvalues --    0.98459   0.99031   0.99879   1.00720   1.00866
 Alpha virt. eigenvalues --    1.02122   1.02991   1.04282   1.04797   1.05285
 Alpha virt. eigenvalues --    1.06662   1.07271   1.08601   1.09624   1.10321
 Alpha virt. eigenvalues --    1.12046   1.12369   1.12670   1.13596   1.15378
 Alpha virt. eigenvalues --    1.15467   1.16287   1.17313   1.17843   1.19396
 Alpha virt. eigenvalues --    1.20600   1.20937   1.22085   1.22983   1.23727
 Alpha virt. eigenvalues --    1.24691   1.25149   1.26185   1.26991   1.27645
 Alpha virt. eigenvalues --    1.29243   1.29722   1.30493   1.31607   1.32358
 Alpha virt. eigenvalues --    1.33507   1.33961   1.34244   1.35156   1.35374
 Alpha virt. eigenvalues --    1.37334   1.37792   1.38192   1.38284   1.39733
 Alpha virt. eigenvalues --    1.40009   1.41311   1.41995   1.43608   1.44046
 Alpha virt. eigenvalues --    1.44744   1.46005   1.47108   1.48394   1.49015
 Alpha virt. eigenvalues --    1.49617   1.50161   1.50975   1.51616   1.52600
 Alpha virt. eigenvalues --    1.53137   1.53884   1.54596   1.55152   1.55912
 Alpha virt. eigenvalues --    1.56602   1.57062   1.57318   1.57769   1.57992
 Alpha virt. eigenvalues --    1.58566   1.59374   1.60196   1.60559   1.60955
 Alpha virt. eigenvalues --    1.61153   1.61595   1.62454   1.62587   1.63061
 Alpha virt. eigenvalues --    1.63350   1.63750   1.64298   1.65180   1.65719
 Alpha virt. eigenvalues --    1.66235   1.66583   1.66799   1.66959   1.67310
 Alpha virt. eigenvalues --    1.68356   1.68543   1.69209   1.69670   1.70106
 Alpha virt. eigenvalues --    1.71131   1.71494   1.71738   1.72768   1.73207
 Alpha virt. eigenvalues --    1.73624   1.73958   1.74835   1.75572   1.76898
 Alpha virt. eigenvalues --    1.77526   1.77927   1.78561   1.78979   1.79962
 Alpha virt. eigenvalues --    1.81089   1.81793   1.83058   1.83255   1.84139
 Alpha virt. eigenvalues --    1.85356   1.85920   1.86487   1.87167   1.87488
 Alpha virt. eigenvalues --    1.88195   1.89277   1.90737   1.91343   1.91601
 Alpha virt. eigenvalues --    1.92499   1.93513   1.94645   1.95562   1.96448
 Alpha virt. eigenvalues --    1.97804   1.98424   1.99377   2.01276   2.02800
 Alpha virt. eigenvalues --    2.02897   2.03730   2.05169   2.06361   2.06747
 Alpha virt. eigenvalues --    2.07194   2.07806   2.08452   2.09290   2.10325
 Alpha virt. eigenvalues --    2.11324   2.13493   2.13980   2.15303   2.16169
 Alpha virt. eigenvalues --    2.17475   2.18553   2.21024   2.21251   2.22466
 Alpha virt. eigenvalues --    2.22593   2.23597   2.24833   2.26646   2.27422
 Alpha virt. eigenvalues --    2.28690   2.29497   2.31912   2.32382   2.33502
 Alpha virt. eigenvalues --    2.35414   2.36585   2.39232   2.39904   2.44262
 Alpha virt. eigenvalues --    2.44483   2.47348   2.48078   2.49939   2.51599
 Alpha virt. eigenvalues --    2.52585   2.52970   2.53764   2.54850   2.55257
 Alpha virt. eigenvalues --    2.55602   2.55943   2.56106   2.57236   2.57499
 Alpha virt. eigenvalues --    2.58585   2.59465   2.60095   2.60917   2.61171
 Alpha virt. eigenvalues --    2.61861   2.63334   2.63609   2.65560   2.66584
 Alpha virt. eigenvalues --    2.67277   2.69092   2.69502   2.70139   2.71118
 Alpha virt. eigenvalues --    2.71688   2.72424   2.73789   2.74279   2.75077
 Alpha virt. eigenvalues --    2.76085   2.77678   2.79342   2.84278   2.84758
 Alpha virt. eigenvalues --    2.86044   2.87421   2.88265   2.89841   2.90534
 Alpha virt. eigenvalues --    2.91342   2.92185   2.93673   2.94919   2.95275
 Alpha virt. eigenvalues --    2.97075   2.97241   2.98861   2.99311   2.99760
 Alpha virt. eigenvalues --    3.00741   3.01634   3.02980   3.04181   3.04832
 Alpha virt. eigenvalues --    3.06152   3.06619   3.07451   3.08458   3.09654
 Alpha virt. eigenvalues --    3.09930   3.11695   3.12312   3.13177   3.14289
 Alpha virt. eigenvalues --    3.15396   3.16389   3.16883   3.17285   3.18141
 Alpha virt. eigenvalues --    3.18731   3.19127   3.20607   3.21313   3.22283
 Alpha virt. eigenvalues --    3.23221   3.24691   3.25637   3.26020   3.26173
 Alpha virt. eigenvalues --    3.27032   3.27919   3.28621   3.28719   3.30216
 Alpha virt. eigenvalues --    3.30752   3.31457   3.32377   3.33424   3.34651
 Alpha virt. eigenvalues --    3.35929   3.36724   3.37685   3.38141   3.39778
 Alpha virt. eigenvalues --    3.39831   3.41428   3.41929   3.43031   3.44656
 Alpha virt. eigenvalues --    3.47047   3.48061   3.51254   3.51489   3.54056
 Alpha virt. eigenvalues --    3.55501   3.59877   3.61906   3.65994   3.74560
 Alpha virt. eigenvalues --    3.77170   3.78881   3.81195   3.88227   3.88807
 Alpha virt. eigenvalues --    3.89679   3.97408   3.99027   4.01317   4.03219
 Alpha virt. eigenvalues --    4.05900   4.07321   4.10258   4.11202   4.12656
 Alpha virt. eigenvalues --    4.16531   4.18124   4.20140   4.21907   4.22732
 Alpha virt. eigenvalues --    4.24002   4.25141   4.28982   4.32882   4.45131
 Alpha virt. eigenvalues --    4.61491   5.14325   5.17218   5.17805   5.22151
 Alpha virt. eigenvalues --    5.23787   5.27967   5.32075   5.33422   5.43043
 Alpha virt. eigenvalues --    5.43712   5.57997   5.68287   5.74692   5.79124
 Alpha virt. eigenvalues --    5.84367  23.46290  23.47858  23.51356  23.52726
 Alpha virt. eigenvalues --   23.62060  23.65847  23.66476  23.67055  23.69028
 Alpha virt. eigenvalues --   23.70635  23.72970  23.73913  23.77125  23.79422
 Alpha virt. eigenvalues --   23.79619  23.80588  23.82476  23.84509  23.86965
 Alpha virt. eigenvalues --   23.87270  23.89508  23.91003  23.96785  24.18411
 Alpha virt. eigenvalues --   24.20174  24.23489  49.99588  50.00503  50.02105
 Alpha virt. eigenvalues --   50.03330  50.07648
          Condensed to atoms (all electrons):
 Mulliken atomic charges:
              1
     1  C   -0.201230
     2  C    0.702861
     3  C   -0.169843
     4  C   -0.415102
     5  C    0.862321
     6  C   -0.701638
     7  C   -1.131583
     8  C    0.346181
     9  C    0.692680
    10  C   -0.812869
    11  C   -0.239089
    12  O   -0.161355
    13  C    0.385633
    14  C   -0.387662
    15  C   -0.953174
    16  O   -0.197632
    17  C   -0.257944
    18  C    0.624916
    19  O    0.158733
    20  C   -1.146598
    21  O    0.005331
    22  C   -0.808089
    23  C   -0.457456
    24  O   -0.054848
    25  C    1.041029
    26  C   -1.138541
    27  C   -0.769982
    28  C   -0.846305
    29  C   -0.684424
    30  H    0.235055
    31  H    0.277281
    32  C   -1.039189
    33  H    0.201592
    34  H    0.243174
    35  H    0.281713
    36  H    0.282256
    37  H    0.243487
    38  H    0.229629
    39  H    0.237273
    40  H    0.268751
    41  H    0.263578
    42  H    0.265330
    43  H    0.284153
    44  H    0.273500
    45  H    0.294249
    46  H    0.280922
    47  H    0.248421
    48  H    0.261289
    49  H    0.267998
    50  H    0.259778
    51  H    0.223462
    52  H    0.243760
    53  H    0.264999
    54  H    0.252271
    55  H    0.310390
    56  H    0.259866
    57  H    0.269864
    58  H    0.263641
    59  H    0.256883
    60  H    0.254593
    61  H    0.258915
    62  C   -1.075911
    63  H    0.244097
    64  H    0.249829
    65  H    0.278783
 Sum of Mulliken atomic charges =   0.00000
 Mulliken charges with hydrogens summed into heavy atoms:
              1
     1  C    0.000362
     2  C    0.702861
     3  C    0.107438
     4  C   -0.415102
     5  C    0.862321
     6  C   -0.176752
     7  C   -1.131583
     8  C    0.346181
     9  C    0.692680
    10  C   -0.812869
    11  C   -0.239089
    12  O   -0.161355
    13  C    0.667889
    14  C    0.085454
    15  C   -0.183572
    16  O   -0.197632
    17  C   -0.022888
    18  C    0.624916
    19  O    0.158733
    20  C   -0.597115
    21  O    0.278831
    22  C   -0.232918
    23  C   -0.209035
    24  O   -0.054848
    25  C    1.041029
    26  C   -0.349478
    27  C   -0.302760
    28  C   -0.018645
    29  C    0.108947
    32  C   -0.268798
    62  C   -0.303202
 Sum of Mulliken charges with hydrogens summed into heavy atoms =   0.00000
 Electronic spatial extent (au):  <R**2>=          11212.5797
 Charge=              0.0000 electrons
 Dipole moment (field-independent basis, Debye):
    X=              4.4822    Y=              1.5296    Z=             -2.4616  Tot=              5.3376
 Quadrupole moment (field-independent basis, Debye-Ang):
   XX=           -194.6738   YY=           -175.4394   ZZ=           -189.5181
   XY=             -1.9037   XZ=              6.8635   YZ=             -0.2678
 Traceless Quadrupole moment (field-independent basis, Debye-Ang):
   XX=             -8.1300   YY=             11.1043   ZZ=             -2.9743
   XY=             -1.9037   XZ=              6.8635   YZ=             -0.2678
 Octapole moment (field-independent basis, Debye-Ang**2):
  XXX=             26.9319  YYY=             29.5483  ZZZ=             -8.9553  XYY=             17.0426
  XXY=            -45.3844  XXZ=            -26.2555  XZZ=             21.9652  YZZ=             22.6183
  YYZ=            -27.9102  XYZ=              9.4024
 Hexadecapole moment (field-independent basis, Debye-Ang**3):
 XXXX=          -7687.9956 YYYY=          -4331.6971 ZZZZ=          -3509.4786 XXXY=            -33.5247
 XXXZ=             36.1987 YYYX=            -56.0238 YYYZ=             -8.8988 ZZZX=            -19.9514
 ZZZY=             -2.4787 XXYY=          -1873.2951 XXZZ=          -1822.0530 YYZZ=          -1320.7473
 XXYZ=            -17.3562 YYXZ=             -0.9478 ZZXY=            -36.3561
 N-N= 3.527805250724D+03 E-N=-1.028877704657D+04  KE= 1.381920298297D+03
 1\1\GINC-B0603\FOpt\RB3LYP\6-311+G(d)\C26H34O5\CAOFEI\13-Apr-2021\0\\#
  opt b3lyp/6-311+g(d) geom=connectivity\\Title Card Required\\0,1\C,1.
 5628258586,0.6329899192,3.171452251\C,1.5394677293,1.7740595164,2.4792
 623741\C,1.6513908859,1.7800658302,0.9707162102\C,1.4990269451,0.39579
 42837,0.2677621159\C,1.1277640017,-0.8397947276,1.1279380216\C,1.71578
 7516,-0.7272718292,2.5541308592\C,0.4871378071,0.657938435,-0.87763661
 92\C,-0.9535890113,0.4629443283,-0.4540753493\C,-1.3769176976,-0.43164
 55161,0.4680197141\C,-0.3842068053,-1.1770312482,1.2443272105\C,-2.851
 5020849,-0.5623156959,0.8085460229\O,-3.463052363,0.4147142722,1.18510
 19004\C,-3.4995802023,-1.9323262193,0.6449967271\C,-3.4429199717,-2.39
 95297455,-0.8342957493\C,-4.9099852719,-1.9623084002,1.2366232309\O,-0
 .7113378625,-2.0566857643,2.0301730849\C,0.4512518877,2.175717836,-1.1
 500877762\C,-0.9488135589,2.3827590608,-1.7739351733\O,-1.7480001654,1
 .3075621257,-1.1130009489\C,0.6571301278,2.7446887924,0.2658904371\O,0
 .7060699544,-0.1634806573,-2.0112576938\C,1.830292103,-1.9858536414,0.
 3569712061\C,3.1208449229,-1.3184692681,-0.1364667788\O,2.7679418297,0
 .0616211691,-0.3511738666\C,3.7523848002,-1.9348146643,-1.3642543978\C
 ,4.0314617928,-3.4123264892,-1.2608441112\C,4.0874894386,-1.2131071595
 ,-2.4353402878\C,-0.9789716144,2.1338984578,-3.2808431907\C,-1.6437685
 081,3.6955241292,-1.4317776811\H,1.2466582509,2.48381663,-1.8327650225
 \H,2.6668949028,2.1068605011,0.7130166891\C,1.4705353594,3.1175178702,
 3.1582451432\H,1.511973218,0.6724748063,4.2575057008\H,2.7819447718,-0
 .988373453,2.5310276994\H,1.2369566881,-1.4893838812,3.171319444\H,-2.
 8606670105,-2.6197293588,1.2100801169\H,-2.3970074653,-2.4361960861,-1
 .1566237836\H,-3.8011909126,-3.4347700353,-0.8639248187\H,-5.352314251
 9,-2.9549639765,1.1093320631\H,-5.5691059532,-1.2302291936,0.767423652
 2\H,-4.8901313584,-1.7361064665,2.3048316126\H,1.0192013517,3.77419109
 97,0.2567975438\H,-0.2903560308,2.744214882,0.8100503819\H,1.667156047
 ,-0.2486205244,-2.1172491978\H,1.2232965692,-2.3132015844,-0.490419832
 6\H,2.0123658427,-2.8467964985,1.0017816185\H,3.8745194742,-1.34480839
 19,0.6643690771\H,4.6329603028,-3.6401759165,-0.3731996844\H,3.1084929
 542,-3.9944084911,-1.1719047691\H,4.5753862985,-3.7743766849,-2.134675
 7622\H,4.5567684569,-1.6746260225,-3.2982563235\H,3.9335095324,-0.1410
 836643,-2.4756657501\H,-2.0119276614,2.1231957888,-3.6364938971\H,-0.4
 519200936,2.9384772951,-3.802022152\H,-0.5081585482,1.1864484214,-3.53
 75794172\H,-1.0747325839,4.5361360989,-1.8389348136\H,-2.6416747285,3.
 7180898366,-1.8745256039\H,-1.7529718776,3.838490509,-0.3572193584\H,1
 .4727081017,3.0110231326,4.2447942176\H,2.3264792352,3.7453815303,2.88
 13094439\H,0.5704772636,3.6763654998,2.8818674367\C,-4.248525267,-1.55
 058152,-1.8229885608\H,-4.1353450974,-1.938023227,-2.8397222989\H,-5.3
 164886454,-1.5551512123,-1.5906882095\H,-3.9167686187,-0.5086398427,-1
 .8294733269\\Version=EM64L-G09RevB.01\State=1-A\HF=-1387.6506639\RMSD=
 4.129e-09\RMSF=9.069e-06\Dipole=1.7812961,0.5964166,-0.9386679\Quadrup
 ole=-6.2191978,8.2683946,-2.0491968,-1.3626254,5.0345437,-0.2199885\PG
 =C01 [X(C26H34O5)]\\@


 TO DRY ONE'S EYES AND LAUGH AT A FALL,
 AND BAFFLED, GET UP AND BEGIN AGAIN.
           R. BROWNING
 Job cpu time:  1 days  3 hours 41 minutes 19.4 seconds.
 File lengths (MBytes):  RWF=    372 Int=      0 D2E=      0 Chk=     38 Scr=      1
 Normal termination of Gaussian 09 at Tue Apr 13 17:44:28 2021.
