 Entering Gaussian System, Link 0=g09
 Initial command:
 /public/software/g09/g09/l1.exe /tmp/Gau-17958.inp -scrdir=/tmp/
 Entering Link 1 = /public/software/g09/g09/l1.exe PID=     17959.
  
 Copyright (c) 1988,1990,1992,1993,1995,1998,2003,2009,2010,
            Gaussian, Inc.  All Rights Reserved.
  
 This is part of the Gaussian(R) 09 program.  It is based on
 the Gaussian(R) 03 system (copyright 2003, Gaussian, Inc.),
 the Gaussian(R) 98 system (copyright 1998, Gaussian, Inc.),
 the Gaussian(R) 94 system (copyright 1995, Gaussian, Inc.),
 the Gaussian 92(TM) system (copyright 1992, Gaussian, Inc.),
 the Gaussian 90(TM) system (copyright 1990, Gaussian, Inc.),
 the Gaussian 88(TM) system (copyright 1988, Gaussian, Inc.),
 the Gaussian 86(TM) system (copyright 1986, Carnegie Mellon
 University), and the Gaussian 82(TM) system (copyright 1983,
 Carnegie Mellon University). Gaussian is a federally registered
 trademark of Gaussian, Inc.
  
 This software contains proprietary and confidential information,
 including trade secrets, belonging to Gaussian, Inc.
  
 This software is provided under written license and may be
 used, copied, transmitted, or stored only in accord with that
 written license.
  
 The following legend is applicable only to US Government
 contracts under FAR:
  
                    RESTRICTED RIGHTS LEGEND
  
 Use, reproduction and disclosure by the US Government is
 subject to restrictions as set forth in subparagraphs (a)
 and (c) of the Commercial Computer Software - Restricted
 Rights clause in FAR 52.227-19.
  
 Gaussian, Inc.
 340 Quinnipiac St., Bldg. 40, Wallingford CT 06492
  
  
 ---------------------------------------------------------------
 Warning -- This program may not be used in any manner that
 competes with the business of Gaussian, Inc. or will provide
 assistance to any competitor of Gaussian, Inc.  The licensee
 of this program is prohibited from giving any competitor of
 Gaussian, Inc. access to this program.  By using this program,
 the user acknowledges that Gaussian, Inc. is engaged in the
 business of creating and licensing software in the field of
 computational chemistry and represents and warrants to the
 licensee that it is not a competitor of Gaussian, Inc. and that
 it will not use this program in any manner prohibited above.
 ---------------------------------------------------------------
  

 Cite this work as:
 Gaussian 09, Revision B.01,
 M. J. Frisch, G. W. Trucks, H. B. Schlegel, G. E. Scuseria, 
 M. A. Robb, J. R. Cheeseman, G. Scalmani, V. Barone, B. Mennucci, 
 G. A. Petersson, H. Nakatsuji, M. Caricato, X. Li, H. P. Hratchian, 
 A. F. Izmaylov, J. Bloino, G. Zheng, J. L. Sonnenberg, M. Hada, 
 M. Ehara, K. Toyota, R. Fukuda, J. Hasegawa, M. Ishida, T. Nakajima, 
 Y. Honda, O. Kitao, H. Nakai, T. Vreven, J. A. Montgomery, Jr., 
 J. E. Peralta, F. Ogliaro, M. Bearpark, J. J. Heyd, E. Brothers, 
 K. N. Kudin, V. N. Staroverov, T. Keith, R. Kobayashi, J. Normand, 
 K. Raghavachari, A. Rendell, J. C. Burant, S. S. Iyengar, J. Tomasi, 
 M. Cossi, N. Rega, J. M. Millam, M. Klene, J. E. Knox, J. B. Cross, 
 V. Bakken, C. Adamo, J. Jaramillo, R. Gomperts, R. E. Stratmann, 
 O. Yazyev, A. J. Austin, R. Cammi, C. Pomelli, J. W. Ochterski, 
 R. L. Martin, K. Morokuma, V. G. Zakrzewski, G. A. Voth, 
 P. Salvador, J. J. Dannenberg, S. Dapprich, A. D. Daniels, 
 O. Farkas, J. B. Foresman, J. V. Ortiz, J. Cioslowski, 
 and D. J. Fox, Gaussian, Inc., Wallingford CT, 2010.
 
 ******************************************
 Gaussian 09:  EM64L-G09RevB.01 12-Aug-2010
                13-Apr-2021 
 ******************************************
 %mem=600MW
 %nprocshared=10
 Will use up to   10 processors via shared memory.
 ----------------------------------------
 # opt b3lyp/6-311+g(d) geom=connectivity
 ----------------------------------------
 1/14=-1,18=20,19=15,26=3,38=1,57=2/1,3;
 2/9=110,12=2,17=6,18=5,40=1/2;
 3/5=4,6=6,7=11,11=2,16=1,25=1,30=1,71=1,74=-5/1,2,3;
 4//1;
 5/5=2,38=5/2;
 6/7=2,8=2,9=2,10=2,28=1/1;
 7//1,2,3,16;
 1/14=-1,18=20,19=15/3(2);
 2/9=110/2;
 99//99;
 2/9=110/2;
 3/5=4,6=6,7=11,11=2,16=1,25=1,30=1,71=1,74=-5/1,2,3;
 4/5=5,16=3/1;
 5/5=2,38=5/2;
 7//1,2,3,16;
 1/14=-1,18=20,19=15/3(-5);
 2/9=110/2;
 6/7=2,8=2,9=2,10=2,19=2,28=1/1;
 99/9=1/99;
 -------------------
 Title Card Required
 -------------------
 Symbolic Z-matrix:
 Charge =  0 Multiplicity = 1
 C                     1.83461   0.01734   2.88689 
 C                     2.64486   0.80055   2.16435 
 C                     2.28346   1.15356   0.73977 
 C                     1.40381   0.11145  -0.02576 
 C                     0.64914  -0.95098   0.8407 
 C                     0.54726  -0.54057   2.34011 
 C                     0.47136   0.97156  -0.9297 
 C                    -0.94558   1.09423  -0.37487 
 C                    -1.641     0.02957   0.13178 
 C                    -0.82566  -1.18143   0.37583 
 C                    -3.10779   0.13658   0.44095 
 O                    -3.63553   1.23946   0.4922 
 C                    -3.93645  -1.13271   0.65599 
 C                    -4.20852  -1.78136  -0.72783 
 C                    -5.22432  -0.80469   1.42023 
 O                    -1.27528  -2.32088   0.37531 
 C                     0.93499   2.44086  -0.83855 
 C                    -0.36567   3.23225  -1.09017 
 O                    -1.409     2.32584  -0.53921 
 C                     1.53695   2.50491   0.57939 
 O                     0.37117   0.45041  -2.23908 
 C                     1.4829   -2.24557   0.64843 
 C                     2.68393  -1.8347   -0.2073 
 O                     2.23041  -0.65344  -0.91354 
 C                     3.24655  -2.81409  -1.21387 
 C                     4.28148  -2.2432   -2.15332 
 C                     2.90616  -4.10574  -1.22964 
 C                    -0.66195   3.41729  -2.58041 
 C                    -0.5152    4.54642  -0.33044 
 H                     1.69042   2.65937  -1.59899 
 H                     3.20535   1.22305   0.146 
 C                     3.91572   1.3944    2.71431 
 H                     2.08535  -0.21202   3.92149 
 H                    -0.25591   0.19985   2.46327 
 H                     0.23023  -1.41974   2.91193 
 H                    -3.33544  -1.84679   1.22818 
 H                    -4.87599  -1.12007  -1.29788 
 H                    -3.26657  -1.83876  -1.2837 
 H                    -5.807    -1.71277   1.60571 
 H                    -5.84369  -0.09861   0.8593 
 H                    -5.0011   -0.34365   2.38845 
 H                     0.74529   2.57569   1.33486 
 H                     2.19876   3.36414   0.72474 
 H                     1.07034  -0.23269  -2.29327 
 H                     0.85939  -2.98534   0.1429 
 H                     1.80205  -2.6734    1.6025 
 H                     3.51104  -1.51541   0.44851 
 H                     3.85712  -1.44259  -2.76961 
 H                     5.1172   -1.79865  -1.59524 
 H                     4.68537  -3.01439  -2.81567 
 H                     3.36534  -4.7957   -1.93305 
 H                     2.17418  -4.52993  -0.55025 
 H                     0.03295   4.147    -3.01157 
 H                    -0.55598   2.47404  -3.12093 
 H                    -1.68159   3.79245  -2.71292 
 H                    -1.50521   4.97419  -0.51563 
 H                    -0.40182   4.41029   0.7479 
 H                     0.23864   5.26348  -0.67375 
 H                     4.78875   1.08305   2.12392 
 H                     3.89293   2.49246   2.68052 
 H                     4.08331   1.09475   3.75361 
 C                    -4.80635  -3.18917  -0.64295 
 H                    -4.13472  -3.85998  -0.09448 
 H                    -4.95168  -3.6082   -1.64564 
 H                    -5.77957  -3.19676  -0.14006 
 

 GradGradGradGradGradGradGradGradGradGradGradGradGradGradGradGradGradGrad
 Berny optimization.
 Initialization pass.
                           ----------------------------
                           !    Initial Parameters    !
                           ! (Angstroms and Degrees)  !
 --------------------------                            --------------------------
 ! Name  Definition              Value          Derivative Info.                !
 --------------------------------------------------------------------------------
 ! R1    R(1,2)                  1.3387         estimate D2E/DX2                !
 ! R2    R(1,6)                  1.5058         estimate D2E/DX2                !
 ! R3    R(1,33)                 1.089          estimate D2E/DX2                !
 ! R4    R(2,3)                  1.5115         estimate D2E/DX2                !
 ! R5    R(2,32)                 1.5067         estimate D2E/DX2                !
 ! R6    R(3,4)                  1.5639         estimate D2E/DX2                !
 ! R7    R(3,20)                 1.5521         estimate D2E/DX2                !
 ! R8    R(3,31)                 1.0988         estimate D2E/DX2                !
 ! R9    R(4,5)                  1.5649         estimate D2E/DX2                !
 ! R10   R(4,7)                  1.5577         estimate D2E/DX2                !
 ! R11   R(4,24)                 1.434          estimate D2E/DX2                !
 ! R12   R(5,6)                  1.5579         estimate D2E/DX2                !
 ! R13   R(5,10)                 1.5634         estimate D2E/DX2                !
 ! R14   R(5,22)                 1.5518         estimate D2E/DX2                !
 ! R15   R(6,34)                 1.0993         estimate D2E/DX2                !
 ! R16   R(6,35)                 1.0956         estimate D2E/DX2                !
 ! R17   R(7,8)                  1.5266         estimate D2E/DX2                !
 ! R18   R(7,17)                 1.5434         estimate D2E/DX2                !
 ! R19   R(7,21)                 1.4128         estimate D2E/DX2                !
 ! R20   R(8,9)                  1.3689         estimate D2E/DX2                !
 ! R21   R(8,19)                 1.3261         estimate D2E/DX2                !
 ! R22   R(9,10)                 1.4802         estimate D2E/DX2                !
 ! R23   R(9,11)                 1.5028         estimate D2E/DX2                !
 ! R24   R(10,16)                1.2249         estimate D2E/DX2                !
 ! R25   R(11,12)                1.2237         estimate D2E/DX2                !
 ! R26   R(11,13)                1.531          estimate D2E/DX2                !
 ! R27   R(13,14)                1.5523         estimate D2E/DX2                !
 ! R28   R(13,15)                1.5331         estimate D2E/DX2                !
 ! R29   R(13,36)                1.0948         estimate D2E/DX2                !
 ! R30   R(14,37)                1.099          estimate D2E/DX2                !
 ! R31   R(14,38)                1.0952         estimate D2E/DX2                !
 ! R32   R(14,62)                1.5318         estimate D2E/DX2                !
 ! R33   R(15,39)                1.0948         estimate D2E/DX2                !
 ! R34   R(15,40)                1.094          estimate D2E/DX2                !
 ! R35   R(15,41)                1.0954         estimate D2E/DX2                !
 ! R36   R(17,18)                1.5432         estimate D2E/DX2                !
 ! R37   R(17,20)                1.5418         estimate D2E/DX2                !
 ! R38   R(17,30)                1.0939         estimate D2E/DX2                !
 ! R39   R(18,19)                1.4878         estimate D2E/DX2                !
 ! R40   R(18,28)                1.5306         estimate D2E/DX2                !
 ! R41   R(18,29)                1.5253         estimate D2E/DX2                !
 ! R42   R(20,42)                1.0966         estimate D2E/DX2                !
 ! R43   R(20,43)                1.0942         estimate D2E/DX2                !
 ! R44   R(21,44)                0.979          estimate D2E/DX2                !
 ! R45   R(22,23)                1.5309         estimate D2E/DX2                !
 ! R46   R(22,45)                1.0916         estimate D2E/DX2                !
 ! R47   R(22,46)                1.0932         estimate D2E/DX2                !
 ! R48   R(23,24)                1.4491         estimate D2E/DX2                !
 ! R49   R(23,25)                1.5129         estimate D2E/DX2                !
 ! R50   R(23,47)                1.1028         estimate D2E/DX2                !
 ! R51   R(24,44)                1.8511         estimate D2E/DX2                !
 ! R52   R(25,26)                1.5098         estimate D2E/DX2                !
 ! R53   R(25,27)                1.3358         estimate D2E/DX2                !
 ! R54   R(26,48)                1.0958         estimate D2E/DX2                !
 ! R55   R(26,49)                1.0989         estimate D2E/DX2                !
 ! R56   R(26,50)                1.0939         estimate D2E/DX2                !
 ! R57   R(27,51)                1.0871         estimate D2E/DX2                !
 ! R58   R(27,52)                1.085          estimate D2E/DX2                !
 ! R59   R(28,53)                1.096          estimate D2E/DX2                !
 ! R60   R(28,54)                1.0923         estimate D2E/DX2                !
 ! R61   R(28,55)                1.0945         estimate D2E/DX2                !
 ! R62   R(29,56)                1.0943         estimate D2E/DX2                !
 ! R63   R(29,57)                1.0928         estimate D2E/DX2                !
 ! R64   R(29,58)                1.0956         estimate D2E/DX2                !
 ! R65   R(32,59)                1.0989         estimate D2E/DX2                !
 ! R66   R(32,60)                1.0988         estimate D2E/DX2                !
 ! R67   R(32,61)                1.0945         estimate D2E/DX2                !
 ! R68   R(62,63)                1.0963         estimate D2E/DX2                !
 ! R69   R(62,64)                1.0964         estimate D2E/DX2                !
 ! R70   R(62,65)                1.0955         estimate D2E/DX2                !
 ! A1    A(2,1,6)              122.5638         estimate D2E/DX2                !
 ! A2    A(2,1,33)             119.7792         estimate D2E/DX2                !
 ! A3    A(6,1,33)             117.6322         estimate D2E/DX2                !
 ! A4    A(1,2,3)              120.0418         estimate D2E/DX2                !
 ! A5    A(1,2,32)             122.9642         estimate D2E/DX2                !
 ! A6    A(3,2,32)             116.977          estimate D2E/DX2                !
 ! A7    A(2,3,4)              116.1169         estimate D2E/DX2                !
 ! A8    A(2,3,20)             114.5643         estimate D2E/DX2                !
 ! A9    A(2,3,31)             108.8736         estimate D2E/DX2                !
 ! A10   A(4,3,20)             105.0141         estimate D2E/DX2                !
 ! A11   A(4,3,31)             104.4503         estimate D2E/DX2                !
 ! A12   A(20,3,31)            107.0156         estimate D2E/DX2                !
 ! A13   A(3,4,5)              116.9109         estimate D2E/DX2                !
 ! A14   A(3,4,7)              104.6441         estimate D2E/DX2                !
 ! A15   A(3,4,24)             109.5265         estimate D2E/DX2                !
 ! A16   A(5,4,7)              114.0478         estimate D2E/DX2                !
 ! A17   A(5,4,24)             104.9885         estimate D2E/DX2                !
 ! A18   A(7,4,24)             106.2786         estimate D2E/DX2                !
 ! A19   A(4,5,6)              112.6791         estimate D2E/DX2                !
 ! A20   A(4,5,10)             112.9757         estimate D2E/DX2                !
 ! A21   A(4,5,22)             103.8079         estimate D2E/DX2                !
 ! A22   A(6,5,10)             105.2674         estimate D2E/DX2                !
 ! A23   A(6,5,22)             111.9731         estimate D2E/DX2                !
 ! A24   A(10,5,22)            110.3051         estimate D2E/DX2                !
 ! A25   A(1,6,5)              113.0276         estimate D2E/DX2                !
 ! A26   A(1,6,34)             109.5355         estimate D2E/DX2                !
 ! A27   A(1,6,35)             110.8031         estimate D2E/DX2                !
 ! A28   A(5,6,34)             109.4542         estimate D2E/DX2                !
 ! A29   A(5,6,35)             108.0497         estimate D2E/DX2                !
 ! A30   A(34,6,35)            105.6988         estimate D2E/DX2                !
 ! A31   A(4,7,8)              112.8962         estimate D2E/DX2                !
 ! A32   A(4,7,17)             108.154          estimate D2E/DX2                !
 ! A33   A(4,7,21)             112.1222         estimate D2E/DX2                !
 ! A34   A(8,7,17)             100.4196         estimate D2E/DX2                !
 ! A35   A(8,7,21)             107.4961         estimate D2E/DX2                !
 ! A36   A(17,7,21)            115.2899         estimate D2E/DX2                !
 ! A37   A(7,8,9)              122.9255         estimate D2E/DX2                !
 ! A38   A(7,8,19)             110.7277         estimate D2E/DX2                !
 ! A39   A(9,8,19)             126.204          estimate D2E/DX2                !
 ! A40   A(8,9,10)             114.6781         estimate D2E/DX2                !
 ! A41   A(8,9,11)             121.1052         estimate D2E/DX2                !
 ! A42   A(10,9,11)            124.1916         estimate D2E/DX2                !
 ! A43   A(5,10,9)             116.6186         estimate D2E/DX2                !
 ! A44   A(5,10,16)            118.9131         estimate D2E/DX2                !
 ! A45   A(9,10,16)            123.973          estimate D2E/DX2                !
 ! A46   A(9,11,12)            119.5843         estimate D2E/DX2                !
 ! A47   A(9,11,13)            119.8771         estimate D2E/DX2                !
 ! A48   A(12,11,13)           120.5224         estimate D2E/DX2                !
 ! A49   A(11,13,14)           108.4259         estimate D2E/DX2                !
 ! A50   A(11,13,15)           110.3237         estimate D2E/DX2                !
 ! A51   A(11,13,36)           108.4837         estimate D2E/DX2                !
 ! A52   A(14,13,15)           112.7406         estimate D2E/DX2                !
 ! A53   A(14,13,36)           106.8325         estimate D2E/DX2                !
 ! A54   A(15,13,36)           109.889          estimate D2E/DX2                !
 ! A55   A(13,14,37)           108.5064         estimate D2E/DX2                !
 ! A56   A(13,14,38)           108.8808         estimate D2E/DX2                !
 ! A57   A(13,14,62)           113.7679         estimate D2E/DX2                !
 ! A58   A(37,14,38)           106.8947         estimate D2E/DX2                !
 ! A59   A(37,14,62)           110.1643         estimate D2E/DX2                !
 ! A60   A(38,14,62)           108.3975         estimate D2E/DX2                !
 ! A61   A(13,15,39)           110.7379         estimate D2E/DX2                !
 ! A62   A(13,15,40)           110.9841         estimate D2E/DX2                !
 ! A63   A(13,15,41)           111.0694         estimate D2E/DX2                !
 ! A64   A(39,15,40)           108.7172         estimate D2E/DX2                !
 ! A65   A(39,15,41)           107.9285         estimate D2E/DX2                !
 ! A66   A(40,15,41)           107.2737         estimate D2E/DX2                !
 ! A67   A(7,17,18)            103.0263         estimate D2E/DX2                !
 ! A68   A(7,17,20)            102.19           estimate D2E/DX2                !
 ! A69   A(7,17,30)            110.888          estimate D2E/DX2                !
 ! A70   A(18,17,20)           117.2412         estimate D2E/DX2                !
 ! A71   A(18,17,30)           111.4851         estimate D2E/DX2                !
 ! A72   A(20,17,30)           111.1859         estimate D2E/DX2                !
 ! A73   A(17,18,19)           102.6056         estimate D2E/DX2                !
 ! A74   A(17,18,28)           112.5756         estimate D2E/DX2                !
 ! A75   A(17,18,29)           116.3124         estimate D2E/DX2                !
 ! A76   A(19,18,28)           107.364          estimate D2E/DX2                !
 ! A77   A(19,18,29)           105.7649         estimate D2E/DX2                !
 ! A78   A(28,18,29)           111.2107         estimate D2E/DX2                !
 ! A79   A(8,19,18)            111.5076         estimate D2E/DX2                !
 ! A80   A(3,20,17)            104.2787         estimate D2E/DX2                !
 ! A81   A(3,20,42)            109.4043         estimate D2E/DX2                !
 ! A82   A(3,20,43)            112.274          estimate D2E/DX2                !
 ! A83   A(17,20,42)           110.7574         estimate D2E/DX2                !
 ! A84   A(17,20,43)           113.012          estimate D2E/DX2                !
 ! A85   A(42,20,43)           107.124          estimate D2E/DX2                !
 ! A86   A(7,21,44)            104.9537         estimate D2E/DX2                !
 ! A87   A(5,22,23)            105.4786         estimate D2E/DX2                !
 ! A88   A(5,22,45)            108.4125         estimate D2E/DX2                !
 ! A89   A(5,22,46)            112.0366         estimate D2E/DX2                !
 ! A90   A(23,22,45)           111.7859         estimate D2E/DX2                !
 ! A91   A(23,22,46)           111.3354         estimate D2E/DX2                !
 ! A92   A(45,22,46)           107.8003         estimate D2E/DX2                !
 ! A93   A(22,23,24)           104.222          estimate D2E/DX2                !
 ! A94   A(22,23,25)           119.3346         estimate D2E/DX2                !
 ! A95   A(22,23,47)           109.4944         estimate D2E/DX2                !
 ! A96   A(24,23,25)           108.6531         estimate D2E/DX2                !
 ! A97   A(24,23,47)           106.7709         estimate D2E/DX2                !
 ! A98   A(25,23,47)           107.7077         estimate D2E/DX2                !
 ! A99   A(4,24,23)            108.2689         estimate D2E/DX2                !
 ! A100  A(23,25,26)           115.0942         estimate D2E/DX2                !
 ! A101  A(23,25,27)           122.6176         estimate D2E/DX2                !
 ! A102  A(26,25,27)           122.2037         estimate D2E/DX2                !
 ! A103  A(25,26,48)           111.1455         estimate D2E/DX2                !
 ! A104  A(25,26,49)           110.9944         estimate D2E/DX2                !
 ! A105  A(25,26,50)           111.3018         estimate D2E/DX2                !
 ! A106  A(48,26,49)           106.5336         estimate D2E/DX2                !
 ! A107  A(48,26,50)           108.5129         estimate D2E/DX2                !
 ! A108  A(49,26,50)           108.1747         estimate D2E/DX2                !
 ! A109  A(25,27,51)           120.9116         estimate D2E/DX2                !
 ! A110  A(25,27,52)           122.8555         estimate D2E/DX2                !
 ! A111  A(51,27,52)           116.2311         estimate D2E/DX2                !
 ! A112  A(18,28,53)           109.9238         estimate D2E/DX2                !
 ! A113  A(18,28,54)           111.0151         estimate D2E/DX2                !
 ! A114  A(18,28,55)           109.8551         estimate D2E/DX2                !
 ! A115  A(53,28,54)           108.5872         estimate D2E/DX2                !
 ! A116  A(53,28,55)           108.3497         estimate D2E/DX2                !
 ! A117  A(54,28,55)           109.054          estimate D2E/DX2                !
 ! A118  A(18,29,56)           109.9506         estimate D2E/DX2                !
 ! A119  A(18,29,57)           111.962          estimate D2E/DX2                !
 ! A120  A(18,29,58)           109.8996         estimate D2E/DX2                !
 ! A121  A(56,29,57)           108.0328         estimate D2E/DX2                !
 ! A122  A(56,29,58)           108.2779         estimate D2E/DX2                !
 ! A123  A(57,29,58)           108.6238         estimate D2E/DX2                !
 ! A124  A(2,32,59)            111.2428         estimate D2E/DX2                !
 ! A125  A(2,32,60)            111.4166         estimate D2E/DX2                !
 ! A126  A(2,32,61)            111.582          estimate D2E/DX2                !
 ! A127  A(59,32,60)           106.4437         estimate D2E/DX2                !
 ! A128  A(59,32,61)           108.1144         estimate D2E/DX2                !
 ! A129  A(60,32,61)           107.8149         estimate D2E/DX2                !
 ! A130  A(14,62,63)           110.5464         estimate D2E/DX2                !
 ! A131  A(14,62,64)           110.6279         estimate D2E/DX2                !
 ! A132  A(14,62,65)           112.2416         estimate D2E/DX2                !
 ! A133  A(63,62,64)           107.751          estimate D2E/DX2                !
 ! A134  A(63,62,65)           108.0802         estimate D2E/DX2                !
 ! A135  A(64,62,65)           107.4226         estimate D2E/DX2                !
 ! D1    D(6,1,2,3)             -0.1856         estimate D2E/DX2                !
 ! D2    D(6,1,2,32)           178.2704         estimate D2E/DX2                !
 ! D3    D(33,1,2,3)          -178.3273         estimate D2E/DX2                !
 ! D4    D(33,1,2,32)            0.1287         estimate D2E/DX2                !
 ! D5    D(2,1,6,5)             37.485          estimate D2E/DX2                !
 ! D6    D(2,1,6,34)           -84.8457         estimate D2E/DX2                !
 ! D7    D(2,1,6,35)           158.9269         estimate D2E/DX2                !
 ! D8    D(33,1,6,5)          -144.3355         estimate D2E/DX2                !
 ! D9    D(33,1,6,34)           93.3338         estimate D2E/DX2                !
 ! D10   D(33,1,6,35)          -22.8936         estimate D2E/DX2                !
 ! D11   D(1,2,3,4)            -27.9693         estimate D2E/DX2                !
 ! D12   D(1,2,3,20)            94.8039         estimate D2E/DX2                !
 ! D13   D(1,2,3,31)          -145.4409         estimate D2E/DX2                !
 ! D14   D(32,2,3,4)           153.4843         estimate D2E/DX2                !
 ! D15   D(32,2,3,20)          -83.7425         estimate D2E/DX2                !
 ! D16   D(32,2,3,31)           36.0126         estimate D2E/DX2                !
 ! D17   D(1,2,32,59)          121.4411         estimate D2E/DX2                !
 ! D18   D(1,2,32,60)         -119.9578         estimate D2E/DX2                !
 ! D19   D(1,2,32,61)            0.6105         estimate D2E/DX2                !
 ! D20   D(3,2,32,59)          -60.0587         estimate D2E/DX2                !
 ! D21   D(3,2,32,60)           58.5425         estimate D2E/DX2                !
 ! D22   D(3,2,32,61)          179.1108         estimate D2E/DX2                !
 ! D23   D(2,3,4,5)             17.3299         estimate D2E/DX2                !
 ! D24   D(2,3,4,7)            144.5557         estimate D2E/DX2                !
 ! D25   D(2,3,4,24)          -101.862          estimate D2E/DX2                !
 ! D26   D(20,3,4,5)          -110.3207         estimate D2E/DX2                !
 ! D27   D(20,3,4,7)            16.9051         estimate D2E/DX2                !
 ! D28   D(20,3,4,24)          130.4874         estimate D2E/DX2                !
 ! D29   D(31,3,4,5)           137.2223         estimate D2E/DX2                !
 ! D30   D(31,3,4,7)           -95.5519         estimate D2E/DX2                !
 ! D31   D(31,3,4,24)           18.0304         estimate D2E/DX2                !
 ! D32   D(2,3,20,17)         -164.1572         estimate D2E/DX2                !
 ! D33   D(2,3,20,42)          -45.6429         estimate D2E/DX2                !
 ! D34   D(2,3,20,43)           73.1485         estimate D2E/DX2                !
 ! D35   D(4,3,20,17)          -35.5695         estimate D2E/DX2                !
 ! D36   D(4,3,20,42)           82.9448         estimate D2E/DX2                !
 ! D37   D(4,3,20,43)         -158.2638         estimate D2E/DX2                !
 ! D38   D(31,3,20,17)          75.0566         estimate D2E/DX2                !
 ! D39   D(31,3,20,42)        -166.429          estimate D2E/DX2                !
 ! D40   D(31,3,20,43)         -47.6377         estimate D2E/DX2                !
 ! D41   D(3,4,5,6)             17.5674         estimate D2E/DX2                !
 ! D42   D(3,4,5,10)           136.7209         estimate D2E/DX2                !
 ! D43   D(3,4,5,22)          -103.7848         estimate D2E/DX2                !
 ! D44   D(7,4,5,6)           -104.9091         estimate D2E/DX2                !
 ! D45   D(7,4,5,10)            14.2445         estimate D2E/DX2                !
 ! D46   D(7,4,5,22)           133.7388         estimate D2E/DX2                !
 ! D47   D(24,4,5,6)           139.1636         estimate D2E/DX2                !
 ! D48   D(24,4,5,10)         -101.6829         estimate D2E/DX2                !
 ! D49   D(24,4,5,22)           17.8114         estimate D2E/DX2                !
 ! D50   D(3,4,7,8)           -102.4565         estimate D2E/DX2                !
 ! D51   D(3,4,7,17)             7.7308         estimate D2E/DX2                !
 ! D52   D(3,4,7,21)           135.9444         estimate D2E/DX2                !
 ! D53   D(5,4,7,8)             26.5098         estimate D2E/DX2                !
 ! D54   D(5,4,7,17)           136.697          estimate D2E/DX2                !
 ! D55   D(5,4,7,21)           -95.0894         estimate D2E/DX2                !
 ! D56   D(24,4,7,8)           141.682          estimate D2E/DX2                !
 ! D57   D(24,4,7,17)         -108.1308         estimate D2E/DX2                !
 ! D58   D(24,4,7,21)           20.0828         estimate D2E/DX2                !
 ! D59   D(3,4,24,23)           91.5252         estimate D2E/DX2                !
 ! D60   D(5,4,24,23)          -34.7801         estimate D2E/DX2                !
 ! D61   D(7,4,24,23)         -155.955          estimate D2E/DX2                !
 ! D62   D(4,5,6,1)            -43.7324         estimate D2E/DX2                !
 ! D63   D(4,5,6,34)            78.6438         estimate D2E/DX2                !
 ! D64   D(4,5,6,35)          -166.7158         estimate D2E/DX2                !
 ! D65   D(10,5,6,1)          -167.2774         estimate D2E/DX2                !
 ! D66   D(10,5,6,34)          -44.9013         estimate D2E/DX2                !
 ! D67   D(10,5,6,35)           69.7392         estimate D2E/DX2                !
 ! D68   D(22,5,6,1)            72.8532         estimate D2E/DX2                !
 ! D69   D(22,5,6,34)         -164.7706         estimate D2E/DX2                !
 ! D70   D(22,5,6,35)          -50.1301         estimate D2E/DX2                !
 ! D71   D(4,5,10,9)           -47.5074         estimate D2E/DX2                !
 ! D72   D(4,5,10,16)          140.2428         estimate D2E/DX2                !
 ! D73   D(6,5,10,9)            75.8486         estimate D2E/DX2                !
 ! D74   D(6,5,10,16)          -96.4012         estimate D2E/DX2                !
 ! D75   D(22,5,10,9)         -163.1836         estimate D2E/DX2                !
 ! D76   D(22,5,10,16)          24.5666         estimate D2E/DX2                !
 ! D77   D(4,5,22,23)            3.8846         estimate D2E/DX2                !
 ! D78   D(4,5,22,45)         -115.9879         estimate D2E/DX2                !
 ! D79   D(4,5,22,46)          125.1741         estimate D2E/DX2                !
 ! D80   D(6,5,22,23)         -117.939          estimate D2E/DX2                !
 ! D81   D(6,5,22,45)          122.1884         estimate D2E/DX2                !
 ! D82   D(6,5,22,46)            3.3505         estimate D2E/DX2                !
 ! D83   D(10,5,22,23)         125.1852         estimate D2E/DX2                !
 ! D84   D(10,5,22,45)           5.3127         estimate D2E/DX2                !
 ! D85   D(10,5,22,46)        -113.5252         estimate D2E/DX2                !
 ! D86   D(4,7,8,9)            -44.4898         estimate D2E/DX2                !
 ! D87   D(4,7,8,19)           139.6095         estimate D2E/DX2                !
 ! D88   D(17,7,8,9)          -159.4225         estimate D2E/DX2                !
 ! D89   D(17,7,8,19)           24.6768         estimate D2E/DX2                !
 ! D90   D(21,7,8,9)            79.6872         estimate D2E/DX2                !
 ! D91   D(21,7,8,19)          -96.2135         estimate D2E/DX2                !
 ! D92   D(4,7,17,18)         -151.3108         estimate D2E/DX2                !
 ! D93   D(4,7,17,20)          -29.2618         estimate D2E/DX2                !
 ! D94   D(4,7,17,30)           89.3047         estimate D2E/DX2                !
 ! D95   D(8,7,17,18)          -32.8469         estimate D2E/DX2                !
 ! D96   D(8,7,17,20)           89.202          estimate D2E/DX2                !
 ! D97   D(8,7,17,30)         -152.2314         estimate D2E/DX2                !
 ! D98   D(21,7,17,18)          82.3018         estimate D2E/DX2                !
 ! D99   D(21,7,17,20)        -155.6493         estimate D2E/DX2                !
 ! D100  D(21,7,17,30)         -37.0827         estimate D2E/DX2                !
 ! D101  D(4,7,21,44)          -11.2335         estimate D2E/DX2                !
 ! D102  D(8,7,21,44)         -135.8788         estimate D2E/DX2                !
 ! D103  D(17,7,21,44)         113.1029         estimate D2E/DX2                !
 ! D104  D(7,8,9,10)            12.7122         estimate D2E/DX2                !
 ! D105  D(7,8,9,11)          -169.0359         estimate D2E/DX2                !
 ! D106  D(19,8,9,10)         -172.0406         estimate D2E/DX2                !
 ! D107  D(19,8,9,11)            6.2114         estimate D2E/DX2                !
 ! D108  D(7,8,19,18)           -5.4281         estimate D2E/DX2                !
 ! D109  D(9,8,19,18)          178.8364         estimate D2E/DX2                !
 ! D110  D(8,9,10,5)            34.3244         estimate D2E/DX2                !
 ! D111  D(8,9,10,16)         -153.8591         estimate D2E/DX2                !
 ! D112  D(11,9,10,5)         -143.8661         estimate D2E/DX2                !
 ! D113  D(11,9,10,16)          27.9504         estimate D2E/DX2                !
 ! D114  D(8,9,11,12)          -14.3317         estimate D2E/DX2                !
 ! D115  D(8,9,11,13)          164.2114         estimate D2E/DX2                !
 ! D116  D(10,9,11,12)         163.748          estimate D2E/DX2                !
 ! D117  D(10,9,11,13)         -17.709          estimate D2E/DX2                !
 ! D118  D(9,11,13,14)         -75.9627         estimate D2E/DX2                !
 ! D119  D(9,11,13,15)         160.1271         estimate D2E/DX2                !
 ! D120  D(9,11,13,36)          39.7076         estimate D2E/DX2                !
 ! D121  D(12,11,13,14)        102.5665         estimate D2E/DX2                !
 ! D122  D(12,11,13,15)        -21.3437         estimate D2E/DX2                !
 ! D123  D(12,11,13,36)       -141.7633         estimate D2E/DX2                !
 ! D124  D(11,13,14,37)        -67.5675         estimate D2E/DX2                !
 ! D125  D(11,13,14,38)         48.432          estimate D2E/DX2                !
 ! D126  D(11,13,14,62)        169.4348         estimate D2E/DX2                !
 ! D127  D(15,13,14,37)         54.8842         estimate D2E/DX2                !
 ! D128  D(15,13,14,38)        170.8838         estimate D2E/DX2                !
 ! D129  D(15,13,14,62)        -68.1135         estimate D2E/DX2                !
 ! D130  D(36,13,14,37)        175.6941         estimate D2E/DX2                !
 ! D131  D(36,13,14,38)        -68.3063         estimate D2E/DX2                !
 ! D132  D(36,13,14,62)         52.6964         estimate D2E/DX2                !
 ! D133  D(11,13,15,39)       -178.197          estimate D2E/DX2                !
 ! D134  D(11,13,15,40)         60.9577         estimate D2E/DX2                !
 ! D135  D(11,13,15,41)        -58.2893         estimate D2E/DX2                !
 ! D136  D(14,13,15,39)         60.4229         estimate D2E/DX2                !
 ! D137  D(14,13,15,40)        -60.4224         estimate D2E/DX2                !
 ! D138  D(14,13,15,41)       -179.6694         estimate D2E/DX2                !
 ! D139  D(36,13,15,39)        -58.6246         estimate D2E/DX2                !
 ! D140  D(36,13,15,40)       -179.4699         estimate D2E/DX2                !
 ! D141  D(36,13,15,41)         61.2831         estimate D2E/DX2                !
 ! D142  D(13,14,62,63)        -59.1753         estimate D2E/DX2                !
 ! D143  D(13,14,62,64)       -178.4492         estimate D2E/DX2                !
 ! D144  D(13,14,62,65)         61.5783         estimate D2E/DX2                !
 ! D145  D(37,14,62,63)        178.7387         estimate D2E/DX2                !
 ! D146  D(37,14,62,64)         59.4648         estimate D2E/DX2                !
 ! D147  D(37,14,62,65)        -60.5077         estimate D2E/DX2                !
 ! D148  D(38,14,62,63)         62.0973         estimate D2E/DX2                !
 ! D149  D(38,14,62,64)        -57.1767         estimate D2E/DX2                !
 ! D150  D(38,14,62,65)       -177.1491         estimate D2E/DX2                !
 ! D151  D(7,17,18,19)          30.6535         estimate D2E/DX2                !
 ! D152  D(7,17,18,28)         -84.4445         estimate D2E/DX2                !
 ! D153  D(7,17,18,29)         145.5617         estimate D2E/DX2                !
 ! D154  D(20,17,18,19)        -80.6235         estimate D2E/DX2                !
 ! D155  D(20,17,18,28)        164.2785         estimate D2E/DX2                !
 ! D156  D(20,17,18,29)         34.2847         estimate D2E/DX2                !
 ! D157  D(30,17,18,19)        149.6234         estimate D2E/DX2                !
 ! D158  D(30,17,18,28)         34.5255         estimate D2E/DX2                !
 ! D159  D(30,17,18,29)        -95.4683         estimate D2E/DX2                !
 ! D160  D(7,17,20,3)           39.5562         estimate D2E/DX2                !
 ! D161  D(7,17,20,42)         -78.0298         estimate D2E/DX2                !
 ! D162  D(7,17,20,43)         161.7664         estimate D2E/DX2                !
 ! D163  D(18,17,20,3)         151.3078         estimate D2E/DX2                !
 ! D164  D(18,17,20,42)         33.7218         estimate D2E/DX2                !
 ! D165  D(18,17,20,43)        -86.482          estimate D2E/DX2                !
 ! D166  D(30,17,20,3)         -78.799          estimate D2E/DX2                !
 ! D167  D(30,17,20,42)        163.615          estimate D2E/DX2                !
 ! D168  D(30,17,20,43)         43.4112         estimate D2E/DX2                !
 ! D169  D(17,18,19,8)         -16.3907         estimate D2E/DX2                !
 ! D170  D(28,18,19,8)         102.4316         estimate D2E/DX2                !
 ! D171  D(29,18,19,8)        -138.7414         estimate D2E/DX2                !
 ! D172  D(17,18,28,53)        -72.5979         estimate D2E/DX2                !
 ! D173  D(17,18,28,54)         47.564          estimate D2E/DX2                !
 ! D174  D(17,18,28,55)        168.2644         estimate D2E/DX2                !
 ! D175  D(19,18,28,53)        175.2146         estimate D2E/DX2                !
 ! D176  D(19,18,28,54)        -64.6235         estimate D2E/DX2                !
 ! D177  D(19,18,28,55)         56.0769         estimate D2E/DX2                !
 ! D178  D(29,18,28,53)         59.9561         estimate D2E/DX2                !
 ! D179  D(29,18,28,54)       -179.882          estimate D2E/DX2                !
 ! D180  D(29,18,28,55)        -59.1816         estimate D2E/DX2                !
 ! D181  D(17,18,29,56)       -174.999          estimate D2E/DX2                !
 ! D182  D(17,18,29,57)        -54.9016         estimate D2E/DX2                !
 ! D183  D(17,18,29,58)         65.9076         estimate D2E/DX2                !
 ! D184  D(19,18,29,56)        -61.8837         estimate D2E/DX2                !
 ! D185  D(19,18,29,57)         58.2137         estimate D2E/DX2                !
 ! D186  D(19,18,29,58)        179.0229         estimate D2E/DX2                !
 ! D187  D(28,18,29,56)         54.3608         estimate D2E/DX2                !
 ! D188  D(28,18,29,57)        174.4582         estimate D2E/DX2                !
 ! D189  D(28,18,29,58)        -64.7327         estimate D2E/DX2                !
 ! D190  D(5,22,23,24)         -24.0046         estimate D2E/DX2                !
 ! D191  D(5,22,23,25)        -145.398          estimate D2E/DX2                !
 ! D192  D(5,22,23,47)          89.9175         estimate D2E/DX2                !
 ! D193  D(45,22,23,24)         93.6172         estimate D2E/DX2                !
 ! D194  D(45,22,23,25)        -27.7762         estimate D2E/DX2                !
 ! D195  D(45,22,23,47)       -152.4607         estimate D2E/DX2                !
 ! D196  D(46,22,23,24)       -145.7488         estimate D2E/DX2                !
 ! D197  D(46,22,23,25)         92.8578         estimate D2E/DX2                !
 ! D198  D(46,22,23,47)        -31.8267         estimate D2E/DX2                !
 ! D199  D(22,23,24,4)          37.3094         estimate D2E/DX2                !
 ! D200  D(25,23,24,4)         165.5507         estimate D2E/DX2                !
 ! D201  D(47,23,24,4)         -78.5357         estimate D2E/DX2                !
 ! D202  D(22,23,25,26)        170.7841         estimate D2E/DX2                !
 ! D203  D(22,23,25,27)        -12.4919         estimate D2E/DX2                !
 ! D204  D(24,23,25,26)         51.6312         estimate D2E/DX2                !
 ! D205  D(24,23,25,27)       -131.6448         estimate D2E/DX2                !
 ! D206  D(47,23,25,26)        -63.676          estimate D2E/DX2                !
 ! D207  D(47,23,25,27)        113.048          estimate D2E/DX2                !
 ! D208  D(23,25,26,48)        -62.0581         estimate D2E/DX2                !
 ! D209  D(23,25,26,49)         56.3172         estimate D2E/DX2                !
 ! D210  D(23,25,26,50)        176.8629         estimate D2E/DX2                !
 ! D211  D(27,25,26,48)        121.2029         estimate D2E/DX2                !
 ! D212  D(27,25,26,49)       -120.4218         estimate D2E/DX2                !
 ! D213  D(27,25,26,50)          0.1239         estimate D2E/DX2                !
 ! D214  D(23,25,27,51)       -176.8673         estimate D2E/DX2                !
 ! D215  D(23,25,27,52)          2.6247         estimate D2E/DX2                !
 ! D216  D(26,25,27,51)         -0.3737         estimate D2E/DX2                !
 ! D217  D(26,25,27,52)        179.1182         estimate D2E/DX2                !
 --------------------------------------------------------------------------------
 Trust Radius=3.00D-01 FncErr=1.00D-07 GrdErr=1.00D-06
 Number of steps in this run=    390 maximum allowed number of steps=    390.
 GradGradGradGradGradGradGradGradGradGradGradGradGradGradGradGradGradGrad

 Stoichiometry    C26H34O5
 Framework group  C1[X(C26H34O5)]
 Deg. of freedom   189
 Full point group                 C1      NOp   1
 Largest Abelian subgroup         C1      NOp   1
 Largest concise Abelian subgroup C1      NOp   1
                         Standard orientation:                         
 ---------------------------------------------------------------------
 Center     Atomic      Atomic             Coordinates (Angstroms)
 Number     Number       Type             X           Y           Z
 ---------------------------------------------------------------------
      1          6           0        1.834607    0.017338    2.886887
      2          6           0        2.644855    0.800553    2.164352
      3          6           0        2.283456    1.153562    0.739771
      4          6           0        1.403814    0.111445   -0.025757
      5          6           0        0.649144   -0.950984    0.840704
      6          6           0        0.547259   -0.540565    2.340106
      7          6           0        0.471362    0.971564   -0.929701
      8          6           0       -0.945576    1.094226   -0.374871
      9          6           0       -1.640996    0.029574    0.131777
     10          6           0       -0.825664   -1.181434    0.375825
     11          6           0       -3.107786    0.136575    0.440951
     12          8           0       -3.635532    1.239458    0.492196
     13          6           0       -3.936453   -1.132705    0.655994
     14          6           0       -4.208524   -1.781363   -0.727827
     15          6           0       -5.224323   -0.804688    1.420225
     16          8           0       -1.275276   -2.320881    0.375306
     17          6           0        0.934989    2.440856   -0.838548
     18          6           0       -0.365666    3.232248   -1.090166
     19          8           0       -1.409000    2.325844   -0.539212
     20          6           0        1.536953    2.504910    0.579394
     21          8           0        0.371173    0.450405   -2.239082
     22          6           0        1.482900   -2.245570    0.648427
     23          6           0        2.683929   -1.834699   -0.207299
     24          8           0        2.230410   -0.653436   -0.913538
     25          6           0        3.246548   -2.814090   -1.213874
     26          6           0        4.281478   -2.243197   -2.153321
     27          6           0        2.906157   -4.105739   -1.229644
     28          6           0       -0.661952    3.417290   -2.580406
     29          6           0       -0.515199    4.546421   -0.330439
     30          1           0        1.690419    2.659367   -1.598989
     31          1           0        3.205347    1.223051    0.146000
     32          6           0        3.915719    1.394396    2.714306
     33          1           0        2.085348   -0.212021    3.921486
     34          1           0       -0.255908    0.199850    2.463270
     35          1           0        0.230231   -1.419739    2.911933
     36          1           0       -3.335444   -1.846794    1.228179
     37          1           0       -4.875994   -1.120074   -1.297883
     38          1           0       -3.266572   -1.838760   -1.283699
     39          1           0       -5.806997   -1.712772    1.605706
     40          1           0       -5.843692   -0.098611    0.859300
     41          1           0       -5.001100   -0.343646    2.388446
     42          1           0        0.745288    2.575689    1.334860
     43          1           0        2.198757    3.364137    0.724743
     44          1           0        1.070338   -0.232687   -2.293268
     45          1           0        0.859389   -2.985338    0.142895
     46          1           0        1.802053   -2.673403    1.602504
     47          1           0        3.511044   -1.515412    0.448506
     48          1           0        3.857118   -1.442594   -2.769611
     49          1           0        5.117199   -1.798652   -1.595240
     50          1           0        4.685373   -3.014386   -2.815670
     51          1           0        3.365340   -4.795700   -1.933052
     52          1           0        2.174182   -4.529930   -0.550254
     53          1           0        0.032950    4.146996   -3.011574
     54          1           0       -0.555979    2.474035   -3.120931
     55          1           0       -1.681591    3.792449   -2.712921
     56          1           0       -1.505205    4.974188   -0.515625
     57          1           0       -0.401820    4.410291    0.747901
     58          1           0        0.238635    5.263483   -0.673745
     59          1           0        4.788752    1.083050    2.123921
     60          1           0        3.892934    2.492459    2.680519
     61          1           0        4.083313    1.094754    3.753610
     62          6           0       -4.806355   -3.189169   -0.642949
     63          1           0       -4.134722   -3.859980   -0.094479
     64          1           0       -4.951684   -3.608197   -1.645640
     65          1           0       -5.779565   -3.196760   -0.140057
 ---------------------------------------------------------------------
 Rotational constants (GHZ):      0.1861653      0.1343435      0.1048207
 Standard basis: 6-311+G(d) (5D, 7F)
 There are   784 symmetry adapted basis functions of A   symmetry.
 Integral buffers will be    131072 words long.
 Raffenetti 2 integral format.
 Two-electron integral symmetry is turned on.
   784 basis functions,  1286 primitive gaussians,   815 cartesian basis functions
   115 alpha electrons      115 beta electrons
       nuclear repulsion energy      3485.5804992912 Hartrees.
 NAtoms=   65 NActive=   65 NUniq=   65 SFac= 1.00D+00 NAtFMM=   50 NAOKFM=T Big=T
 One-electron integrals computed using PRISM.
 NBasis=   784 RedAO= T  NBF=   784
 NBsUse=   778 1.00D-06 NBFU=   778
 Harris functional with IExCor=  402 diagonalized for initial guess.
 ExpMin= 4.38D-02 ExpMax= 8.59D+03 ExpMxC= 1.30D+03 IAcc=2 IRadAn=         0 AccDes= 0.00D+00
 HarFok:  IExCor=  402 AccDes= 0.00D+00 IRadAn=         0 IDoV= 1
 ScaDFX=  1.000000  1.000000  1.000000  1.000000
 FoFCou: FMM=F IPFlag=           0 FMFlag=      100000 FMFlg1=        2001
         NFxFlg=           0 DoJE=T BraDBF=F KetDBF=T FulRan=T
         Omega=  0.000000  0.000000  1.000000  0.000000  0.000000 ICntrl=     500 IOpCl=  0
         NMat0=    1 NMatS0=    1 NMatT0=    0 NMatD0=    1 NMtDS0=    0 NMtDT0=    0
         I1Cent=           4 NGrid=           0.
 Petite list used in FoFCou.
 Initial guess orbital symmetries:
       Occupied  (A) (A) (A) (A) (A) (A) (A) (A) (A) (A) (A) (A)
                 (A) (A) (A) (A) (A) (A) (A) (A) (A) (A) (A) (A)
                 (A) (A) (A) (A) (A) (A) (A) (A) (A) (A) (A) (A)
                 (A) (A) (A) (A) (A) (A) (A) (A) (A) (A) (A) (A)
                 (A) (A) (A) (A) (A) (A) (A) (A) (A) (A) (A) (A)
                 (A) (A) (A) (A) (A) (A) (A) (A) (A) (A) (A) (A)
                 (A) (A) (A) (A) (A) (A) (A) (A) (A) (A) (A) (A)
                 (A) (A) (A) (A) (A) (A) (A) (A) (A) (A) (A) (A)
                 (A) (A) (A) (A) (A) (A) (A) (A) (A) (A) (A) (A)
                 (A) (A) (A) (A) (A) (A) (A)
       Virtual   (A) (A) (A) (A) (A) (A) (A) (A) (A) (A) (A) (A)
                 (A) (A) (A) (A) (A) (A) (A) (A) (A) (A) (A) (A)
                 (A) (A) (A) (A) (A) (A) (A) (A) (A) (A) (A) (A)
                 (A) (A) (A) (A) (A) (A) (A) (A) (A) (A) (A) (A)
                 (A) (A) (A) (A) (A) (A) (A) (A) (A) (A) (A) (A)
                 (A) (A) (A) (A) (A) (A) (A) (A) (A) (A) (A) (A)
                 (A) (A) (A) (A) (A) (A) (A) (A) (A) (A) (A) (A)
                 (A) (A) (A) (A) (A) (A) (A) (A) (A) (A) (A) (A)
                 (A) (A) (A) (A) (A) (A) (A) (A) (A) (A) (A) (A)
                 (A) (A) (A) (A) (A) (A) (A) (A) (A) (A) (A) (A)
                 (A) (A) (A) (A) (A) (A) (A) (A) (A) (A) (A) (A)
                 (A) (A) (A) (A) (A) (A) (A) (A) (A) (A) (A) (A)
                 (A) (A) (A) (A) (A) (A) (A) (A) (A) (A) (A) (A)
                 (A) (A) (A) (A) (A) (A) (A) (A) (A) (A) (A) (A)
                 (A) (A) (A) (A) (A) (A) (A) (A) (A) (A) (A) (A)
                 (A) (A) (A) (A) (A) (A) (A) (A) (A) (A) (A) (A)
                 (A) (A) (A) (A) (A) (A) (A) (A) (A) (A) (A) (A)
                 (A) (A) (A) (A) (A) (A) (A) (A) (A) (A) (A) (A)
                 (A) (A) (A) (A) (A) (A) (A) (A) (A) (A) (A) (A)
                 (A) (A) (A) (A) (A) (A) (A) (A) (A) (A) (A) (A)
                 (A) (A) (A) (A) (A) (A) (A) (A) (A) (A) (A) (A)
                 (A) (A) (A) (A) (A) (A) (A) (A) (A) (A) (A) (A)
                 (A) (A) (A) (A) (A) (A) (A) (A) (A) (A) (A) (A)
                 (A) (A) (A) (A) (A) (A) (A) (A) (A) (A) (A) (A)
                 (A) (A) (A) (A) (A) (A) (A) (A) (A) (A) (A) (A)
                 (A) (A) (A) (A) (A) (A) (A) (A) (A) (A) (A) (A)
                 (A) (A) (A) (A) (A) (A) (A) (A) (A) (A) (A) (A)
                 (A) (A) (A) (A) (A) (A) (A) (A) (A) (A) (A) (A)
                 (A) (A) (A) (A) (A) (A) (A) (A) (A) (A) (A) (A)
                 (A) (A) (A) (A) (A) (A) (A) (A) (A) (A) (A) (A)
                 (A) (A) (A) (A) (A) (A) (A) (A) (A) (A) (A) (A)
                 (A) (A) (A) (A) (A) (A) (A) (A) (A) (A) (A) (A)
                 (A) (A) (A) (A) (A) (A) (A) (A) (A) (A) (A) (A)
                 (A) (A) (A) (A) (A) (A) (A) (A) (A) (A) (A) (A)
                 (A) (A) (A) (A) (A) (A) (A) (A) (A) (A) (A) (A)
                 (A) (A) (A) (A) (A) (A) (A) (A) (A) (A) (A) (A)
                 (A) (A) (A) (A) (A) (A) (A) (A) (A) (A) (A) (A)
                 (A) (A) (A) (A) (A) (A) (A) (A) (A) (A) (A) (A)
                 (A) (A) (A) (A) (A) (A) (A) (A) (A) (A) (A) (A)
                 (A) (A) (A) (A) (A) (A) (A) (A) (A) (A) (A) (A)
                 (A) (A) (A) (A) (A) (A) (A) (A) (A) (A) (A) (A)
                 (A) (A) (A) (A) (A) (A) (A) (A) (A) (A) (A) (A)
                 (A) (A) (A) (A) (A) (A) (A) (A) (A) (A) (A) (A)
                 (A) (A) (A) (A) (A) (A) (A) (A) (A) (A) (A) (A)
                 (A) (A) (A) (A) (A) (A) (A) (A) (A) (A) (A) (A)
                 (A) (A) (A) (A) (A) (A) (A) (A) (A) (A) (A) (A)
                 (A) (A) (A) (A) (A) (A) (A) (A) (A) (A) (A) (A)
                 (A) (A) (A) (A) (A) (A) (A) (A) (A) (A) (A) (A)
                 (A) (A) (A) (A) (A) (A) (A) (A) (A) (A) (A) (A)
                 (A) (A) (A) (A) (A) (A) (A) (A) (A) (A) (A) (A)
                 (A) (A) (A) (A) (A) (A) (A) (A) (A) (A) (A) (A)
                 (A) (A) (A) (A) (A) (A) (A) (A) (A) (A) (A) (A)
                 (A) (A) (A) (A) (A) (A) (A) (A) (A) (A) (A) (A)
                 (A) (A) (A) (A) (A) (A) (A) (A) (A) (A) (A) (A)
                 (A) (A) (A) (A) (A) (A) (A) (A) (A) (A) (A) (A)
                 (A) (A) (A)
 The electronic state of the initial guess is 1-A.
 Requested convergence on RMS density matrix=1.00D-08 within 128 cycles.
 Requested convergence on MAX density matrix=1.00D-06.
 Requested convergence on             energy=1.00D-06.
 No special actions if energy rises.
 SCF Done:  E(RB3LYP) =  -1387.64852577     A.U. after   16 cycles
             Convg  =    0.8381D-08             -V/T =  2.0043

 **********************************************************************

            Population analysis using the SCF density.

 **********************************************************************

 Orbital symmetries:
       Occupied  (A) (A) (A) (A) (A) (A) (A) (A) (A) (A) (A) (A)
                 (A) (A) (A) (A) (A) (A) (A) (A) (A) (A) (A) (A)
                 (A) (A) (A) (A) (A) (A) (A) (A) (A) (A) (A) (A)
                 (A) (A) (A) (A) (A) (A) (A) (A) (A) (A) (A) (A)
                 (A) (A) (A) (A) (A) (A) (A) (A) (A) (A) (A) (A)
                 (A) (A) (A) (A) (A) (A) (A) (A) (A) (A) (A) (A)
                 (A) (A) (A) (A) (A) (A) (A) (A) (A) (A) (A) (A)
                 (A) (A) (A) (A) (A) (A) (A) (A) (A) (A) (A) (A)
                 (A) (A) (A) (A) (A) (A) (A) (A) (A) (A) (A) (A)
                 (A) (A) (A) (A) (A) (A) (A)
       Virtual   (A) (A) (A) (A) (A) (A) (A) (A) (A) (A) (A) (A)
                 (A) (A) (A) (A) (A) (A) (A) (A) (A) (A) (A) (A)
                 (A) (A) (A) (A) (A) (A) (A) (A) (A) (A) (A) (A)
                 (A) (A) (A) (A) (A) (A) (A) (A) (A) (A) (A) (A)
                 (A) (A) (A) (A) (A) (A) (A) (A) (A) (A) (A) (A)
                 (A) (A) (A) (A) (A) (A) (A) (A) (A) (A) (A) (A)
                 (A) (A) (A) (A) (A) (A) (A) (A) (A) (A) (A) (A)
                 (A) (A) (A) (A) (A) (A) (A) (A) (A) (A) (A) (A)
                 (A) (A) (A) (A) (A) (A) (A) (A) (A) (A) (A) (A)
                 (A) (A) (A) (A) (A) (A) (A) (A) (A) (A) (A) (A)
                 (A) (A) (A) (A) (A) (A) (A) (A) (A) (A) (A) (A)
                 (A) (A) (A) (A) (A) (A) (A) (A) (A) (A) (A) (A)
                 (A) (A) (A) (A) (A) (A) (A) (A) (A) (A) (A) (A)
                 (A) (A) (A) (A) (A) (A) (A) (A) (A) (A) (A) (A)
                 (A) (A) (A) (A) (A) (A) (A) (A) (A) (A) (A) (A)
                 (A) (A) (A) (A) (A) (A) (A) (A) (A) (A) (A) (A)
                 (A) (A) (A) (A) (A) (A) (A) (A) (A) (A) (A) (A)
                 (A) (A) (A) (A) (A) (A) (A) (A) (A) (A) (A) (A)
                 (A) (A) (A) (A) (A) (A) (A) (A) (A) (A) (A) (A)
                 (A) (A) (A) (A) (A) (A) (A) (A) (A) (A) (A) (A)
                 (A) (A) (A) (A) (A) (A) (A) (A) (A) (A) (A) (A)
                 (A) (A) (A) (A) (A) (A) (A) (A) (A) (A) (A) (A)
                 (A) (A) (A) (A) (A) (A) (A) (A) (A) (A) (A) (A)
                 (A) (A) (A) (A) (A) (A) (A) (A) (A) (A) (A) (A)
                 (A) (A) (A) (A) (A) (A) (A) (A) (A) (A) (A) (A)
                 (A) (A) (A) (A) (A) (A) (A) (A) (A) (A) (A) (A)
                 (A) (A) (A) (A) (A) (A) (A) (A) (A) (A) (A) (A)
                 (A) (A) (A) (A) (A) (A) (A) (A) (A) (A) (A) (A)
                 (A) (A) (A) (A) (A) (A) (A) (A) (A) (A) (A) (A)
                 (A) (A) (A) (A) (A) (A) (A) (A) (A) (A) (A) (A)
                 (A) (A) (A) (A) (A) (A) (A) (A) (A) (A) (A) (A)
                 (A) (A) (A) (A) (A) (A) (A) (A) (A) (A) (A) (A)
                 (A) (A) (A) (A) (A) (A) (A) (A) (A) (A) (A) (A)
                 (A) (A) (A) (A) (A) (A) (A) (A) (A) (A) (A) (A)
                 (A) (A) (A) (A) (A) (A) (A) (A) (A) (A) (A) (A)
                 (A) (A) (A) (A) (A) (A) (A) (A) (A) (A) (A) (A)
                 (A) (A) (A) (A) (A) (A) (A) (A) (A) (A) (A) (A)
                 (A) (A) (A) (A) (A) (A) (A) (A) (A) (A) (A) (A)
                 (A) (A) (A) (A) (A) (A) (A) (A) (A) (A) (A) (A)
                 (A) (A) (A) (A) (A) (A) (A) (A) (A) (A) (A) (A)
                 (A) (A) (A) (A) (A) (A) (A) (A) (A) (A) (A) (A)
                 (A) (A) (A) (A) (A) (A) (A) (A) (A) (A) (A) (A)
                 (A) (A) (A) (A) (A) (A) (A) (A) (A) (A) (A) (A)
                 (A) (A) (A) (A) (A) (A) (A) (A) (A) (A) (A) (A)
                 (A) (A) (A) (A) (A) (A) (A) (A) (A) (A) (A) (A)
                 (A) (A) (A) (A) (A) (A) (A) (A) (A) (A) (A) (A)
                 (A) (A) (A) (A) (A) (A) (A) (A) (A) (A) (A) (A)
                 (A) (A) (A) (A) (A) (A) (A) (A) (A) (A) (A) (A)
                 (A) (A) (A) (A) (A) (A) (A) (A) (A) (A) (A) (A)
                 (A) (A) (A) (A) (A) (A) (A) (A) (A) (A) (A) (A)
                 (A) (A) (A) (A) (A) (A) (A) (A) (A) (A) (A) (A)
                 (A) (A) (A) (A) (A) (A) (A) (A) (A) (A) (A) (A)
                 (A) (A) (A) (A) (A) (A) (A) (A) (A) (A) (A) (A)
                 (A) (A) (A) (A) (A) (A) (A) (A) (A) (A) (A) (A)
                 (A) (A) (A) (A) (A) (A) (A) (A) (A) (A) (A) (A)
                 (A) (A) (A)
 The electronic state is 1-A.
 Alpha  occ. eigenvalues --  -19.18028 -19.15319 -19.13628 -19.11257 -19.09307
 Alpha  occ. eigenvalues --  -10.26868 -10.26678 -10.25853 -10.25836 -10.25758
 Alpha  occ. eigenvalues --  -10.24956 -10.24227 -10.21060 -10.20031 -10.19928
 Alpha  occ. eigenvalues --  -10.19527 -10.19513 -10.19353 -10.19095 -10.18411
 Alpha  occ. eigenvalues --  -10.18167 -10.18086 -10.17743 -10.17693 -10.17410
 Alpha  occ. eigenvalues --  -10.17221 -10.16946 -10.16317 -10.15543 -10.14526
 Alpha  occ. eigenvalues --  -10.14139  -1.10659  -1.07863  -1.04563  -1.03834
 Alpha  occ. eigenvalues --   -1.02593  -0.88151  -0.84742  -0.83177  -0.82398
 Alpha  occ. eigenvalues --   -0.81099  -0.79606  -0.77679  -0.75058  -0.74130
 Alpha  occ. eigenvalues --   -0.73114  -0.71440  -0.70793  -0.70007  -0.69201
 Alpha  occ. eigenvalues --   -0.66306  -0.64981  -0.64651  -0.62387  -0.61698
 Alpha  occ. eigenvalues --   -0.60215  -0.58625  -0.57895  -0.55799  -0.54578
 Alpha  occ. eigenvalues --   -0.53766  -0.52745  -0.52330  -0.50987  -0.50609
 Alpha  occ. eigenvalues --   -0.49182  -0.48202  -0.47972  -0.47536  -0.47034
 Alpha  occ. eigenvalues --   -0.46383  -0.45432  -0.45031  -0.44586  -0.44314
 Alpha  occ. eigenvalues --   -0.43620  -0.43331  -0.42685  -0.42598  -0.42027
 Alpha  occ. eigenvalues --   -0.41857  -0.41583  -0.41313  -0.40917  -0.40779
 Alpha  occ. eigenvalues --   -0.40386  -0.39843  -0.39397  -0.39111  -0.38560
 Alpha  occ. eigenvalues --   -0.38396  -0.38102  -0.37988  -0.37704  -0.37245
 Alpha  occ. eigenvalues --   -0.36913  -0.36316  -0.35648  -0.35220  -0.34979
 Alpha  occ. eigenvalues --   -0.34918  -0.34275  -0.34116  -0.33916  -0.33573
 Alpha  occ. eigenvalues --   -0.32661  -0.31631  -0.31145  -0.29616  -0.28787
 Alpha  occ. eigenvalues --   -0.26946  -0.25857  -0.25530  -0.24688  -0.23311
 Alpha virt. eigenvalues --   -0.06375  -0.02570  -0.01813  -0.01221  -0.00803
 Alpha virt. eigenvalues --    0.00152   0.00346   0.00564   0.01606   0.01977
 Alpha virt. eigenvalues --    0.02086   0.02235   0.02724   0.03341   0.03443
 Alpha virt. eigenvalues --    0.03788   0.04013   0.04357   0.04609   0.04644
 Alpha virt. eigenvalues --    0.04890   0.05664   0.05737   0.05843   0.06237
 Alpha virt. eigenvalues --    0.06657   0.06692   0.07109   0.07188   0.07398
 Alpha virt. eigenvalues --    0.07663   0.07833   0.08047   0.08262   0.08472
 Alpha virt. eigenvalues --    0.08804   0.09004   0.09323   0.09375   0.09859
 Alpha virt. eigenvalues --    0.10203   0.10311   0.10546   0.10749   0.10989
 Alpha virt. eigenvalues --    0.11213   0.11600   0.11798   0.11841   0.12165
 Alpha virt. eigenvalues --    0.12383   0.12630   0.12822   0.13244   0.13413
 Alpha virt. eigenvalues --    0.13491   0.13905   0.14138   0.14157   0.14493
 Alpha virt. eigenvalues --    0.14646   0.15048   0.15151   0.15697   0.16046
 Alpha virt. eigenvalues --    0.16248   0.16361   0.16516   0.16822   0.17173
 Alpha virt. eigenvalues --    0.17278   0.17464   0.17705   0.17951   0.18304
 Alpha virt. eigenvalues --    0.18441   0.18643   0.18759   0.18892   0.18949
 Alpha virt. eigenvalues --    0.19287   0.19594   0.19731   0.19790   0.20064
 Alpha virt. eigenvalues --    0.20329   0.20579   0.20721   0.20918   0.20980
 Alpha virt. eigenvalues --    0.21456   0.21589   0.21793   0.21974   0.22224
 Alpha virt. eigenvalues --    0.22338   0.22452   0.22783   0.22888   0.23060
 Alpha virt. eigenvalues --    0.23112   0.23336   0.23534   0.23622   0.23659
 Alpha virt. eigenvalues --    0.23948   0.24335   0.24411   0.24494   0.24745
 Alpha virt. eigenvalues --    0.25129   0.25205   0.25307   0.25861   0.25926
 Alpha virt. eigenvalues --    0.26148   0.26261   0.26696   0.27159   0.27357
 Alpha virt. eigenvalues --    0.27374   0.27672   0.27812   0.28036   0.28359
 Alpha virt. eigenvalues --    0.28456   0.28789   0.28930   0.29203   0.29395
 Alpha virt. eigenvalues --    0.29778   0.29877   0.30432   0.30705   0.30777
 Alpha virt. eigenvalues --    0.31208   0.31263   0.31797   0.31900   0.32158
 Alpha virt. eigenvalues --    0.32347   0.32531   0.32953   0.33158   0.33496
 Alpha virt. eigenvalues --    0.34019   0.34143   0.34510   0.34825   0.34912
 Alpha virt. eigenvalues --    0.34944   0.35309   0.35466   0.36160   0.36473
 Alpha virt. eigenvalues --    0.36668   0.37255   0.37420   0.37640   0.38411
 Alpha virt. eigenvalues --    0.38598   0.38843   0.39042   0.39907   0.40158
 Alpha virt. eigenvalues --    0.40258   0.41029   0.41416   0.41955   0.42214
 Alpha virt. eigenvalues --    0.42522   0.42751   0.43014   0.43436   0.43693
 Alpha virt. eigenvalues --    0.43977   0.44203   0.44788   0.45166   0.45496
 Alpha virt. eigenvalues --    0.46100   0.46378   0.46580   0.46837   0.47154
 Alpha virt. eigenvalues --    0.47566   0.47679   0.48167   0.48695   0.48778
 Alpha virt. eigenvalues --    0.49536   0.49920   0.50574   0.50800   0.51087
 Alpha virt. eigenvalues --    0.51928   0.52233   0.52511   0.52879   0.53348
 Alpha virt. eigenvalues --    0.53869   0.54391   0.54984   0.55382   0.55922
 Alpha virt. eigenvalues --    0.56105   0.56831   0.57048   0.57191   0.57551
 Alpha virt. eigenvalues --    0.57692   0.58291   0.59053   0.59617   0.60062
 Alpha virt. eigenvalues --    0.60387   0.60608   0.60808   0.61359   0.61642
 Alpha virt. eigenvalues --    0.62048   0.62588   0.63078   0.63435   0.63929
 Alpha virt. eigenvalues --    0.64103   0.64704   0.64821   0.65332   0.65799
 Alpha virt. eigenvalues --    0.66038   0.66260   0.66436   0.66951   0.67351
 Alpha virt. eigenvalues --    0.67740   0.68068   0.68619   0.68792   0.68832
 Alpha virt. eigenvalues --    0.69317   0.69464   0.69843   0.70267   0.70539
 Alpha virt. eigenvalues --    0.70698   0.70867   0.71143   0.71432   0.71800
 Alpha virt. eigenvalues --    0.72124   0.72495   0.72600   0.73077   0.73362
 Alpha virt. eigenvalues --    0.73643   0.73945   0.74007   0.74712   0.75005
 Alpha virt. eigenvalues --    0.75319   0.75757   0.76607   0.76850   0.77138
 Alpha virt. eigenvalues --    0.77551   0.77833   0.78162   0.78365   0.78853
 Alpha virt. eigenvalues --    0.79342   0.79709   0.79892   0.80576   0.80731
 Alpha virt. eigenvalues --    0.81361   0.81539   0.81680   0.82097   0.82394
 Alpha virt. eigenvalues --    0.82617   0.83283   0.83612   0.84266   0.84446
 Alpha virt. eigenvalues --    0.85501   0.86079   0.86447   0.87578   0.88039
 Alpha virt. eigenvalues --    0.89202   0.89789   0.89915   0.90946   0.91567
 Alpha virt. eigenvalues --    0.92492   0.93010   0.94121   0.95469   0.95885
 Alpha virt. eigenvalues --    0.96821   0.97619   0.98264   0.99053   0.99383
 Alpha virt. eigenvalues --    1.00414   1.01061   1.02088   1.02519   1.03575
 Alpha virt. eigenvalues --    1.04432   1.05005   1.05864   1.07693   1.09301
 Alpha virt. eigenvalues --    1.09554   1.10738   1.11611   1.12025   1.13440
 Alpha virt. eigenvalues --    1.14236   1.14756   1.16314   1.17050   1.17698
 Alpha virt. eigenvalues --    1.19549   1.20699   1.21586   1.21997   1.22955
 Alpha virt. eigenvalues --    1.23549   1.24773   1.25542   1.26744   1.27139
 Alpha virt. eigenvalues --    1.27827   1.28467   1.29006   1.30727   1.31920
 Alpha virt. eigenvalues --    1.32921   1.32965   1.34231   1.34853   1.35562
 Alpha virt. eigenvalues --    1.35859   1.36697   1.37323   1.37641   1.39136
 Alpha virt. eigenvalues --    1.40472   1.40599   1.41318   1.41668   1.43647
 Alpha virt. eigenvalues --    1.44657   1.45067   1.45521   1.46632   1.47313
 Alpha virt. eigenvalues --    1.48828   1.49157   1.49445   1.51182   1.51578
 Alpha virt. eigenvalues --    1.52655   1.53325   1.53995   1.54789   1.55682
 Alpha virt. eigenvalues --    1.55773   1.56395   1.57379   1.57795   1.57901
 Alpha virt. eigenvalues --    1.58444   1.58813   1.58988   1.59960   1.60282
 Alpha virt. eigenvalues --    1.60730   1.61010   1.61476   1.61654   1.62170
 Alpha virt. eigenvalues --    1.63036   1.63185   1.63845   1.63904   1.64804
 Alpha virt. eigenvalues --    1.64877   1.65694   1.65736   1.66656   1.67160
 Alpha virt. eigenvalues --    1.67660   1.67895   1.68259   1.68959   1.69106
 Alpha virt. eigenvalues --    1.69916   1.70485   1.70946   1.71436   1.72038
 Alpha virt. eigenvalues --    1.72241   1.73099   1.73625   1.74246   1.74855
 Alpha virt. eigenvalues --    1.75931   1.76259   1.77180   1.78318   1.79019
 Alpha virt. eigenvalues --    1.79702   1.80474   1.80838   1.81708   1.81978
 Alpha virt. eigenvalues --    1.82793   1.83988   1.84573   1.86795   1.87195
 Alpha virt. eigenvalues --    1.87576   1.88121   1.88746   1.88942   1.90309
 Alpha virt. eigenvalues --    1.91638   1.92632   1.94361   1.95045   1.95734
 Alpha virt. eigenvalues --    1.96545   1.97523   1.98712   1.99739   2.00387
 Alpha virt. eigenvalues --    2.02346   2.02811   2.03436   2.04630   2.05065
 Alpha virt. eigenvalues --    2.05939   2.06604   2.07501   2.08691   2.09488
 Alpha virt. eigenvalues --    2.11084   2.12048   2.13762   2.14457   2.15952
 Alpha virt. eigenvalues --    2.16480   2.17341   2.17899   2.17987   2.19462
 Alpha virt. eigenvalues --    2.20864   2.21965   2.23554   2.24669   2.25098
 Alpha virt. eigenvalues --    2.26641   2.28419   2.29776   2.31066   2.32402
 Alpha virt. eigenvalues --    2.34491   2.35303   2.36581   2.38171   2.39255
 Alpha virt. eigenvalues --    2.40413   2.43219   2.45897   2.47753   2.50474
 Alpha virt. eigenvalues --    2.51367   2.52498   2.53785   2.53994   2.54209
 Alpha virt. eigenvalues --    2.54738   2.55220   2.55775   2.56649   2.56811
 Alpha virt. eigenvalues --    2.57179   2.57258   2.58618   2.59010   2.59373
 Alpha virt. eigenvalues --    2.59983   2.62967   2.64447   2.64773   2.66034
 Alpha virt. eigenvalues --    2.66759   2.67033   2.68480   2.69091   2.69669
 Alpha virt. eigenvalues --    2.70685   2.71361   2.72073   2.73046   2.73532
 Alpha virt. eigenvalues --    2.74031   2.74927   2.76061   2.79332   2.82194
 Alpha virt. eigenvalues --    2.84108   2.85992   2.87010   2.88268   2.88981
 Alpha virt. eigenvalues --    2.91226   2.91332   2.92193   2.93555   2.94369
 Alpha virt. eigenvalues --    2.94887   2.96104   2.96947   2.97104   2.98446
 Alpha virt. eigenvalues --    3.00231   3.00579   3.01934   3.02405   3.02964
 Alpha virt. eigenvalues --    3.03573   3.03898   3.04616   3.05560   3.07071
 Alpha virt. eigenvalues --    3.08092   3.09000   3.09937   3.11216   3.12415
 Alpha virt. eigenvalues --    3.13819   3.14323   3.15483   3.16977   3.17630
 Alpha virt. eigenvalues --    3.17931   3.19532   3.20300   3.20971   3.21220
 Alpha virt. eigenvalues --    3.21744   3.23170   3.23937   3.25547   3.26006
 Alpha virt. eigenvalues --    3.26291   3.26754   3.27415   3.27975   3.29032
 Alpha virt. eigenvalues --    3.29292   3.30023   3.31317   3.32173   3.33076
 Alpha virt. eigenvalues --    3.34423   3.34834   3.35332   3.37454   3.38492
 Alpha virt. eigenvalues --    3.38692   3.38945   3.40053   3.41191   3.42919
 Alpha virt. eigenvalues --    3.45353   3.46441   3.47275   3.51385   3.52481
 Alpha virt. eigenvalues --    3.52795   3.53337   3.57918   3.60540   3.64963
 Alpha virt. eigenvalues --    3.74269   3.76092   3.77901   3.79601   3.85642
 Alpha virt. eigenvalues --    3.91061   3.92544   3.93225   3.97115   4.01503
 Alpha virt. eigenvalues --    4.02112   4.04935   4.06406   4.08860   4.09960
 Alpha virt. eigenvalues --    4.11301   4.15039   4.16449   4.17975   4.23099
 Alpha virt. eigenvalues --    4.24325   4.26257   4.27988   4.32017   4.37155
 Alpha virt. eigenvalues --    4.45098   4.54039   5.13178   5.14163   5.15119
 Alpha virt. eigenvalues --    5.19899   5.24327   5.27094   5.30805   5.34281
 Alpha virt. eigenvalues --    5.43439   5.43905   5.55612   5.70799   5.72829
 Alpha virt. eigenvalues --    5.81438   5.82743  23.44436  23.49322  23.52424
 Alpha virt. eigenvalues --   23.52993  23.60691  23.63886  23.65481  23.67108
 Alpha virt. eigenvalues --   23.67609  23.70334  23.72207  23.75061  23.75954
 Alpha virt. eigenvalues --   23.78922  23.79238  23.79706  23.83293  23.85058
 Alpha virt. eigenvalues --   23.85329  23.88325  23.89049  23.91300  23.94976
 Alpha virt. eigenvalues --   24.13146  24.19679  24.21439  49.97111  50.00439
 Alpha virt. eigenvalues --   50.02061  50.04651  50.04975
          Condensed to atoms (all electrons):
 Mulliken atomic charges:
              1
     1  C   -0.615705
     2  C    1.074344
     3  C    0.087681
     4  C    0.166590
     5  C    1.382922
     6  C   -1.371675
     7  C   -0.804146
     8  C    0.547835
     9  C    0.908087
    10  C   -1.667688
    11  C   -1.150985
    12  O   -0.202047
    13  C    0.936517
    14  C   -0.313748
    15  C   -0.911340
    16  O   -0.128782
    17  C   -0.401986
    18  C    0.924015
    19  O    0.230265
    20  C   -1.744130
    21  O   -0.139090
    22  C   -0.575703
    23  C   -0.144358
    24  O    0.076181
    25  C    1.027045
    26  C   -1.020541
    27  C   -1.291173
    28  C   -0.728628
    29  C   -0.622413
    30  H    0.237182
    31  H    0.268039
    32  C   -1.238065
    33  H    0.209223
    34  H    0.259402
    35  H    0.258189
    36  H    0.236111
    37  H    0.231249
    38  H    0.250996
    39  H    0.234108
    40  H    0.271349
    41  H    0.250275
    42  H    0.295772
    43  H    0.263661
    44  H    0.322542
    45  H    0.261935
    46  H    0.265486
    47  H    0.261401
    48  H    0.270286
    49  H    0.261984
    50  H    0.257107
    51  H    0.230449
    52  H    0.233401
    53  H    0.243127
    54  H    0.306351
    55  H    0.263010
    56  H    0.274669
    57  H    0.266360
    58  H    0.259317
    59  H    0.258934
    60  H    0.248080
    61  H    0.250176
    62  C   -1.008503
    63  H    0.247110
    64  H    0.237110
    65  H    0.234831
 Sum of Mulliken atomic charges =   0.00000
 Mulliken charges with hydrogens summed into heavy atoms:
              1
     1  C   -0.406482
     2  C    1.074344
     3  C    0.355720
     4  C    0.166590
     5  C    1.382922
     6  C   -0.854084
     7  C   -0.804146
     8  C    0.547835
     9  C    0.908087
    10  C   -1.667688
    11  C   -1.150985
    12  O   -0.202047
    13  C    1.172629
    14  C    0.168498
    15  C   -0.155608
    16  O   -0.128782
    17  C   -0.164803
    18  C    0.924015
    19  O    0.230265
    20  C   -1.184696
    21  O    0.183451
    22  C   -0.048282
    23  C    0.117043
    24  O    0.076181
    25  C    1.027045
    26  C   -0.231164
    27  C   -0.827323
    28  C    0.083861
    29  C    0.177933
    32  C   -0.480875
    62  C   -0.289452
 Sum of Mulliken charges with hydrogens summed into heavy atoms =   0.00000
 Electronic spatial extent (au):  <R**2>=          11923.2677
 Charge=              0.0000 electrons
 Dipole moment (field-independent basis, Debye):
    X=              6.4865    Y=              1.8596    Z=              0.8639  Tot=              6.8029
 Quadrupole moment (field-independent basis, Debye-Ang):
   XX=           -195.2158   YY=           -181.7437   ZZ=           -185.4213
   XY=              5.7087   XZ=              2.3655   YZ=             -2.7664
 Traceless Quadrupole moment (field-independent basis, Debye-Ang):
   XX=             -7.7555   YY=              5.7165   ZZ=              2.0390
   XY=              5.7087   XZ=              2.3655   YZ=             -2.7664
 Octapole moment (field-independent basis, Debye-Ang**2):
  XXX=             66.9585  YYY=             61.7136  ZZZ=              5.3776  XYY=             34.3977
  XXY=            -21.9313  XXZ=            -18.9925  XZZ=              9.5897  YZZ=             -1.8981
  YYZ=            -28.7795  XYZ=             14.8824
 Hexadecapole moment (field-independent basis, Debye-Ang**3):
 XXXX=          -8595.1692 YYYY=          -5317.6100 ZZZZ=          -2518.4918 XXXY=             97.1707
 XXXZ=             22.6599 YYYX=            -78.7304 YYYZ=            -33.7975 ZZZX=             -0.6735
 ZZZY=            -20.6331 XXYY=          -2371.5036 XXZZ=          -1792.9079 YYZZ=          -1302.8399
 XXYZ=             19.8756 YYXZ=            -29.8911 ZZXY=            -32.5266
 N-N= 3.485580499291D+03 E-N=-1.020416046137D+04  KE= 1.381711991304D+03
 Calling FoFJK, ICntrl=      2127 FMM=T ISym2X=0 I1Cent= 0 IOpClX= 0 NMat=1 NMatS=1 NMatT=0.
 ***** Axes restored to original set *****
 -------------------------------------------------------------------
 Center     Atomic                   Forces (Hartrees/Bohr)
 Number     Number              X              Y              Z
 -------------------------------------------------------------------
      1        6           0.001347440    0.001651452   -0.001553922
      2        6          -0.001472876   -0.001238521    0.001525982
      3        6           0.000131571    0.000302018   -0.000101972
      4        6          -0.000123448    0.000827507    0.000559049
      5        6          -0.000087452   -0.000539792   -0.000233860
      6        6          -0.000440289    0.000044546   -0.000225312
      7        6          -0.001116776    0.001898171    0.002616354
      8        6          -0.003177135    0.001191560   -0.000277227
      9        6           0.001290102    0.001419251   -0.000386781
     10        6          -0.003030064   -0.006731811    0.001081622
     11        6          -0.002703099    0.005068799    0.000064581
     12        8           0.003328801   -0.006735378    0.000002251
     13        6          -0.000067321    0.000363119    0.000018445
     14        6           0.000292232    0.000366922   -0.000555692
     15        6           0.000169298   -0.000054397   -0.000070514
     16        8           0.002753565    0.008184578   -0.000048124
     17        6           0.000176006   -0.000098683   -0.000421281
     18        6           0.000612994    0.001472603   -0.000740710
     19        8           0.001690465   -0.004655280    0.000764917
     20        6          -0.000253823    0.000057415    0.000409116
     21        8           0.005147134   -0.003495285    0.000236156
     22        6           0.000345078   -0.000322713   -0.000280084
     23        6           0.000415845   -0.001278674    0.000289168
     24        8          -0.000462721   -0.000161177    0.001003612
     25        6           0.000227571   -0.001804137    0.000096813
     26        6           0.000020794    0.000273762   -0.000131713
     27        6           0.000434449    0.001726435    0.000219714
     28        6           0.000332149   -0.000094102    0.000352268
     29        6           0.000263627   -0.000415885   -0.000122335
     30        1          -0.000972511   -0.000263134    0.000785464
     31        1          -0.000889911    0.000001073    0.000992844
     32        6           0.000152708    0.000194840   -0.000039056
     33        1          -0.000185570    0.000130959   -0.000838946
     34        1           0.001091324   -0.001128103    0.000298583
     35        1           0.000337663    0.001405502   -0.000622752
     36        1          -0.000698006    0.000796808   -0.000496310
     37        1           0.000932597   -0.000823518    0.000567239
     38        1          -0.001492998    0.000238170    0.000273236
     39        1           0.000717078    0.001483017   -0.000057767
     40        1           0.000313493   -0.001243965    0.001173944
     41        1          -0.000729706   -0.000715135   -0.001234216
     42        1           0.001347591    0.000073802   -0.000882314
     43        1          -0.001062509   -0.001166977   -0.000197300
     44        1          -0.003996206    0.002711241   -0.002665895
     45        1           0.001388808    0.001033549    0.000997063
     46        1          -0.000490005    0.000395487   -0.001332446
     47        1          -0.000824295   -0.000460451   -0.001001166
     48        1           0.000904088   -0.001322246    0.000732208
     49        1          -0.001108317   -0.000690697   -0.000921454
     50        1          -0.000470447    0.001285732    0.000884229
     51        1          -0.000449443    0.000562205    0.000684702
     52        1           0.000656386    0.000383067   -0.000757905
     53        1          -0.001058048   -0.001040569    0.000337447
     54        1          -0.000462503    0.001911598    0.000249146
     55        1           0.001537804   -0.000515819   -0.000120066
     56        1           0.001592915   -0.000409495    0.000387204
     57        1          -0.000274964    0.000603950   -0.001574929
     58        1          -0.001093472   -0.000715446    0.000670224
     59        1          -0.001176556    0.000447498    0.000974747
     60        1           0.000142642   -0.001648585    0.000178446
     61        1          -0.000036958    0.000605548   -0.001592826
     62        6           0.000075927    0.000086409    0.000395125
     63        1          -0.001232796    0.000520303   -0.000862022
[...]
                 (A) (A) (A) (A) (A) (A) (A) (A) (A) (A) (A) (A)
                 (A) (A) (A) (A) (A) (A) (A) (A) (A) (A) (A) (A)
                 (A) (A) (A) (A) (A) (A) (A) (A) (A) (A) (A) (A)
                 (A) (A) (A)
 The electronic state is 1-A.
 Alpha  occ. eigenvalues --  -19.17570 -19.15066 -19.13459 -19.11119 -19.10307
 Alpha  occ. eigenvalues --  -10.26570 -10.26329 -10.25770 -10.25695 -10.25581
 Alpha  occ. eigenvalues --  -10.25412 -10.24034 -10.20913 -10.19780 -10.19735
 Alpha  occ. eigenvalues --  -10.19415 -10.19243 -10.19059 -10.18743 -10.18154
 Alpha  occ. eigenvalues --  -10.17914 -10.17795 -10.17575 -10.17561 -10.17270
 Alpha  occ. eigenvalues --  -10.17100 -10.16878 -10.16506 -10.16114 -10.14963
 Alpha  occ. eigenvalues --  -10.14320  -1.10276  -1.07544  -1.04727  -1.03707
 Alpha  occ. eigenvalues --   -1.03607  -0.88072  -0.84705  -0.83183  -0.82395
 Alpha  occ. eigenvalues --   -0.81043  -0.80128  -0.77691  -0.74999  -0.74031
 Alpha  occ. eigenvalues --   -0.73064  -0.71926  -0.70806  -0.70012  -0.69146
 Alpha  occ. eigenvalues --   -0.66476  -0.64889  -0.64799  -0.62387  -0.61662
 Alpha  occ. eigenvalues --   -0.60120  -0.58955  -0.57865  -0.55827  -0.54614
 Alpha  occ. eigenvalues --   -0.53800  -0.52809  -0.52146  -0.51050  -0.50519
 Alpha  occ. eigenvalues --   -0.49173  -0.48348  -0.47910  -0.47533  -0.46835
 Alpha  occ. eigenvalues --   -0.46264  -0.45412  -0.45119  -0.45014  -0.44336
 Alpha  occ. eigenvalues --   -0.43707  -0.43287  -0.43105  -0.42618  -0.42117
 Alpha  occ. eigenvalues --   -0.41976  -0.41667  -0.41222  -0.40835  -0.40740
 Alpha  occ. eigenvalues --   -0.40341  -0.39824  -0.39345  -0.39067  -0.38559
 Alpha  occ. eigenvalues --   -0.38376  -0.38186  -0.38031  -0.37893  -0.37263
 Alpha  occ. eigenvalues --   -0.36716  -0.36226  -0.35953  -0.35472  -0.35144
 Alpha  occ. eigenvalues --   -0.34781  -0.34715  -0.34206  -0.33962  -0.33505
 Alpha  occ. eigenvalues --   -0.32476  -0.32306  -0.31639  -0.29412  -0.28710
 Alpha  occ. eigenvalues --   -0.26917  -0.25724  -0.25437  -0.24584  -0.23730
 Alpha virt. eigenvalues --   -0.05807  -0.02204  -0.01724  -0.01085  -0.00674
 Alpha virt. eigenvalues --    0.00277   0.00426   0.00593   0.01758   0.01813
 Alpha virt. eigenvalues --    0.02049   0.02240   0.02725   0.03287   0.03517
 Alpha virt. eigenvalues --    0.03565   0.04074   0.04225   0.04630   0.04744
 Alpha virt. eigenvalues --    0.04983   0.05086   0.05714   0.05772   0.06093
 Alpha virt. eigenvalues --    0.06632   0.06846   0.07140   0.07157   0.07440
 Alpha virt. eigenvalues --    0.07634   0.07794   0.08222   0.08293   0.08570
 Alpha virt. eigenvalues --    0.08643   0.08961   0.09266   0.09496   0.09745
 Alpha virt. eigenvalues --    0.10245   0.10390   0.10625   0.10724   0.10928
 Alpha virt. eigenvalues --    0.11333   0.11667   0.11963   0.11991   0.12255
 Alpha virt. eigenvalues --    0.12341   0.12475   0.12975   0.13278   0.13398
 Alpha virt. eigenvalues --    0.13511   0.13876   0.14079   0.14306   0.14464
 Alpha virt. eigenvalues --    0.14856   0.15057   0.15278   0.15618   0.16078
 Alpha virt. eigenvalues --    0.16346   0.16409   0.16808   0.16833   0.17181
 Alpha virt. eigenvalues --    0.17439   0.17514   0.17877   0.17956   0.18228
 Alpha virt. eigenvalues --    0.18498   0.18592   0.18715   0.18844   0.19216
 Alpha virt. eigenvalues --    0.19284   0.19412   0.19836   0.20030   0.20103
 Alpha virt. eigenvalues --    0.20207   0.20668   0.20736   0.21138   0.21226
 Alpha virt. eigenvalues --    0.21298   0.21567   0.21696   0.21837   0.21953
 Alpha virt. eigenvalues --    0.22151   0.22411   0.22661   0.22887   0.23064
 Alpha virt. eigenvalues --    0.23141   0.23322   0.23647   0.23811   0.23991
 Alpha virt. eigenvalues --    0.24093   0.24418   0.24574   0.24689   0.24712
 Alpha virt. eigenvalues --    0.25062   0.25258   0.25505   0.25658   0.26159
 Alpha virt. eigenvalues --    0.26191   0.26473   0.26611   0.26820   0.27057
 Alpha virt. eigenvalues --    0.27130   0.27677   0.27863   0.28180   0.28289
 Alpha virt. eigenvalues --    0.28754   0.28838   0.29240   0.29601   0.29798
 Alpha virt. eigenvalues --    0.29998   0.30026   0.30368   0.30906   0.31016
 Alpha virt. eigenvalues --    0.31271   0.31452   0.31763   0.32025   0.32195
 Alpha virt. eigenvalues --    0.32428   0.32771   0.32800   0.33297   0.33600
 Alpha virt. eigenvalues --    0.33933   0.34097   0.34581   0.34668   0.35022
 Alpha virt. eigenvalues --    0.35311   0.35719   0.35859   0.35980   0.36348
 Alpha virt. eigenvalues --    0.36616   0.36980   0.37666   0.37767   0.38050
 Alpha virt. eigenvalues --    0.38511   0.38921   0.39308   0.39467   0.39984
 Alpha virt. eigenvalues --    0.40847   0.40883   0.41296   0.41505   0.42091
 Alpha virt. eigenvalues --    0.42433   0.42971   0.43124   0.43657   0.43701
 Alpha virt. eigenvalues --    0.43951   0.44629   0.44799   0.45549   0.45853
 Alpha virt. eigenvalues --    0.45895   0.46206   0.46571   0.46809   0.47041
 Alpha virt. eigenvalues --    0.47223   0.47735   0.47989   0.48516   0.48752
 Alpha virt. eigenvalues --    0.49579   0.49951   0.50663   0.50843   0.51165
 Alpha virt. eigenvalues --    0.51565   0.51937   0.52864   0.53150   0.53797
 Alpha virt. eigenvalues --    0.53972   0.54081   0.54888   0.55227   0.55681
 Alpha virt. eigenvalues --    0.55955   0.56305   0.56530   0.57237   0.57675
 Alpha virt. eigenvalues --    0.58313   0.58449   0.59177   0.59301   0.59862
 Alpha virt. eigenvalues --    0.60107   0.60397   0.60804   0.61156   0.61525
 Alpha virt. eigenvalues --    0.62001   0.62337   0.62658   0.63139   0.64022
 Alpha virt. eigenvalues --    0.64142   0.64621   0.65291   0.65520   0.65717
 Alpha virt. eigenvalues --    0.66048   0.66152   0.66349   0.66974   0.67545
 Alpha virt. eigenvalues --    0.67852   0.68212   0.68510   0.68622   0.68770
 Alpha virt. eigenvalues --    0.69458   0.69543   0.70202   0.70297   0.70422
 Alpha virt. eigenvalues --    0.70768   0.71010   0.71256   0.71533   0.71644
 Alpha virt. eigenvalues --    0.71993   0.72567   0.72721   0.73020   0.73351
 Alpha virt. eigenvalues --    0.73665   0.73827   0.74013   0.74384   0.74701
 Alpha virt. eigenvalues --    0.75116   0.75880   0.76293   0.76396   0.77019
 Alpha virt. eigenvalues --    0.77497   0.77718   0.78000   0.78723   0.79259
 Alpha virt. eigenvalues --    0.79323   0.79546   0.79926   0.80078   0.80788
 Alpha virt. eigenvalues --    0.81410   0.81896   0.82060   0.82125   0.82403
 Alpha virt. eigenvalues --    0.83301   0.83524   0.83920   0.84365   0.85017
 Alpha virt. eigenvalues --    0.85394   0.86338   0.86874   0.87811   0.88390
 Alpha virt. eigenvalues --    0.88968   0.89244   0.90375   0.90783   0.91405
 Alpha virt. eigenvalues --    0.92162   0.92498   0.93061   0.94288   0.95467
 Alpha virt. eigenvalues --    0.96602   0.97418   0.98030   0.99495   0.99684
 Alpha virt. eigenvalues --    1.00224   1.01365   1.01844   1.02198   1.02683
 Alpha virt. eigenvalues --    1.04142   1.04881   1.05077   1.07342   1.09376
 Alpha virt. eigenvalues --    1.10780   1.11654   1.13245   1.13259   1.14127
 Alpha virt. eigenvalues --    1.15355   1.16729   1.16742   1.18088   1.18334
 Alpha virt. eigenvalues --    1.19548   1.20699   1.21292   1.21884   1.22583
 Alpha virt. eigenvalues --    1.24322   1.24908   1.25675   1.26486   1.26781
 Alpha virt. eigenvalues --    1.28687   1.29222   1.29825   1.31285   1.31762
 Alpha virt. eigenvalues --    1.32348   1.33167   1.33360   1.34454   1.34616
 Alpha virt. eigenvalues --    1.36071   1.36199   1.37351   1.38462   1.38891
 Alpha virt. eigenvalues --    1.39477   1.40460   1.40644   1.42271   1.42745
 Alpha virt. eigenvalues --    1.43878   1.44605   1.45790   1.47010   1.47130
 Alpha virt. eigenvalues --    1.48745   1.49572   1.50479   1.50921   1.52240
 Alpha virt. eigenvalues --    1.52824   1.53062   1.54055   1.54377   1.55502
 Alpha virt. eigenvalues --    1.55820   1.56754   1.57040   1.57515   1.57816
 Alpha virt. eigenvalues --    1.58197   1.58842   1.59443   1.60232   1.60544
 Alpha virt. eigenvalues --    1.60879   1.60946   1.61355   1.61452   1.62432
 Alpha virt. eigenvalues --    1.63076   1.63560   1.63918   1.64261   1.64660
 Alpha virt. eigenvalues --    1.64984   1.65260   1.65833   1.66286   1.67511
 Alpha virt. eigenvalues --    1.67950   1.68105   1.68618   1.68735   1.69521
 Alpha virt. eigenvalues --    1.69792   1.70270   1.70858   1.71197   1.72644
 Alpha virt. eigenvalues --    1.73129   1.73561   1.73948   1.74459   1.75255
 Alpha virt. eigenvalues --    1.76335   1.76696   1.77314   1.78850   1.79203
 Alpha virt. eigenvalues --    1.79818   1.80701   1.81549   1.81960   1.82328
 Alpha virt. eigenvalues --    1.83621   1.84741   1.84884   1.86275   1.87409
 Alpha virt. eigenvalues --    1.87706   1.88280   1.88436   1.90032   1.91179
 Alpha virt. eigenvalues --    1.91895   1.93611   1.94424   1.95610   1.96063
 Alpha virt. eigenvalues --    1.97579   1.98344   1.98844   1.99656   2.00564
 Alpha virt. eigenvalues --    2.01716   2.02932   2.03380   2.04139   2.05133
 Alpha virt. eigenvalues --    2.06074   2.06517   2.06982   2.08382   2.10057
 Alpha virt. eigenvalues --    2.11049   2.12253   2.14191   2.14525   2.15847
 Alpha virt. eigenvalues --    2.16973   2.17761   2.18067   2.18397   2.19402
 Alpha virt. eigenvalues --    2.20922   2.22359   2.24680   2.25319   2.26028
 Alpha virt. eigenvalues --    2.28106   2.28298   2.30718   2.32210   2.33216
 Alpha virt. eigenvalues --    2.34724   2.35381   2.37246   2.38332   2.39637
 Alpha virt. eigenvalues --    2.40912   2.43252   2.45904   2.48199   2.49204
 Alpha virt. eigenvalues --    2.50801   2.51864   2.53281   2.53951   2.54458
 Alpha virt. eigenvalues --    2.54948   2.55370   2.55858   2.56007   2.56714
 Alpha virt. eigenvalues --    2.56901   2.57583   2.57990   2.59153   2.59396
 Alpha virt. eigenvalues --    2.60174   2.63214   2.64540   2.64754   2.65570
 Alpha virt. eigenvalues --    2.66335   2.67083   2.68919   2.69471   2.70186
 Alpha virt. eigenvalues --    2.70711   2.72069   2.72311   2.72754   2.73759
 Alpha virt. eigenvalues --    2.74025   2.74895   2.76201   2.81522   2.82669
 Alpha virt. eigenvalues --    2.84585   2.86213   2.87231   2.88254   2.89221
 Alpha virt. eigenvalues --    2.90267   2.91434   2.92631   2.93041   2.93688
 Alpha virt. eigenvalues --    2.94391   2.95868   2.97240   2.98117   2.98653
 Alpha virt. eigenvalues --    2.99280   3.01272   3.02325   3.02953   3.03662
 Alpha virt. eigenvalues --    3.03837   3.04689   3.05198   3.05901   3.07895
 Alpha virt. eigenvalues --    3.08659   3.10058   3.10065   3.12147   3.13489
 Alpha virt. eigenvalues --    3.14615   3.15035   3.16038   3.16566   3.17923
 Alpha virt. eigenvalues --    3.18709   3.19962   3.20671   3.21082   3.21709
 Alpha virt. eigenvalues --    3.21917   3.23004   3.24182   3.25652   3.26345
 Alpha virt. eigenvalues --    3.26398   3.27170   3.27410   3.28099   3.28934
 Alpha virt. eigenvalues --    3.29695   3.30420   3.32180   3.32766   3.33463
 Alpha virt. eigenvalues --    3.34032   3.34663   3.36015   3.38055   3.38473
 Alpha virt. eigenvalues --    3.39169   3.40213   3.41122   3.41990   3.43109
 Alpha virt. eigenvalues --    3.45854   3.47115   3.48225   3.51225   3.52459
 Alpha virt. eigenvalues --    3.52996   3.53655   3.58097   3.61130   3.64888
 Alpha virt. eigenvalues --    3.74806   3.76754   3.79443   3.80202   3.85846
 Alpha virt. eigenvalues --    3.90082   3.93483   3.94936   3.98712   4.02040
 Alpha virt. eigenvalues --    4.02833   4.05084   4.06530   4.09187   4.10132
 Alpha virt. eigenvalues --    4.11896   4.15261   4.16232   4.18705   4.22220
 Alpha virt. eigenvalues --    4.24637   4.26199   4.28066   4.29710   4.33145
 Alpha virt. eigenvalues --    4.45098   4.55324   5.13385   5.14588   5.17479
 Alpha virt. eigenvalues --    5.19914   5.24509   5.27827   5.31229   5.32760
 Alpha virt. eigenvalues --    5.41683   5.43816   5.55678   5.70911   5.72842
 Alpha virt. eigenvalues --    5.78903   5.83367  23.44517  23.49872  23.51747
 Alpha virt. eigenvalues --   23.52380  23.60687  23.64110  23.65754  23.67406
 Alpha virt. eigenvalues --   23.67894  23.70960  23.72342  23.74931  23.75999
 Alpha virt. eigenvalues --   23.78441  23.79234  23.79953  23.83888  23.85556
 Alpha virt. eigenvalues --   23.86150  23.88463  23.89023  23.91541  23.96064
 Alpha virt. eigenvalues --   24.17441  24.20636  24.23069  49.97144  50.00744
 Alpha virt. eigenvalues --   50.02144  50.03096  50.05721
          Condensed to atoms (all electrons):
 Mulliken atomic charges:
              1
     1  C   -0.645872
     2  C    0.988512
     3  C    0.107555
     4  C    0.018401
     5  C    1.235672
     6  C   -1.261388
     7  C   -0.631823
     8  C    0.468103
     9  C    1.097486
    10  C   -1.212771
    11  C   -1.385401
    12  O   -0.166857
    13  C    0.637929
    14  C   -0.155995
    15  C   -1.089603
    16  O   -0.169306
    17  C   -0.060287
    18  C    0.774726
    19  O    0.223681
    20  C   -1.916401
    21  O   -0.151956
    22  C   -0.379640
    23  C   -0.188536
    24  O    0.076348
    25  C    1.046892
    26  C   -1.033952
    27  C   -1.260670
    28  C   -0.811343
    29  C   -0.633854
    30  H    0.233820
    31  H    0.268708
    32  C   -1.241244
    33  H    0.208191
    34  H    0.270228
    35  H    0.262825
    36  H    0.274185
    37  H    0.243727
    38  H    0.248802
    39  H    0.241635
    40  H    0.266087
    41  H    0.254555
    42  H    0.302434
    43  H    0.265132
    44  H    0.328844
    45  H    0.258205
    46  H    0.261302
    47  H    0.262298
    48  H    0.270098
    49  H    0.261815
    50  H    0.257708
    51  H    0.230157
    52  H    0.235617
    53  H    0.248037
    54  H    0.308257
    55  H    0.264964
    56  H    0.274679
    57  H    0.274002
    58  H    0.261085
    59  H    0.258783
    60  H    0.248526
    61  H    0.250130
    62  C   -1.104901
    63  H    0.246645
    64  H    0.241055
    65  H    0.243958
 Sum of Mulliken atomic charges =   0.00000
 Mulliken charges with hydrogens summed into heavy atoms:
              1
     1  C   -0.437681
     2  C    0.988512
     3  C    0.376263
     4  C    0.018401
     5  C    1.235672
     6  C   -0.728335
     7  C   -0.631823
     8  C    0.468103
     9  C    1.097486
    10  C   -1.212771
    11  C   -1.385401
    12  O   -0.166857
    13  C    0.912114
    14  C    0.336534
    15  C   -0.327326
    16  O   -0.169306
    17  C    0.173533
    18  C    0.774726
    19  O    0.223681
    20  C   -1.348834
    21  O    0.176888
    22  C    0.139867
    23  C    0.073762
    24  O    0.076348
    25  C    1.046892
    26  C   -0.244331
    27  C   -0.794896
    28  C    0.009915
    29  C    0.175911
    32  C   -0.483805
    62  C   -0.373243
 Sum of Mulliken charges with hydrogens summed into heavy atoms =   0.00000
 Electronic spatial extent (au):  <R**2>=          11842.5690
 Charge=              0.0000 electrons
 Dipole moment (field-independent basis, Debye):
    X=              5.5733    Y=              2.3095    Z=             -0.9708  Tot=              6.1105
 Quadrupole moment (field-independent basis, Debye-Ang):
   XX=           -190.6684   YY=           -181.5610   ZZ=           -188.2382
   XY=              3.9070   XZ=              7.0123   YZ=             -3.3790
 Traceless Quadrupole moment (field-independent basis, Debye-Ang):
   XX=             -3.8459   YY=              5.2615   ZZ=             -1.4156
   XY=              3.9070   XZ=              7.0123   YZ=             -3.3790
 Octapole moment (field-independent basis, Debye-Ang**2):
  XXX=             41.3510  YYY=             55.2911  ZZZ=              3.4875  XYY=             22.1589
  XXY=            -17.9001  XXZ=            -31.5135  XZZ=             20.6441  YZZ=             -1.8405
  YYZ=            -32.2802  XYZ=             19.4760
 Hexadecapole moment (field-independent basis, Debye-Ang**3):
 XXXX=          -8647.1815 YYYY=          -5001.5470 ZZZZ=          -2596.0792 XXXY=             80.1047
 XXXZ=             47.0600 YYYX=            -95.3670 YYYZ=            -28.1907 ZZZX=              5.1950
 ZZZY=            -25.1858 XXYY=          -2285.2757 XXZZ=          -1865.5462 YYZZ=          -1279.2287
 XXYZ=             -3.0681 YYXZ=            -20.7839 ZZXY=            -22.9360
 N-N= 3.488665935520D+03 E-N=-1.021049010427D+04  KE= 1.381926765510D+03
 1\1\GINC-B0606\FOpt\RB3LYP\6-311+G(d)\C26H34O5\CAOFEI\13-Apr-2021\0\\#
  opt b3lyp/6-311+g(d) geom=connectivity\\Title Card Required\\0,1\C,2.
 0880749115,0.1613484128,2.9084507365\C,2.8028945084,0.9215993131,2.075
 4187106\C,2.305275922,1.1762190867,0.6729859027\C,1.4102389487,0.05900
 55368,0.0429611417\C,0.7623920969,-0.9651877423,1.035364537\C,0.780257
 6168,-0.4655753171,2.5107726868\C,0.3885845403,0.8368963698,-0.8387246
 476\C,-0.9866889417,0.9415296883,-0.1970617593\C,-1.589689245,-0.09066
 03897,0.4438736034\C,-0.7408859442,-1.2591698947,0.7393020243\C,-3.028
 7736133,-0.0010189473,0.8944541358\O,-3.4183849945,1.0094191973,1.4458
 920417\C,-3.9535090497,-1.1788562568,0.6040685554\C,-4.1357503796,-1.3
 060471439,-0.9305346407\C,-5.2769579603,-1.0421048786,1.3589368748\O,-
 1.1737536744,-2.3853541437,0.9232701163\C,0.7966183611,2.3231952903,-0
 .8566830346\C,-0.5451476771,3.0567698924,-1.06796754\O,-1.5266431084,2
 .132237814,-0.4337824909\C,1.4908414043,2.4844775951,0.5078515152\O,0.
 2252773472,0.2585196814,-2.1212706353\C,1.6136282225,-2.2489542104,0.8
 502518985\C,2.7349017272,-1.8622795868,-0.1130553433\O,2.194423655,-0.
 7403741193,-0.8539952593\C,3.2586985937,-2.8899175527,-1.0900541543\C,
 4.2115364444,-2.3586795333,-2.1309041599\C,2.9582855685,-4.1858652789,
 -0.9959817879\C,-0.9174541549,3.1837870092,-2.5445658523\C,-0.69754704
 9,4.3900955404,-0.3475259467\H,1.4903703089,2.5240136391,-1.6757918614
 \H,3.168445166,1.2489505753,0.0002936277\C,4.0960531801,1.5824131941,2
 .4698044102\H,2.4343779393,0.0002813103,3.9269929649\H,-0.0329613565,0
 .2540852907,2.6668361898\H,0.5452430478,-1.3149205304,3.1574079622\H,-
 3.4239153372,-2.0781050407,0.9356219261\H,-4.6701667912,-0.421671414,-
 1.29942183\H,-3.1514288559,-1.2917381022,-1.4087505231\H,-5.8891935683
 ,-1.9376873613,1.2321689026\H,-5.8514902138,-0.18126377,1.007655296\H,
 -5.1084255908,-0.9018993419,2.4289110961\H,0.7558856757,2.5618221083,1
 .3146593768\H,2.120906275,3.3746305376,0.5629561745\H,0.9204639336,-0.
 4156099906,-2.2090525522\H,0.9796809077,-3.0323378779,0.4375689758\H,2
 .0120813965,-2.6152090519,1.7974904558\H,3.5953212461,-1.4813606305,0.
 4581749667\H,3.7269590662,-1.6190316383,-2.7738899138\H,5.0635920405,-
 1.8523456692,-1.6622368396\H,4.598989161,-3.1608758637,-2.7615615329\H
 ,3.3907181806,-4.9111303562,-1.6782996958\H,2.2861936549,-4.5804914614
 ,-0.2432507437\H,-0.2618443099,3.909249184,-3.0349183184\H,-0.82257741
 03,2.2295491597,-3.062250322\H,-1.9465312371,3.5372162873,-2.641922470
 8\H,-1.7000226078,4.7918007567,-0.5081939592\H,-0.543633181,4.29590959
 37,0.7276141835\H,0.023811262,5.1122814298,-0.7399351962\H,4.921903140
 5,1.2545946355,1.8271605135\H,4.0380685965,2.6723603406,2.3676565404\H
 ,4.3645108648,1.3595300717,3.5045945726\C,-4.8738225287,-2.5751638659,
 -1.3641445649\H,-4.3657206223,-3.4719127566,-0.9961663377\H,-4.9146360
 582,-2.6430795642,-2.4552692287\H,-5.9037614511,-2.6014212599,-0.99953
 14738\\Version=EM64L-G09RevB.01\State=1-A\HF=-1387.6497146\RMSD=7.675e
 -09\RMSF=7.537e-06\Dipole=2.2508128,0.7911034,-0.295619\Quadrupole=-2.
 8070878,3.6976553,-0.8905675,3.2203761,5.0952738,-2.5915612\PG=C01 [X(
 C26H34O5)]\\@


 THERE ARE PEOPLE SO ADDICTED TO EXAGERATING THEY
 CAN'T TELL THE TRUTH WITHOUT LYING. -- FORTUNE COOKIE
 Job cpu time:  1 days 16 hours 56 minutes 29.8 seconds.
 File lengths (MBytes):  RWF=    372 Int=      0 D2E=      0 Chk=     38 Scr=      1
 Normal termination of Gaussian 09 at Tue Apr 13 21:20:59 2021.
