 Entering Gaussian System, Link 0=g09
 Initial command:
 /public/software/g09/g09/l1.exe /tmp/Gau-30637.inp -scrdir=/tmp/
 Entering Link 1 = /public/software/g09/g09/l1.exe PID=     30638.
  
 Copyright (c) 1988,1990,1992,1993,1995,1998,2003,2009,2010,
            Gaussian, Inc.  All Rights Reserved.
  
 This is part of the Gaussian(R) 09 program.  It is based on
 the Gaussian(R) 03 system (copyright 2003, Gaussian, Inc.),
 the Gaussian(R) 98 system (copyright 1998, Gaussian, Inc.),
 the Gaussian(R) 94 system (copyright 1995, Gaussian, Inc.),
 the Gaussian 92(TM) system (copyright 1992, Gaussian, Inc.),
 the Gaussian 90(TM) system (copyright 1990, Gaussian, Inc.),
 the Gaussian 88(TM) system (copyright 1988, Gaussian, Inc.),
 the Gaussian 86(TM) system (copyright 1986, Carnegie Mellon
 University), and the Gaussian 82(TM) system (copyright 1983,
 Carnegie Mellon University). Gaussian is a federally registered
 trademark of Gaussian, Inc.
  
 This software contains proprietary and confidential information,
 including trade secrets, belonging to Gaussian, Inc.
  
 This software is provided under written license and may be
 used, copied, transmitted, or stored only in accord with that
 written license.
  
 The following legend is applicable only to US Government
 contracts under FAR:
  
                    RESTRICTED RIGHTS LEGEND
  
 Use, reproduction and disclosure by the US Government is
 subject to restrictions as set forth in subparagraphs (a)
 and (c) of the Commercial Computer Software - Restricted
 Rights clause in FAR 52.227-19.
  
 Gaussian, Inc.
 340 Quinnipiac St., Bldg. 40, Wallingford CT 06492
  
  
 ---------------------------------------------------------------
 Warning -- This program may not be used in any manner that
 competes with the business of Gaussian, Inc. or will provide
 assistance to any competitor of Gaussian, Inc.  The licensee
 of this program is prohibited from giving any competitor of
 Gaussian, Inc. access to this program.  By using this program,
 the user acknowledges that Gaussian, Inc. is engaged in the
 business of creating and licensing software in the field of
 computational chemistry and represents and warrants to the
 licensee that it is not a competitor of Gaussian, Inc. and that
 it will not use this program in any manner prohibited above.
 ---------------------------------------------------------------
  

 Cite this work as:
 Gaussian 09, Revision B.01,
 M. J. Frisch, G. W. Trucks, H. B. Schlegel, G. E. Scuseria, 
 M. A. Robb, J. R. Cheeseman, G. Scalmani, V. Barone, B. Mennucci, 
 G. A. Petersson, H. Nakatsuji, M. Caricato, X. Li, H. P. Hratchian, 
 A. F. Izmaylov, J. Bloino, G. Zheng, J. L. Sonnenberg, M. Hada, 
 M. Ehara, K. Toyota, R. Fukuda, J. Hasegawa, M. Ishida, T. Nakajima, 
 Y. Honda, O. Kitao, H. Nakai, T. Vreven, J. A. Montgomery, Jr., 
 J. E. Peralta, F. Ogliaro, M. Bearpark, J. J. Heyd, E. Brothers, 
 K. N. Kudin, V. N. Staroverov, T. Keith, R. Kobayashi, J. Normand, 
 K. Raghavachari, A. Rendell, J. C. Burant, S. S. Iyengar, J. Tomasi, 
 M. Cossi, N. Rega, J. M. Millam, M. Klene, J. E. Knox, J. B. Cross, 
 V. Bakken, C. Adamo, J. Jaramillo, R. Gomperts, R. E. Stratmann, 
 O. Yazyev, A. J. Austin, R. Cammi, C. Pomelli, J. W. Ochterski, 
 R. L. Martin, K. Morokuma, V. G. Zakrzewski, G. A. Voth, 
 P. Salvador, J. J. Dannenberg, S. Dapprich, A. D. Daniels, 
 O. Farkas, J. B. Foresman, J. V. Ortiz, J. Cioslowski, 
 and D. J. Fox, Gaussian, Inc., Wallingford CT, 2010.
 
 ******************************************
 Gaussian 09:  EM64L-G09RevB.01 12-Aug-2010
                13-Apr-2021 
 ******************************************
 %mem=600MW
 %nprocshared=10
 Will use up to   10 processors via shared memory.
 ----------------------------------------
 # opt b3lyp/6-311+g(d) geom=connectivity
 ----------------------------------------
 1/14=-1,18=20,19=15,26=3,38=1,57=2/1,3;
 2/9=110,12=2,17=6,18=5,40=1/2;
 3/5=4,6=6,7=11,11=2,16=1,25=1,30=1,71=1,74=-5/1,2,3;
 4//1;
 5/5=2,38=5/2;
 6/7=2,8=2,9=2,10=2,28=1/1;
 7//1,2,3,16;
 1/14=-1,18=20,19=15/3(2);
 2/9=110/2;
 99//99;
 2/9=110/2;
 3/5=4,6=6,7=11,11=2,16=1,25=1,30=1,71=1,74=-5/1,2,3;
 4/5=5,16=3/1;
 5/5=2,38=5/2;
 7//1,2,3,16;
 1/14=-1,18=20,19=15/3(-5);
 2/9=110/2;
 6/7=2,8=2,9=2,10=2,19=2,28=1/1;
 99/9=1/99;
 -------------------
 Title Card Required
 -------------------
 Symbolic Z-matrix:
 Charge =  0 Multiplicity = 1
 C                     1.88562   1.21402   2.73228 
 C                     2.32112   2.06779   1.79793 
 C                     1.84376   1.92595   0.37053 
 C                     1.50251   0.47288  -0.09866 
 C                     1.27106  -0.57751   1.03005 
 C                     0.95888   0.07081   2.41344 
 C                     0.28714   0.66407  -1.08013 
 C                    -1.04135   0.25402  -0.47309 
 C                    -1.19499  -0.84017   0.31003 
 C                     0.05974  -1.51238   0.74358 
 C                    -2.49223  -1.32403   0.88777 
 O                    -2.53188  -1.69649   2.04994 
 C                    -3.71582  -1.41722  -0.02629 
 C                    -5.02899  -1.23346   0.75033 
 C                    -3.65296  -2.79543  -0.72391 
 O                     0.11343  -2.70524   0.9883 
 C                     0.05821   2.17972  -1.27159 
 C                    -1.45665   2.27665  -1.56234 
 O                    -2.01174   1.11671  -0.8141 
 C                     0.5742    2.76173   0.05631 
 O                     0.45995  -0.06558  -2.27934 
 C                     2.59599  -1.36707   1.08728 
 C                     3.36626  -1.04657  -0.21064 
 O                     2.57336  -0.04202  -0.89902 
 C                     3.62257  -2.2174   -1.13802 
 C                     2.44168  -3.03192  -1.60707 
 C                     4.87895  -2.50362  -1.49463 
 C                    -1.77685   2.06332  -3.04373 
 C                    -2.16684   3.50966  -1.01343 
 H                     0.64503   2.55564  -2.11527 
 H                     2.63535   2.26199  -0.31238 
 C                     3.24291   3.21961   2.10209 
 H                     2.19714   1.33869   3.76826 
 H                     1.03261  -0.7129    3.17541 
 H                    -0.08767   0.40484   2.44098 
 H                    -3.63673  -0.64211  -0.7965 
 H                    -5.06327  -1.97127   1.56005 
 H                    -5.86222  -1.46356   0.07268 
 H                    -2.71234  -2.92907  -1.26915 
 H                    -4.47822  -2.89464  -1.43803 
 H                    -3.73424  -3.60239   0.01258 
 H                    -0.1611    2.62014   0.85774 
 H                     0.78734   3.83376   0.00075 
 H                     1.42376  -0.24241  -2.31319 
 H                     3.18879  -1.05275   1.94991 
 H                     2.37788  -2.43117   1.2005 
 H                     4.32928  -0.58005   0.02722 
 H                     1.67947  -2.4036   -2.08153 
 H                     1.94097  -3.53546  -0.77165 
 H                     2.75465  -3.79305  -2.32769 
 H                     5.11289  -3.34727  -2.13905 
 H                     5.72207  -1.90956  -1.14963 
 H                    -2.85687   1.94682  -3.18075 
 H                    -1.44884   2.93135  -3.62696 
 H                    -1.26877   1.1755   -3.4271 
 H                    -1.78638   4.41071  -1.50687 
 H                    -2.02214   3.61621   0.06449 
 H                    -3.24198   3.44315  -1.20835 
 H                     3.49859   3.2609    3.16563 
 H                     4.17728   3.14209   1.52885 
 H                     2.78879   4.18186   1.82737 
 C                    -5.21272   0.17358   1.32932 
 H                    -5.17131   0.93761   0.54294 
 H                    -4.43168   0.40201   2.06232 
 H                    -6.18028   0.26672   1.8357 
 

 GradGradGradGradGradGradGradGradGradGradGradGradGradGradGradGradGradGrad
 Berny optimization.
 Initialization pass.
                           ----------------------------
                           !    Initial Parameters    !
                           ! (Angstroms and Degrees)  !
 --------------------------                            --------------------------
 ! Name  Definition              Value          Derivative Info.                !
 --------------------------------------------------------------------------------
 ! R1    R(1,2)                  1.3385         estimate D2E/DX2                !
 ! R2    R(1,6)                  1.5058         estimate D2E/DX2                !
 ! R3    R(1,33)                 1.089          estimate D2E/DX2                !
 ! R4    R(2,3)                  1.5118         estimate D2E/DX2                !
 ! R5    R(2,32)                 1.5063         estimate D2E/DX2                !
 ! R6    R(3,4)                  1.5646         estimate D2E/DX2                !
 ! R7    R(3,20)                 1.5521         estimate D2E/DX2                !
 ! R8    R(3,31)                 1.0981         estimate D2E/DX2                !
 ! R9    R(4,5)                  1.5591         estimate D2E/DX2                !
 ! R10   R(4,7)                  1.5738         estimate D2E/DX2                !
 ! R11   R(4,24)                 1.4326         estimate D2E/DX2                !
 ! R12   R(5,6)                  1.5593         estimate D2E/DX2                !
 ! R13   R(5,10)                 1.5567         estimate D2E/DX2                !
 ! R14   R(5,22)                 1.5434         estimate D2E/DX2                !
 ! R15   R(6,34)                 1.0956         estimate D2E/DX2                !
 ! R16   R(6,35)                 1.0989         estimate D2E/DX2                !
 ! R17   R(7,8)                  1.5171         estimate D2E/DX2                !
 ! R18   R(7,17)                 1.5448         estimate D2E/DX2                !
 ! R19   R(7,21)                 1.4143         estimate D2E/DX2                !
 ! R20   R(8,9)                  1.3543         estimate D2E/DX2                !
 ! R21   R(8,19)                 1.3425         estimate D2E/DX2                !
 ! R22   R(9,10)                 1.488          estimate D2E/DX2                !
 ! R23   R(9,11)                 1.5002         estimate D2E/DX2                !
 ! R24   R(10,16)                1.2189         estimate D2E/DX2                !
 ! R25   R(11,12)                1.221          estimate D2E/DX2                !
 ! R26   R(11,13)                1.5302         estimate D2E/DX2                !
 ! R27   R(13,14)                1.5367         estimate D2E/DX2                !
 ! R28   R(13,15)                1.546          estimate D2E/DX2                !
 ! R29   R(13,36)                1.0956         estimate D2E/DX2                !
 ! R30   R(14,37)                1.096          estimate D2E/DX2                !
 ! R31   R(14,38)                1.0984         estimate D2E/DX2                !
 ! R32   R(14,62)                1.5326         estimate D2E/DX2                !
 ! R33   R(15,39)                1.0954         estimate D2E/DX2                !
 ! R34   R(15,40)                1.0958         estimate D2E/DX2                !
 ! R35   R(15,41)                1.0955         estimate D2E/DX2                !
 ! R36   R(17,18)                1.5456         estimate D2E/DX2                !
 ! R37   R(17,20)                1.5389         estimate D2E/DX2                !
 ! R38   R(17,30)                1.0943         estimate D2E/DX2                !
 ! R39   R(18,19)                1.4878         estimate D2E/DX2                !
 ! R40   R(18,28)                1.5305         estimate D2E/DX2                !
 ! R41   R(18,29)                1.5251         estimate D2E/DX2                !
 ! R42   R(20,42)                1.0968         estimate D2E/DX2                !
 ! R43   R(20,43)                1.0944         estimate D2E/DX2                !
 ! R44   R(21,44)                0.9805         estimate D2E/DX2                !
 ! R45   R(22,23)                1.5429         estimate D2E/DX2                !
 ! R46   R(22,45)                1.0929         estimate D2E/DX2                !
 ! R47   R(22,46)                1.0921         estimate D2E/DX2                !
 ! R48   R(23,24)                1.4532         estimate D2E/DX2                !
 ! R49   R(23,25)                1.5154         estimate D2E/DX2                !
 ! R50   R(23,47)                1.0962         estimate D2E/DX2                !
 ! R51   R(24,44)                1.8335         estimate D2E/DX2                !
 ! R52   R(25,26)                1.5093         estimate D2E/DX2                !
 ! R53   R(25,27)                1.337          estimate D2E/DX2                !
 ! R54   R(26,48)                1.0958         estimate D2E/DX2                !
 ! R55   R(26,49)                1.0964         estimate D2E/DX2                !
 ! R56   R(26,50)                1.0939         estimate D2E/DX2                !
 ! R57   R(27,51)                1.0871         estimate D2E/DX2                !
 ! R58   R(27,52)                1.0876         estimate D2E/DX2                !
 ! R59   R(28,53)                1.0949         estimate D2E/DX2                !
 ! R60   R(28,54)                1.096          estimate D2E/DX2                !
 ! R61   R(28,55)                1.0924         estimate D2E/DX2                !
 ! R62   R(29,56)                1.0955         estimate D2E/DX2                !
 ! R63   R(29,57)                1.0928         estimate D2E/DX2                !
 ! R64   R(29,58)                1.0947         estimate D2E/DX2                !
 ! R65   R(32,59)                1.0946         estimate D2E/DX2                !
 ! R66   R(32,60)                1.0989         estimate D2E/DX2                !
 ! R67   R(32,61)                1.0989         estimate D2E/DX2                !
 ! R68   R(62,63)                1.0972         estimate D2E/DX2                !
 ! R69   R(62,64)                1.0952         estimate D2E/DX2                !
 ! R70   R(62,65)                1.096          estimate D2E/DX2                !
 ! A1    A(2,1,6)              122.4589         estimate D2E/DX2                !
 ! A2    A(2,1,33)             119.8671         estimate D2E/DX2                !
 ! A3    A(6,1,33)             117.6727         estimate D2E/DX2                !
 ! A4    A(1,2,3)              119.7694         estimate D2E/DX2                !
 ! A5    A(1,2,32)             123.0864         estimate D2E/DX2                !
 ! A6    A(3,2,32)             117.106          estimate D2E/DX2                !
 ! A7    A(2,3,4)              116.0492         estimate D2E/DX2                !
 ! A8    A(2,3,20)             113.5096         estimate D2E/DX2                !
 ! A9    A(2,3,31)             109.3198         estimate D2E/DX2                !
 ! A10   A(4,3,20)             105.1287         estimate D2E/DX2                !
 ! A11   A(4,3,31)             104.7695         estimate D2E/DX2                !
 ! A12   A(20,3,31)            107.3943         estimate D2E/DX2                !
 ! A13   A(3,4,5)              116.1659         estimate D2E/DX2                !
 ! A14   A(3,4,7)              104.0409         estimate D2E/DX2                !
 ! A15   A(3,4,24)             109.7727         estimate D2E/DX2                !
 ! A16   A(5,4,7)              114.7505         estimate D2E/DX2                !
 ! A17   A(5,4,24)             105.8581         estimate D2E/DX2                !
 ! A18   A(7,4,24)             105.8124         estimate D2E/DX2                !
 ! A19   A(4,5,6)              113.0703         estimate D2E/DX2                !
 ! A20   A(4,5,10)             112.7604         estimate D2E/DX2                !
 ! A21   A(4,5,22)             104.1265         estimate D2E/DX2                !
 ! A22   A(6,5,10)             104.9014         estimate D2E/DX2                !
 ! A23   A(6,5,22)             110.5887         estimate D2E/DX2                !
 ! A24   A(10,5,22)            111.5671         estimate D2E/DX2                !
 ! A25   A(1,6,5)              112.3515         estimate D2E/DX2                !
 ! A26   A(1,6,34)             110.7568         estimate D2E/DX2                !
 ! A27   A(1,6,35)             110.4902         estimate D2E/DX2                !
 ! A28   A(5,6,34)             107.8268         estimate D2E/DX2                !
 ! A29   A(5,6,35)             109.8328         estimate D2E/DX2                !
 ! A30   A(34,6,35)            105.314          estimate D2E/DX2                !
 ! A31   A(4,7,8)              113.1955         estimate D2E/DX2                !
 ! A32   A(4,7,17)             108.1153         estimate D2E/DX2                !
 ! A33   A(4,7,21)             111.8227         estimate D2E/DX2                !
 ! A34   A(8,7,17)             100.6622         estimate D2E/DX2                !
 ! A35   A(8,7,21)             107.8678         estimate D2E/DX2                !
 ! A36   A(17,7,21)            114.7837         estimate D2E/DX2                !
 ! A37   A(7,8,9)              123.3054         estimate D2E/DX2                !
 ! A38   A(7,8,19)             110.9563         estimate D2E/DX2                !
 ! A39   A(9,8,19)             125.7378         estimate D2E/DX2                !
 ! A40   A(8,9,10)             115.9637         estimate D2E/DX2                !
 ! A41   A(8,9,11)             125.5459         estimate D2E/DX2                !
 ! A42   A(10,9,11)            118.1138         estimate D2E/DX2                !
 ! A43   A(5,10,9)             116.006          estimate D2E/DX2                !
 ! A44   A(5,10,16)            121.097          estimate D2E/DX2                !
 ! A45   A(9,10,16)            122.5305         estimate D2E/DX2                !
 ! A46   A(9,11,12)            119.5372         estimate D2E/DX2                !
 ! A47   A(9,11,13)            118.7537         estimate D2E/DX2                !
 ! A48   A(12,11,13)           121.6025         estimate D2E/DX2                !
 ! A49   A(11,13,14)           111.9725         estimate D2E/DX2                !
 ! A50   A(11,13,15)           106.938          estimate D2E/DX2                !
 ! A51   A(11,13,36)           108.6114         estimate D2E/DX2                !
 ! A52   A(14,13,15)           111.6796         estimate D2E/DX2                !
 ! A53   A(14,13,36)           109.4134         estimate D2E/DX2                !
 ! A54   A(15,13,36)           108.0921         estimate D2E/DX2                !
 ! A55   A(13,14,37)           108.6393         estimate D2E/DX2                !
 ! A56   A(13,14,38)           108.1445         estimate D2E/DX2                !
 ! A57   A(13,14,62)           113.777          estimate D2E/DX2                !
 ! A58   A(37,14,38)           106.9208         estimate D2E/DX2                !
 ! A59   A(37,14,62)           109.5841         estimate D2E/DX2                !
 ! A60   A(38,14,62)           109.5406         estimate D2E/DX2                !
 ! A61   A(13,15,39)           111.61           estimate D2E/DX2                !
 ! A62   A(13,15,40)           110.1297         estimate D2E/DX2                !
 ! A63   A(13,15,41)           110.5044         estimate D2E/DX2                !
 ! A64   A(39,15,40)           108.1351         estimate D2E/DX2                !
 ! A65   A(39,15,41)           107.9665         estimate D2E/DX2                !
 ! A66   A(40,15,41)           108.3927         estimate D2E/DX2                !
 ! A67   A(7,17,18)            103.3032         estimate D2E/DX2                !
 ! A68   A(7,17,20)            102.382          estimate D2E/DX2                !
 ! A69   A(7,17,30)            110.6797         estimate D2E/DX2                !
 ! A70   A(18,17,20)           117.8554         estimate D2E/DX2                !
 ! A71   A(18,17,30)           111.0404         estimate D2E/DX2                !
 ! A72   A(20,17,30)           110.8264         estimate D2E/DX2                !
 ! A73   A(17,18,19)           102.8377         estimate D2E/DX2                !
 ! A74   A(17,18,28)           112.2339         estimate D2E/DX2                !
 ! A75   A(17,18,29)           116.0658         estimate D2E/DX2                !
 ! A76   A(19,18,28)           107.4612         estimate D2E/DX2                !
 ! A77   A(19,18,29)           105.996          estimate D2E/DX2                !
 ! A78   A(28,18,29)           111.323          estimate D2E/DX2                !
 ! A79   A(8,19,18)            111.0434         estimate D2E/DX2                !
 ! A80   A(3,20,17)            104.1989         estimate D2E/DX2                !
 ! A81   A(3,20,42)            109.324          estimate D2E/DX2                !
 ! A82   A(3,20,43)            112.2374         estimate D2E/DX2                !
 ! A83   A(17,20,42)           110.9092         estimate D2E/DX2                !
 ! A84   A(17,20,43)           113.0758         estimate D2E/DX2                !
 ! A85   A(42,20,43)           107.1043         estimate D2E/DX2                !
 ! A86   A(7,21,44)            104.0296         estimate D2E/DX2                !
 ! A87   A(5,22,23)            106.9237         estimate D2E/DX2                !
 ! A88   A(5,22,45)            110.3521         estimate D2E/DX2                !
 ! A89   A(5,22,46)            109.3202         estimate D2E/DX2                !
 ! A90   A(23,22,45)           109.4784         estimate D2E/DX2                !
 ! A91   A(23,22,46)           112.9112         estimate D2E/DX2                !
 ! A92   A(45,22,46)           107.8628         estimate D2E/DX2                !
 ! A93   A(22,23,24)           105.6455         estimate D2E/DX2                !
 ! A94   A(22,23,25)           116.0228         estimate D2E/DX2                !
 ! A95   A(22,23,47)           110.1483         estimate D2E/DX2                !
 ! A96   A(24,23,25)           109.6624         estimate D2E/DX2                !
 ! A97   A(24,23,47)           106.7346         estimate D2E/DX2                !
 ! A98   A(25,23,47)           108.2408         estimate D2E/DX2                !
 ! A99   A(4,24,23)            113.0578         estimate D2E/DX2                !
 ! A100  A(23,25,26)           118.3464         estimate D2E/DX2                !
 ! A101  A(23,25,27)           119.1798         estimate D2E/DX2                !
 ! A102  A(26,25,27)           122.4665         estimate D2E/DX2                !
 ! A103  A(25,26,48)           111.6745         estimate D2E/DX2                !
 ! A104  A(25,26,49)           111.614          estimate D2E/DX2                !
 ! A105  A(25,26,50)           110.8784         estimate D2E/DX2                !
 ! A106  A(48,26,49)           105.9961         estimate D2E/DX2                !
 ! A107  A(48,26,50)           108.2241         estimate D2E/DX2                !
 ! A108  A(49,26,50)           108.2437         estimate D2E/DX2                !
 ! A109  A(25,27,51)           121.7679         estimate D2E/DX2                !
 ! A110  A(25,27,52)           121.7987         estimate D2E/DX2                !
 ! A111  A(51,27,52)           116.4318         estimate D2E/DX2                !
 ! A112  A(18,28,53)           110.0179         estimate D2E/DX2                !
 ! A113  A(18,28,54)           110.0021         estimate D2E/DX2                !
 ! A114  A(18,28,55)           110.8327         estimate D2E/DX2                !
 ! A115  A(53,28,54)           108.2336         estimate D2E/DX2                !
 ! A116  A(53,28,55)           109.171          estimate D2E/DX2                !
 ! A117  A(54,28,55)           108.5264         estimate D2E/DX2                !
 ! A118  A(18,29,56)           109.946          estimate D2E/DX2                !
 ! A119  A(18,29,57)           111.8506         estimate D2E/DX2                !
 ! A120  A(18,29,58)           110.1286         estimate D2E/DX2                !
 ! A121  A(56,29,57)           108.549          estimate D2E/DX2                !
 ! A122  A(56,29,58)           108.1112         estimate D2E/DX2                !
 ! A123  A(57,29,58)           108.1559         estimate D2E/DX2                !
 ! A124  A(2,32,59)            111.5909         estimate D2E/DX2                !
 ! A125  A(2,32,60)            111.1644         estimate D2E/DX2                !
 ! A126  A(2,32,61)            111.4819         estimate D2E/DX2                !
 ! A127  A(59,32,60)           108.1122         estimate D2E/DX2                !
 ! A128  A(59,32,61)           107.8421         estimate D2E/DX2                !
 ! A129  A(60,32,61)           106.4229         estimate D2E/DX2                !
 ! A130  A(14,62,63)           111.3467         estimate D2E/DX2                !
 ! A131  A(14,62,64)           111.0294         estimate D2E/DX2                !
 ! A132  A(14,62,65)           111.002          estimate D2E/DX2                !
 ! A133  A(63,62,64)           107.9106         estimate D2E/DX2                !
 ! A134  A(63,62,65)           107.7747         estimate D2E/DX2                !
 ! A135  A(64,62,65)           107.6142         estimate D2E/DX2                !
 ! D1    D(6,1,2,3)              2.0185         estimate D2E/DX2                !
 ! D2    D(6,1,2,32)           179.7068         estimate D2E/DX2                !
 ! D3    D(33,1,2,3)          -177.5674         estimate D2E/DX2                !
 ! D4    D(33,1,2,32)            0.121          estimate D2E/DX2                !
 ! D5    D(2,1,6,5)             36.9891         estimate D2E/DX2                !
 ! D6    D(2,1,6,34)           157.6412         estimate D2E/DX2                !
 ! D7    D(2,1,6,35)           -86.0539         estimate D2E/DX2                !
 ! D8    D(33,1,6,5)          -143.4164         estimate D2E/DX2                !
 ! D9    D(33,1,6,34)          -22.7643         estimate D2E/DX2                !
 ! D10   D(33,1,6,35)           93.5405         estimate D2E/DX2                !
 ! D11   D(1,2,3,4)            -30.4838         estimate D2E/DX2                !
 ! D12   D(1,2,3,20)            91.4828         estimate D2E/DX2                !
 ! D13   D(1,2,3,31)          -148.6515         estimate D2E/DX2                !
 ! D14   D(32,2,3,4)           151.6919         estimate D2E/DX2                !
 ! D15   D(32,2,3,20)          -86.3415         estimate D2E/DX2                !
 ! D16   D(32,2,3,31)           33.5242         estimate D2E/DX2                !
 ! D17   D(1,2,32,59)           -0.0989         estimate D2E/DX2                !
 ! D18   D(1,2,32,60)          120.6807         estimate D2E/DX2                !
 ! D19   D(1,2,32,61)         -120.7532         estimate D2E/DX2                !
 ! D20   D(3,2,32,59)          177.6469         estimate D2E/DX2                !
 ! D21   D(3,2,32,60)          -61.5735         estimate D2E/DX2                !
 ! D22   D(3,2,32,61)           56.9926         estimate D2E/DX2                !
 ! D23   D(2,3,4,5)             17.9515         estimate D2E/DX2                !
 ! D24   D(2,3,4,7)            145.0875         estimate D2E/DX2                !
 ! D25   D(2,3,4,24)          -102.0587         estimate D2E/DX2                !
 ! D26   D(20,3,4,5)          -108.3545         estimate D2E/DX2                !
 ! D27   D(20,3,4,7)            18.7816         estimate D2E/DX2                !
 ! D28   D(20,3,4,24)          131.6353         estimate D2E/DX2                !
 ! D29   D(31,3,4,5)           138.5953         estimate D2E/DX2                !
 ! D30   D(31,3,4,7)           -94.2687         estimate D2E/DX2                !
 ! D31   D(31,3,4,24)           18.5851         estimate D2E/DX2                !
 ! D32   D(2,3,20,17)         -164.8851         estimate D2E/DX2                !
 ! D33   D(2,3,20,42)          -46.2756         estimate D2E/DX2                !
 ! D34   D(2,3,20,43)           72.4154         estimate D2E/DX2                !
 ! D35   D(4,3,20,17)          -37.0278         estimate D2E/DX2                !
 ! D36   D(4,3,20,42)           81.5816         estimate D2E/DX2                !
 ! D37   D(4,3,20,43)         -159.7274         estimate D2E/DX2                !
 ! D38   D(31,3,20,17)          74.1605         estimate D2E/DX2                !
 ! D39   D(31,3,20,42)        -167.23           estimate D2E/DX2                !
 ! D40   D(31,3,20,43)         -48.539          estimate D2E/DX2                !
 ! D41   D(3,4,5,6)             18.8843         estimate D2E/DX2                !
 ! D42   D(3,4,5,10)           137.6879         estimate D2E/DX2                !
 ! D43   D(3,4,5,22)          -101.2042         estimate D2E/DX2                !
 ! D44   D(7,4,5,6)           -102.7278         estimate D2E/DX2                !
 ! D45   D(7,4,5,10)            16.0757         estimate D2E/DX2                !
 ! D46   D(7,4,5,22)           137.1837         estimate D2E/DX2                !
 ! D47   D(24,4,5,6)           140.9842         estimate D2E/DX2                !
 ! D48   D(24,4,5,10)         -100.2122         estimate D2E/DX2                !
 ! D49   D(24,4,5,22)           20.8957         estimate D2E/DX2                !
 ! D50   D(3,4,7,8)           -104.7129         estimate D2E/DX2                !
 ! D51   D(3,4,7,17)             5.8951         estimate D2E/DX2                !
 ! D52   D(3,4,7,21)           133.2033         estimate D2E/DX2                !
 ! D53   D(5,4,7,8)             23.299          estimate D2E/DX2                !
 ! D54   D(5,4,7,17)           133.9069         estimate D2E/DX2                !
 ! D55   D(5,4,7,21)           -98.7849         estimate D2E/DX2                !
 ! D56   D(24,4,7,8)           139.6132         estimate D2E/DX2                !
 ! D57   D(24,4,7,17)         -109.7788         estimate D2E/DX2                !
 ! D58   D(24,4,7,21)           17.5294         estimate D2E/DX2                !
 ! D59   D(3,4,24,23)          106.6747         estimate D2E/DX2                !
 ! D60   D(5,4,24,23)          -19.4296         estimate D2E/DX2                !
 ! D61   D(7,4,24,23)         -141.6244         estimate D2E/DX2                !
 ! D62   D(4,5,6,1)            -45.295          estimate D2E/DX2                !
 ! D63   D(4,5,6,34)          -167.6217         estimate D2E/DX2                !
 ! D64   D(4,5,6,35)            78.1166         estimate D2E/DX2                !
 ! D65   D(10,5,6,1)          -168.5579         estimate D2E/DX2                !
 ! D66   D(10,5,6,34)           69.1154         estimate D2E/DX2                !
 ! D67   D(10,5,6,35)          -45.1464         estimate D2E/DX2                !
 ! D68   D(22,5,6,1)            71.0245         estimate D2E/DX2                !
 ! D69   D(22,5,6,34)          -51.3021         estimate D2E/DX2                !
 ! D70   D(22,5,6,35)         -165.5639         estimate D2E/DX2                !
 ! D71   D(4,5,10,9)           -47.5161         estimate D2E/DX2                !
 ! D72   D(4,5,10,16)          139.2642         estimate D2E/DX2                !
 ! D73   D(6,5,10,9)            75.9458         estimate D2E/DX2                !
 ! D74   D(6,5,10,16)          -97.2739         estimate D2E/DX2                !
 ! D75   D(22,5,10,9)         -164.2874         estimate D2E/DX2                !
 ! D76   D(22,5,10,16)          22.4929         estimate D2E/DX2                !
 ! D77   D(4,5,22,23)          -15.4876         estimate D2E/DX2                !
 ! D78   D(4,5,22,45)          103.5002         estimate D2E/DX2                !
 ! D79   D(4,5,22,46)         -138.0274         estimate D2E/DX2                !
 ! D80   D(6,5,22,23)         -137.236          estimate D2E/DX2                !
 ! D81   D(6,5,22,45)          -18.2483         estimate D2E/DX2                !
 ! D82   D(6,5,22,46)          100.2241         estimate D2E/DX2                !
 ! D83   D(10,5,22,23)         106.4135         estimate D2E/DX2                !
 ! D84   D(10,5,22,45)        -134.5988         estimate D2E/DX2                !
 ! D85   D(10,5,22,46)         -16.1264         estimate D2E/DX2                !
 ! D86   D(4,7,8,9)            -40.122          estimate D2E/DX2                !
 ! D87   D(4,7,8,19)           139.6139         estimate D2E/DX2                !
 ! D88   D(17,7,8,9)          -155.2658         estimate D2E/DX2                !
 ! D89   D(17,7,8,19)           24.47           estimate D2E/DX2                !
 ! D90   D(21,7,8,9)            84.1458         estimate D2E/DX2                !
 ! D91   D(21,7,8,19)          -96.1184         estimate D2E/DX2                !
 ! D92   D(4,7,17,18)         -151.1696         estimate D2E/DX2                !
 ! D93   D(4,7,17,20)          -28.2495         estimate D2E/DX2                !
 ! D94   D(4,7,17,30)           89.9107         estimate D2E/DX2                !
 ! D95   D(8,7,17,18)          -32.2696         estimate D2E/DX2                !
 ! D96   D(8,7,17,20)           90.6505         estimate D2E/DX2                !
 ! D97   D(8,7,17,30)         -151.1892         estimate D2E/DX2                !
 ! D98   D(21,7,17,18)          83.2496         estimate D2E/DX2                !
 ! D99   D(21,7,17,20)        -153.8304         estimate D2E/DX2                !
 ! D100  D(21,7,17,30)         -35.6701         estimate D2E/DX2                !
 ! D101  D(4,7,21,44)          -19.3841         estimate D2E/DX2                !
 ! D102  D(8,7,21,44)         -144.4741         estimate D2E/DX2                !
 ! D103  D(17,7,21,44)         104.2438         estimate D2E/DX2                !
 ! D104  D(7,8,9,10)             9.9446         estimate D2E/DX2                !
 ! D105  D(7,8,9,11)          -177.2676         estimate D2E/DX2                !
 ! D106  D(19,8,9,10)         -169.7515         estimate D2E/DX2                !
 ! D107  D(19,8,9,11)            3.0363         estimate D2E/DX2                !
 ! D108  D(7,8,19,18)           -5.7927         estimate D2E/DX2                !
 ! D109  D(9,8,19,18)          173.9353         estimate D2E/DX2                !
 ! D110  D(8,9,10,5)            35.355          estimate D2E/DX2                !
 ! D111  D(8,9,10,16)         -151.5318         estimate D2E/DX2                !
 ! D112  D(11,9,10,5)         -137.9944         estimate D2E/DX2                !
 ! D113  D(11,9,10,16)          35.1188         estimate D2E/DX2                !
 ! D114  D(8,9,11,12)         -136.5478         estimate D2E/DX2                !
 ! D115  D(8,9,11,13)           47.1453         estimate D2E/DX2                !
 ! D116  D(10,9,11,12)          36.0997         estimate D2E/DX2                !
 ! D117  D(10,9,11,13)        -140.2072         estimate D2E/DX2                !
 ! D118  D(9,11,13,14)        -151.5741         estimate D2E/DX2                !
 ! D119  D(9,11,13,15)          85.7906         estimate D2E/DX2                !
 ! D120  D(9,11,13,36)         -30.6391         estimate D2E/DX2                !
 ! D121  D(12,11,13,14)         32.1986         estimate D2E/DX2                !
 ! D122  D(12,11,13,15)        -90.4367         estimate D2E/DX2                !
 ! D123  D(12,11,13,36)        153.1336         estimate D2E/DX2                !
 ! D124  D(11,13,14,37)        -55.7214         estimate D2E/DX2                !
 ! D125  D(11,13,14,38)       -171.4285         estimate D2E/DX2                !
 ! D126  D(11,13,14,62)         66.6333         estimate D2E/DX2                !
 ! D127  D(15,13,14,37)         64.1769         estimate D2E/DX2                !
 ! D128  D(15,13,14,38)        -51.5301         estimate D2E/DX2                !
 ! D129  D(15,13,14,62)       -173.4683         estimate D2E/DX2                !
 ! D130  D(36,13,14,37)       -176.191          estimate D2E/DX2                !
 ! D131  D(36,13,14,38)         68.1019         estimate D2E/DX2                !
 ! D132  D(36,13,14,62)        -53.8362         estimate D2E/DX2                !
 ! D133  D(11,13,15,39)        -56.6312         estimate D2E/DX2                !
 ! D134  D(11,13,15,40)       -176.7482         estimate D2E/DX2                !
 ! D135  D(11,13,15,41)         63.5253         estimate D2E/DX2                !
 ! D136  D(14,13,15,39)       -179.449          estimate D2E/DX2                !
 ! D137  D(14,13,15,40)         60.434          estimate D2E/DX2                !
 ! D138  D(14,13,15,41)        -59.2925         estimate D2E/DX2                !
 ! D139  D(36,13,15,39)         60.1425         estimate D2E/DX2                !
 ! D140  D(36,13,15,40)        -59.9745         estimate D2E/DX2                !
 ! D141  D(36,13,15,41)       -179.701          estimate D2E/DX2                !
 ! D142  D(13,14,62,63)         57.4998         estimate D2E/DX2                !
 ! D143  D(13,14,62,64)        -62.7652         estimate D2E/DX2                !
 ! D144  D(13,14,62,65)        177.5742         estimate D2E/DX2                !
 ! D145  D(37,14,62,63)        179.3325         estimate D2E/DX2                !
 ! D146  D(37,14,62,64)         59.0676         estimate D2E/DX2                !
 ! D147  D(37,14,62,65)        -60.5931         estimate D2E/DX2                !
 ! D148  D(38,14,62,63)        -63.6624         estimate D2E/DX2                !
 ! D149  D(38,14,62,64)        176.0726         estimate D2E/DX2                !
 ! D150  D(38,14,62,65)         56.412          estimate D2E/DX2                !
 ! D151  D(7,17,18,19)          29.8294         estimate D2E/DX2                !
 ! D152  D(7,17,18,28)         -85.3612         estimate D2E/DX2                !
 ! D153  D(7,17,18,29)         145.0503         estimate D2E/DX2                !
 ! D154  D(20,17,18,19)        -82.144          estimate D2E/DX2                !
 ! D155  D(20,17,18,28)        162.6655         estimate D2E/DX2                !
 ! D156  D(20,17,18,29)         33.0769         estimate D2E/DX2                !
 ! D157  D(30,17,18,19)        148.499          estimate D2E/DX2                !
 ! D158  D(30,17,18,28)         33.3085         estimate D2E/DX2                !
 ! D159  D(30,17,18,29)        -96.2801         estimate D2E/DX2                !
 ! D160  D(7,17,20,3)           39.8226         estimate D2E/DX2                !
 ! D161  D(7,17,20,42)         -77.6978         estimate D2E/DX2                !
 ! D162  D(7,17,20,43)         161.9713         estimate D2E/DX2                !
 ! D163  D(18,17,20,3)         152.3099         estimate D2E/DX2                !
 ! D164  D(18,17,20,42)         34.7894         estimate D2E/DX2                !
 ! D165  D(18,17,20,43)        -85.5415         estimate D2E/DX2                !
 ! D166  D(30,17,20,3)         -78.2336         estimate D2E/DX2                !
 ! D167  D(30,17,20,42)        164.246          estimate D2E/DX2                !
 ! D168  D(30,17,20,43)         43.9151         estimate D2E/DX2                !
 ! D169  D(17,18,19,8)         -15.622          estimate D2E/DX2                !
 ! D170  D(28,18,19,8)         102.9668         estimate D2E/DX2                !
 ! D171  D(29,18,19,8)        -137.9082         estimate D2E/DX2                !
 ! D172  D(17,18,28,53)        169.1472         estimate D2E/DX2                !
 ! D173  D(17,18,28,54)        -71.7089         estimate D2E/DX2                !
 ! D174  D(17,18,28,55)         48.3112         estimate D2E/DX2                !
 ! D175  D(19,18,28,53)         56.8            estimate D2E/DX2                !
 ! D176  D(19,18,28,54)        175.9439         estimate D2E/DX2                !
 ! D177  D(19,18,28,55)        -64.036          estimate D2E/DX2                !
 ! D178  D(29,18,28,53)        -58.8514         estimate D2E/DX2                !
 ! D179  D(29,18,28,54)         60.2925         estimate D2E/DX2                !
 ! D180  D(29,18,28,55)       -179.6875         estimate D2E/DX2                !
 ! D181  D(17,18,29,56)         65.216          estimate D2E/DX2                !
 ! D182  D(17,18,29,57)        -55.4566         estimate D2E/DX2                !
 ! D183  D(17,18,29,58)       -175.757          estimate D2E/DX2                !
 ! D184  D(19,18,29,56)        178.6403         estimate D2E/DX2                !
 ! D185  D(19,18,29,57)         57.9677         estimate D2E/DX2                !
 ! D186  D(19,18,29,58)        -62.3327         estimate D2E/DX2                !
 ! D187  D(28,18,29,56)        -64.8093         estimate D2E/DX2                !
 ! D188  D(28,18,29,57)        174.5181         estimate D2E/DX2                !
 ! D189  D(28,18,29,58)         54.2177         estimate D2E/DX2                !
 ! D190  D(5,22,23,24)           4.7282         estimate D2E/DX2                !
 ! D191  D(5,22,23,25)        -116.9791         estimate D2E/DX2                !
 ! D192  D(5,22,23,47)         119.6427         estimate D2E/DX2                !
 ! D193  D(45,22,23,24)       -114.8243         estimate D2E/DX2                !
 ! D194  D(45,22,23,25)        123.4685         estimate D2E/DX2                !
 ! D195  D(45,22,23,47)          0.0903         estimate D2E/DX2                !
 ! D196  D(46,22,23,24)        124.9961         estimate D2E/DX2                !
 ! D197  D(46,22,23,25)          3.2888         estimate D2E/DX2                !
 ! D198  D(46,22,23,47)       -120.0893         estimate D2E/DX2                !
 ! D199  D(22,23,24,4)           9.4173         estimate D2E/DX2                !
 ! D200  D(25,23,24,4)         135.142          estimate D2E/DX2                !
 ! D201  D(47,23,24,4)        -107.8235         estimate D2E/DX2                !
 ! D202  D(22,23,25,26)         55.3567         estimate D2E/DX2                !
 ! D203  D(22,23,25,27)       -123.6825         estimate D2E/DX2                !
 ! D204  D(24,23,25,26)        -64.1907         estimate D2E/DX2                !
 ! D205  D(24,23,25,27)        116.7702         estimate D2E/DX2                !
 ! D206  D(47,23,25,26)        179.7241         estimate D2E/DX2                !
 ! D207  D(47,23,25,27)          0.685          estimate D2E/DX2                !
 ! D208  D(23,25,26,48)         54.8357         estimate D2E/DX2                !
 ! D209  D(23,25,26,49)        -63.6168         estimate D2E/DX2                !
 ! D210  D(23,25,26,50)        175.6176         estimate D2E/DX2                !
 ! D211  D(27,25,26,48)       -126.1586         estimate D2E/DX2                !
 ! D212  D(27,25,26,49)        115.3889         estimate D2E/DX2                !
 ! D213  D(27,25,26,50)         -5.3767         estimate D2E/DX2                !
 ! D214  D(23,25,27,51)        178.571          estimate D2E/DX2                !
 ! D215  D(23,25,27,52)         -0.962          estimate D2E/DX2                !
 ! D216  D(26,25,27,51)         -0.4267         estimate D2E/DX2                !
 ! D217  D(26,25,27,52)       -179.9597         estimate D2E/DX2                !
 --------------------------------------------------------------------------------
 Trust Radius=3.00D-01 FncErr=1.00D-07 GrdErr=1.00D-06
 Number of steps in this run=    390 maximum allowed number of steps=    390.
 GradGradGradGradGradGradGradGradGradGradGradGradGradGradGradGradGradGrad

 Stoichiometry    C26H34O5
 Framework group  C1[X(C26H34O5)]
 Deg. of freedom   189
 Full point group                 C1      NOp   1
 Largest Abelian subgroup         C1      NOp   1
 Largest concise Abelian subgroup C1      NOp   1
                         Standard orientation:                         
 ---------------------------------------------------------------------
 Center     Atomic      Atomic             Coordinates (Angstroms)
 Number     Number       Type             X           Y           Z
 ---------------------------------------------------------------------
      1          6           0        1.885617    1.214023    2.732284
      2          6           0        2.321122    2.067793    1.797928
      3          6           0        1.843757    1.925948    0.370525
      4          6           0        1.502506    0.472882   -0.098655
      5          6           0        1.271063   -0.577513    1.030047
      6          6           0        0.958875    0.070811    2.413439
      7          6           0        0.287142    0.664073   -1.080126
      8          6           0       -1.041348    0.254018   -0.473091
      9          6           0       -1.194990   -0.840171    0.310034
     10          6           0        0.059736   -1.512378    0.743578
     11          6           0       -2.492228   -1.324033    0.887772
     12          8           0       -2.531876   -1.696494    2.049936
     13          6           0       -3.715820   -1.417224   -0.026293
     14          6           0       -5.028988   -1.233456    0.750327
     15          6           0       -3.652957   -2.795427   -0.723911
     16          8           0        0.113432   -2.705236    0.988298
     17          6           0        0.058211    2.179722   -1.271590
     18          6           0       -1.456653    2.276647   -1.562342
     19          8           0       -2.011745    1.116713   -0.814098
     20          6           0        0.574203    2.761733    0.056308
     21          8           0        0.459950   -0.065583   -2.279335
     22          6           0        2.595989   -1.367069    1.087284
     23          6           0        3.366260   -1.046571   -0.210635
     24          8           0        2.573356   -0.042023   -0.899017
     25          6           0        3.622569   -2.217399   -1.138018
     26          6           0        2.441681   -3.031918   -1.607074
     27          6           0        4.878950   -2.503624   -1.494633
     28          6           0       -1.776848    2.063323   -3.043733
     29          6           0       -2.166837    3.509662   -1.013426
     30          1           0        0.645033    2.555644   -2.115273
     31          1           0        2.635345    2.261985   -0.312381
     32          6           0        3.242909    3.219614    2.102088
     33          1           0        2.197138    1.338693    3.768262
     34          1           0        1.032614   -0.712895    3.175414
     35          1           0       -0.087669    0.404835    2.440980
     36          1           0       -3.636734   -0.642114   -0.796498
     37          1           0       -5.063268   -1.971273    1.560051
     38          1           0       -5.862224   -1.463561    0.072677
     39          1           0       -2.712337   -2.929070   -1.269150
     40          1           0       -4.478218   -2.894636   -1.438032
     41          1           0       -3.734239   -3.602392    0.012577
     42          1           0       -0.161097    2.620135    0.857740
     43          1           0        0.787343    3.833762    0.000748
     44          1           0        1.423764   -0.242407   -2.313192
     45          1           0        3.188790   -1.052752    1.949911
     46          1           0        2.377877   -2.431174    1.200502
     47          1           0        4.329277   -0.580045    0.027224
     48          1           0        1.679469   -2.403595   -2.081533
     49          1           0        1.940966   -3.535456   -0.771649
     50          1           0        2.754651   -3.793046   -2.327694
     51          1           0        5.112895   -3.347274   -2.139055
     52          1           0        5.722070   -1.909555   -1.149631
     53          1           0       -2.856872    1.946819   -3.180747
     54          1           0       -1.448844    2.931352   -3.626956
     55          1           0       -1.268770    1.175496   -3.427095
     56          1           0       -1.786381    4.410711   -1.506866
     57          1           0       -2.022144    3.616210    0.064488
     58          1           0       -3.241980    3.443145   -1.208348
     59          1           0        3.498590    3.260901    3.165630
     60          1           0        4.177280    3.142092    1.528849
     61          1           0        2.788790    4.181860    1.827365
     62          6           0       -5.212716    0.173577    1.329321
     63          1           0       -5.171305    0.937607    0.542936
     64          1           0       -4.431684    0.402006    2.062325
     65          1           0       -6.180278    0.266720    1.835701
 ---------------------------------------------------------------------
 Rotational constants (GHZ):      0.2055264      0.1318391      0.1132835
 Standard basis: 6-311+G(d) (5D, 7F)
 There are   784 symmetry adapted basis functions of A   symmetry.
 Integral buffers will be    131072 words long.
 Raffenetti 2 integral format.
 Two-electron integral symmetry is turned on.
   784 basis functions,  1286 primitive gaussians,   815 cartesian basis functions
   115 alpha electrons      115 beta electrons
       nuclear repulsion energy      3523.4195803342 Hartrees.
 NAtoms=   65 NActive=   65 NUniq=   65 SFac= 1.00D+00 NAtFMM=   50 NAOKFM=T Big=T
 One-electron integrals computed using PRISM.
 NBasis=   784 RedAO= T  NBF=   784
 NBsUse=   778 1.00D-06 NBFU=   778
 Harris functional with IExCor=  402 diagonalized for initial guess.
 ExpMin= 4.38D-02 ExpMax= 8.59D+03 ExpMxC= 1.30D+03 IAcc=2 IRadAn=         0 AccDes= 0.00D+00
 HarFok:  IExCor=  402 AccDes= 0.00D+00 IRadAn=         0 IDoV= 1
 ScaDFX=  1.000000  1.000000  1.000000  1.000000
 FoFCou: FMM=F IPFlag=           0 FMFlag=      100000 FMFlg1=        2001
         NFxFlg=           0 DoJE=T BraDBF=F KetDBF=T FulRan=T
         Omega=  0.000000  0.000000  1.000000  0.000000  0.000000 ICntrl=     500 IOpCl=  0
         NMat0=    1 NMatS0=    1 NMatT0=    0 NMatD0=    1 NMtDS0=    0 NMtDT0=    0
         I1Cent=           4 NGrid=           0.
 Petite list used in FoFCou.
 Initial guess orbital symmetries:
       Occupied  (A) (A) (A) (A) (A) (A) (A) (A) (A) (A) (A) (A)
                 (A) (A) (A) (A) (A) (A) (A) (A) (A) (A) (A) (A)
                 (A) (A) (A) (A) (A) (A) (A) (A) (A) (A) (A) (A)
                 (A) (A) (A) (A) (A) (A) (A) (A) (A) (A) (A) (A)
                 (A) (A) (A) (A) (A) (A) (A) (A) (A) (A) (A) (A)
                 (A) (A) (A) (A) (A) (A) (A) (A) (A) (A) (A) (A)
                 (A) (A) (A) (A) (A) (A) (A) (A) (A) (A) (A) (A)
                 (A) (A) (A) (A) (A) (A) (A) (A) (A) (A) (A) (A)
                 (A) (A) (A) (A) (A) (A) (A) (A) (A) (A) (A) (A)
                 (A) (A) (A) (A) (A) (A) (A)
       Virtual   (A) (A) (A) (A) (A) (A) (A) (A) (A) (A) (A) (A)
                 (A) (A) (A) (A) (A) (A) (A) (A) (A) (A) (A) (A)
                 (A) (A) (A) (A) (A) (A) (A) (A) (A) (A) (A) (A)
                 (A) (A) (A) (A) (A) (A) (A) (A) (A) (A) (A) (A)
                 (A) (A) (A) (A) (A) (A) (A) (A) (A) (A) (A) (A)
                 (A) (A) (A) (A) (A) (A) (A) (A) (A) (A) (A) (A)
                 (A) (A) (A) (A) (A) (A) (A) (A) (A) (A) (A) (A)
                 (A) (A) (A) (A) (A) (A) (A) (A) (A) (A) (A) (A)
                 (A) (A) (A) (A) (A) (A) (A) (A) (A) (A) (A) (A)
                 (A) (A) (A) (A) (A) (A) (A) (A) (A) (A) (A) (A)
                 (A) (A) (A) (A) (A) (A) (A) (A) (A) (A) (A) (A)
                 (A) (A) (A) (A) (A) (A) (A) (A) (A) (A) (A) (A)
                 (A) (A) (A) (A) (A) (A) (A) (A) (A) (A) (A) (A)
                 (A) (A) (A) (A) (A) (A) (A) (A) (A) (A) (A) (A)
                 (A) (A) (A) (A) (A) (A) (A) (A) (A) (A) (A) (A)
                 (A) (A) (A) (A) (A) (A) (A) (A) (A) (A) (A) (A)
                 (A) (A) (A) (A) (A) (A) (A) (A) (A) (A) (A) (A)
                 (A) (A) (A) (A) (A) (A) (A) (A) (A) (A) (A) (A)
                 (A) (A) (A) (A) (A) (A) (A) (A) (A) (A) (A) (A)
                 (A) (A) (A) (A) (A) (A) (A) (A) (A) (A) (A) (A)
                 (A) (A) (A) (A) (A) (A) (A) (A) (A) (A) (A) (A)
                 (A) (A) (A) (A) (A) (A) (A) (A) (A) (A) (A) (A)
                 (A) (A) (A) (A) (A) (A) (A) (A) (A) (A) (A) (A)
                 (A) (A) (A) (A) (A) (A) (A) (A) (A) (A) (A) (A)
                 (A) (A) (A) (A) (A) (A) (A) (A) (A) (A) (A) (A)
                 (A) (A) (A) (A) (A) (A) (A) (A) (A) (A) (A) (A)
                 (A) (A) (A) (A) (A) (A) (A) (A) (A) (A) (A) (A)
                 (A) (A) (A) (A) (A) (A) (A) (A) (A) (A) (A) (A)
                 (A) (A) (A) (A) (A) (A) (A) (A) (A) (A) (A) (A)
                 (A) (A) (A) (A) (A) (A) (A) (A) (A) (A) (A) (A)
                 (A) (A) (A) (A) (A) (A) (A) (A) (A) (A) (A) (A)
                 (A) (A) (A) (A) (A) (A) (A) (A) (A) (A) (A) (A)
                 (A) (A) (A) (A) (A) (A) (A) (A) (A) (A) (A) (A)
                 (A) (A) (A) (A) (A) (A) (A) (A) (A) (A) (A) (A)
                 (A) (A) (A) (A) (A) (A) (A) (A) (A) (A) (A) (A)
                 (A) (A) (A) (A) (A) (A) (A) (A) (A) (A) (A) (A)
                 (A) (A) (A) (A) (A) (A) (A) (A) (A) (A) (A) (A)
                 (A) (A) (A) (A) (A) (A) (A) (A) (A) (A) (A) (A)
                 (A) (A) (A) (A) (A) (A) (A) (A) (A) (A) (A) (A)
                 (A) (A) (A) (A) (A) (A) (A) (A) (A) (A) (A) (A)
                 (A) (A) (A) (A) (A) (A) (A) (A) (A) (A) (A) (A)
                 (A) (A) (A) (A) (A) (A) (A) (A) (A) (A) (A) (A)
                 (A) (A) (A) (A) (A) (A) (A) (A) (A) (A) (A) (A)
                 (A) (A) (A) (A) (A) (A) (A) (A) (A) (A) (A) (A)
                 (A) (A) (A) (A) (A) (A) (A) (A) (A) (A) (A) (A)
                 (A) (A) (A) (A) (A) (A) (A) (A) (A) (A) (A) (A)
                 (A) (A) (A) (A) (A) (A) (A) (A) (A) (A) (A) (A)
                 (A) (A) (A) (A) (A) (A) (A) (A) (A) (A) (A) (A)
                 (A) (A) (A) (A) (A) (A) (A) (A) (A) (A) (A) (A)
                 (A) (A) (A) (A) (A) (A) (A) (A) (A) (A) (A) (A)
                 (A) (A) (A) (A) (A) (A) (A) (A) (A) (A) (A) (A)
                 (A) (A) (A) (A) (A) (A) (A) (A) (A) (A) (A) (A)
                 (A) (A) (A) (A) (A) (A) (A) (A) (A) (A) (A) (A)
                 (A) (A) (A) (A) (A) (A) (A) (A) (A) (A) (A) (A)
                 (A) (A) (A) (A) (A) (A) (A) (A) (A) (A) (A) (A)
                 (A) (A) (A)
 The electronic state of the initial guess is 1-A.
 Requested convergence on RMS density matrix=1.00D-08 within 128 cycles.
 Requested convergence on MAX density matrix=1.00D-06.
 Requested convergence on             energy=1.00D-06.
 No special actions if energy rises.
 SCF Done:  E(RB3LYP) =  -1387.64984870     A.U. after   17 cycles
             Convg  =    0.7605D-08             -V/T =  2.0043

 **********************************************************************

            Population analysis using the SCF density.

 **********************************************************************

 Orbital symmetries:
       Occupied  (A) (A) (A) (A) (A) (A) (A) (A) (A) (A) (A) (A)
                 (A) (A) (A) (A) (A) (A) (A) (A) (A) (A) (A) (A)
                 (A) (A) (A) (A) (A) (A) (A) (A) (A) (A) (A) (A)
                 (A) (A) (A) (A) (A) (A) (A) (A) (A) (A) (A) (A)
                 (A) (A) (A) (A) (A) (A) (A) (A) (A) (A) (A) (A)
                 (A) (A) (A) (A) (A) (A) (A) (A) (A) (A) (A) (A)
                 (A) (A) (A) (A) (A) (A) (A) (A) (A) (A) (A) (A)
                 (A) (A) (A) (A) (A) (A) (A) (A) (A) (A) (A) (A)
                 (A) (A) (A) (A) (A) (A) (A) (A) (A) (A) (A) (A)
                 (A) (A) (A) (A) (A) (A) (A)
       Virtual   (A) (A) (A) (A) (A) (A) (A) (A) (A) (A) (A) (A)
                 (A) (A) (A) (A) (A) (A) (A) (A) (A) (A) (A) (A)
                 (A) (A) (A) (A) (A) (A) (A) (A) (A) (A) (A) (A)
                 (A) (A) (A) (A) (A) (A) (A) (A) (A) (A) (A) (A)
                 (A) (A) (A) (A) (A) (A) (A) (A) (A) (A) (A) (A)
                 (A) (A) (A) (A) (A) (A) (A) (A) (A) (A) (A) (A)
                 (A) (A) (A) (A) (A) (A) (A) (A) (A) (A) (A) (A)
                 (A) (A) (A) (A) (A) (A) (A) (A) (A) (A) (A) (A)
                 (A) (A) (A) (A) (A) (A) (A) (A) (A) (A) (A) (A)
                 (A) (A) (A) (A) (A) (A) (A) (A) (A) (A) (A) (A)
                 (A) (A) (A) (A) (A) (A) (A) (A) (A) (A) (A) (A)
                 (A) (A) (A) (A) (A) (A) (A) (A) (A) (A) (A) (A)
                 (A) (A) (A) (A) (A) (A) (A) (A) (A) (A) (A) (A)
                 (A) (A) (A) (A) (A) (A) (A) (A) (A) (A) (A) (A)
                 (A) (A) (A) (A) (A) (A) (A) (A) (A) (A) (A) (A)
                 (A) (A) (A) (A) (A) (A) (A) (A) (A) (A) (A) (A)
                 (A) (A) (A) (A) (A) (A) (A) (A) (A) (A) (A) (A)
                 (A) (A) (A) (A) (A) (A) (A) (A) (A) (A) (A) (A)
                 (A) (A) (A) (A) (A) (A) (A) (A) (A) (A) (A) (A)
                 (A) (A) (A) (A) (A) (A) (A) (A) (A) (A) (A) (A)
                 (A) (A) (A) (A) (A) (A) (A) (A) (A) (A) (A) (A)
                 (A) (A) (A) (A) (A) (A) (A) (A) (A) (A) (A) (A)
                 (A) (A) (A) (A) (A) (A) (A) (A) (A) (A) (A) (A)
                 (A) (A) (A) (A) (A) (A) (A) (A) (A) (A) (A) (A)
                 (A) (A) (A) (A) (A) (A) (A) (A) (A) (A) (A) (A)
                 (A) (A) (A) (A) (A) (A) (A) (A) (A) (A) (A) (A)
                 (A) (A) (A) (A) (A) (A) (A) (A) (A) (A) (A) (A)
                 (A) (A) (A) (A) (A) (A) (A) (A) (A) (A) (A) (A)
                 (A) (A) (A) (A) (A) (A) (A) (A) (A) (A) (A) (A)
                 (A) (A) (A) (A) (A) (A) (A) (A) (A) (A) (A) (A)
                 (A) (A) (A) (A) (A) (A) (A) (A) (A) (A) (A) (A)
                 (A) (A) (A) (A) (A) (A) (A) (A) (A) (A) (A) (A)
                 (A) (A) (A) (A) (A) (A) (A) (A) (A) (A) (A) (A)
                 (A) (A) (A) (A) (A) (A) (A) (A) (A) (A) (A) (A)
                 (A) (A) (A) (A) (A) (A) (A) (A) (A) (A) (A) (A)
                 (A) (A) (A) (A) (A) (A) (A) (A) (A) (A) (A) (A)
                 (A) (A) (A) (A) (A) (A) (A) (A) (A) (A) (A) (A)
                 (A) (A) (A) (A) (A) (A) (A) (A) (A) (A) (A) (A)
                 (A) (A) (A) (A) (A) (A) (A) (A) (A) (A) (A) (A)
                 (A) (A) (A) (A) (A) (A) (A) (A) (A) (A) (A) (A)
                 (A) (A) (A) (A) (A) (A) (A) (A) (A) (A) (A) (A)
                 (A) (A) (A) (A) (A) (A) (A) (A) (A) (A) (A) (A)
                 (A) (A) (A) (A) (A) (A) (A) (A) (A) (A) (A) (A)
                 (A) (A) (A) (A) (A) (A) (A) (A) (A) (A) (A) (A)
                 (A) (A) (A) (A) (A) (A) (A) (A) (A) (A) (A) (A)
                 (A) (A) (A) (A) (A) (A) (A) (A) (A) (A) (A) (A)
                 (A) (A) (A) (A) (A) (A) (A) (A) (A) (A) (A) (A)
                 (A) (A) (A) (A) (A) (A) (A) (A) (A) (A) (A) (A)
                 (A) (A) (A) (A) (A) (A) (A) (A) (A) (A) (A) (A)
                 (A) (A) (A) (A) (A) (A) (A) (A) (A) (A) (A) (A)
                 (A) (A) (A) (A) (A) (A) (A) (A) (A) (A) (A) (A)
                 (A) (A) (A) (A) (A) (A) (A) (A) (A) (A) (A) (A)
                 (A) (A) (A) (A) (A) (A) (A) (A) (A) (A) (A) (A)
                 (A) (A) (A) (A) (A) (A) (A) (A) (A) (A) (A) (A)
                 (A) (A) (A) (A) (A) (A) (A) (A) (A) (A) (A) (A)
                 (A) (A) (A)
 The electronic state is 1-A.
 Alpha  occ. eigenvalues --  -19.18069 -19.14935 -19.13595 -19.11343 -19.10608
 Alpha  occ. eigenvalues --  -10.26602 -10.26560 -10.26245 -10.25814 -10.25798
 Alpha  occ. eigenvalues --  -10.25709 -10.23826 -10.20897 -10.19998 -10.19765
 Alpha  occ. eigenvalues --  -10.19418 -10.19040 -10.18865 -10.18696 -10.18485
 Alpha  occ. eigenvalues --  -10.18248 -10.17905 -10.17754 -10.17611 -10.17410
 Alpha  occ. eigenvalues --  -10.17362 -10.16865 -10.16295 -10.15842 -10.15802
 Alpha  occ. eigenvalues --  -10.14963  -1.10409  -1.07356  -1.04815  -1.03570
 Alpha  occ. eigenvalues --   -1.03482  -0.88054  -0.84955  -0.83084  -0.82217
 Alpha  occ. eigenvalues --   -0.80907  -0.80329  -0.77874  -0.74778  -0.74092
 Alpha  occ. eigenvalues --   -0.73211  -0.72449  -0.71140  -0.69585  -0.69042
 Alpha  occ. eigenvalues --   -0.65822  -0.65050  -0.63987  -0.62812  -0.61734
 Alpha  occ. eigenvalues --   -0.60155  -0.59821  -0.57755  -0.55927  -0.54429
 Alpha  occ. eigenvalues --   -0.54239  -0.52911  -0.51969  -0.50955  -0.50113
 Alpha  occ. eigenvalues --   -0.49437  -0.48496  -0.48213  -0.47597  -0.47063
 Alpha  occ. eigenvalues --   -0.45924  -0.45585  -0.45187  -0.44400  -0.44006
 Alpha  occ. eigenvalues --   -0.43851  -0.43298  -0.43028  -0.42119  -0.41992
 Alpha  occ. eigenvalues --   -0.41888  -0.41591  -0.41263  -0.41057  -0.40793
 Alpha  occ. eigenvalues --   -0.40431  -0.40095  -0.39745  -0.39614  -0.38768
 Alpha  occ. eigenvalues --   -0.38649  -0.38536  -0.38291  -0.37204  -0.36907
 Alpha  occ. eigenvalues --   -0.36751  -0.36580  -0.36425  -0.35807  -0.35506
 Alpha  occ. eigenvalues --   -0.34868  -0.34627  -0.34136  -0.33611  -0.33285
 Alpha  occ. eigenvalues --   -0.32780  -0.32523  -0.31952  -0.28990  -0.28870
 Alpha  occ. eigenvalues --   -0.26315  -0.26123  -0.25556  -0.24777  -0.24186
 Alpha virt. eigenvalues --   -0.05974  -0.03589  -0.01493  -0.00992  -0.00524
 Alpha virt. eigenvalues --   -0.00207   0.00327   0.00525   0.01596   0.01814
 Alpha virt. eigenvalues --    0.01982   0.02232   0.02768   0.03157   0.03541
 Alpha virt. eigenvalues --    0.03660   0.03886   0.04245   0.04662   0.04697
 Alpha virt. eigenvalues --    0.04934   0.05411   0.05687   0.05767   0.06286
 Alpha virt. eigenvalues --    0.06484   0.06749   0.07018   0.07254   0.07338
 Alpha virt. eigenvalues --    0.07595   0.07769   0.08279   0.08661   0.08828
 Alpha virt. eigenvalues --    0.08925   0.09064   0.09460   0.09607   0.09763
 Alpha virt. eigenvalues --    0.10216   0.10394   0.10900   0.11001   0.11316
 Alpha virt. eigenvalues --    0.11633   0.11755   0.11856   0.12176   0.12459
 Alpha virt. eigenvalues --    0.12617   0.13104   0.13162   0.13297   0.13600
 Alpha virt. eigenvalues --    0.13701   0.13833   0.14121   0.14420   0.14848
 Alpha virt. eigenvalues --    0.14967   0.15018   0.15346   0.15611   0.15920
 Alpha virt. eigenvalues --    0.16165   0.16501   0.16638   0.16911   0.17006
 Alpha virt. eigenvalues --    0.17300   0.17602   0.17748   0.17892   0.18077
 Alpha virt. eigenvalues --    0.18334   0.18497   0.18683   0.18844   0.19034
 Alpha virt. eigenvalues --    0.19109   0.19522   0.19817   0.19924   0.20073
 Alpha virt. eigenvalues --    0.20484   0.20543   0.20721   0.20963   0.21070
 Alpha virt. eigenvalues --    0.21134   0.21586   0.21651   0.21980   0.22070
 Alpha virt. eigenvalues --    0.22251   0.22344   0.22358   0.22771   0.23001
 Alpha virt. eigenvalues --    0.23050   0.23245   0.23373   0.23470   0.23706
 Alpha virt. eigenvalues --    0.24040   0.24102   0.24351   0.24574   0.24918
 Alpha virt. eigenvalues --    0.25090   0.25314   0.25627   0.25709   0.26049
 Alpha virt. eigenvalues --    0.26194   0.26383   0.26586   0.26778   0.26933
 Alpha virt. eigenvalues --    0.27230   0.27478   0.27816   0.28007   0.28092
 Alpha virt. eigenvalues --    0.28174   0.28569   0.28750   0.28853   0.29033
 Alpha virt. eigenvalues --    0.29245   0.29784   0.29853   0.30204   0.30532
 Alpha virt. eigenvalues --    0.30798   0.31249   0.31698   0.31786   0.32030
 Alpha virt. eigenvalues --    0.32434   0.32586   0.32885   0.33092   0.33397
 Alpha virt. eigenvalues --    0.33743   0.34055   0.34268   0.34423   0.35050
 Alpha virt. eigenvalues --    0.35307   0.35575   0.36027   0.36208   0.36671
 Alpha virt. eigenvalues --    0.37079   0.37333   0.37462   0.37872   0.38244
 Alpha virt. eigenvalues --    0.38600   0.38713   0.39252   0.39688   0.39911
 Alpha virt. eigenvalues --    0.40346   0.40766   0.41158   0.41659   0.41937
 Alpha virt. eigenvalues --    0.42135   0.43129   0.43400   0.43534   0.43869
 Alpha virt. eigenvalues --    0.44173   0.44599   0.44991   0.45518   0.45902
 Alpha virt. eigenvalues --    0.46093   0.46422   0.46520   0.47641   0.47709
 Alpha virt. eigenvalues --    0.48281   0.48557   0.48672   0.49016   0.49243
 Alpha virt. eigenvalues --    0.49753   0.50177   0.50704   0.51562   0.51630
 Alpha virt. eigenvalues --    0.51928   0.52467   0.52972   0.53318   0.53794
 Alpha virt. eigenvalues --    0.54118   0.54384   0.54537   0.55468   0.55832
 Alpha virt. eigenvalues --    0.56024   0.56619   0.57175   0.57802   0.57947
 Alpha virt. eigenvalues --    0.58326   0.58640   0.58867   0.59498   0.60053
 Alpha virt. eigenvalues --    0.60101   0.60642   0.61265   0.61293   0.61588
 Alpha virt. eigenvalues --    0.62042   0.62527   0.62684   0.63365   0.63650
 Alpha virt. eigenvalues --    0.64251   0.64610   0.64928   0.65409   0.65904
 Alpha virt. eigenvalues --    0.66254   0.66418   0.66989   0.67329   0.67833
 Alpha virt. eigenvalues --    0.68050   0.68433   0.68865   0.69080   0.69418
 Alpha virt. eigenvalues --    0.69450   0.69648   0.70053   0.70246   0.70696
 Alpha virt. eigenvalues --    0.70858   0.71151   0.71426   0.71768   0.72003
 Alpha virt. eigenvalues --    0.72216   0.72374   0.72712   0.73294   0.73725
 Alpha virt. eigenvalues --    0.73785   0.73991   0.74427   0.74515   0.75072
 Alpha virt. eigenvalues --    0.75269   0.75622   0.76044   0.76644   0.76765
 Alpha virt. eigenvalues --    0.77309   0.77678   0.78231   0.78341   0.78924
 Alpha virt. eigenvalues --    0.78945   0.79467   0.79582   0.80135   0.80458
 Alpha virt. eigenvalues --    0.81335   0.81465   0.81979   0.82583   0.82867
 Alpha virt. eigenvalues --    0.83098   0.83542   0.83609   0.83802   0.84746
 Alpha virt. eigenvalues --    0.85399   0.86338   0.86789   0.87644   0.88283
 Alpha virt. eigenvalues --    0.89086   0.89511   0.89900   0.90733   0.91832
 Alpha virt. eigenvalues --    0.93421   0.94105   0.95577   0.95897   0.96699
 Alpha virt. eigenvalues --    0.97409   0.98046   0.99164   0.99698   1.00406
 Alpha virt. eigenvalues --    1.00593   1.01600   1.02416   1.03233   1.04411
 Alpha virt. eigenvalues --    1.05799   1.06701   1.07613   1.07705   1.08625
 Alpha virt. eigenvalues --    1.09164   1.10328   1.12186   1.12863   1.14606
 Alpha virt. eigenvalues --    1.14915   1.16440   1.16972   1.18212   1.19119
 Alpha virt. eigenvalues --    1.19874   1.20541   1.22510   1.23103   1.23901
 Alpha virt. eigenvalues --    1.24091   1.25145   1.26533   1.26863   1.27540
 Alpha virt. eigenvalues --    1.28019   1.28320   1.29630   1.30497   1.31031
 Alpha virt. eigenvalues --    1.32219   1.33161   1.34005   1.34250   1.34589
 Alpha virt. eigenvalues --    1.35470   1.35744   1.37172   1.38011   1.38758
 Alpha virt. eigenvalues --    1.39143   1.40223   1.42037   1.42798   1.43539
 Alpha virt. eigenvalues --    1.44022   1.44431   1.46206   1.46875   1.47321
 Alpha virt. eigenvalues --    1.48924   1.49928   1.50547   1.51662   1.52709
 Alpha virt. eigenvalues --    1.52924   1.53713   1.54320   1.54594   1.55311
 Alpha virt. eigenvalues --    1.56112   1.57041   1.57370   1.58348   1.58611
 Alpha virt. eigenvalues --    1.59102   1.59622   1.60022   1.60274   1.60632
 Alpha virt. eigenvalues --    1.60897   1.61601   1.62068   1.62717   1.62837
 Alpha virt. eigenvalues --    1.63248   1.63874   1.64408   1.64419   1.64753
 Alpha virt. eigenvalues --    1.65444   1.65886   1.66702   1.66986   1.67371
 Alpha virt. eigenvalues --    1.67873   1.68151   1.69179   1.69556   1.70359
 Alpha virt. eigenvalues --    1.70815   1.71037   1.71708   1.71914   1.72398
 Alpha virt. eigenvalues --    1.72991   1.73095   1.74170   1.75297   1.76094
 Alpha virt. eigenvalues --    1.76156   1.76772   1.78054   1.78803   1.79777
 Alpha virt. eigenvalues --    1.80496   1.80781   1.82046   1.82724   1.83406
 Alpha virt. eigenvalues --    1.84317   1.84845   1.85689   1.85831   1.86548
 Alpha virt. eigenvalues --    1.87766   1.88573   1.89355   1.91188   1.91217
 Alpha virt. eigenvalues --    1.92405   1.93773   1.94170   1.95104   1.95392
 Alpha virt. eigenvalues --    1.96917   1.97968   1.99066   1.99506   2.01101
 Alpha virt. eigenvalues --    2.01759   2.02475   2.02757   2.03995   2.04109
 Alpha virt. eigenvalues --    2.05438   2.05579   2.08191   2.08738   2.09677
 Alpha virt. eigenvalues --    2.10240   2.13020   2.13099   2.14787   2.14937
 Alpha virt. eigenvalues --    2.17190   2.17559   2.18765   2.19960   2.21602
 Alpha virt. eigenvalues --    2.22242   2.22934   2.24100   2.25202   2.26108
 Alpha virt. eigenvalues --    2.26959   2.28095   2.30042   2.30635   2.32457
 Alpha virt. eigenvalues --    2.33170   2.34100   2.35156   2.35893   2.38195
 Alpha virt. eigenvalues --    2.40133   2.43524   2.46847   2.48037   2.50723
 Alpha virt. eigenvalues --    2.50980   2.51615   2.52508   2.52808   2.54278
 Alpha virt. eigenvalues --    2.54818   2.55420   2.55990   2.57303   2.57482
 Alpha virt. eigenvalues --    2.58220   2.58924   2.59320   2.60697   2.61133
 Alpha virt. eigenvalues --    2.63105   2.63283   2.63704   2.64864   2.65481
 Alpha virt. eigenvalues --    2.66218   2.67171   2.68770   2.69783   2.70193
 Alpha virt. eigenvalues --    2.71745   2.71837   2.72250   2.72803   2.73466
 Alpha virt. eigenvalues --    2.73821   2.75200   2.78618   2.79784   2.80892
 Alpha virt. eigenvalues --    2.85854   2.86062   2.87709   2.89238   2.90179
 Alpha virt. eigenvalues --    2.90808   2.92085   2.93143   2.93834   2.94639
 Alpha virt. eigenvalues --    2.95406   2.96252   2.97262   2.97916   2.98321
 Alpha virt. eigenvalues --    2.99602   3.00467   3.00944   3.01243   3.03106
 Alpha virt. eigenvalues --    3.03552   3.04012   3.04905   3.05859   3.06354
 Alpha virt. eigenvalues --    3.07083   3.09095   3.10669   3.11840   3.12947
 Alpha virt. eigenvalues --    3.13679   3.14035   3.15394   3.17163   3.18178
 Alpha virt. eigenvalues --    3.18275   3.19775   3.20049   3.21335   3.22228
 Alpha virt. eigenvalues --    3.23617   3.23864   3.24244   3.25025   3.25768
 Alpha virt. eigenvalues --    3.26473   3.27348   3.28396   3.28610   3.30558
 Alpha virt. eigenvalues --    3.30590   3.31981   3.32456   3.33174   3.34178
 Alpha virt. eigenvalues --    3.34779   3.35481   3.36114   3.37502   3.38353
 Alpha virt. eigenvalues --    3.38952   3.39705   3.40977   3.42314   3.42530
 Alpha virt. eigenvalues --    3.45406   3.46487   3.48540   3.50752   3.51411
 Alpha virt. eigenvalues --    3.52713   3.53670   3.58404   3.60775   3.65322
 Alpha virt. eigenvalues --    3.75319   3.76550   3.78070   3.81989   3.85311
 Alpha virt. eigenvalues --    3.89825   3.92035   3.94322   3.97335   4.01471
 Alpha virt. eigenvalues --    4.04243   4.05760   4.06575   4.08000   4.09550
 Alpha virt. eigenvalues --    4.11763   4.15376   4.17545   4.18518   4.20259
 Alpha virt. eigenvalues --    4.21708   4.24231   4.27080   4.28330   4.32786
 Alpha virt. eigenvalues --    4.44747   4.54619   5.14764   5.16608   5.18019
 Alpha virt. eigenvalues --    5.22396   5.26010   5.28587   5.31175   5.32855
 Alpha virt. eigenvalues --    5.41821   5.42929   5.55846   5.71790   5.72575
 Alpha virt. eigenvalues --    5.78752   5.82183  23.45477  23.48397  23.50767
 Alpha virt. eigenvalues --   23.52905  23.62097  23.62207  23.65241  23.66792
 Alpha virt. eigenvalues --   23.68457  23.70170  23.72336  23.73879  23.76321
 Alpha virt. eigenvalues --   23.78359  23.79056  23.80163  23.82455  23.85082
 Alpha virt. eigenvalues --   23.85887  23.88637  23.89632  23.91180  23.96308
 Alpha virt. eigenvalues --   24.18028  24.20488  24.21724  49.97912  49.99675
 Alpha virt. eigenvalues --   50.01980  50.03162  50.06516
          Condensed to atoms (all electrons):
 Mulliken atomic charges:
              1
     1  C   -0.817858
     2  C    0.914862
     3  C   -0.311821
     4  C    0.049057
     5  C    1.317247
     6  C   -0.877977
     7  C   -0.876577
     8  C    0.113121
     9  C    0.457553
    10  C   -0.519877
    11  C   -0.655917
    12  O   -0.169635
    13  C    0.317903
    14  C   -0.332014
    15  C   -1.086644
    16  O   -0.181234
    17  C   -0.643575
    18  C    0.884671
    19  O    0.192213
    20  C   -1.205769
    21  O   -0.062715
    22  C   -0.461009
    23  C   -0.180930
    24  O   -0.046258
    25  C    0.927383
    26  C   -1.142034
    27  C   -0.969281
    28  C   -0.719556
    29  C   -0.601955
    30  H    0.244412
    31  H    0.256893
    32  C   -1.146364
    33  H    0.211966
    34  H    0.270281
    35  H    0.278331
    36  H    0.232367
    37  H    0.260216
    38  H    0.218446
    39  H    0.275500
    40  H    0.252915
    41  H    0.275223
    42  H    0.287919
    43  H    0.259242
    44  H    0.294470
    45  H    0.255089
    46  H    0.295874
    47  H    0.209765
    48  H    0.272946
    49  H    0.295560
    50  H    0.253313
    51  H    0.228876
    52  H    0.214674
    53  H    0.261986
    54  H    0.247065
    55  H    0.316993
    56  H    0.264171
    57  H    0.264529
    58  H    0.271634
    59  H    0.251485
    60  H    0.260172
    61  H    0.245433
    62  C   -0.916664
    63  H    0.227066
    64  H    0.252661
    65  H    0.244185
 Sum of Mulliken atomic charges =   0.00000
 Mulliken charges with hydrogens summed into heavy atoms:
              1
     1  C   -0.605892
     2  C    0.914862
     3  C   -0.054929
     4  C    0.049057
     5  C    1.317247
     6  C   -0.329365
     7  C   -0.876577
     8  C    0.113121
     9  C    0.457553
    10  C   -0.519877
    11  C   -0.655917
    12  O   -0.169635
    13  C    0.550270
    14  C    0.146648
    15  C   -0.283006
    16  O   -0.181234
    17  C   -0.399163
    18  C    0.884671
    19  O    0.192213
    20  C   -0.658608
    21  O    0.231754
    22  C    0.089954
    23  C    0.028835
    24  O   -0.046258
    25  C    0.927383
    26  C   -0.320215
    27  C   -0.525731
    28  C    0.106487
    29  C    0.198379
    32  C   -0.389273
    62  C   -0.192751
 Sum of Mulliken charges with hydrogens summed into heavy atoms =   0.00000
 Electronic spatial extent (au):  <R**2>=          11340.5372
 Charge=              0.0000 electrons
 Dipole moment (field-independent basis, Debye):
    X=              2.2896    Y=              5.7436    Z=             -2.0216  Tot=              6.5052
 Quadrupole moment (field-independent basis, Debye-Ang):
   XX=           -183.1019   YY=           -186.7850   ZZ=           -192.7896
   XY=             -3.7587   XZ=             10.7403   YZ=              5.1327
 Traceless Quadrupole moment (field-independent basis, Debye-Ang):
   XX=              4.4570   YY=              0.7738   ZZ=             -5.2308
   XY=             -3.7587   XZ=             10.7403   YZ=              5.1327
 Octapole moment (field-independent basis, Debye-Ang**2):
  XXX=              7.7654  YYY=             50.6269  ZZZ=             -3.8489  XYY=              9.1426
  XXY=             -2.2020  XXZ=            -18.0813  XZZ=             17.9389  YZZ=             19.1486
  YYZ=            -43.0227  XYZ=              4.0225
 Hexadecapole moment (field-independent basis, Debye-Ang**3):
 XXXX=          -8248.8229 YYYY=          -4524.4543 ZZZZ=          -2735.2439 XXXY=             14.3146
 XXXZ=             43.0438 YYYX=            -16.3827 YYYZ=              7.3959 ZZZX=             71.9826
 ZZZY=             -7.1968 XXYY=          -2126.4031 XXZZ=          -1877.7774 YYZZ=          -1198.6510
 XXYZ=             52.5868 YYXZ=             -1.2620 ZZXY=            -48.0327
 N-N= 3.523419580334D+03 E-N=-1.027966549815D+04  KE= 1.381711291199D+03
 Calling FoFJK, ICntrl=      2127 FMM=T ISym2X=0 I1Cent= 0 IOpClX= 0 NMat=1 NMatS=1 NMatT=0.
 ***** Axes restored to original set *****
 -------------------------------------------------------------------
 Center     Atomic                   Forces (Hartrees/Bohr)
 Number     Number              X              Y              Z
 -------------------------------------------------------------------
      1        6           0.000682587    0.001571187   -0.002104082
      2        6          -0.000793239   -0.001360804    0.001793215
      3        6          -0.000144082    0.000317332   -0.000170289
      4        6          -0.000502414    0.001026455    0.000226311
      5        6           0.000266149   -0.000487315    0.000245102
      6        6          -0.000289709   -0.000234720   -0.000041572
      7        6          -0.002138247    0.001266985    0.001613333
      8        6          -0.002564738   -0.001914172    0.000926173
      9        6           0.001209051    0.002054859   -0.000561421
     10        6          -0.000477809   -0.007487530    0.002035296
     11        6          -0.000511908   -0.002666337    0.006408423
     12        8           0.000173386    0.002974844   -0.008019337
     13        6          -0.000248000    0.000243857    0.000145786
     14        6           0.000120308   -0.000140881    0.000014029
     15        6           0.000391229   -0.000202161    0.000307679
     16        8          -0.000279072    0.009014541   -0.002084346
     17        6           0.000290247    0.000177359   -0.000305419
     18        6          -0.000081216    0.001475661   -0.000836077
     19        8           0.002290731   -0.002472650    0.001201554
     20        6          -0.000343688    0.000063535    0.000385061
     21        8           0.006082673    0.000681950    0.000838728
     22        6          -0.000027756   -0.000162728   -0.000034308
     23        6           0.001713025   -0.001531404    0.000956072
     24        8           0.000245581   -0.000076462    0.000874394
     25        6           0.001353790   -0.000481251   -0.000690961
     26        6          -0.000036739    0.000130358    0.000485204
     27        6          -0.001108725    0.000240889    0.000396693
     28        6           0.000355371    0.000126509    0.000336490
     29        6           0.000478790   -0.000272363   -0.000139001
     30        1          -0.000729225   -0.000576286    0.000901455
     31        1          -0.000828209   -0.000280933    0.001054869
     32        6           0.000134639    0.000337515   -0.000139898
     33        1          -0.000222503   -0.000167285   -0.000857281
     34        1          -0.000398247    0.001217878   -0.000919780
     35        1           0.001640226   -0.000309937    0.000387039
     36        1          -0.000001172   -0.000962968    0.001026122
     37        1          -0.000698531    0.000741333   -0.001270087
     38        1           0.000981591   -0.000008950    0.000937882
     39        1          -0.001590000   -0.000236807    0.000505766
     40        1           0.001297712    0.000086319    0.000951195
     41        1           0.000060979    0.000870819   -0.001488461
     42        1           0.001159265    0.000494681   -0.000997472
     43        1          -0.000409922   -0.001509625    0.000112446
     44        1          -0.005055904   -0.000489840   -0.002122661
     45        1          -0.000686669   -0.000819830   -0.001248601
     46        1           0.001084132    0.001687968   -0.000049280
     47        1          -0.001552664   -0.000360539   -0.000423104
     48        1           0.001270842   -0.001980695    0.000177968
     49        1           0.000978692    0.000544191   -0.001555898
     50        1          -0.000731807    0.001106977    0.001054022
     51        1          -0.000173435    0.000750340    0.000612304
     52        1          -0.000841337   -0.000498417   -0.000349201
     53        1           0.001571825    0.000214115   -0.000153865
     54        1          -0.000537468   -0.001335906    0.000539803
     55        1          -0.001219039    0.001536621   -0.000036836
     56        1          -0.000718408   -0.001003698    0.000854430
     57        1          -0.000453840    0.000184793   -0.001665634
     58        1           0.001598612    0.000426570    0.000316367
     59        1          -0.000250129    0.000139200   -0.001666335
     60        1          -0.001326170    0.000159417    0.000955751
     61        1           0.000780271   -0.001338459    0.000523086
     62        6           0.000228007    0.000011327   -0.000106705
     63        1          -0.000349584   -0.000850595    0.001341267
[...]
                 (A) (A) (A) (A) (A) (A) (A) (A) (A) (A) (A) (A)
                 (A) (A) (A)
 The electronic state is 1-A.
 Alpha  occ. eigenvalues --  -19.17871 -19.15006 -19.13571 -19.11164 -19.10682
 Alpha  occ. eigenvalues --  -10.26370 -10.26263 -10.26168 -10.25748 -10.25739
 Alpha  occ. eigenvalues --  -10.25730 -10.23807 -10.20716 -10.19908 -10.19735
 Alpha  occ. eigenvalues --  -10.19343 -10.19282 -10.18946 -10.18491 -10.18224
 Alpha  occ. eigenvalues --  -10.18108 -10.17839 -10.17673 -10.17460 -10.17286
 Alpha  occ. eigenvalues --  -10.17283 -10.17101 -10.17087 -10.15682 -10.15668
 Alpha  occ. eigenvalues --  -10.14769  -1.10268  -1.07512  -1.04978  -1.03832
 Alpha  occ. eigenvalues --   -1.03720  -0.88080  -0.84920  -0.83204  -0.82391
 Alpha  occ. eigenvalues --   -0.81060  -0.80358  -0.77848  -0.74849  -0.74102
 Alpha  occ. eigenvalues --   -0.73238  -0.72430  -0.71169  -0.70141  -0.69200
 Alpha  occ. eigenvalues --   -0.65753  -0.64992  -0.64203  -0.62782  -0.61754
 Alpha  occ. eigenvalues --   -0.60045  -0.59872  -0.57910  -0.56249  -0.54430
 Alpha  occ. eigenvalues --   -0.54234  -0.52844  -0.52106  -0.51011  -0.50444
 Alpha  occ. eigenvalues --   -0.49484  -0.48591  -0.48141  -0.47596  -0.46994
 Alpha  occ. eigenvalues --   -0.46045  -0.45367  -0.45269  -0.44479  -0.44083
 Alpha  occ. eigenvalues --   -0.43871  -0.43308  -0.42975  -0.42346  -0.42212
 Alpha  occ. eigenvalues --   -0.41958  -0.41847  -0.41401  -0.41085  -0.40960
 Alpha  occ. eigenvalues --   -0.40570  -0.40080  -0.39955  -0.39600  -0.38804
 Alpha  occ. eigenvalues --   -0.38622  -0.38468  -0.38340  -0.37699  -0.37025
 Alpha  occ. eigenvalues --   -0.36819  -0.36751  -0.36291  -0.35760  -0.35532
 Alpha  occ. eigenvalues --   -0.34964  -0.34594  -0.34139  -0.33543  -0.33193
 Alpha  occ. eigenvalues --   -0.32719  -0.32515  -0.31971  -0.29534  -0.28888
 Alpha  occ. eigenvalues --   -0.26513  -0.25962  -0.25487  -0.24676  -0.24121
 Alpha virt. eigenvalues --   -0.05638  -0.03252  -0.01506  -0.01232  -0.00566
 Alpha virt. eigenvalues --   -0.00133   0.00276   0.00500   0.01571   0.01822
 Alpha virt. eigenvalues --    0.01895   0.02257   0.02736   0.03240   0.03490
 Alpha virt. eigenvalues --    0.03610   0.03981   0.04339   0.04616   0.04700
 Alpha virt. eigenvalues --    0.04904   0.05312   0.05717   0.05799   0.06133
 Alpha virt. eigenvalues --    0.06483   0.06748   0.06895   0.07237   0.07455
 Alpha virt. eigenvalues --    0.07570   0.07937   0.08338   0.08472   0.08681
 Alpha virt. eigenvalues --    0.08853   0.09031   0.09135   0.09359   0.09683
 Alpha virt. eigenvalues --    0.09862   0.10454   0.10772   0.10835   0.11040
 Alpha virt. eigenvalues --    0.11456   0.11677   0.11866   0.12033   0.12349
 Alpha virt. eigenvalues --    0.12563   0.12870   0.13053   0.13210   0.13634
 Alpha virt. eigenvalues --    0.13757   0.14188   0.14218   0.14402   0.14519
 Alpha virt. eigenvalues --    0.14760   0.15128   0.15273   0.15495   0.15656
 Alpha virt. eigenvalues --    0.15960   0.16434   0.16639   0.16682   0.16832
 Alpha virt. eigenvalues --    0.17191   0.17477   0.17680   0.17870   0.18114
 Alpha virt. eigenvalues --    0.18282   0.18473   0.18733   0.18828   0.19174
 Alpha virt. eigenvalues --    0.19301   0.19343   0.19587   0.19741   0.20095
 Alpha virt. eigenvalues --    0.20475   0.20572   0.20762   0.20813   0.21118
 Alpha virt. eigenvalues --    0.21293   0.21348   0.21589   0.22043   0.22152
 Alpha virt. eigenvalues --    0.22263   0.22501   0.22620   0.22687   0.22881
 Alpha virt. eigenvalues --    0.23048   0.23445   0.23520   0.23673   0.23836
 Alpha virt. eigenvalues --    0.23963   0.24216   0.24519   0.24780   0.24972
 Alpha virt. eigenvalues --    0.25160   0.25493   0.25646   0.25878   0.26034
 Alpha virt. eigenvalues --    0.26360   0.26637   0.26677   0.26779   0.27024
 Alpha virt. eigenvalues --    0.27101   0.27487   0.27743   0.27876   0.28078
 Alpha virt. eigenvalues --    0.28472   0.28689   0.28958   0.29259   0.29368
 Alpha virt. eigenvalues --    0.29721   0.29902   0.29995   0.30209   0.30261
 Alpha virt. eigenvalues --    0.30777   0.30928   0.31174   0.31820   0.32180
 Alpha virt. eigenvalues --    0.32564   0.32639   0.32819   0.33272   0.33500
 Alpha virt. eigenvalues --    0.33563   0.34026   0.34381   0.34572   0.34783
 Alpha virt. eigenvalues --    0.35257   0.35609   0.35721   0.35943   0.36688
 Alpha virt. eigenvalues --    0.36809   0.37128   0.37356   0.37713   0.38291
 Alpha virt. eigenvalues --    0.38481   0.38834   0.39245   0.39505   0.39993
 Alpha virt. eigenvalues --    0.40404   0.40865   0.41031   0.41571   0.42230
 Alpha virt. eigenvalues --    0.42282   0.42833   0.43501   0.43770   0.43917
 Alpha virt. eigenvalues --    0.44164   0.44625   0.44854   0.45050   0.45833
 Alpha virt. eigenvalues --    0.46086   0.46123   0.46616   0.46734   0.47104
 Alpha virt. eigenvalues --    0.47854   0.47918   0.48677   0.49020   0.49327
 Alpha virt. eigenvalues --    0.49587   0.50551   0.50780   0.51092   0.51422
 Alpha virt. eigenvalues --    0.51891   0.52241   0.52720   0.53378   0.53882
 Alpha virt. eigenvalues --    0.54007   0.54837   0.55165   0.55357   0.55763
 Alpha virt. eigenvalues --    0.56308   0.56673   0.57080   0.57144   0.57956
 Alpha virt. eigenvalues --    0.58179   0.58526   0.58873   0.59611   0.59635
 Alpha virt. eigenvalues --    0.60047   0.60172   0.60593   0.61259   0.61767
 Alpha virt. eigenvalues --    0.62038   0.62260   0.62494   0.62790   0.63087
 Alpha virt. eigenvalues --    0.64073   0.64726   0.65243   0.65424   0.65968
 Alpha virt. eigenvalues --    0.66295   0.66519   0.67134   0.67356   0.67600
 Alpha virt. eigenvalues --    0.67804   0.68217   0.68755   0.68903   0.69360
 Alpha virt. eigenvalues --    0.69381   0.69738   0.69958   0.70260   0.70518
 Alpha virt. eigenvalues --    0.70703   0.71349   0.71422   0.71612   0.72226
 Alpha virt. eigenvalues --    0.72493   0.72510   0.72870   0.73065   0.73466
 Alpha virt. eigenvalues --    0.73786   0.74016   0.74294   0.74419   0.74782
 Alpha virt. eigenvalues --    0.75047   0.75736   0.75811   0.76428   0.77347
 Alpha virt. eigenvalues --    0.77595   0.77806   0.77928   0.78225   0.78348
 Alpha virt. eigenvalues --    0.78914   0.79451   0.79879   0.80132   0.80611
 Alpha virt. eigenvalues --    0.81031   0.81794   0.81924   0.82389   0.82997
 Alpha virt. eigenvalues --    0.83458   0.83703   0.84177   0.84574   0.85303
 Alpha virt. eigenvalues --    0.85653   0.85824   0.86850   0.87830   0.88550
 Alpha virt. eigenvalues --    0.89237   0.89810   0.90198   0.91167   0.91723
 Alpha virt. eigenvalues --    0.93092   0.93796   0.95042   0.95711   0.96123
 Alpha virt. eigenvalues --    0.96602   0.97217   0.97830   0.98796   0.99322
 Alpha virt. eigenvalues --    1.00902   1.01559   1.02220   1.03707   1.04644
 Alpha virt. eigenvalues --    1.05672   1.06336   1.07125   1.07292   1.07944
 Alpha virt. eigenvalues --    1.10195   1.11108   1.12557   1.12986   1.14273
 Alpha virt. eigenvalues --    1.15040   1.16117   1.16967   1.17521   1.18959
 Alpha virt. eigenvalues --    1.19586   1.20476   1.20690   1.22760   1.23029
 Alpha virt. eigenvalues --    1.24276   1.24542   1.26093   1.26829   1.27360
 Alpha virt. eigenvalues --    1.28321   1.28459   1.29482   1.30820   1.31033
 Alpha virt. eigenvalues --    1.32031   1.32659   1.33559   1.33961   1.34614
 Alpha virt. eigenvalues --    1.34941   1.36406   1.37001   1.37997   1.38542
 Alpha virt. eigenvalues --    1.38930   1.39989   1.40477   1.40976   1.42487
 Alpha virt. eigenvalues --    1.43931   1.45461   1.45590   1.46687   1.47587
 Alpha virt. eigenvalues --    1.47791   1.49703   1.50671   1.51156   1.51549
 Alpha virt. eigenvalues --    1.52735   1.53573   1.54058   1.54615   1.54818
 Alpha virt. eigenvalues --    1.55696   1.56323   1.57214   1.58279   1.58484
 Alpha virt. eigenvalues --    1.59040   1.59384   1.59990   1.60041   1.60378
 Alpha virt. eigenvalues --    1.60741   1.61230   1.61829   1.62480   1.62837
 Alpha virt. eigenvalues --    1.63116   1.63786   1.63939   1.64717   1.64942
 Alpha virt. eigenvalues --    1.65237   1.65930   1.66668   1.66982   1.67283
 Alpha virt. eigenvalues --    1.67757   1.68645   1.69150   1.69772   1.70253
 Alpha virt. eigenvalues --    1.70842   1.71294   1.71918   1.72085   1.72372
 Alpha virt. eigenvalues --    1.72988   1.73104   1.74357   1.74397   1.75221
 Alpha virt. eigenvalues --    1.75675   1.77236   1.78102   1.78308   1.79187
 Alpha virt. eigenvalues --    1.79396   1.81033   1.81274   1.81384   1.82998
 Alpha virt. eigenvalues --    1.83172   1.84279   1.85843   1.85903   1.86850
 Alpha virt. eigenvalues --    1.87862   1.89158   1.89642   1.90397   1.92299
 Alpha virt. eigenvalues --    1.92594   1.93330   1.93455   1.93974   1.94888
 Alpha virt. eigenvalues --    1.96112   1.98459   1.98852   1.99760   2.01109
 Alpha virt. eigenvalues --    2.01587   2.02077   2.03123   2.04619   2.05653
 Alpha virt. eigenvalues --    2.06280   2.07205   2.08142   2.09267   2.09768
 Alpha virt. eigenvalues --    2.10449   2.13200   2.14330   2.14439   2.15310
 Alpha virt. eigenvalues --    2.16845   2.17732   2.19220   2.20511   2.21688
 Alpha virt. eigenvalues --    2.22537   2.23442   2.24578   2.25203   2.27273
 Alpha virt. eigenvalues --    2.27709   2.28046   2.29195   2.31154   2.31588
 Alpha virt. eigenvalues --    2.33297   2.35178   2.35234   2.36848   2.38845
 Alpha virt. eigenvalues --    2.40084   2.43818   2.47032   2.48899   2.50883
 Alpha virt. eigenvalues --    2.51016   2.51584   2.52476   2.52770   2.53569
 Alpha virt. eigenvalues --    2.54721   2.54993   2.56338   2.57454   2.57683
 Alpha virt. eigenvalues --    2.58055   2.58591   2.59048   2.59425   2.60071
 Alpha virt. eigenvalues --    2.61131   2.63302   2.64191   2.65505   2.65795
 Alpha virt. eigenvalues --    2.66847   2.67245   2.67968   2.69699   2.69999
 Alpha virt. eigenvalues --    2.70544   2.72140   2.72594   2.73041   2.73422
 Alpha virt. eigenvalues --    2.74247   2.75461   2.78197   2.79258   2.81233
 Alpha virt. eigenvalues --    2.85766   2.86249   2.87514   2.88798   2.89704
 Alpha virt. eigenvalues --    2.91035   2.92684   2.93022   2.93743   2.94601
 Alpha virt. eigenvalues --    2.95397   2.96752   2.97368   2.98296   2.98803
 Alpha virt. eigenvalues --    2.99717   3.00498   3.01427   3.02802   3.02839
 Alpha virt. eigenvalues --    3.03476   3.03980   3.04707   3.04940   3.06854
 Alpha virt. eigenvalues --    3.07243   3.09485   3.10690   3.11661   3.12430
 Alpha virt. eigenvalues --    3.13725   3.15202   3.15538   3.16722   3.18382
 Alpha virt. eigenvalues --    3.19249   3.19560   3.20584   3.21398   3.22619
 Alpha virt. eigenvalues --    3.23437   3.24492   3.24998   3.25139   3.25930
 Alpha virt. eigenvalues --    3.26881   3.27293   3.28171   3.29354   3.30831
 Alpha virt. eigenvalues --    3.31386   3.32052   3.32833   3.33450   3.33744
 Alpha virt. eigenvalues --    3.35266   3.35865   3.36636   3.38368   3.38723
 Alpha virt. eigenvalues --    3.39553   3.40140   3.40500   3.41696   3.43123
 Alpha virt. eigenvalues --    3.45921   3.46942   3.48001   3.50944   3.52325
 Alpha virt. eigenvalues --    3.52914   3.53376   3.58872   3.61574   3.65881
 Alpha virt. eigenvalues --    3.75900   3.76786   3.78603   3.83545   3.86091
 Alpha virt. eigenvalues --    3.89977   3.93090   3.94791   3.98715   4.02387
 Alpha virt. eigenvalues --    4.02544   4.05641   4.06670   4.07991   4.09680
 Alpha virt. eigenvalues --    4.11548   4.15711   4.17486   4.18174   4.20445
 Alpha virt. eigenvalues --    4.21520   4.24873   4.27075   4.28486   4.33158
 Alpha virt. eigenvalues --    4.45036   4.55006   5.14508   5.15816   5.16514
 Alpha virt. eigenvalues --    5.20559   5.25083   5.28365   5.31480   5.32731
 Alpha virt. eigenvalues --    5.41419   5.44444   5.55636   5.72238   5.73061
 Alpha virt. eigenvalues --    5.78422   5.82446  23.44747  23.50317  23.50823
 Alpha virt. eigenvalues --   23.53720  23.62278  23.62640  23.65518  23.67130
 Alpha virt. eigenvalues --   23.67754  23.70568  23.72413  23.74323  23.76098
 Alpha virt. eigenvalues --   23.78496  23.79219  23.79700  23.84078  23.84430
 Alpha virt. eigenvalues --   23.85760  23.89009  23.89231  23.91446  23.95800
 Alpha virt. eigenvalues --   24.20014  24.20984  24.23120  49.97378  49.99820
 Alpha virt. eigenvalues --   50.01985  50.03134  50.06790
          Condensed to atoms (all electrons):
 Mulliken atomic charges:
              1
     1  C   -0.811269
     2  C    0.973189
     3  C   -0.103831
     4  C    0.430218
     5  C    1.192342
     6  C   -1.272354
     7  C   -0.800201
     8  C    0.199626
     9  C    0.612637
    10  C   -0.661622
    11  C   -0.731126
    12  O   -0.171840
    13  C    0.331560
    14  C   -0.242910
    15  C   -1.103273
    16  O   -0.142426
    17  C   -0.567682
    18  C    0.942291
    19  O    0.193178
    20  C   -1.449596
    21  O   -0.062751
    22  C   -0.507682
    23  C   -0.299169
    24  O    0.053942
    25  C    0.752557
    26  C   -1.100117
    27  C   -0.992314
    28  C   -0.698503
    29  C   -0.615449
    30  H    0.240859
    31  H    0.262537
    32  C   -1.181623
    33  H    0.208786
    34  H    0.270863
    35  H    0.275048
    36  H    0.235039
    37  H    0.258539
    38  H    0.217249
    39  H    0.279451
    40  H    0.255771
    41  H    0.275847
    42  H    0.291027
    43  H    0.262649
    44  H    0.283823
    45  H    0.257608
    46  H    0.304434
    47  H    0.244346
    48  H    0.265474
    49  H    0.284145
    50  H    0.260316
    51  H    0.228456
    52  H    0.214409
    53  H    0.262938
    54  H    0.248073
    55  H    0.313662
    56  H    0.264047
    57  H    0.264313
    58  H    0.271462
    59  H    0.250692
    60  H    0.261808
    61  H    0.248147
    62  C   -0.956725
    63  H    0.227974
    64  H    0.257161
    65  H    0.243974
 Sum of Mulliken atomic charges =   0.00000
 Mulliken charges with hydrogens summed into heavy atoms:
              1
     1  C   -0.602484
     2  C    0.973189
     3  C    0.158706
     4  C    0.430218
     5  C    1.192342
     6  C   -0.726443
     7  C   -0.800201
     8  C    0.199626
     9  C    0.612637
    10  C   -0.661622
    11  C   -0.731126
    12  O   -0.171840
    13  C    0.566599
    14  C    0.232879
    15  C   -0.292205
    16  O   -0.142426
    17  C   -0.326823
    18  C    0.942291
    19  O    0.193178
    20  C   -0.895919
    21  O    0.221071
    22  C    0.054359
    23  C   -0.054823
    24  O    0.053942
    25  C    0.752557
    26  C   -0.290182
    27  C   -0.549449
    28  C    0.126171
    29  C    0.184372
    32  C   -0.420977
    62  C   -0.227616
 Sum of Mulliken charges with hydrogens summed into heavy atoms =   0.00000
 Electronic spatial extent (au):  <R**2>=          11707.6029
 Charge=              0.0000 electrons
 Dipole moment (field-independent basis, Debye):
    X=              2.7508    Y=              5.7044    Z=             -1.7244  Tot=              6.5635
 Quadrupole moment (field-independent basis, Debye-Ang):
   XX=           -182.6965   YY=           -187.6472   ZZ=           -191.6767
   XY=             -6.0286   XZ=             10.3285   YZ=              5.9156
 Traceless Quadrupole moment (field-independent basis, Debye-Ang):
   XX=              4.6436   YY=             -0.3071   ZZ=             -4.3366
   XY=             -6.0286   XZ=             10.3285   YZ=              5.9156
 Octapole moment (field-independent basis, Debye-Ang**2):
  XXX=             12.3245  YYY=             62.5942  ZZZ=             -4.8033  XYY=              8.7431
  XXY=             -8.3426  XXZ=            -21.0765  XZZ=             21.9372  YZZ=             10.5350
  YYZ=            -39.2110  XYZ=              5.6187
 Hexadecapole moment (field-independent basis, Debye-Ang**3):
 XXXX=          -9120.6197 YYYY=          -4270.2755 ZZZZ=          -2626.8472 XXXY=            -36.4430
 XXXZ=             62.9434 YYYX=            -27.5748 YYYZ=             -0.7095 ZZZX=             50.4361
 ZZZY=             -4.2215 XXYY=          -2209.6991 XXZZ=          -1999.7982 YYZZ=          -1141.5126
 XXYZ=             77.0668 YYXZ=              1.4665 ZZXY=            -58.4217
 N-N= 3.502443967681D+03 E-N=-1.023782639726D+04  KE= 1.381923622993D+03
 1\1\GINC-B0803\FOpt\RB3LYP\6-311+G(d)\C26H34O5\CAOFEI\13-Apr-2021\0\\#
  opt b3lyp/6-311+g(d) geom=connectivity\\Title Card Required\\0,1\C,1.
 9903469225,1.0695452549,2.6072060756\C,2.4029316887,1.8958736231,1.642
 8523931\C,1.8345715138,1.76714732,0.249892117\C,1.379935194,0.33364090
 25,-0.1820356474\C,1.1475833239,-0.6970184908,0.9748720511\C,0.9774746
 502,-0.0157380225,2.364155884\C,0.1404571254,0.5855916373,-1.102305560
 2\C,-1.1814525244,0.2739241052,-0.4233154553\C,-1.3670577421,-0.783133
 9387,0.3948002659\C,-0.1463077974,-1.5368932509,0.7800504866\C,-2.6787
 064527,-1.179483939,1.01421197\O,-2.7262894715,-1.4454744801,2.1983562
 043\C,-3.8966808023,-1.3144796343,0.1008069215\C,-5.2211163228,-1.1576
 235252,0.8601410149\C,-3.7981098128,-2.6913570568,-0.5931012283\O,-0.1
 664614838,-2.7216080847,1.0420505497\C,-0.0006099882,2.1072204466,-1.3
 124707879\C,-1.516029817,2.3006815097,-1.5375061228\O,-2.1110025314,1.
 181524466,-0.7528337229\C,0.610228594,2.676395691,-0.0204885455\O,0.19
 54006413,-0.1648059729,-2.3026238961\C,2.4072837703,-1.5956871015,0.93
 07582449\C,3.2952618503,-1.0220109691,-0.1860513464\O,2.3839190694,-0.
 2644949269,-1.0135004979\C,4.0336410757,-2.0388634679,-1.0230026464\C,
 3.2230299807,-2.9190019667,-1.9380974138\C,5.3586738225,-2.1480508469,
 -0.9079582625\C,-1.9173968031,2.1059365016,-2.9991273923\C,-2.11448372
 62,3.581327247,-0.9703830334\H,0.5698986682,2.4273400539,-2.186974998\
 H,2.6082514466,2.0427860197,-0.4768778838\C,3.3977563417,3.0008161968,
 1.8746601939\H,2.3759471501,1.181512541,3.6182042741\H,1.0460343696,-0
 .7906203394,3.1317790086\H,-0.0367740722,0.3908495519,2.4580130694\H,-
 3.8282167057,-0.5436189838,-0.6730936691\H,-5.2453787632,-1.8781756297
 ,1.6830251537\H,-6.0356663459,-1.434614492,0.1803769122\H,-2.852960663
 3,-2.8130271239,-1.1277040168\H,-4.6105084321,-2.8039831023,-1.3162604
 214\H,-3.8764994734,-3.50127378,0.1368424078\H,-0.0929739982,2.5985981
 037,0.8140130161\H,0.887435912,3.7290207763,-0.1077607055\H,1.09569399
 36,-0.5274712738,-2.3567213932\H,2.9437288789,-1.5976603985,1.88043581
 06\H,2.1083215116,-2.6242164252,0.7293244257\H,4.0205590788,-0.3206826
 216,0.2408226939\H,2.8136409628,-2.3434178298,-2.7741652897\H,2.372492
 5463,-3.3760999529,-1.4239969964\H,3.8358368223,-3.7191610067,-2.35696
 40216\H,5.9189234929,-2.9055652326,-1.446901292\H,5.9330836553,-1.4887
 26002,-0.2639808968\H,-3.0058006577,2.0722556415,-3.0889435349\H,-1.55
 3895584,2.9428185217,-3.6023295933\H,-1.500790829,1.1843464964,-3.4051
 545512\H,-1.693141669,4.4507683075,-1.4823572511\H,-1.9242672493,3.686
 0458513,0.0981148939\H,-3.1958135985,3.5933310895,-1.1236331351\H,3.73
 0962649,3.0321868614,2.9141933434\H,4.2825850401,2.8789329289,1.238540
 3673\H,2.9739009152,3.9820087403,1.6305027061\C,-5.4688841792,0.252684
 8152,1.4018381317\H,-5.4612632072,0.99694974,0.5986431303\H,-4.7082478
 71,0.5394740721,2.1318568911\H,-6.4408340833,0.3156528549,1.8997526004
 \\Version=EM64L-G09RevB.01\State=1-A\HF=-1387.6517468\RMSD=5.518e-09\R
 MSF=2.802e-06\Dipole=1.1363259,2.1187795,-0.9422068\Quadrupole=3.63412
 69,0.9327283,-4.5668552,-3.6421794,8.0317353,3.7871363\PG=C01 [X(C26H3
 4O5)]\\@


 "WHERE SHALL I START, PLEASE YOUR MAJESTY?" HE ASKED.
 "BEGIN AT THE BEGINNING," THE KING SAID GRAVELY,
 "AND GO ON TILL YOU COME TO THE END: THEN STOP." 

                                      -- LEWIS CARROLL
 Job cpu time:  2 days  0 hours 31 minutes 54.3 seconds.
 File lengths (MBytes):  RWF=    372 Int=      0 D2E=      0 Chk=     38 Scr=      1
 Normal termination of Gaussian 09 at Tue Apr 13 17:45:53 2021.
