 Entering Gaussian System, Link 0=g09
 Initial command:
 /public/software/g09/g09/l1.exe /tmp/Gau-19826.inp -scrdir=/tmp/
 Entering Link 1 = /public/software/g09/g09/l1.exe PID=     19827.
  
 Copyright (c) 1988,1990,1992,1993,1995,1998,2003,2009,2010,
            Gaussian, Inc.  All Rights Reserved.
  
 This is part of the Gaussian(R) 09 program.  It is based on
 the Gaussian(R) 03 system (copyright 2003, Gaussian, Inc.),
 the Gaussian(R) 98 system (copyright 1998, Gaussian, Inc.),
 the Gaussian(R) 94 system (copyright 1995, Gaussian, Inc.),
 the Gaussian 92(TM) system (copyright 1992, Gaussian, Inc.),
 the Gaussian 90(TM) system (copyright 1990, Gaussian, Inc.),
 the Gaussian 88(TM) system (copyright 1988, Gaussian, Inc.),
 the Gaussian 86(TM) system (copyright 1986, Carnegie Mellon
 University), and the Gaussian 82(TM) system (copyright 1983,
 Carnegie Mellon University). Gaussian is a federally registered
 trademark of Gaussian, Inc.
  
 This software contains proprietary and confidential information,
 including trade secrets, belonging to Gaussian, Inc.
  
 This software is provided under written license and may be
 used, copied, transmitted, or stored only in accord with that
 written license.
  
 The following legend is applicable only to US Government
 contracts under FAR:
  
                    RESTRICTED RIGHTS LEGEND
  
 Use, reproduction and disclosure by the US Government is
 subject to restrictions as set forth in subparagraphs (a)
 and (c) of the Commercial Computer Software - Restricted
 Rights clause in FAR 52.227-19.
  
 Gaussian, Inc.
 340 Quinnipiac St., Bldg. 40, Wallingford CT 06492
  
  
 ---------------------------------------------------------------
 Warning -- This program may not be used in any manner that
 competes with the business of Gaussian, Inc. or will provide
 assistance to any competitor of Gaussian, Inc.  The licensee
 of this program is prohibited from giving any competitor of
 Gaussian, Inc. access to this program.  By using this program,
 the user acknowledges that Gaussian, Inc. is engaged in the
 business of creating and licensing software in the field of
 computational chemistry and represents and warrants to the
 licensee that it is not a competitor of Gaussian, Inc. and that
 it will not use this program in any manner prohibited above.
 ---------------------------------------------------------------
  

 Cite this work as:
 Gaussian 09, Revision B.01,
 M. J. Frisch, G. W. Trucks, H. B. Schlegel, G. E. Scuseria, 
 M. A. Robb, J. R. Cheeseman, G. Scalmani, V. Barone, B. Mennucci, 
 G. A. Petersson, H. Nakatsuji, M. Caricato, X. Li, H. P. Hratchian, 
 A. F. Izmaylov, J. Bloino, G. Zheng, J. L. Sonnenberg, M. Hada, 
 M. Ehara, K. Toyota, R. Fukuda, J. Hasegawa, M. Ishida, T. Nakajima, 
 Y. Honda, O. Kitao, H. Nakai, T. Vreven, J. A. Montgomery, Jr., 
 J. E. Peralta, F. Ogliaro, M. Bearpark, J. J. Heyd, E. Brothers, 
 K. N. Kudin, V. N. Staroverov, T. Keith, R. Kobayashi, J. Normand, 
 K. Raghavachari, A. Rendell, J. C. Burant, S. S. Iyengar, J. Tomasi, 
 M. Cossi, N. Rega, J. M. Millam, M. Klene, J. E. Knox, J. B. Cross, 
 V. Bakken, C. Adamo, J. Jaramillo, R. Gomperts, R. E. Stratmann, 
 O. Yazyev, A. J. Austin, R. Cammi, C. Pomelli, J. W. Ochterski, 
 R. L. Martin, K. Morokuma, V. G. Zakrzewski, G. A. Voth, 
 P. Salvador, J. J. Dannenberg, S. Dapprich, A. D. Daniels, 
 O. Farkas, J. B. Foresman, J. V. Ortiz, J. Cioslowski, 
 and D. J. Fox, Gaussian, Inc., Wallingford CT, 2010.
 
 ******************************************
 Gaussian 09:  EM64L-G09RevB.01 12-Aug-2010
                13-Apr-2021 
 ******************************************
 %mem=600MW
 %nprocshared=10
 Will use up to   10 processors via shared memory.
 ----------------------------------------
 # opt b3lyp/6-311+g(d) geom=connectivity
 ----------------------------------------
 1/14=-1,18=20,19=15,26=3,38=1,57=2/1,3;
 2/9=110,12=2,17=6,18=5,40=1/2;
 3/5=4,6=6,7=11,11=2,16=1,25=1,30=1,71=1,74=-5/1,2,3;
 4//1;
 5/5=2,38=5/2;
 6/7=2,8=2,9=2,10=2,28=1/1;
 7//1,2,3,16;
 1/14=-1,18=20,19=15/3(2);
 2/9=110/2;
 99//99;
 2/9=110/2;
 3/5=4,6=6,7=11,11=2,16=1,25=1,30=1,71=1,74=-5/1,2,3;
 4/5=5,16=3/1;
 5/5=2,38=5/2;
 7//1,2,3,16;
 1/14=-1,18=20,19=15/3(-5);
 2/9=110/2;
 6/7=2,8=2,9=2,10=2,19=2,28=1/1;
 99/9=1/99;
 -------------------
 Title Card Required
 -------------------
 Symbolic Z-matrix:
 Charge =  0 Multiplicity = 1
 C                    -1.91863   1.22238  -2.79462 
 C                    -2.38003   2.04511  -1.84542 
 C                    -1.94822   1.86352  -0.40914 
 C                    -1.57939   0.40632   0.0166 
 C                    -1.26714  -0.6063   -1.12805 
 C                    -0.98523   0.07877  -2.50229 
 C                    -0.40673   0.59498   1.04818 
 C                     0.96042   0.28331   0.46643 
 C                     1.198    -0.7562   -0.36808 
 C                     0.002    -1.47067  -0.879 
 C                     2.54071  -1.13207  -0.92487 
 O                     2.64764  -1.39406  -2.11239 
 C                     3.72431  -1.2561    0.03639 
 C                     5.06544  -0.98771  -0.66387 
 C                     3.66907  -2.67859   0.63969 
 O                     0.03857  -2.63775  -1.23344 
 C                    -0.2526    2.10799   1.32487 
 C                     1.24248   2.25278   1.68499 
 O                     1.87704   1.1677    0.88941 
 C                    -0.73058   2.73297   0.00135 
 O                    -0.58103  -0.21215   2.19179 
 C                    -2.54032  -1.46986  -1.20933 
 C                    -3.22295  -1.36587   0.15685 
 O                    -2.69667  -0.13501   0.74568 
 C                    -3.07647  -2.49698   1.163 
 C                    -3.9434   -2.33688   2.3915 
 C                    -2.27566  -3.55352   0.99638 
 C                     1.51451   1.95944   3.16231 
 C                     1.91724   3.54706   1.24278 
 H                    -0.89155   2.4184    2.15711 
 H                    -2.78133   2.1391    0.25108 
 C                    -3.30269   3.19908  -2.1399 
 H                    -2.20798   1.37955  -3.83279 
 H                     0.05888   0.42045  -2.5409 
 H                    -1.06317  -0.69171  -3.27756 
 H                     3.58718  -0.53613   0.85111 
 H                     5.87373  -1.2452    0.03389 
 H                     5.15474  -1.66608  -1.52005 
 H                     2.70687  -2.87401   1.12521 
 H                     4.46015  -2.8016    1.38799 
 H                     3.81274  -3.43287  -0.14178 
 H                    -0.99116   3.79161   0.09668 
 H                     0.04638   2.65997  -0.76917 
 H                    -1.52798  -0.46224   2.16653 
 H                    -2.28948  -2.49011  -1.50161 
 H                    -3.20859  -1.05412  -1.96895 
 H                    -4.29751  -1.17957   0.0285 
 H                    -3.76804  -3.13836   3.1148 
 H                    -3.76186  -1.3772    2.89234 
 H                    -5.00913  -2.34647   2.12215 
 H                    -2.21826  -4.32724   1.75868 
 H                    -1.64182  -3.68642   0.12668 
 H                     2.59274   1.88131   3.33626 
 H                     1.03259   1.02788   3.4677 
 H                     1.1249    2.77345   3.78428 
 H                     1.80764   3.71569   0.16873 
 H                     2.9864    3.51287   1.47566 
 H                     1.47976   4.39818   1.77603 
 H                    -4.25061   3.09803  -1.59317 
 H                    -2.86319   4.15618  -1.82622 
 H                    -3.53153   3.26948  -3.20802 
 C                     5.23708   0.46026  -1.13562 
 H                     5.14217   1.16601  -0.30088 
 H                     4.482     0.72084  -1.88468 
 H                     6.22265   0.61113  -1.59081 
 

 GradGradGradGradGradGradGradGradGradGradGradGradGradGradGradGradGradGrad
 Berny optimization.
 Initialization pass.
                           ----------------------------
                           !    Initial Parameters    !
                           ! (Angstroms and Degrees)  !
 --------------------------                            --------------------------
 ! Name  Definition              Value          Derivative Info.                !
 --------------------------------------------------------------------------------
 ! R1    R(1,2)                  1.3382         estimate D2E/DX2                !
 ! R2    R(1,6)                  1.5048         estimate D2E/DX2                !
 ! R3    R(1,33)                 1.0891         estimate D2E/DX2                !
 ! R4    R(2,3)                  1.5107         estimate D2E/DX2                !
 ! R5    R(2,32)                 1.5065         estimate D2E/DX2                !
 ! R6    R(3,4)                  1.5623         estimate D2E/DX2                !
 ! R7    R(3,20)                 1.5515         estimate D2E/DX2                !
 ! R8    R(3,31)                 1.0981         estimate D2E/DX2                !
 ! R9    R(4,5)                  1.5598         estimate D2E/DX2                !
 ! R10   R(4,7)                  1.5732         estimate D2E/DX2                !
 ! R11   R(4,24)                 1.4398         estimate D2E/DX2                !
 ! R12   R(5,6)                  1.5612         estimate D2E/DX2                !
 ! R13   R(5,10)                 1.5556         estimate D2E/DX2                !
 ! R14   R(5,22)                 1.5406         estimate D2E/DX2                !
 ! R15   R(6,34)                 1.0993         estimate D2E/DX2                !
 ! R16   R(6,35)                 1.0958         estimate D2E/DX2                !
 ! R17   R(7,8)                  1.5181         estimate D2E/DX2                !
 ! R18   R(7,17)                 1.5458         estimate D2E/DX2                !
 ! R19   R(7,21)                 1.4106         estimate D2E/DX2                !
 ! R20   R(8,9)                  1.354          estimate D2E/DX2                !
 ! R21   R(8,19)                 1.3421         estimate D2E/DX2                !
 ! R22   R(9,10)                 1.4839         estimate D2E/DX2                !
 ! R23   R(9,11)                 1.5014         estimate D2E/DX2                !
 ! R24   R(10,16)                1.2203         estimate D2E/DX2                !
 ! R25   R(11,12)                1.2208         estimate D2E/DX2                !
 ! R26   R(11,13)                1.5298         estimate D2E/DX2                !
 ! R27   R(13,14)                1.5366         estimate D2E/DX2                !
 ! R28   R(13,15)                1.5461         estimate D2E/DX2                !
 ! R29   R(13,36)                1.0959         estimate D2E/DX2                !
 ! R30   R(14,37)                1.0984         estimate D2E/DX2                !
 ! R31   R(14,38)                1.096          estimate D2E/DX2                !
 ! R32   R(14,62)                1.5325         estimate D2E/DX2                !
 ! R33   R(15,39)                1.0953         estimate D2E/DX2                !
 ! R34   R(15,40)                1.0958         estimate D2E/DX2                !
 ! R35   R(15,41)                1.0956         estimate D2E/DX2                !
 ! R36   R(17,18)                1.5446         estimate D2E/DX2                !
 ! R37   R(17,20)                1.5397         estimate D2E/DX2                !
 ! R38   R(17,30)                1.0942         estimate D2E/DX2                !
 ! R39   R(18,19)                1.4876         estimate D2E/DX2                !
 ! R40   R(18,28)                1.5305         estimate D2E/DX2                !
 ! R41   R(18,29)                1.5251         estimate D2E/DX2                !
 ! R42   R(20,42)                1.0944         estimate D2E/DX2                !
 ! R43   R(20,43)                1.0967         estimate D2E/DX2                !
 ! R44   R(21,44)                0.9797         estimate D2E/DX2                !
 ! R45   R(22,23)                1.5308         estimate D2E/DX2                !
 ! R46   R(22,45)                1.0905         estimate D2E/DX2                !
 ! R47   R(22,46)                1.0938         estimate D2E/DX2                !
 ! R48   R(23,24)                1.4624         estimate D2E/DX2                !
 ! R49   R(23,25)                1.5209         estimate D2E/DX2                !
 ! R50   R(23,47)                1.0981         estimate D2E/DX2                !
 ! R51   R(24,44)                1.8686         estimate D2E/DX2                !
 ! R52   R(25,26)                1.5121         estimate D2E/DX2                !
 ! R53   R(25,27)                1.3362         estimate D2E/DX2                !
 ! R54   R(26,48)                1.0938         estimate D2E/DX2                !
 ! R55   R(26,49)                1.0976         estimate D2E/DX2                !
 ! R56   R(26,50)                1.0993         estimate D2E/DX2                !
 ! R57   R(27,51)                1.0877         estimate D2E/DX2                !
 ! R58   R(27,52)                1.0843         estimate D2E/DX2                !
 ! R59   R(28,53)                1.095          estimate D2E/DX2                !
 ! R60   R(28,54)                1.0924         estimate D2E/DX2                !
 ! R61   R(28,55)                1.096          estimate D2E/DX2                !
 ! R62   R(29,56)                1.0927         estimate D2E/DX2                !
 ! R63   R(29,57)                1.0948         estimate D2E/DX2                !
 ! R64   R(29,58)                1.0955         estimate D2E/DX2                !
 ! R65   R(32,59)                1.0989         estimate D2E/DX2                !
 ! R66   R(32,60)                1.0989         estimate D2E/DX2                !
 ! R67   R(32,61)                1.0946         estimate D2E/DX2                !
 ! R68   R(62,63)                1.0972         estimate D2E/DX2                !
 ! R69   R(62,64)                1.0951         estimate D2E/DX2                !
 ! R70   R(62,65)                1.096          estimate D2E/DX2                !
 ! A1    A(2,1,6)              122.9083         estimate D2E/DX2                !
 ! A2    A(2,1,33)             119.7223         estimate D2E/DX2                !
 ! A3    A(6,1,33)             117.363          estimate D2E/DX2                !
 ! A4    A(1,2,3)              120.1263         estimate D2E/DX2                !
 ! A5    A(1,2,32)             122.9181         estimate D2E/DX2                !
 ! A6    A(3,2,32)             116.9333         estimate D2E/DX2                !
 ! A7    A(2,3,4)              116.0191         estimate D2E/DX2                !
 ! A8    A(2,3,20)             114.111          estimate D2E/DX2                !
 ! A9    A(2,3,31)             108.9399         estimate D2E/DX2                !
 ! A10   A(4,3,20)             105.3858         estimate D2E/DX2                !
 ! A11   A(4,3,31)             104.4386         estimate D2E/DX2                !
 ! A12   A(20,3,31)            107.2001         estimate D2E/DX2                !
 ! A13   A(3,4,5)              116.9231         estimate D2E/DX2                !
 ! A14   A(3,4,7)              104.0527         estimate D2E/DX2                !
 ! A15   A(3,4,24)             107.787          estimate D2E/DX2                !
 ! A16   A(5,4,7)              114.194          estimate D2E/DX2                !
 ! A17   A(5,4,24)             106.4315         estimate D2E/DX2                !
 ! A18   A(7,4,24)             106.9472         estimate D2E/DX2                !
 ! A19   A(4,5,6)              113.4053         estimate D2E/DX2                !
 ! A20   A(4,5,10)             113.9882         estimate D2E/DX2                !
 ! A21   A(4,5,22)             103.7199         estimate D2E/DX2                !
 ! A22   A(6,5,10)             103.7349         estimate D2E/DX2                !
 ! A23   A(6,5,22)             110.4118         estimate D2E/DX2                !
 ! A24   A(10,5,22)            111.7915         estimate D2E/DX2                !
 ! A25   A(1,6,5)              113.108          estimate D2E/DX2                !
 ! A26   A(1,6,34)             110.2496         estimate D2E/DX2                !
 ! A27   A(1,6,35)             110.6576         estimate D2E/DX2                !
 ! A28   A(5,6,34)             109.8052         estimate D2E/DX2                !
 ! A29   A(5,6,35)             107.5414         estimate D2E/DX2                !
 ! A30   A(34,6,35)            105.1447         estimate D2E/DX2                !
 ! A31   A(4,7,8)              113.2901         estimate D2E/DX2                !
 ! A32   A(4,7,17)             108.0037         estimate D2E/DX2                !
 ! A33   A(4,7,21)             111.7712         estimate D2E/DX2                !
 ! A34   A(8,7,17)             100.3552         estimate D2E/DX2                !
 ! A35   A(8,7,21)             107.7272         estimate D2E/DX2                !
 ! A36   A(17,7,21)            115.2938         estimate D2E/DX2                !
 ! A37   A(7,8,9)              123.4908         estimate D2E/DX2                !
 ! A38   A(7,8,19)             111.0387         estimate D2E/DX2                !
 ! A39   A(9,8,19)             125.4705         estimate D2E/DX2                !
 ! A40   A(8,9,10)             116.1303         estimate D2E/DX2                !
 ! A41   A(8,9,11)             125.2873         estimate D2E/DX2                !
 ! A42   A(10,9,11)            118.2021         estimate D2E/DX2                !
 ! A43   A(5,10,9)             116.4336         estimate D2E/DX2                !
 ! A44   A(5,10,16)            120.6233         estimate D2E/DX2                !
 ! A45   A(9,10,16)            122.4352         estimate D2E/DX2                !
 ! A46   A(9,11,12)            119.5256         estimate D2E/DX2                !
 ! A47   A(9,11,13)            118.6327         estimate D2E/DX2                !
 ! A48   A(12,11,13)           121.7405         estimate D2E/DX2                !
 ! A49   A(11,13,14)           112.0097         estimate D2E/DX2                !
 ! A50   A(11,13,15)           106.9858         estimate D2E/DX2                !
 ! A51   A(11,13,36)           108.4856         estimate D2E/DX2                !
 ! A52   A(14,13,15)           111.6981         estimate D2E/DX2                !
 ! A53   A(14,13,36)           109.4675         estimate D2E/DX2                !
 ! A54   A(15,13,36)           108.0524         estimate D2E/DX2                !
 ! A55   A(13,14,37)           108.1697         estimate D2E/DX2                !
 ! A56   A(13,14,38)           108.6031         estimate D2E/DX2                !
 ! A57   A(13,14,62)           113.7706         estimate D2E/DX2                !
 ! A58   A(37,14,38)           106.9291         estimate D2E/DX2                !
 ! A59   A(37,14,62)           109.5495         estimate D2E/DX2                !
 ! A60   A(38,14,62)           109.5852         estimate D2E/DX2                !
 ! A61   A(13,15,39)           111.6227         estimate D2E/DX2                !
 ! A62   A(13,15,40)           110.1165         estimate D2E/DX2                !
 ! A63   A(13,15,41)           110.5124         estimate D2E/DX2                !
 ! A64   A(39,15,40)           108.146          estimate D2E/DX2                !
 ! A65   A(39,15,41)           107.9718         estimate D2E/DX2                !
 ! A66   A(40,15,41)           108.3683         estimate D2E/DX2                !
 ! A67   A(7,17,18)            103.2963         estimate D2E/DX2                !
 ! A68   A(7,17,20)            102.2673         estimate D2E/DX2                !
 ! A69   A(7,17,30)            110.8298         estimate D2E/DX2                !
 ! A70   A(18,17,20)           117.5698         estimate D2E/DX2                !
 ! A71   A(18,17,30)           111.1799         estimate D2E/DX2                !
 ! A72   A(20,17,30)           110.9389         estimate D2E/DX2                !
 ! A73   A(17,18,19)           102.6986         estimate D2E/DX2                !
 ! A74   A(17,18,28)           112.2782         estimate D2E/DX2                !
 ! A75   A(17,18,29)           116.1154         estimate D2E/DX2                !
 ! A76   A(19,18,28)           107.4934         estimate D2E/DX2                !
 ! A77   A(19,18,29)           105.9745         estimate D2E/DX2                !
 ! A78   A(28,18,29)           111.339          estimate D2E/DX2                !
 ! A79   A(8,19,18)            110.9689         estimate D2E/DX2                !
 ! A80   A(3,20,17)            104.0989         estimate D2E/DX2                !
 ! A81   A(3,20,42)            112.2264         estimate D2E/DX2                !
 ! A82   A(3,20,43)            109.4407         estimate D2E/DX2                !
 ! A83   A(17,20,42)           113.0588         estimate D2E/DX2                !
 ! A84   A(17,20,43)           110.9151         estimate D2E/DX2                !
 ! A85   A(42,20,43)           107.1144         estimate D2E/DX2                !
 ! A86   A(7,21,44)            104.1571         estimate D2E/DX2                !
 ! A87   A(5,22,23)            106.4616         estimate D2E/DX2                !
 ! A88   A(5,22,45)            110.3936         estimate D2E/DX2                !
 ! A89   A(5,22,46)            109.1776         estimate D2E/DX2                !
 ! A90   A(23,22,45)           113.9113         estimate D2E/DX2                !
 ! A91   A(23,22,46)           108.7559         estimate D2E/DX2                !
 ! A92   A(45,22,46)           108.0588         estimate D2E/DX2                !
 ! A93   A(22,23,24)           104.8356         estimate D2E/DX2                !
 ! A94   A(22,23,25)           119.7982         estimate D2E/DX2                !
 ! A95   A(22,23,47)           110.0951         estimate D2E/DX2                !
 ! A96   A(24,23,25)           108.9604         estimate D2E/DX2                !
 ! A97   A(24,23,47)           104.8576         estimate D2E/DX2                !
 ! A98   A(25,23,47)           107.3217         estimate D2E/DX2                !
 ! A99   A(4,24,23)            113.0674         estimate D2E/DX2                !
 ! A100  A(23,25,26)           113.7979         estimate D2E/DX2                !
 ! A101  A(23,25,27)           124.2836         estimate D2E/DX2                !
 ! A102  A(26,25,27)           121.9144         estimate D2E/DX2                !
 ! A103  A(25,26,48)           111.5781         estimate D2E/DX2                !
 ! A104  A(25,26,49)           111.6209         estimate D2E/DX2                !
 ! A105  A(25,26,50)           110.8455         estimate D2E/DX2                !
 ! A106  A(48,26,49)           108.2049         estimate D2E/DX2                !
 ! A107  A(48,26,50)           108.1245         estimate D2E/DX2                !
 ! A108  A(49,26,50)           106.2464         estimate D2E/DX2                !
 ! A109  A(25,27,51)           120.4454         estimate D2E/DX2                !
 ! A110  A(25,27,52)           123.1795         estimate D2E/DX2                !
 ! A111  A(51,27,52)           116.3651         estimate D2E/DX2                !
 ! A112  A(18,28,53)           110.0013         estimate D2E/DX2                !
 ! A113  A(18,28,54)           110.786          estimate D2E/DX2                !
 ! A114  A(18,28,55)           110.0127         estimate D2E/DX2                !
 ! A115  A(53,28,54)           109.2176         estimate D2E/DX2                !
 ! A116  A(53,28,55)           108.2325         estimate D2E/DX2                !
 ! A117  A(54,28,55)           108.5352         estimate D2E/DX2                !
 ! A118  A(18,29,56)           111.8133         estimate D2E/DX2                !
 ! A119  A(18,29,57)           110.1146         estimate D2E/DX2                !
 ! A120  A(18,29,58)           109.9686         estimate D2E/DX2                !
 ! A121  A(56,29,57)           108.1708         estimate D2E/DX2                !
 ! A122  A(56,29,58)           108.5724         estimate D2E/DX2                !
 ! A123  A(57,29,58)           108.1028         estimate D2E/DX2                !
 ! A124  A(2,32,59)            111.1364         estimate D2E/DX2                !
 ! A125  A(2,32,60)            111.4933         estimate D2E/DX2                !
 ! A126  A(2,32,61)            111.5942         estimate D2E/DX2                !
 ! A127  A(59,32,60)           106.4428         estimate D2E/DX2                !
 ! A128  A(59,32,61)           108.1222         estimate D2E/DX2                !
 ! A129  A(60,32,61)           107.8265         estimate D2E/DX2                !
 ! A130  A(14,62,63)           111.3366         estimate D2E/DX2                !
 ! A131  A(14,62,64)           110.9877         estimate D2E/DX2                !
 ! A132  A(14,62,65)           111.0145         estimate D2E/DX2                !
 ! A133  A(63,62,64)           107.921          estimate D2E/DX2                !
 ! A134  A(63,62,65)           107.7701         estimate D2E/DX2                !
 ! A135  A(64,62,65)           107.6502         estimate D2E/DX2                !
 ! D1    D(6,1,2,3)              1.092          estimate D2E/DX2                !
 ! D2    D(6,1,2,32)           179.3204         estimate D2E/DX2                !
 ! D3    D(33,1,2,3)          -177.9681         estimate D2E/DX2                !
 ! D4    D(33,1,2,32)            0.2603         estimate D2E/DX2                !
 ! D5    D(2,1,6,5)             35.3164         estimate D2E/DX2                !
 ! D6    D(2,1,6,34)           -88.055          estimate D2E/DX2                !
 ! D7    D(2,1,6,35)           156.052          estimate D2E/DX2                !
 ! D8    D(33,1,6,5)          -145.6028         estimate D2E/DX2                !
 ! D9    D(33,1,6,34)           91.0259         estimate D2E/DX2                !
 ! D10   D(33,1,6,35)          -24.8671         estimate D2E/DX2                !
 ! D11   D(1,2,3,4)            -28.706          estimate D2E/DX2                !
 ! D12   D(1,2,3,20)            94.1093         estimate D2E/DX2                !
 ! D13   D(1,2,3,31)          -146.1484         estimate D2E/DX2                !
 ! D14   D(32,2,3,4)           152.9621         estimate D2E/DX2                !
 ! D15   D(32,2,3,20)          -84.2226         estimate D2E/DX2                !
 ! D16   D(32,2,3,31)           35.5197         estimate D2E/DX2                !
 ! D17   D(1,2,32,59)          120.5354         estimate D2E/DX2                !
 ! D18   D(1,2,32,60)         -120.8845         estimate D2E/DX2                !
 ! D19   D(1,2,32,61)           -0.2399         estimate D2E/DX2                !
 ! D20   D(3,2,32,59)          -61.1833         estimate D2E/DX2                !
 ! D21   D(3,2,32,60)           57.3968         estimate D2E/DX2                !
 ! D22   D(3,2,32,61)          178.0414         estimate D2E/DX2                !
 ! D23   D(2,3,4,5)             18.228          estimate D2E/DX2                !
 ! D24   D(2,3,4,7)            145.1653         estimate D2E/DX2                !
 ! D25   D(2,3,4,24)          -101.5145         estimate D2E/DX2                !
 ! D26   D(20,3,4,5)          -109.0588         estimate D2E/DX2                !
 ! D27   D(20,3,4,7)            17.8786         estimate D2E/DX2                !
 ! D28   D(20,3,4,24)          131.1988         estimate D2E/DX2                !
 ! D29   D(31,3,4,5)           138.1386         estimate D2E/DX2                !
 ! D30   D(31,3,4,7)           -94.924          estimate D2E/DX2                !
 ! D31   D(31,3,4,24)           18.3962         estimate D2E/DX2                !
 ! D32   D(2,3,20,17)         -165.0312         estimate D2E/DX2                !
 ! D33   D(2,3,20,42)           72.3608         estimate D2E/DX2                !
 ! D34   D(2,3,20,43)          -46.4128         estimate D2E/DX2                !
 ! D35   D(4,3,20,17)          -36.5965         estimate D2E/DX2                !
 ! D36   D(4,3,20,42)         -159.2044         estimate D2E/DX2                !
 ! D37   D(4,3,20,43)           82.022          estimate D2E/DX2                !
 ! D38   D(31,3,20,17)          74.2522         estimate D2E/DX2                !
 ! D39   D(31,3,20,42)         -48.3557         estimate D2E/DX2                !
 ! D40   D(31,3,20,43)        -167.1293         estimate D2E/DX2                !
 ! D41   D(3,4,5,6)             16.0375         estimate D2E/DX2                !
 ! D42   D(3,4,5,10)           134.4481         estimate D2E/DX2                !
 ! D43   D(3,4,5,22)          -103.7558         estimate D2E/DX2                !
 ! D44   D(7,4,5,6)           -105.7468         estimate D2E/DX2                !
 ! D45   D(7,4,5,10)            12.6638         estimate D2E/DX2                !
 ! D46   D(7,4,5,22)           134.4599         estimate D2E/DX2                !
 ! D47   D(24,4,5,6)           136.4997         estimate D2E/DX2                !
 ! D48   D(24,4,5,10)         -105.0897         estimate D2E/DX2                !
 ! D49   D(24,4,5,22)           16.7064         estimate D2E/DX2                !
 ! D50   D(3,4,7,8)           -103.2136         estimate D2E/DX2                !
 ! D51   D(3,4,7,17)             7.0091         estimate D2E/DX2                !
 ! D52   D(3,4,7,21)           134.8565         estimate D2E/DX2                !
 ! D53   D(5,4,7,8)             25.4078         estimate D2E/DX2                !
 ! D54   D(5,4,7,17)           135.6305         estimate D2E/DX2                !
 ! D55   D(5,4,7,21)           -96.5221         estimate D2E/DX2                !
 ! D56   D(24,4,7,8)           142.8656         estimate D2E/DX2                !
 ! D57   D(24,4,7,17)         -106.9118         estimate D2E/DX2                !
 ! D58   D(24,4,7,21)           20.9357         estimate D2E/DX2                !
 ! D59   D(3,4,24,23)          122.4968         estimate D2E/DX2                !
 ! D60   D(5,4,24,23)           -3.6876         estimate D2E/DX2                !
 ! D61   D(7,4,24,23)         -126.1362         estimate D2E/DX2                !
 ! D62   D(4,5,6,1)            -41.636          estimate D2E/DX2                !
 ! D63   D(4,5,6,34)            81.9802         estimate D2E/DX2                !
 ! D64   D(4,5,6,35)          -164.125          estimate D2E/DX2                !
 ! D65   D(10,5,6,1)          -165.8189         estimate D2E/DX2                !
 ! D66   D(10,5,6,34)          -42.2027         estimate D2E/DX2                !
 ! D67   D(10,5,6,35)           71.692          estimate D2E/DX2                !
 ! D68   D(22,5,6,1)            74.2659         estimate D2E/DX2                !
 ! D69   D(22,5,6,34)         -162.1179         estimate D2E/DX2                !
 ! D70   D(22,5,6,35)          -48.2231         estimate D2E/DX2                !
 ! D71   D(4,5,10,9)           -44.3652         estimate D2E/DX2                !
 ! D72   D(4,5,10,16)          143.6147         estimate D2E/DX2                !
 ! D73   D(6,5,10,9)            79.4384         estimate D2E/DX2                !
 ! D74   D(6,5,10,16)          -92.5817         estimate D2E/DX2                !
 ! D75   D(22,5,10,9)         -161.5898         estimate D2E/DX2                !
 ! D76   D(22,5,10,16)          26.3901         estimate D2E/DX2                !
 ! D77   D(4,5,22,23)          -23.3256         estimate D2E/DX2                !
 ! D78   D(4,5,22,45)         -147.434          estimate D2E/DX2                !
 ! D79   D(4,5,22,46)           93.9163         estimate D2E/DX2                !
 ! D80   D(6,5,22,23)         -145.1385         estimate D2E/DX2                !
 ! D81   D(6,5,22,45)           90.753          estimate D2E/DX2                !
 ! D82   D(6,5,22,46)          -27.8967         estimate D2E/DX2                !
 ! D83   D(10,5,22,23)          99.9251         estimate D2E/DX2                !
 ! D84   D(10,5,22,45)         -24.1833         estimate D2E/DX2                !
 ! D85   D(10,5,22,46)        -142.833          estimate D2E/DX2                !
 ! D86   D(4,7,8,9)            -40.3732         estimate D2E/DX2                !
 ! D87   D(4,7,8,19)           139.598          estimate D2E/DX2                !
 ! D88   D(17,7,8,9)          -155.2537         estimate D2E/DX2                !
 ! D89   D(17,7,8,19)           24.7175         estimate D2E/DX2                !
 ! D90   D(21,7,8,9)            83.7891         estimate D2E/DX2                !
 ! D91   D(21,7,8,19)          -96.2397         estimate D2E/DX2                !
 ! D92   D(4,7,17,18)         -151.6492         estimate D2E/DX2                !
 ! D93   D(4,7,17,20)          -29.0964         estimate D2E/DX2                !
 ! D94   D(4,7,17,30)           89.1993         estimate D2E/DX2                !
 ! D95   D(8,7,17,18)          -32.8323         estimate D2E/DX2                !
 ! D96   D(8,7,17,20)           89.7204         estimate D2E/DX2                !
 ! D97   D(8,7,17,30)         -151.9839         estimate D2E/DX2                !
 ! D98   D(21,7,17,18)          82.5527         estimate D2E/DX2                !
 ! D99   D(21,7,17,20)        -154.8946         estimate D2E/DX2                !
 ! D100  D(21,7,17,30)         -36.5988         estimate D2E/DX2                !
 ! D101  D(4,7,21,44)          -17.5194         estimate D2E/DX2                !
 ! D102  D(8,7,21,44)         -142.5944         estimate D2E/DX2                !
 ! D103  D(17,7,21,44)         106.3186         estimate D2E/DX2                !
 ! D104  D(7,8,9,10)             9.681          estimate D2E/DX2                !
 ! D105  D(7,8,9,11)          -177.5566         estimate D2E/DX2                !
 ! D106  D(19,8,9,10)         -170.286          estimate D2E/DX2                !
 ! D107  D(19,8,9,11)            2.4764         estimate D2E/DX2                !
 ! D108  D(7,8,19,18)           -5.6414         estimate D2E/DX2                !
 ! D109  D(9,8,19,18)          174.3291         estimate D2E/DX2                !
 ! D110  D(8,9,10,5)            33.9201         estimate D2E/DX2                !
 ! D111  D(8,9,10,16)         -154.2172         estimate D2E/DX2                !
 ! D112  D(11,9,10,5)         -139.3789         estimate D2E/DX2                !
 ! D113  D(11,9,10,16)          32.4839         estimate D2E/DX2                !
 ! D114  D(8,9,11,12)         -134.1773         estimate D2E/DX2                !
 ! D115  D(8,9,11,13)           49.4169         estimate D2E/DX2                !
 ! D116  D(10,9,11,12)          38.4488         estimate D2E/DX2                !
 ! D117  D(10,9,11,13)        -137.957          estimate D2E/DX2                !
 ! D118  D(9,11,13,14)        -153.1883         estimate D2E/DX2                !
 ! D119  D(9,11,13,15)          84.098          estimate D2E/DX2                !
 ! D120  D(9,11,13,36)         -32.2467         estimate D2E/DX2                !
 ! D121  D(12,11,13,14)         30.4893         estimate D2E/DX2                !
 ! D122  D(12,11,13,15)        -92.2245         estimate D2E/DX2                !
 ! D123  D(12,11,13,36)        151.4309         estimate D2E/DX2                !
 ! D124  D(11,13,14,37)       -171.2502         estimate D2E/DX2                !
 ! D125  D(11,13,14,38)        -55.5389         estimate D2E/DX2                !
 ! D126  D(11,13,14,62)         66.7864         estimate D2E/DX2                !
 ! D127  D(15,13,14,37)        -51.252          estimate D2E/DX2                !
 ! D128  D(15,13,14,38)         64.4592         estimate D2E/DX2                !
 ! D129  D(15,13,14,62)       -173.2155         estimate D2E/DX2                !
 ! D130  D(36,13,14,37)         68.3779         estimate D2E/DX2                !
 ! D131  D(36,13,14,38)       -175.9109         estimate D2E/DX2                !
 ! D132  D(36,13,14,62)        -53.5856         estimate D2E/DX2                !
 ! D133  D(11,13,15,39)        -56.2216         estimate D2E/DX2                !
 ! D134  D(11,13,15,40)       -176.3517         estimate D2E/DX2                !
 ! D135  D(11,13,15,41)         63.9555         estimate D2E/DX2                !
 ! D136  D(14,13,15,39)       -179.1292         estimate D2E/DX2                !
 ! D137  D(14,13,15,40)         60.7408         estimate D2E/DX2                !
 ! D138  D(14,13,15,41)        -58.9521         estimate D2E/DX2                !
 ! D139  D(36,13,15,39)         60.41           estimate D2E/DX2                !
 ! D140  D(36,13,15,40)        -59.7201         estimate D2E/DX2                !
 ! D141  D(36,13,15,41)       -179.4129         estimate D2E/DX2                !
 ! D142  D(13,14,62,63)         57.6193         estimate D2E/DX2                !
 ! D143  D(13,14,62,64)        -62.6239         estimate D2E/DX2                !
 ! D144  D(13,14,62,65)        177.6895         estimate D2E/DX2                !
 ! D145  D(37,14,62,63)        -63.5775         estimate D2E/DX2                !
 ! D146  D(37,14,62,64)        176.1794         estimate D2E/DX2                !
 ! D147  D(37,14,62,65)         56.4927         estimate D2E/DX2                !
 ! D148  D(38,14,62,63)        179.4016         estimate D2E/DX2                !
 ! D149  D(38,14,62,64)         59.1585         estimate D2E/DX2                !
 ! D150  D(38,14,62,65)        -60.5282         estimate D2E/DX2                !
 ! D151  D(7,17,18,19)          30.5404         estimate D2E/DX2                !
 ! D152  D(7,17,18,28)         -84.6295         estimate D2E/DX2                !
 ! D153  D(7,17,18,29)         145.6689         estimate D2E/DX2                !
 ! D154  D(20,17,18,19)        -81.1555         estimate D2E/DX2                !
 ! D155  D(20,17,18,28)        163.6746         estimate D2E/DX2                !
 ! D156  D(20,17,18,29)         33.973          estimate D2E/DX2                !
 ! D157  D(30,17,18,19)        149.4497         estimate D2E/DX2                !
 ! D158  D(30,17,18,28)         34.2798         estimate D2E/DX2                !
 ! D159  D(30,17,18,29)        -95.4218         estimate D2E/DX2                !
 ! D160  D(7,17,20,3)           40.0119         estimate D2E/DX2                !
 ! D161  D(7,17,20,42)         162.0712         estimate D2E/DX2                !
 ! D162  D(7,17,20,43)         -77.5923         estimate D2E/DX2                !
 ! D163  D(18,17,20,3)         152.286          estimate D2E/DX2                !
 ! D164  D(18,17,20,42)        -85.6547         estimate D2E/DX2                !
 ! D165  D(18,17,20,43)         34.6818         estimate D2E/DX2                !
 ! D166  D(30,17,20,3)         -78.2065         estimate D2E/DX2                !
 ! D167  D(30,17,20,42)         43.8529         estimate D2E/DX2                !
 ! D168  D(30,17,20,43)        164.1894         estimate D2E/DX2                !
 ! D169  D(17,18,19,8)         -16.154          estimate D2E/DX2                !
 ! D170  D(28,18,19,8)         102.4316         estimate D2E/DX2                !
 ! D171  D(29,18,19,8)        -138.4197         estimate D2E/DX2                !
 ! D172  D(17,18,28,53)        169.083          estimate D2E/DX2                !
 ! D173  D(17,18,28,54)         48.23           estimate D2E/DX2                !
 ! D174  D(17,18,28,55)        -71.7781         estimate D2E/DX2                !
 ! D175  D(19,18,28,53)         56.8611         estimate D2E/DX2                !
 ! D176  D(19,18,28,54)        -63.9919         estimate D2E/DX2                !
 ! D177  D(19,18,28,55)        176.0            estimate D2E/DX2                !
 ! D178  D(29,18,28,53)        -58.792          estimate D2E/DX2                !
 ! D179  D(29,18,28,54)       -179.645          estimate D2E/DX2                !
 ! D180  D(29,18,28,55)         60.347          estimate D2E/DX2                !
 ! D181  D(17,18,29,56)        -55.2355         estimate D2E/DX2                !
 ! D182  D(17,18,29,57)       -175.5205         estimate D2E/DX2                !
 ! D183  D(17,18,29,58)         65.4575         estimate D2E/DX2                !
 ! D184  D(19,18,29,56)         58.0294         estimate D2E/DX2                !
 ! D185  D(19,18,29,57)        -62.2556         estimate D2E/DX2                !
 ! D186  D(19,18,29,58)        178.7224         estimate D2E/DX2                !
 ! D187  D(28,18,29,56)        174.6139         estimate D2E/DX2                !
 ! D188  D(28,18,29,57)         54.3289         estimate D2E/DX2                !
 ! D189  D(28,18,29,58)        -64.6931         estimate D2E/DX2                !
 ! D190  D(5,22,23,24)          21.4226         estimate D2E/DX2                !
 ! D191  D(5,22,23,25)        -101.1941         estimate D2E/DX2                !
 ! D192  D(5,22,23,47)         133.7167         estimate D2E/DX2                !
 ! D193  D(45,22,23,24)        143.3258         estimate D2E/DX2                !
 ! D194  D(45,22,23,25)         20.7091         estimate D2E/DX2                !
 ! D195  D(45,22,23,47)       -104.3802         estimate D2E/DX2                !
 ! D196  D(46,22,23,24)        -96.0991         estimate D2E/DX2                !
 ! D197  D(46,22,23,25)        141.2842         estimate D2E/DX2                !
 ! D198  D(46,22,23,47)         16.195          estimate D2E/DX2                !
 ! D199  D(22,23,24,4)         -11.0845         estimate D2E/DX2                !
 ! D200  D(25,23,24,4)         118.304          estimate D2E/DX2                !
 ! D201  D(47,23,24,4)        -127.0602         estimate D2E/DX2                !
 ! D202  D(22,23,25,26)       -172.6304         estimate D2E/DX2                !
 ! D203  D(22,23,25,27)          6.6439         estimate D2E/DX2                !
 ! D204  D(24,23,25,26)         66.7905         estimate D2E/DX2                !
 ! D205  D(24,23,25,27)       -113.9351         estimate D2E/DX2                !
 ! D206  D(47,23,25,26)        -46.236          estimate D2E/DX2                !
 ! D207  D(47,23,25,27)        133.0384         estimate D2E/DX2                !
 ! D208  D(23,25,26,48)       -176.7614         estimate D2E/DX2                !
 ! D209  D(23,25,26,49)        -55.554          estimate D2E/DX2                !
 ! D210  D(23,25,26,50)         62.6714         estimate D2E/DX2                !
 ! D211  D(27,25,26,48)          3.9449         estimate D2E/DX2                !
 ! D212  D(27,25,26,49)        125.1524         estimate D2E/DX2                !
 ! D213  D(27,25,26,50)       -116.6223         estimate D2E/DX2                !
 ! D214  D(23,25,27,51)        179.9248         estimate D2E/DX2                !
 ! D215  D(23,25,27,52)          1.119          estimate D2E/DX2                !
 ! D216  D(26,25,27,51)         -0.8573         estimate D2E/DX2                !
 ! D217  D(26,25,27,52)       -179.6632         estimate D2E/DX2                !
 --------------------------------------------------------------------------------
 Trust Radius=3.00D-01 FncErr=1.00D-07 GrdErr=1.00D-06
 Number of steps in this run=    390 maximum allowed number of steps=    390.
 GradGradGradGradGradGradGradGradGradGradGradGradGradGradGradGradGradGrad

 Stoichiometry    C26H34O5
 Framework group  C1[X(C26H34O5)]
 Deg. of freedom   189
 Full point group                 C1      NOp   1
 Largest Abelian subgroup         C1      NOp   1
 Largest concise Abelian subgroup C1      NOp   1
                         Standard orientation:                         
 ---------------------------------------------------------------------
 Center     Atomic      Atomic             Coordinates (Angstroms)
 Number     Number       Type             X           Y           Z
 ---------------------------------------------------------------------
      1          6           0       -1.918633    1.222375   -2.794622
      2          6           0       -2.380033    2.045107   -1.845417
      3          6           0       -1.948222    1.863523   -0.409140
      4          6           0       -1.579386    0.406315    0.016602
      5          6           0       -1.267138   -0.606296   -1.128050
      6          6           0       -0.985225    0.078771   -2.502292
      7          6           0       -0.406726    0.594980    1.048175
      8          6           0        0.960415    0.283306    0.466430
      9          6           0        1.198002   -0.756199   -0.368084
     10          6           0        0.001995   -1.470665   -0.879002
     11          6           0        2.540709   -1.132072   -0.924874
     12          8           0        2.647637   -1.394061   -2.112387
     13          6           0        3.724312   -1.256102    0.036392
     14          6           0        5.065441   -0.987706   -0.663868
     15          6           0        3.669071   -2.678594    0.639693
     16          8           0        0.038572   -2.637752   -1.233436
     17          6           0       -0.252599    2.107991    1.324872
     18          6           0        1.242477    2.252779    1.684992
     19          8           0        1.877043    1.167705    0.889409
     20          6           0       -0.730583    2.732969    0.001348
     21          8           0       -0.581025   -0.212152    2.191795
     22          6           0       -2.540322   -1.469857   -1.209333
     23          6           0       -3.222949   -1.365871    0.156849
     24          8           0       -2.696671   -0.135007    0.745684
     25          6           0       -3.076471   -2.496976    1.162999
     26          6           0       -3.943403   -2.336880    2.391495
     27          6           0       -2.275662   -3.553520    0.996379
     28          6           0        1.514505    1.959437    3.162306
     29          6           0        1.917236    3.547062    1.242780
     30          1           0       -0.891552    2.418398    2.157112
     31          1           0       -2.781334    2.139104    0.251082
     32          6           0       -3.302691    3.199084   -2.139900
     33          1           0       -2.207981    1.379552   -3.832786
     34          1           0        0.058881    0.420450   -2.540903
     35          1           0       -1.063168   -0.691705   -3.277562
     36          1           0        3.587181   -0.536129    0.851112
     37          1           0        5.873733   -1.245201    0.033887
     38          1           0        5.154739   -1.666080   -1.520049
     39          1           0        2.706870   -2.874012    1.125214
     40          1           0        4.460147   -2.801604    1.387986
     41          1           0        3.812744   -3.432873   -0.141778
     42          1           0       -0.991162    3.791609    0.096680
     43          1           0        0.046383    2.659968   -0.769174
     44          1           0       -1.527979   -0.462238    2.166530
     45          1           0       -2.289479   -2.490107   -1.501606
     46          1           0       -3.208585   -1.054117   -1.968953
     47          1           0       -4.297505   -1.179573    0.028498
     48          1           0       -3.768036   -3.138362    3.114802
     49          1           0       -3.761863   -1.377200    2.892339
     50          1           0       -5.009126   -2.346465    2.122154
     51          1           0       -2.218259   -4.327239    1.758684
     52          1           0       -1.641816   -3.686417    0.126678
     53          1           0        2.592736    1.881311    3.336264
     54          1           0        1.032589    1.027877    3.467697
     55          1           0        1.124901    2.773450    3.784280
     56          1           0        1.807643    3.715686    0.168725
     57          1           0        2.986404    3.512870    1.475655
     58          1           0        1.479757    4.398178    1.776028
     59          1           0       -4.250611    3.098034   -1.593172
     60          1           0       -2.863188    4.156178   -1.826219
     61          1           0       -3.531528    3.269482   -3.208020
     62          6           0        5.237080    0.460261   -1.135621
     63          1           0        5.142170    1.166005   -0.300875
     64          1           0        4.481997    0.720836   -1.884683
     65          1           0        6.222654    0.611129   -1.590807
 ---------------------------------------------------------------------
 Rotational constants (GHZ):      0.1993056      0.1349249      0.1176318
 Standard basis: 6-311+G(d) (5D, 7F)
 There are   784 symmetry adapted basis functions of A   symmetry.
 Integral buffers will be    131072 words long.
 Raffenetti 2 integral format.
 Two-electron integral symmetry is turned on.
   784 basis functions,  1286 primitive gaussians,   815 cartesian basis functions
   115 alpha electrons      115 beta electrons
       nuclear repulsion energy      3530.0123396915 Hartrees.
 NAtoms=   65 NActive=   65 NUniq=   65 SFac= 1.00D+00 NAtFMM=   50 NAOKFM=T Big=T
 One-electron integrals computed using PRISM.
 NBasis=   784 RedAO= T  NBF=   784
 NBsUse=   778 1.00D-06 NBFU=   778
 Harris functional with IExCor=  402 diagonalized for initial guess.
 ExpMin= 4.38D-02 ExpMax= 8.59D+03 ExpMxC= 1.30D+03 IAcc=2 IRadAn=         0 AccDes= 0.00D+00
 HarFok:  IExCor=  402 AccDes= 0.00D+00 IRadAn=         0 IDoV= 1
 ScaDFX=  1.000000  1.000000  1.000000  1.000000
 FoFCou: FMM=F IPFlag=           0 FMFlag=      100000 FMFlg1=        2001
         NFxFlg=           0 DoJE=T BraDBF=F KetDBF=T FulRan=T
         Omega=  0.000000  0.000000  1.000000  0.000000  0.000000 ICntrl=     500 IOpCl=  0
         NMat0=    1 NMatS0=    1 NMatT0=    0 NMatD0=    1 NMtDS0=    0 NMtDT0=    0
         I1Cent=           4 NGrid=           0.
 Petite list used in FoFCou.
 Initial guess orbital symmetries:
       Occupied  (A) (A) (A) (A) (A) (A) (A) (A) (A) (A) (A) (A)
                 (A) (A) (A) (A) (A) (A) (A) (A) (A) (A) (A) (A)
                 (A) (A) (A) (A) (A) (A) (A) (A) (A) (A) (A) (A)
                 (A) (A) (A) (A) (A) (A) (A) (A) (A) (A) (A) (A)
                 (A) (A) (A) (A) (A) (A) (A) (A) (A) (A) (A) (A)
                 (A) (A) (A) (A) (A) (A) (A) (A) (A) (A) (A) (A)
                 (A) (A) (A) (A) (A) (A) (A) (A) (A) (A) (A) (A)
                 (A) (A) (A) (A) (A) (A) (A) (A) (A) (A) (A) (A)
                 (A) (A) (A) (A) (A) (A) (A) (A) (A) (A) (A) (A)
                 (A) (A) (A) (A) (A) (A) (A)
       Virtual   (A) (A) (A) (A) (A) (A) (A) (A) (A) (A) (A) (A)
                 (A) (A) (A) (A) (A) (A) (A) (A) (A) (A) (A) (A)
                 (A) (A) (A) (A) (A) (A) (A) (A) (A) (A) (A) (A)
                 (A) (A) (A) (A) (A) (A) (A) (A) (A) (A) (A) (A)
                 (A) (A) (A) (A) (A) (A) (A) (A) (A) (A) (A) (A)
                 (A) (A) (A) (A) (A) (A) (A) (A) (A) (A) (A) (A)
                 (A) (A) (A) (A) (A) (A) (A) (A) (A) (A) (A) (A)
                 (A) (A) (A) (A) (A) (A) (A) (A) (A) (A) (A) (A)
                 (A) (A) (A) (A) (A) (A) (A) (A) (A) (A) (A) (A)
                 (A) (A) (A) (A) (A) (A) (A) (A) (A) (A) (A) (A)
                 (A) (A) (A) (A) (A) (A) (A) (A) (A) (A) (A) (A)
                 (A) (A) (A) (A) (A) (A) (A) (A) (A) (A) (A) (A)
                 (A) (A) (A) (A) (A) (A) (A) (A) (A) (A) (A) (A)
                 (A) (A) (A) (A) (A) (A) (A) (A) (A) (A) (A) (A)
                 (A) (A) (A) (A) (A) (A) (A) (A) (A) (A) (A) (A)
                 (A) (A) (A) (A) (A) (A) (A) (A) (A) (A) (A) (A)
                 (A) (A) (A) (A) (A) (A) (A) (A) (A) (A) (A) (A)
                 (A) (A) (A) (A) (A) (A) (A) (A) (A) (A) (A) (A)
                 (A) (A) (A) (A) (A) (A) (A) (A) (A) (A) (A) (A)
                 (A) (A) (A) (A) (A) (A) (A) (A) (A) (A) (A) (A)
                 (A) (A) (A) (A) (A) (A) (A) (A) (A) (A) (A) (A)
                 (A) (A) (A) (A) (A) (A) (A) (A) (A) (A) (A) (A)
                 (A) (A) (A) (A) (A) (A) (A) (A) (A) (A) (A) (A)
                 (A) (A) (A) (A) (A) (A) (A) (A) (A) (A) (A) (A)
                 (A) (A) (A) (A) (A) (A) (A) (A) (A) (A) (A) (A)
                 (A) (A) (A) (A) (A) (A) (A) (A) (A) (A) (A) (A)
                 (A) (A) (A) (A) (A) (A) (A) (A) (A) (A) (A) (A)
                 (A) (A) (A) (A) (A) (A) (A) (A) (A) (A) (A) (A)
                 (A) (A) (A) (A) (A) (A) (A) (A) (A) (A) (A) (A)
                 (A) (A) (A) (A) (A) (A) (A) (A) (A) (A) (A) (A)
                 (A) (A) (A) (A) (A) (A) (A) (A) (A) (A) (A) (A)
                 (A) (A) (A) (A) (A) (A) (A) (A) (A) (A) (A) (A)
                 (A) (A) (A) (A) (A) (A) (A) (A) (A) (A) (A) (A)
                 (A) (A) (A) (A) (A) (A) (A) (A) (A) (A) (A) (A)
                 (A) (A) (A) (A) (A) (A) (A) (A) (A) (A) (A) (A)
                 (A) (A) (A) (A) (A) (A) (A) (A) (A) (A) (A) (A)
                 (A) (A) (A) (A) (A) (A) (A) (A) (A) (A) (A) (A)
                 (A) (A) (A) (A) (A) (A) (A) (A) (A) (A) (A) (A)
                 (A) (A) (A) (A) (A) (A) (A) (A) (A) (A) (A) (A)
                 (A) (A) (A) (A) (A) (A) (A) (A) (A) (A) (A) (A)
                 (A) (A) (A) (A) (A) (A) (A) (A) (A) (A) (A) (A)
                 (A) (A) (A) (A) (A) (A) (A) (A) (A) (A) (A) (A)
                 (A) (A) (A) (A) (A) (A) (A) (A) (A) (A) (A) (A)
                 (A) (A) (A) (A) (A) (A) (A) (A) (A) (A) (A) (A)
                 (A) (A) (A) (A) (A) (A) (A) (A) (A) (A) (A) (A)
                 (A) (A) (A) (A) (A) (A) (A) (A) (A) (A) (A) (A)
                 (A) (A) (A) (A) (A) (A) (A) (A) (A) (A) (A) (A)
                 (A) (A) (A) (A) (A) (A) (A) (A) (A) (A) (A) (A)
                 (A) (A) (A) (A) (A) (A) (A) (A) (A) (A) (A) (A)
                 (A) (A) (A) (A) (A) (A) (A) (A) (A) (A) (A) (A)
                 (A) (A) (A) (A) (A) (A) (A) (A) (A) (A) (A) (A)
                 (A) (A) (A) (A) (A) (A) (A) (A) (A) (A) (A) (A)
                 (A) (A) (A) (A) (A) (A) (A) (A) (A) (A) (A) (A)
                 (A) (A) (A) (A) (A) (A) (A) (A) (A) (A) (A) (A)
                 (A) (A) (A) (A) (A) (A) (A) (A) (A) (A) (A) (A)
                 (A) (A) (A)
 The electronic state of the initial guess is 1-A.
 Requested convergence on RMS density matrix=1.00D-08 within 128 cycles.
 Requested convergence on MAX density matrix=1.00D-06.
 Requested convergence on             energy=1.00D-06.
 No special actions if energy rises.
 SCF Done:  E(RB3LYP) =  -1387.64813091     A.U. after   17 cycles
             Convg  =    0.6942D-08             -V/T =  2.0043

 **********************************************************************

            Population analysis using the SCF density.

 **********************************************************************

 Orbital symmetries:
       Occupied  (A) (A) (A) (A) (A) (A) (A) (A) (A) (A) (A) (A)
                 (A) (A) (A) (A) (A) (A) (A) (A) (A) (A) (A) (A)
                 (A) (A) (A) (A) (A) (A) (A) (A) (A) (A) (A) (A)
                 (A) (A) (A) (A) (A) (A) (A) (A) (A) (A) (A) (A)
                 (A) (A) (A) (A) (A) (A) (A) (A) (A) (A) (A) (A)
                 (A) (A) (A) (A) (A) (A) (A) (A) (A) (A) (A) (A)
                 (A) (A) (A) (A) (A) (A) (A) (A) (A) (A) (A) (A)
                 (A) (A) (A) (A) (A) (A) (A) (A) (A) (A) (A) (A)
                 (A) (A) (A) (A) (A) (A) (A) (A) (A) (A) (A) (A)
                 (A) (A) (A) (A) (A) (A) (A)
       Virtual   (A) (A) (A) (A) (A) (A) (A) (A) (A) (A) (A) (A)
                 (A) (A) (A) (A) (A) (A) (A) (A) (A) (A) (A) (A)
                 (A) (A) (A) (A) (A) (A) (A) (A) (A) (A) (A) (A)
                 (A) (A) (A) (A) (A) (A) (A) (A) (A) (A) (A) (A)
                 (A) (A) (A) (A) (A) (A) (A) (A) (A) (A) (A) (A)
                 (A) (A) (A) (A) (A) (A) (A) (A) (A) (A) (A) (A)
                 (A) (A) (A) (A) (A) (A) (A) (A) (A) (A) (A) (A)
                 (A) (A) (A) (A) (A) (A) (A) (A) (A) (A) (A) (A)
                 (A) (A) (A) (A) (A) (A) (A) (A) (A) (A) (A) (A)
                 (A) (A) (A) (A) (A) (A) (A) (A) (A) (A) (A) (A)
                 (A) (A) (A) (A) (A) (A) (A) (A) (A) (A) (A) (A)
                 (A) (A) (A) (A) (A) (A) (A) (A) (A) (A) (A) (A)
                 (A) (A) (A) (A) (A) (A) (A) (A) (A) (A) (A) (A)
                 (A) (A) (A) (A) (A) (A) (A) (A) (A) (A) (A) (A)
                 (A) (A) (A) (A) (A) (A) (A) (A) (A) (A) (A) (A)
                 (A) (A) (A) (A) (A) (A) (A) (A) (A) (A) (A) (A)
                 (A) (A) (A) (A) (A) (A) (A) (A) (A) (A) (A) (A)
                 (A) (A) (A) (A) (A) (A) (A) (A) (A) (A) (A) (A)
                 (A) (A) (A) (A) (A) (A) (A) (A) (A) (A) (A) (A)
                 (A) (A) (A) (A) (A) (A) (A) (A) (A) (A) (A) (A)
                 (A) (A) (A) (A) (A) (A) (A) (A) (A) (A) (A) (A)
                 (A) (A) (A) (A) (A) (A) (A) (A) (A) (A) (A) (A)
                 (A) (A) (A) (A) (A) (A) (A) (A) (A) (A) (A) (A)
                 (A) (A) (A) (A) (A) (A) (A) (A) (A) (A) (A) (A)
                 (A) (A) (A) (A) (A) (A) (A) (A) (A) (A) (A) (A)
                 (A) (A) (A) (A) (A) (A) (A) (A) (A) (A) (A) (A)
                 (A) (A) (A) (A) (A) (A) (A) (A) (A) (A) (A) (A)
                 (A) (A) (A) (A) (A) (A) (A) (A) (A) (A) (A) (A)
                 (A) (A) (A) (A) (A) (A) (A) (A) (A) (A) (A) (A)
                 (A) (A) (A) (A) (A) (A) (A) (A) (A) (A) (A) (A)
                 (A) (A) (A) (A) (A) (A) (A) (A) (A) (A) (A) (A)
                 (A) (A) (A) (A) (A) (A) (A) (A) (A) (A) (A) (A)
                 (A) (A) (A) (A) (A) (A) (A) (A) (A) (A) (A) (A)
                 (A) (A) (A) (A) (A) (A) (A) (A) (A) (A) (A) (A)
                 (A) (A) (A) (A) (A) (A) (A) (A) (A) (A) (A) (A)
                 (A) (A) (A) (A) (A) (A) (A) (A) (A) (A) (A) (A)
                 (A) (A) (A) (A) (A) (A) (A) (A) (A) (A) (A) (A)
                 (A) (A) (A) (A) (A) (A) (A) (A) (A) (A) (A) (A)
                 (A) (A) (A) (A) (A) (A) (A) (A) (A) (A) (A) (A)
                 (A) (A) (A) (A) (A) (A) (A) (A) (A) (A) (A) (A)
                 (A) (A) (A) (A) (A) (A) (A) (A) (A) (A) (A) (A)
                 (A) (A) (A) (A) (A) (A) (A) (A) (A) (A) (A) (A)
                 (A) (A) (A) (A) (A) (A) (A) (A) (A) (A) (A) (A)
                 (A) (A) (A) (A) (A) (A) (A) (A) (A) (A) (A) (A)
                 (A) (A) (A) (A) (A) (A) (A) (A) (A) (A) (A) (A)
                 (A) (A) (A) (A) (A) (A) (A) (A) (A) (A) (A) (A)
                 (A) (A) (A) (A) (A) (A) (A) (A) (A) (A) (A) (A)
                 (A) (A) (A) (A) (A) (A) (A) (A) (A) (A) (A) (A)
                 (A) (A) (A) (A) (A) (A) (A) (A) (A) (A) (A) (A)
                 (A) (A) (A) (A) (A) (A) (A) (A) (A) (A) (A) (A)
                 (A) (A) (A) (A) (A) (A) (A) (A) (A) (A) (A) (A)
                 (A) (A) (A) (A) (A) (A) (A) (A) (A) (A) (A) (A)
                 (A) (A) (A) (A) (A) (A) (A) (A) (A) (A) (A) (A)
                 (A) (A) (A) (A) (A) (A) (A) (A) (A) (A) (A) (A)
                 (A) (A) (A) (A) (A) (A) (A) (A) (A) (A) (A) (A)
                 (A) (A) (A)
 The electronic state is 1-A.
 Alpha  occ. eigenvalues --  -19.17948 -19.14826 -19.13366 -19.11138 -19.10566
 Alpha  occ. eigenvalues --  -10.26494 -10.26411 -10.26099 -10.25725 -10.25705
 Alpha  occ. eigenvalues --  -10.25457 -10.23882 -10.20838 -10.19848 -10.19592
 Alpha  occ. eigenvalues --  -10.19249 -10.18882 -10.18664 -10.18578 -10.18317
 Alpha  occ. eigenvalues --  -10.18130 -10.17754 -10.17659 -10.17626 -10.17297
 Alpha  occ. eigenvalues --  -10.17291 -10.17136 -10.16371 -10.15767 -10.15715
 Alpha  occ. eigenvalues --  -10.14860  -1.10296  -1.07005  -1.04677  -1.03420
 Alpha  occ. eigenvalues --   -1.03353  -0.87874  -0.84842  -0.82948  -0.82119
 Alpha  occ. eigenvalues --   -0.80801  -0.80249  -0.77799  -0.74900  -0.74005
 Alpha  occ. eigenvalues --   -0.73086  -0.72345  -0.70998  -0.69490  -0.68891
 Alpha  occ. eigenvalues --   -0.65754  -0.65055  -0.63995  -0.62716  -0.61715
 Alpha  occ. eigenvalues --   -0.60190  -0.59735  -0.57603  -0.55615  -0.54205
 Alpha  occ. eigenvalues --   -0.54021  -0.52896  -0.51611  -0.50888  -0.50054
 Alpha  occ. eigenvalues --   -0.49341  -0.48580  -0.48007  -0.47470  -0.47049
 Alpha  occ. eigenvalues --   -0.45866  -0.45320  -0.45067  -0.44225  -0.43864
 Alpha  occ. eigenvalues --   -0.43512  -0.43099  -0.42901  -0.42577  -0.42007
 Alpha  occ. eigenvalues --   -0.41754  -0.41649  -0.41272  -0.40970  -0.40826
 Alpha  occ. eigenvalues --   -0.40268  -0.39977  -0.39736  -0.39439  -0.38964
 Alpha  occ. eigenvalues --   -0.38555  -0.38498  -0.38185  -0.37476  -0.36984
 Alpha  occ. eigenvalues --   -0.36669  -0.36283  -0.36216  -0.35629  -0.35581
 Alpha  occ. eigenvalues --   -0.34675  -0.34355  -0.33972  -0.33521  -0.33305
 Alpha  occ. eigenvalues --   -0.32635  -0.32431  -0.31867  -0.28797  -0.28553
 Alpha  occ. eigenvalues --   -0.26375  -0.25924  -0.25403  -0.24642  -0.24098
 Alpha virt. eigenvalues --   -0.05768  -0.03443  -0.01493  -0.01128  -0.00401
 Alpha virt. eigenvalues --    0.00036   0.00375   0.00515   0.01678   0.01874
 Alpha virt. eigenvalues --    0.02119   0.02294   0.02537   0.03321   0.03620
 Alpha virt. eigenvalues --    0.03697   0.04013   0.04289   0.04687   0.04766
 Alpha virt. eigenvalues --    0.05044   0.05528   0.05742   0.06085   0.06158
 Alpha virt. eigenvalues --    0.06289   0.06847   0.07006   0.07203   0.07423
 Alpha virt. eigenvalues --    0.07794   0.08201   0.08252   0.08407   0.08722
 Alpha virt. eigenvalues --    0.08920   0.09121   0.09306   0.09615   0.09988
 Alpha virt. eigenvalues --    0.10130   0.10671   0.10716   0.10946   0.11190
 Alpha virt. eigenvalues --    0.11466   0.11601   0.11989   0.12461   0.12556
 Alpha virt. eigenvalues --    0.12703   0.13084   0.13214   0.13486   0.13660
 Alpha virt. eigenvalues --    0.13899   0.14445   0.14556   0.14661   0.14742
 Alpha virt. eigenvalues --    0.14986   0.15293   0.15541   0.15741   0.16011
 Alpha virt. eigenvalues --    0.16219   0.16393   0.16705   0.16937   0.17267
 Alpha virt. eigenvalues --    0.17391   0.17698   0.17910   0.17990   0.18139
 Alpha virt. eigenvalues --    0.18347   0.18571   0.18792   0.18939   0.19061
 Alpha virt. eigenvalues --    0.19411   0.19488   0.19883   0.19958   0.20310
 Alpha virt. eigenvalues --    0.20343   0.20445   0.20692   0.20899   0.21062
 Alpha virt. eigenvalues --    0.21168   0.21507   0.21564   0.21765   0.21983
 Alpha virt. eigenvalues --    0.22102   0.22290   0.22601   0.22752   0.22982
 Alpha virt. eigenvalues --    0.23059   0.23216   0.23459   0.23906   0.24012
 Alpha virt. eigenvalues --    0.24095   0.24157   0.24449   0.24533   0.24988
 Alpha virt. eigenvalues --    0.25132   0.25364   0.25417   0.25768   0.26019
 Alpha virt. eigenvalues --    0.26177   0.26487   0.26660   0.26782   0.26969
 Alpha virt. eigenvalues --    0.27155   0.27463   0.27752   0.27883   0.28163
 Alpha virt. eigenvalues --    0.28356   0.28546   0.28821   0.28886   0.29145
 Alpha virt. eigenvalues --    0.29376   0.29873   0.29981   0.30378   0.30449
 Alpha virt. eigenvalues --    0.30614   0.31227   0.31563   0.32013   0.32134
 Alpha virt. eigenvalues --    0.32434   0.32663   0.33029   0.33286   0.33658
 Alpha virt. eigenvalues --    0.34008   0.34047   0.34427   0.34691   0.35061
 Alpha virt. eigenvalues --    0.35555   0.35591   0.36239   0.36308   0.36642
 Alpha virt. eigenvalues --    0.37064   0.37219   0.37497   0.37854   0.38071
 Alpha virt. eigenvalues --    0.38444   0.38665   0.39043   0.39841   0.40147
 Alpha virt. eigenvalues --    0.40394   0.40955   0.41195   0.41424   0.42036
 Alpha virt. eigenvalues --    0.42604   0.42872   0.42925   0.43753   0.43982
 Alpha virt. eigenvalues --    0.44733   0.44806   0.45393   0.45742   0.46016
 Alpha virt. eigenvalues --    0.46343   0.46678   0.46734   0.47008   0.47649
 Alpha virt. eigenvalues --    0.48219   0.48385   0.48782   0.49121   0.49692
 Alpha virt. eigenvalues --    0.50071   0.50551   0.50707   0.51232   0.51553
 Alpha virt. eigenvalues --    0.51953   0.52089   0.52706   0.53794   0.54227
 Alpha virt. eigenvalues --    0.54537   0.54828   0.55362   0.55647   0.55996
 Alpha virt. eigenvalues --    0.56397   0.56881   0.57160   0.57488   0.57639
 Alpha virt. eigenvalues --    0.57906   0.58501   0.59108   0.59254   0.59726
 Alpha virt. eigenvalues --    0.60307   0.60361   0.60521   0.61718   0.61896
 Alpha virt. eigenvalues --    0.62508   0.62647   0.63256   0.63431   0.64113
 Alpha virt. eigenvalues --    0.64185   0.64523   0.64783   0.65109   0.65565
 Alpha virt. eigenvalues --    0.66134   0.66525   0.66701   0.67389   0.67765
 Alpha virt. eigenvalues --    0.67990   0.68187   0.68469   0.68929   0.69235
 Alpha virt. eigenvalues --    0.69520   0.69839   0.69876   0.70202   0.70456
 Alpha virt. eigenvalues --    0.70847   0.71068   0.71252   0.71627   0.71799
 Alpha virt. eigenvalues --    0.72013   0.72406   0.72724   0.72858   0.73335
 Alpha virt. eigenvalues --    0.73629   0.73913   0.74128   0.74606   0.74846
 Alpha virt. eigenvalues --    0.75267   0.75489   0.76087   0.76383   0.76549
 Alpha virt. eigenvalues --    0.77129   0.77449   0.77973   0.78322   0.78670
 Alpha virt. eigenvalues --    0.79001   0.79277   0.79812   0.80211   0.80547
 Alpha virt. eigenvalues --    0.80991   0.81519   0.81687   0.82493   0.83018
 Alpha virt. eigenvalues --    0.83500   0.83619   0.83927   0.84046   0.84825
 Alpha virt. eigenvalues --    0.85240   0.86053   0.86460   0.87148   0.88636
 Alpha virt. eigenvalues --    0.88947   0.89888   0.90231   0.90494   0.91917
 Alpha virt. eigenvalues --    0.93622   0.94350   0.94830   0.96494   0.96980
 Alpha virt. eigenvalues --    0.97537   0.97937   0.98483   0.99532   1.00216
 Alpha virt. eigenvalues --    1.00814   1.01537   1.02395   1.03976   1.04640
 Alpha virt. eigenvalues --    1.05416   1.06690   1.07134   1.08256   1.08603
 Alpha virt. eigenvalues --    1.09547   1.11797   1.13285   1.13534   1.14031
 Alpha virt. eigenvalues --    1.14927   1.15931   1.16285   1.18005   1.18566
 Alpha virt. eigenvalues --    1.19269   1.21215   1.21792   1.22580   1.23043
 Alpha virt. eigenvalues --    1.23607   1.24825   1.25628   1.26687   1.27302
 Alpha virt. eigenvalues --    1.27948   1.28887   1.29345   1.31130   1.31499
 Alpha virt. eigenvalues --    1.32501   1.32690   1.34207   1.34675   1.35895
 Alpha virt. eigenvalues --    1.36415   1.37216   1.38099   1.38506   1.39666
 Alpha virt. eigenvalues --    1.40125   1.40468   1.42441   1.43019   1.43040
 Alpha virt. eigenvalues --    1.44527   1.45418   1.45844   1.46138   1.48311
 Alpha virt. eigenvalues --    1.49470   1.49863   1.52065   1.52207   1.52651
 Alpha virt. eigenvalues --    1.53750   1.53992   1.54465   1.55175   1.56365
 Alpha virt. eigenvalues --    1.56669   1.56865   1.57450   1.58106   1.58362
 Alpha virt. eigenvalues --    1.59119   1.59399   1.59886   1.60647   1.60750
 Alpha virt. eigenvalues --    1.61034   1.61554   1.62513   1.62863   1.63063
 Alpha virt. eigenvalues --    1.63212   1.63551   1.64044   1.64543   1.64798
 Alpha virt. eigenvalues --    1.65165   1.65674   1.66204   1.66732   1.67128
 Alpha virt. eigenvalues --    1.67631   1.67818   1.68971   1.69593   1.69843
 Alpha virt. eigenvalues --    1.70073   1.70998   1.71265   1.71502   1.72048
 Alpha virt. eigenvalues --    1.72860   1.73060   1.73463   1.74549   1.75306
 Alpha virt. eigenvalues --    1.76097   1.77080   1.77675   1.78661   1.78971
 Alpha virt. eigenvalues --    1.79735   1.81100   1.81748   1.82887   1.83321
 Alpha virt. eigenvalues --    1.83706   1.84676   1.85457   1.85620   1.87175
 Alpha virt. eigenvalues --    1.87471   1.88773   1.89281   1.90449   1.91266
 Alpha virt. eigenvalues --    1.92091   1.93085   1.94366   1.95209   1.95455
 Alpha virt. eigenvalues --    1.97397   1.97538   1.98229   1.99122   1.99622
 Alpha virt. eigenvalues --    2.01427   2.02485   2.02894   2.03683   2.03989
 Alpha virt. eigenvalues --    2.05408   2.06111   2.08383   2.09039   2.10002
 Alpha virt. eigenvalues --    2.11115   2.12184   2.13535   2.13758   2.15759
 Alpha virt. eigenvalues --    2.16143   2.17192   2.18165   2.19912   2.21013
 Alpha virt. eigenvalues --    2.21781   2.22941   2.24129   2.25672   2.26016
 Alpha virt. eigenvalues --    2.26522   2.27602   2.29194   2.31659   2.32091
 Alpha virt. eigenvalues --    2.34218   2.34723   2.36023   2.37727   2.38642
 Alpha virt. eigenvalues --    2.40365   2.43653   2.47846   2.48287   2.50761
 Alpha virt. eigenvalues --    2.51404   2.52310   2.52762   2.53096   2.54148
 Alpha virt. eigenvalues --    2.54975   2.55651   2.56839   2.57369   2.57633
 Alpha virt. eigenvalues --    2.58332   2.58573   2.59090   2.59902   2.60846
 Alpha virt. eigenvalues --    2.61640   2.63250   2.64059   2.64402   2.65471
 Alpha virt. eigenvalues --    2.66288   2.67790   2.68739   2.68826   2.69655
 Alpha virt. eigenvalues --    2.71074   2.71571   2.71947   2.72763   2.74033
 Alpha virt. eigenvalues --    2.74825   2.76083   2.80189   2.81203   2.83109
 Alpha virt. eigenvalues --    2.86208   2.86615   2.87069   2.88578   2.89653
 Alpha virt. eigenvalues --    2.90494   2.91995   2.93233   2.93668   2.94727
 Alpha virt. eigenvalues --    2.95077   2.96554   2.97127   2.97489   2.98518
 Alpha virt. eigenvalues --    2.99623   3.00202   3.00613   3.03495   3.03750
 Alpha virt. eigenvalues --    3.03952   3.04523   3.05109   3.06165   3.06780
 Alpha virt. eigenvalues --    3.08924   3.09672   3.11326   3.12509   3.13122
 Alpha virt. eigenvalues --    3.13388   3.14763   3.15866   3.16297   3.16669
 Alpha virt. eigenvalues --    3.17536   3.18067   3.19799   3.21150   3.21460
 Alpha virt. eigenvalues --    3.22446   3.23539   3.23957   3.24740   3.25564
 Alpha virt. eigenvalues --    3.26215   3.27667   3.27811   3.29223   3.29493
 Alpha virt. eigenvalues --    3.30871   3.31007   3.31900   3.33083   3.33917
 Alpha virt. eigenvalues --    3.34341   3.35244   3.36338   3.36732   3.37968
 Alpha virt. eigenvalues --    3.38732   3.39562   3.40209   3.40876   3.42225
 Alpha virt. eigenvalues --    3.44914   3.46009   3.47688   3.50825   3.52019
 Alpha virt. eigenvalues --    3.53192   3.54311   3.58572   3.60770   3.65452
 Alpha virt. eigenvalues --    3.75134   3.76779   3.78130   3.79205   3.85950
 Alpha virt. eigenvalues --    3.89935   3.92090   3.95011   3.97864   4.01291
 Alpha virt. eigenvalues --    4.02565   4.05302   4.05929   4.07860   4.09768
 Alpha virt. eigenvalues --    4.11881   4.15975   4.17747   4.18456   4.21321
 Alpha virt. eigenvalues --    4.23679   4.25450   4.26579   4.28374   4.32602
 Alpha virt. eigenvalues --    4.45276   4.55933   5.14923   5.16732   5.19049
 Alpha virt. eigenvalues --    5.21597   5.26440   5.28656   5.31998   5.33287
 Alpha virt. eigenvalues --    5.41832   5.42182   5.56996   5.70405   5.72788
 Alpha virt. eigenvalues --    5.78562   5.82873  23.47558  23.48204  23.50935
 Alpha virt. eigenvalues --   23.53219  23.62167  23.62341  23.65143  23.67008
 Alpha virt. eigenvalues --   23.67193  23.69932  23.72364  23.73989  23.75935
 Alpha virt. eigenvalues --   23.78488  23.79251  23.81096  23.82277  23.84938
 Alpha virt. eigenvalues --   23.86398  23.88546  23.90232  23.91132  23.95467
 Alpha virt. eigenvalues --   24.18441  24.21202  24.22019  49.98884  49.99980
 Alpha virt. eigenvalues --   50.02582  50.03108  50.07048
          Condensed to atoms (all electrons):
 Mulliken atomic charges:
              1
     1  C   -0.678862
     2  C    0.922400
     3  C   -0.080491
     4  C    0.284675
     5  C    1.076825
     6  C   -1.136781
     7  C   -1.207764
     8  C   -0.054507
     9  C    0.519628
    10  C   -0.348696
    11  C   -0.601917
    12  O   -0.170901
    13  C    0.312072
    14  C   -0.315064
    15  C   -1.089423
    16  O   -0.180639
    17  C   -0.790757
    18  C    0.997508
    19  O    0.188258
    20  C   -1.138655
    21  O    0.013720
    22  C   -0.488152
    23  C   -0.018125
    24  O   -0.038316
    25  C    0.914503
    26  C   -1.081857
    27  C   -1.025944
    28  C   -0.701286
    29  C   -0.615912
    30  H    0.239963
    31  H    0.256336
    32  C   -1.186458
    33  H    0.210528
    34  H    0.280993
    35  H    0.265298
    36  H    0.232618
    37  H    0.218190
    38  H    0.259991
    39  H    0.279022
    40  H    0.253876
    41  H    0.274552
    42  H    0.258923
    43  H    0.289358
    44  H    0.244675
    45  H    0.277104
    46  H    0.256099
    47  H    0.215124
    48  H    0.250781
    49  H    0.250150
    50  H    0.262018
    51  H    0.213317
    52  H    0.257204
    53  H    0.260243
    54  H    0.314490
    55  H    0.245687
    56  H    0.262587
    57  H    0.269868
    58  H    0.262844
    59  H    0.261150
    60  H    0.243776
    61  H    0.251635
    62  C   -0.923406
    63  H    0.227133
    64  H    0.255180
    65  H    0.243608
 Sum of Mulliken atomic charges =   0.00000
 Mulliken charges with hydrogens summed into heavy atoms:
              1
     1  C   -0.468334
     2  C    0.922400
     3  C    0.175846
     4  C    0.284675
     5  C    1.076825
     6  C   -0.590490
     7  C   -1.207764
     8  C   -0.054507
     9  C    0.519628
    10  C   -0.348696
    11  C   -0.601917
    12  O   -0.170901
    13  C    0.544690
    14  C    0.163117
    15  C   -0.281974
    16  O   -0.180639
    17  C   -0.550794
    18  C    0.997508
    19  O    0.188258
    20  C   -0.590374
    21  O    0.258395
    22  C    0.045051
    23  C    0.196999
    24  O   -0.038316
    25  C    0.914503
    26  C   -0.318907
    27  C   -0.555423
    28  C    0.119134
    29  C    0.179387
    32  C   -0.429897
    62  C   -0.197485
 Sum of Mulliken charges with hydrogens summed into heavy atoms =   0.00000
 Electronic spatial extent (au):  <R**2>=          11179.7769
 Charge=              0.0000 electrons
 Dipole moment (field-independent basis, Debye):
    X=             -3.0015    Y=              5.1751    Z=              2.6211  Tot=              6.5315
 Quadrupole moment (field-independent basis, Debye-Ang):
   XX=           -183.4053   YY=           -185.9066   ZZ=           -191.5446
   XY=              3.6621   XZ=              9.7865   YZ=             -4.4345
 Traceless Quadrupole moment (field-independent basis, Debye-Ang):
   XX=              3.5469   YY=              1.0455   ZZ=             -4.5924
   XY=              3.6621   XZ=              9.7865   YZ=             -4.4345
 Octapole moment (field-independent basis, Debye-Ang**2):
  XXX=            -12.3284  YYY=             43.0608  ZZZ=             11.1342  XYY=             -8.5225
  XXY=             -4.6425  XXZ=             24.5017  XZZ=            -27.7114  YZZ=             19.7908
  YYZ=             40.1276  XYZ=              1.8002
 Hexadecapole moment (field-independent basis, Debye-Ang**3):
 XXXX=          -7833.4528 YYYY=          -4525.4126 ZZZZ=          -2943.0905 XXXY=            -12.2954
 XXXZ=             35.5572 YYYX=            -14.7126 YYYZ=             -5.4536 ZZZX=             56.5411
 ZZZY=              1.4279 XXYY=          -2075.3966 XXZZ=          -1819.3570 YYZZ=          -1229.9667
 XXYZ=            -36.8267 YYXZ=              6.3840 ZZXY=             48.5734
 N-N= 3.530012339691D+03 E-N=-1.029307128934D+04  KE= 1.381707787831D+03
 Calling FoFJK, ICntrl=      2127 FMM=T ISym2X=0 I1Cent= 0 IOpClX= 0 NMat=1 NMatS=1 NMatT=0.
 ***** Axes restored to original set *****
 -------------------------------------------------------------------
 Center     Atomic                   Forces (Hartrees/Bohr)
 Number     Number              X              Y              Z
 -------------------------------------------------------------------
      1        6          -0.000709858    0.001490474    0.002147692
      2        6           0.000799780   -0.001357004   -0.001766087
      3        6           0.000237902    0.000360203    0.000191901
      4        6           0.000290996    0.001206358   -0.000467990
      5        6          -0.000306587   -0.000346703   -0.000337780
      6        6           0.000257621   -0.000221161    0.000029599
      7        6           0.002301867    0.001631090   -0.002390325
      8        6           0.002779198   -0.001865620   -0.001064398
      9        6          -0.001508914    0.001985035    0.000676044
     10        6           0.001111359   -0.007119670   -0.002869117
     11        6           0.001079277   -0.002075553   -0.006734504
     12        8          -0.000682609    0.002220893    0.008396385
     13        6           0.000229742    0.000268441   -0.000102919
     14        6          -0.000107123   -0.000136957   -0.000034818
     15        6          -0.000372080   -0.000193658   -0.000332579
     16        8          -0.000500470    0.008705672    0.002932879
     17        6          -0.000326284    0.000018391    0.000446289
     18        6           0.000045707    0.001410561    0.000919003
     19        8          -0.002140588   -0.002387822   -0.001350619
     20        6           0.000353164    0.000067465   -0.000392226
     21        8          -0.006156830    0.000020681   -0.000249747
     22        6          -0.000124154   -0.000011048    0.000265862
     23        6          -0.001389894   -0.001887380   -0.000894436
     24        8           0.000200545   -0.000140594   -0.000784083
     25        6           0.000575237   -0.002420336    0.000055010
     26        6          -0.000018495    0.000347653    0.000192896
     27        6          -0.001388481    0.001929028    0.000006988
     28        6          -0.000341090    0.000142272   -0.000354816
     29        6          -0.000487951   -0.000286061    0.000093060
     30        1           0.000794988   -0.000467191   -0.000888765
     31        1           0.000894766   -0.000238101   -0.001019900
     32        6          -0.000150332    0.000351932    0.000172909
     33        1           0.000202481   -0.000206296    0.000848212
     34        1          -0.001699638   -0.000267512   -0.000385770
     35        1           0.000378314    0.001210346    0.000936021
     36        1           0.000083429   -0.000886915   -0.001062183
     37        1          -0.000941332    0.000033389   -0.000976987
     38        1           0.000613191    0.000665104    0.001351209
     39        1           0.001647106   -0.000157481   -0.000420938
     40        1          -0.001247035    0.000117040   -0.001005228
     41        1          -0.000167249    0.000784660    0.001525999
     42        1           0.000499792   -0.001501392   -0.000130839
     43        1          -0.001202938    0.000400475    0.000966535
     44        1           0.004778308   -0.000282115    0.002772579
     45        1          -0.001038415    0.001508327    0.000353545
     46        1           0.000779953   -0.000994983    0.000888588
     47        1           0.001548255   -0.000080058    0.000113623
     48        1          -0.000432725    0.001279451   -0.000949962
     49        1          -0.000510565   -0.001539643   -0.000475049
     50        1           0.001615807   -0.000059386    0.000479924
     51        1           0.000001911    0.000633038   -0.000811552
     52        1          -0.000949579   -0.000109868    0.000995287
     53        1          -0.001596781    0.000127312    0.000105814
     54        1           0.001175769    0.001603952    0.000212133
     55        1           0.000609528   -0.001282215   -0.000598217
     56        1           0.000375383    0.000087429    0.001695527
     57        1          -0.001607781    0.000374623   -0.000343857
     58        1           0.000790146   -0.000909553   -0.000884285
     59        1           0.001351949    0.000176215   -0.000921463
     60        1          -0.000750596   -0.001324332   -0.000599261
     61        1           0.000207118    0.000087423    0.001669743
     62        6          -0.000231090   -0.000010082    0.000093835
     63        1           0.000419230   -0.000742109   -0.001374222
[...]
                 (A) (A) (A) (A) (A) (A) (A) (A) (A) (A) (A) (A)
                 (A) (A) (A)
 The electronic state is 1-A.
 Alpha  occ. eigenvalues --  -19.17812 -19.14662 -19.13284 -19.11069 -19.10700
 Alpha  occ. eigenvalues --  -10.26390 -10.26194 -10.26054 -10.25719 -10.25651
 Alpha  occ. eigenvalues --  -10.25395 -10.23802 -10.20755 -10.19720 -10.19477
 Alpha  occ. eigenvalues --  -10.19134 -10.18772 -10.18669 -10.18472 -10.18120
 Alpha  occ. eigenvalues --  -10.18005 -10.17655 -10.17532 -10.17511 -10.17284
 Alpha  occ. eigenvalues --  -10.17199 -10.17049 -10.16376 -10.15656 -10.15641
 Alpha  occ. eigenvalues --  -10.14710  -1.10191  -1.06811  -1.04931  -1.03822
 Alpha  occ. eigenvalues --   -1.03287  -0.87939  -0.84864  -0.83007  -0.82178
 Alpha  occ. eigenvalues --   -0.80857  -0.80325  -0.77820  -0.74927  -0.74012
 Alpha  occ. eigenvalues --   -0.73138  -0.72365  -0.71041  -0.69575  -0.68941
 Alpha  occ. eigenvalues --   -0.65739  -0.65053  -0.64067  -0.62759  -0.61687
 Alpha  occ. eigenvalues --   -0.60171  -0.59785  -0.57662  -0.55657  -0.54290
 Alpha  occ. eigenvalues --   -0.53958  -0.52906  -0.51653  -0.50902  -0.50046
 Alpha  occ. eigenvalues --   -0.49375  -0.48563  -0.48132  -0.47493  -0.47026
 Alpha  occ. eigenvalues --   -0.45897  -0.45330  -0.45149  -0.44258  -0.43967
 Alpha  occ. eigenvalues --   -0.43467  -0.43143  -0.42888  -0.42642  -0.42038
 Alpha  occ. eigenvalues --   -0.41804  -0.41679  -0.41268  -0.40962  -0.40821
 Alpha  occ. eigenvalues --   -0.40271  -0.39995  -0.39767  -0.39426  -0.38978
 Alpha  occ. eigenvalues --   -0.38534  -0.38454  -0.38207  -0.37460  -0.36963
 Alpha  occ. eigenvalues --   -0.36767  -0.36360  -0.36234  -0.35657  -0.35559
 Alpha  occ. eigenvalues --   -0.34645  -0.34315  -0.34005  -0.33500  -0.33288
 Alpha  occ. eigenvalues --   -0.32662  -0.32436  -0.31911  -0.28757  -0.28466
 Alpha  occ. eigenvalues --   -0.26431  -0.25912  -0.25394  -0.24616  -0.24081
 Alpha virt. eigenvalues --   -0.05590  -0.03214  -0.01466  -0.01104  -0.00378
 Alpha virt. eigenvalues --    0.00063   0.00403   0.00518   0.01699   0.01901
 Alpha virt. eigenvalues --    0.02100   0.02338   0.02544   0.03298   0.03617
 Alpha virt. eigenvalues --    0.03790   0.03982   0.04252   0.04667   0.04783
 Alpha virt. eigenvalues --    0.05065   0.05537   0.05820   0.06013   0.06163
 Alpha virt. eigenvalues --    0.06292   0.06763   0.07042   0.07241   0.07395
 Alpha virt. eigenvalues --    0.07869   0.08268   0.08300   0.08467   0.08707
 Alpha virt. eigenvalues --    0.08967   0.09050   0.09281   0.09606   0.10000
 Alpha virt. eigenvalues --    0.10153   0.10649   0.10686   0.11026   0.11129
 Alpha virt. eigenvalues --    0.11431   0.11775   0.12042   0.12451   0.12504
 Alpha virt. eigenvalues --    0.12748   0.13128   0.13316   0.13458   0.13573
 Alpha virt. eigenvalues --    0.13807   0.14446   0.14548   0.14662   0.14821
 Alpha virt. eigenvalues --    0.15020   0.15322   0.15510   0.15780   0.15955
 Alpha virt. eigenvalues --    0.16350   0.16389   0.16732   0.16891   0.17367
 Alpha virt. eigenvalues --    0.17523   0.17694   0.17964   0.18001   0.18107
 Alpha virt. eigenvalues --    0.18495   0.18612   0.18705   0.18988   0.19149
 Alpha virt. eigenvalues --    0.19365   0.19620   0.19876   0.19975   0.20251
 Alpha virt. eigenvalues --    0.20399   0.20551   0.20722   0.20987   0.21062
 Alpha virt. eigenvalues --    0.21235   0.21651   0.21762   0.21912   0.21987
 Alpha virt. eigenvalues --    0.22154   0.22310   0.22690   0.22770   0.22978
 Alpha virt. eigenvalues --    0.23053   0.23251   0.23522   0.23924   0.24098
 Alpha virt. eigenvalues --    0.24201   0.24210   0.24503   0.24675   0.24975
 Alpha virt. eigenvalues --    0.25156   0.25421   0.25492   0.25668   0.26051
 Alpha virt. eigenvalues --    0.26160   0.26423   0.26756   0.26903   0.27034
 Alpha virt. eigenvalues --    0.27192   0.27644   0.27735   0.27899   0.28104
 Alpha virt. eigenvalues --    0.28362   0.28549   0.28974   0.29075   0.29294
 Alpha virt. eigenvalues --    0.29524   0.29880   0.30080   0.30418   0.30513
 Alpha virt. eigenvalues --    0.30693   0.31070   0.31590   0.31954   0.32292
 Alpha virt. eigenvalues --    0.32437   0.32744   0.33260   0.33336   0.33618
 Alpha virt. eigenvalues --    0.34116   0.34278   0.34518   0.34561   0.35180
 Alpha virt. eigenvalues --    0.35532   0.35774   0.36248   0.36489   0.36567
 Alpha virt. eigenvalues --    0.37043   0.37154   0.37271   0.37978   0.38128
 Alpha virt. eigenvalues --    0.38471   0.38762   0.38868   0.39777   0.40082
 Alpha virt. eigenvalues --    0.40382   0.41035   0.41296   0.41497   0.42154
 Alpha virt. eigenvalues --    0.42544   0.43011   0.43097   0.43831   0.44279
 Alpha virt. eigenvalues --    0.44813   0.45062   0.45498   0.45720   0.45928
 Alpha virt. eigenvalues --    0.46366   0.46474   0.46784   0.47096   0.47567
 Alpha virt. eigenvalues --    0.47880   0.48388   0.49065   0.49187   0.49695
 Alpha virt. eigenvalues --    0.49989   0.50698   0.50984   0.51282   0.51437
 Alpha virt. eigenvalues --    0.51970   0.52127   0.52488   0.53972   0.54273
 Alpha virt. eigenvalues --    0.54671   0.54852   0.55473   0.55712   0.56084
 Alpha virt. eigenvalues --    0.56214   0.56525   0.57253   0.57619   0.57829
 Alpha virt. eigenvalues --    0.58188   0.58199   0.59016   0.59329   0.59728
 Alpha virt. eigenvalues --    0.60169   0.60478   0.60761   0.61461   0.61943
 Alpha virt. eigenvalues --    0.62509   0.62755   0.63275   0.63524   0.64086
 Alpha virt. eigenvalues --    0.64299   0.64541   0.64922   0.65152   0.65783
 Alpha virt. eigenvalues --    0.66067   0.66516   0.66821   0.67579   0.67823
 Alpha virt. eigenvalues --    0.68023   0.68254   0.68596   0.68949   0.69061
 Alpha virt. eigenvalues --    0.69576   0.69868   0.70022   0.70262   0.70669
 Alpha virt. eigenvalues --    0.70952   0.71093   0.71112   0.71334   0.71751
 Alpha virt. eigenvalues --    0.72460   0.72518   0.72701   0.72804   0.73455
 Alpha virt. eigenvalues --    0.73744   0.73976   0.74083   0.74669   0.75013
 Alpha virt. eigenvalues --    0.75527   0.75777   0.76102   0.76620   0.76931
 Alpha virt. eigenvalues --    0.77098   0.77549   0.77840   0.78450   0.78732
 Alpha virt. eigenvalues --    0.79037   0.79365   0.80041   0.80329   0.80741
 Alpha virt. eigenvalues --    0.81063   0.81509   0.81839   0.82466   0.82775
 Alpha virt. eigenvalues --    0.83287   0.83644   0.83937   0.84084   0.84857
 Alpha virt. eigenvalues --    0.85346   0.85920   0.86206   0.87023   0.88605
 Alpha virt. eigenvalues --    0.88955   0.90094   0.90715   0.90867   0.91804
 Alpha virt. eigenvalues --    0.93378   0.94259   0.94521   0.96596   0.96951
 Alpha virt. eigenvalues --    0.97191   0.98009   0.99011   0.99554   1.00093
 Alpha virt. eigenvalues --    1.00469   1.01785   1.02460   1.03979   1.04573
 Alpha virt. eigenvalues --    1.05701   1.06238   1.07365   1.07742   1.08585
 Alpha virt. eigenvalues --    1.09669   1.11636   1.12954   1.13716   1.13834
 Alpha virt. eigenvalues --    1.14910   1.15976   1.16476   1.17673   1.19334
 Alpha virt. eigenvalues --    1.19736   1.20914   1.21998   1.22536   1.23244
 Alpha virt. eigenvalues --    1.23641   1.24570   1.25767   1.26406   1.27168
 Alpha virt. eigenvalues --    1.28195   1.28741   1.29630   1.31029   1.31279
 Alpha virt. eigenvalues --    1.32300   1.33095   1.34177   1.35000   1.36058
 Alpha virt. eigenvalues --    1.36698   1.37004   1.38077   1.39099   1.39234
 Alpha virt. eigenvalues --    1.39955   1.40484   1.42033   1.43010   1.43125
 Alpha virt. eigenvalues --    1.44611   1.45220   1.45679   1.46281   1.48633
 Alpha virt. eigenvalues --    1.49688   1.50005   1.51935   1.52118   1.52538
 Alpha virt. eigenvalues --    1.53661   1.54281   1.54317   1.54943   1.56331
 Alpha virt. eigenvalues --    1.56499   1.56853   1.57634   1.58248   1.58661
 Alpha virt. eigenvalues --    1.59108   1.59687   1.59949   1.60626   1.60867
 Alpha virt. eigenvalues --    1.61049   1.61667   1.62619   1.62944   1.63099
 Alpha virt. eigenvalues --    1.63374   1.63560   1.64016   1.64568   1.64763
 Alpha virt. eigenvalues --    1.65337   1.65833   1.66179   1.66965   1.67213
 Alpha virt. eigenvalues --    1.67617   1.67952   1.68983   1.69638   1.70101
 Alpha virt. eigenvalues --    1.70368   1.70887   1.71536   1.71548   1.72085
 Alpha virt. eigenvalues --    1.72761   1.73230   1.73661   1.74743   1.75505
 Alpha virt. eigenvalues --    1.75882   1.77073   1.77884   1.78454   1.79026
 Alpha virt. eigenvalues --    1.79566   1.81199   1.81911   1.83065   1.83474
 Alpha virt. eigenvalues --    1.83949   1.84742   1.85537   1.86099   1.87240
 Alpha virt. eigenvalues --    1.87767   1.88837   1.89603   1.90337   1.91194
 Alpha virt. eigenvalues --    1.92223   1.92847   1.94466   1.95551   1.95645
 Alpha virt. eigenvalues --    1.97511   1.97752   1.98704   1.99425   1.99974
 Alpha virt. eigenvalues --    2.01294   2.02457   2.03132   2.03758   2.04291
 Alpha virt. eigenvalues --    2.05572   2.06249   2.08753   2.09129   2.09792
 Alpha virt. eigenvalues --    2.10998   2.12298   2.13622   2.14227   2.15839
 Alpha virt. eigenvalues --    2.16868   2.17415   2.18347   2.20313   2.21327
 Alpha virt. eigenvalues --    2.21976   2.23110   2.24435   2.25713   2.26092
 Alpha virt. eigenvalues --    2.26893   2.27570   2.29461   2.31659   2.32415
 Alpha virt. eigenvalues --    2.34443   2.34913   2.36246   2.37930   2.38771
 Alpha virt. eigenvalues --    2.40584   2.43976   2.47695   2.48330   2.50948
 Alpha virt. eigenvalues --    2.51405   2.52140   2.52569   2.52950   2.54430
 Alpha virt. eigenvalues --    2.55064   2.55752   2.56764   2.57297   2.57749
 Alpha virt. eigenvalues --    2.58168   2.58656   2.59144   2.59914   2.60528
 Alpha virt. eigenvalues --    2.61501   2.63445   2.64270   2.64701   2.66081
 Alpha virt. eigenvalues --    2.66421   2.67952   2.68776   2.68998   2.69708
 Alpha virt. eigenvalues --    2.71192   2.71329   2.72051   2.72780   2.74118
 Alpha virt. eigenvalues --    2.75229   2.76075   2.80173   2.81301   2.83440
 Alpha virt. eigenvalues --    2.86258   2.86688   2.87367   2.88626   2.89505
 Alpha virt. eigenvalues --    2.90320   2.92366   2.93271   2.93600   2.94674
 Alpha virt. eigenvalues --    2.95311   2.96453   2.97114   2.97609   2.98635
 Alpha virt. eigenvalues --    3.00174   3.00530   3.01029   3.03434   3.03687
 Alpha virt. eigenvalues --    3.04255   3.04622   3.05383   3.06664   3.06997
 Alpha virt. eigenvalues --    3.08690   3.09917   3.11548   3.12500   3.12985
 Alpha virt. eigenvalues --    3.13887   3.14992   3.15991   3.16365   3.16934
 Alpha virt. eigenvalues --    3.17895   3.18386   3.19979   3.21376   3.21674
 Alpha virt. eigenvalues --    3.22803   3.24198   3.24353   3.25111   3.25929
 Alpha virt. eigenvalues --    3.26458   3.27958   3.28137   3.29764   3.29870
 Alpha virt. eigenvalues --    3.31303   3.31383   3.32510   3.32891   3.33612
 Alpha virt. eigenvalues --    3.34851   3.35414   3.36587   3.36884   3.38634
 Alpha virt. eigenvalues --    3.39012   3.40461   3.40955   3.41504   3.42583
 Alpha virt. eigenvalues --    3.45396   3.46457   3.47915   3.51304   3.52286
 Alpha virt. eigenvalues --    3.53492   3.54677   3.59212   3.61132   3.65923
 Alpha virt. eigenvalues --    3.75773   3.77323   3.78489   3.79279   3.85949
 Alpha virt. eigenvalues --    3.90183   3.92677   3.95478   3.98256   4.01785
 Alpha virt. eigenvalues --    4.02898   4.05507   4.06463   4.07930   4.09871
 Alpha virt. eigenvalues --    4.12074   4.16215   4.17883   4.18355   4.21616
 Alpha virt. eigenvalues --    4.23970   4.25700   4.26989   4.28331   4.32478
 Alpha virt. eigenvalues --    4.45155   4.56113   5.14768   5.16334   5.18658
 Alpha virt. eigenvalues --    5.21396   5.26584   5.28341   5.32726   5.33643
 Alpha virt. eigenvalues --    5.41879   5.41948   5.56685   5.70929   5.73263
 Alpha virt. eigenvalues --    5.78708   5.83284  23.47408  23.48593  23.51051
 Alpha virt. eigenvalues --   23.53504  23.62343  23.62677  23.65334  23.67219
 Alpha virt. eigenvalues --   23.67444  23.70172  23.72580  23.74351  23.76241
 Alpha virt. eigenvalues --   23.78564  23.79523  23.81099  23.82549  23.85405
 Alpha virt. eigenvalues --   23.86870  23.88661  23.90496  23.91857  23.96273
 Alpha virt. eigenvalues --   24.20072  24.22197  24.23367  49.98859  49.99812
 Alpha virt. eigenvalues --   50.02810  50.03140  50.07474
          Condensed to atoms (all electrons):
 Mulliken atomic charges:
              1
     1  C   -0.731186
     2  C    0.967685
     3  C   -0.069359
     4  C    0.155209
     5  C    1.114568
     6  C   -1.116051
     7  C   -1.229387
     8  C   -0.014943
     9  C    0.558793
    10  C   -0.394258
    11  C   -0.631870
    12  O   -0.171413
    13  C    0.276520
    14  C   -0.257674
    15  C   -1.082933
    16  O   -0.179328
    17  C   -0.769900
    18  C    1.018221
    19  O    0.192711
    20  C   -1.165558
    21  O   -0.003895
    22  C   -0.426565
    23  C   -0.082445
    24  O   -0.036686
    25  C    0.954339
    26  C   -1.064681
    27  C   -1.040187
    28  C   -0.699102
    29  C   -0.602222
    30  H    0.240040
    31  H    0.257580
    32  C   -1.169198
    33  H    0.210024
    34  H    0.275987
    35  H    0.264253
    36  H    0.234697
    37  H    0.218024
    38  H    0.258801
    39  H    0.285497
    40  H    0.256031
    41  H    0.274151
    42  H    0.259284
    43  H    0.287984
    44  H    0.256830
    45  H    0.270639
    46  H    0.256209
    47  H    0.215068
    48  H    0.250854
    49  H    0.251103
    50  H    0.261498
    51  H    0.214883
    52  H    0.251413
    53  H    0.261422
    54  H    0.312244
    55  H    0.246103
    56  H    0.263050
    57  H    0.270013
    58  H    0.263028
    59  H    0.261486
    60  H    0.244337
    61  H    0.251660
    62  C   -0.954335
    63  H    0.228275
    64  H    0.259246
    65  H    0.243415
 Sum of Mulliken atomic charges =   0.00000
 Mulliken charges with hydrogens summed into heavy atoms:
              1
     1  C   -0.521162
     2  C    0.967685
     3  C    0.188221
     4  C    0.155209
     5  C    1.114568
     6  C   -0.575812
     7  C   -1.229387
     8  C   -0.014943
     9  C    0.558793
    10  C   -0.394258
    11  C   -0.631870
    12  O   -0.171413
    13  C    0.511217
    14  C    0.219150
    15  C   -0.267253
    16  O   -0.179328
    17  C   -0.529860
    18  C    1.018221
    19  O    0.192711
    20  C   -0.618290
    21  O    0.252935
    22  C    0.100282
    23  C    0.132623
    24  O   -0.036686
    25  C    0.954339
    26  C   -0.301226
    27  C   -0.573892
    28  C    0.120668
    29  C    0.193870
    32  C   -0.411716
    62  C   -0.223398
 Sum of Mulliken charges with hydrogens summed into heavy atoms =   0.00000
 Electronic spatial extent (au):  <R**2>=          11252.5677
 Charge=              0.0000 electrons
 Dipole moment (field-independent basis, Debye):
    X=             -3.2089    Y=              4.8839    Z=              2.6710  Tot=              6.4252
 Quadrupole moment (field-independent basis, Debye-Ang):
   XX=           -183.6037   YY=           -184.1809   ZZ=           -192.2300
   XY=              3.2318   XZ=              9.9432   YZ=             -4.3103
 Traceless Quadrupole moment (field-independent basis, Debye-Ang):
   XX=              3.0678   YY=              2.4907   ZZ=             -5.5585
   XY=              3.2318   XZ=              9.9432   YZ=             -4.3103
 Octapole moment (field-independent basis, Debye-Ang**2):
  XXX=            -14.1737  YYY=             42.1458  ZZZ=             12.6306  XYY=             -6.4524
  XXY=             -4.2571  XXZ=             24.6611  XZZ=            -29.5917  YZZ=             17.3298
  YYZ=             39.5663  XYZ=              2.6075
 Hexadecapole moment (field-independent basis, Debye-Ang**3):
 XXXX=          -7957.3442 YYYY=          -4589.0503 ZZZZ=          -2850.1453 XXXY=            -21.1674
 XXXZ=             40.9171 YYYX=            -10.3190 YYYZ=             -1.7469 ZZZX=             56.8517
 ZZZY=             -1.0682 XXYY=          -2100.3185 XXZZ=          -1824.7486 YYZZ=          -1225.1326
 XXYZ=            -35.9126 YYXZ=              0.5778 ZZXY=             48.1694
 N-N= 3.526014112392D+03 E-N=-1.028527663644D+04  KE= 1.381919213552D+03
 1\1\GINC-B0803\FOpt\RB3LYP\6-311+G(d)\C26H34O5\CAOFEI\13-Apr-2021\0\\#
  opt b3lyp/6-311+g(d) geom=connectivity\\Title Card Required\\0,1\C,-2
 .0143095061,1.2523910552,-2.7591282631\C,-2.4811260758,2.0417954978,-1
 .7889831157\C,-1.9881815745,1.8635850586,-0.3736895381\C,-1.5663340226
 ,0.4142554637,0.0285893964\C,-1.2534293183,-0.5695630843,-1.140385846\
 C,-1.0203724549,0.1534860485,-2.5020897558\C,-0.3729250667,0.635212259
 9,1.0287007158\C,0.9854269541,0.3407706398,0.4222794151\C,1.2231733869
 ,-0.6888207485,-0.4175129593\C,0.0383679142,-1.4113738531,-0.932336020
 4\C,2.5812346229,-1.0582781046,-0.9527712551\O,2.735357308,-1.21630135
 16,-2.1464604344\C,3.704256441,-1.3004057728,0.0547789782\C,5.09822237
 99,-1.1260802864,-0.5624126765\C,3.5089778548,-2.7225445307,0.62631958
 89\O,0.0919684011,-2.5636727561,-1.3149329602\C,-0.2420975842,2.148956
 482,1.2943156037\C,1.2571433378,2.3308446028,1.6147303522\O,1.89639175
 31,1.2318519121,0.8351543872\C,-0.7772777378,2.7587149877,-0.011912074
 3\O,-0.4996654914,-0.1522821214,2.1960692067\C,-2.5092648827,-1.458090
 836,-1.2167507339\C,-3.1829503904,-1.3870149091,0.1535933045\O,-2.6416
 694839,-0.1788398222,0.7776624609\C,-3.0437024424,-2.5471503163,1.1247
 624558\C,-3.894457779,-2.4118857328,2.3647805138\C,-2.2624156774,-3.60
 71027604,0.9150906914\C,1.5705278148,2.0919195389,3.0911097948\C,1.890
 2985755,3.6248096124,1.121007392\H,-0.8623219429,2.4441400437,2.143474
 552\H,-2.798836518,2.1161194744,0.3194640433\C,-3.4657245954,3.1528632
 217,-2.0337962092\H,-2.3447912911,1.4008985743,-3.7848403882\H,0.00126
 33765,0.5500174544,-2.5451648442\H,-1.065860588,-0.6011070596,-3.29199
 15306\H,3.5782553998,-0.5891234886,0.8776349727\H,5.837248027,-1.47821
 82151,0.1670843566\H,5.1845973467,-1.7834037568,-1.4327876564\H,2.5151
 937996,-2.8556318646,1.06040282\H,4.2468277616,-2.9144048595,1.4101440
 226\H,3.6371769508,-3.4764763544,-0.1547725865\H,-1.0559199545,3.80982
 19577,0.0893849963\H,-0.0291081928,2.7017231293,-0.80837573\H,-1.41952
 84647,-0.4703934602,2.2013526878\H,-2.2448987815,-2.4673921106,-1.5244
 184981\H,-3.191941321,-1.0521002734,-1.9651963246\H,-4.2538325938,-1.1
 867470418,0.0347970988\H,-3.7264798246,-3.2357316225,3.0605655217\H,-3
 .6961834381,-1.4736283052,2.8931349305\H,-4.9601756429,-2.3986945558,2
 .1062986688\H,-2.2067270961,-4.4067735821,1.6480683961\H,-1.643580118,
 -3.7227961297,0.0342146219\H,2.6516593876,2.0553250312,3.2450993903\H,
 1.1313129379,1.1584224583,3.4423080338\H,1.170145826,2.9101901572,3.69
 65122528\H,1.7660235962,3.7581376186,0.0460577601\H,2.9601855303,3.631
 2733726,1.3406181298\H,1.4377186588,4.4808465048,1.6289366503\H,-4.386
 4090335,2.9992385998,-1.4586763033\H,-3.0631532406,4.1237116255,-1.721
 6446586\H,-3.735209735,3.2286707394,-3.0894736389\C,5.431247024,0.3122
 594026,-0.9673359678\H,5.3640321363,0.9946452829,-0.1136521176\H,4.753
 1980138,0.6772475655,-1.7423440989\H,6.4485423439,0.3806342929,-1.3636
 679777\\Version=EM64L-G09RevB.01\State=1-A\HF=-1387.648904\RMSD=7.922e
 -09\RMSF=5.973e-06\Dipole=-1.2502157,1.923865,1.0610894\Quadrupole=2.1
 886038,1.8713561,-4.05996,2.3423808,7.4460231,-3.1982795\PG=C01 [X(C26
 H34O5)]\\@


 THOSE WHO TRY TO PASS CHEMISTRY OFF AS A NEW SCIENCE
 SHOW HOW LITTLE KNOWLEDGE THEY HAVE OF THE CHARACTER
 AND LITERATURE OF THE ANCIENTS.
   -- NICOLAS LEFEVRE
 "COURS DE CHYMIE" J.-N.LELOUP, PARIS, 1751
 Job cpu time:  1 days  4 hours  9 minutes 59.3 seconds.
 File lengths (MBytes):  RWF=    372 Int=      0 D2E=      0 Chk=     38 Scr=      1
 Normal termination of Gaussian 09 at Tue Apr 13 20:35:42 2021.
