 Entering Gaussian System, Link 0=g09
 Initial command:
 /public/software/g09/g09/l1.exe /tmp/Gau-23534.inp -scrdir=/tmp/
 Entering Link 1 = /public/software/g09/g09/l1.exe PID=     23535.
  
 Copyright (c) 1988,1990,1992,1993,1995,1998,2003,2009,2010,
            Gaussian, Inc.  All Rights Reserved.
  
 This is part of the Gaussian(R) 09 program.  It is based on
 the Gaussian(R) 03 system (copyright 2003, Gaussian, Inc.),
 the Gaussian(R) 98 system (copyright 1998, Gaussian, Inc.),
 the Gaussian(R) 94 system (copyright 1995, Gaussian, Inc.),
 the Gaussian 92(TM) system (copyright 1992, Gaussian, Inc.),
 the Gaussian 90(TM) system (copyright 1990, Gaussian, Inc.),
 the Gaussian 88(TM) system (copyright 1988, Gaussian, Inc.),
 the Gaussian 86(TM) system (copyright 1986, Carnegie Mellon
 University), and the Gaussian 82(TM) system (copyright 1983,
 Carnegie Mellon University). Gaussian is a federally registered
 trademark of Gaussian, Inc.
  
 This software contains proprietary and confidential information,
 including trade secrets, belonging to Gaussian, Inc.
  
 This software is provided under written license and may be
 used, copied, transmitted, or stored only in accord with that
 written license.
  
 The following legend is applicable only to US Government
 contracts under FAR:
  
                    RESTRICTED RIGHTS LEGEND
  
 Use, reproduction and disclosure by the US Government is
 subject to restrictions as set forth in subparagraphs (a)
 and (c) of the Commercial Computer Software - Restricted
 Rights clause in FAR 52.227-19.
  
 Gaussian, Inc.
 340 Quinnipiac St., Bldg. 40, Wallingford CT 06492
  
  
 ---------------------------------------------------------------
 Warning -- This program may not be used in any manner that
 competes with the business of Gaussian, Inc. or will provide
 assistance to any competitor of Gaussian, Inc.  The licensee
 of this program is prohibited from giving any competitor of
 Gaussian, Inc. access to this program.  By using this program,
 the user acknowledges that Gaussian, Inc. is engaged in the
 business of creating and licensing software in the field of
 computational chemistry and represents and warrants to the
 licensee that it is not a competitor of Gaussian, Inc. and that
 it will not use this program in any manner prohibited above.
 ---------------------------------------------------------------
  

 Cite this work as:
 Gaussian 09, Revision B.01,
 M. J. Frisch, G. W. Trucks, H. B. Schlegel, G. E. Scuseria, 
 M. A. Robb, J. R. Cheeseman, G. Scalmani, V. Barone, B. Mennucci, 
 G. A. Petersson, H. Nakatsuji, M. Caricato, X. Li, H. P. Hratchian, 
 A. F. Izmaylov, J. Bloino, G. Zheng, J. L. Sonnenberg, M. Hada, 
 M. Ehara, K. Toyota, R. Fukuda, J. Hasegawa, M. Ishida, T. Nakajima, 
 Y. Honda, O. Kitao, H. Nakai, T. Vreven, J. A. Montgomery, Jr., 
 J. E. Peralta, F. Ogliaro, M. Bearpark, J. J. Heyd, E. Brothers, 
 K. N. Kudin, V. N. Staroverov, T. Keith, R. Kobayashi, J. Normand, 
 K. Raghavachari, A. Rendell, J. C. Burant, S. S. Iyengar, J. Tomasi, 
 M. Cossi, N. Rega, J. M. Millam, M. Klene, J. E. Knox, J. B. Cross, 
 V. Bakken, C. Adamo, J. Jaramillo, R. Gomperts, R. E. Stratmann, 
 O. Yazyev, A. J. Austin, R. Cammi, C. Pomelli, J. W. Ochterski, 
 R. L. Martin, K. Morokuma, V. G. Zakrzewski, G. A. Voth, 
 P. Salvador, J. J. Dannenberg, S. Dapprich, A. D. Daniels, 
 O. Farkas, J. B. Foresman, J. V. Ortiz, J. Cioslowski, 
 and D. J. Fox, Gaussian, Inc., Wallingford CT, 2010.
 
 ******************************************
 Gaussian 09:  EM64L-G09RevB.01 12-Aug-2010
                13-Apr-2021 
 ******************************************
 %mem=600MW
 %nprocshared=10
 Will use up to   10 processors via shared memory.
 ----------------------------------------
 # opt b3lyp/6-311+g(d) geom=connectivity
 ----------------------------------------
 1/14=-1,18=20,19=15,26=3,38=1,57=2/1,3;
 2/9=110,12=2,17=6,18=5,40=1/2;
 3/5=4,6=6,7=11,11=2,16=1,25=1,30=1,71=1,74=-5/1,2,3;
 4//1;
 5/5=2,38=5/2;
 6/7=2,8=2,9=2,10=2,28=1/1;
 7//1,2,3,16;
 1/14=-1,18=20,19=15/3(2);
 2/9=110/2;
 99//99;
 2/9=110/2;
 3/5=4,6=6,7=11,11=2,16=1,25=1,30=1,71=1,74=-5/1,2,3;
 4/5=5,16=3/1;
 5/5=2,38=5/2;
 7//1,2,3,16;
 1/14=-1,18=20,19=15/3(-5);
 2/9=110/2;
 6/7=2,8=2,9=2,10=2,19=2,28=1/1;
 99/9=1/99;
 -------------------
 Title Card Required
 -------------------
 Symbolic Z-matrix:
 Charge =  0 Multiplicity = 1
 C                     1.81754   0.57948   2.83234 
 C                     2.17183   1.64188   2.09912 
 C                     1.6872    1.7776    0.67445 
 C                     1.3734    0.44379  -0.078 
 C                     1.18243  -0.84073   0.80132 
 C                     0.93551  -0.52086   2.30695 
 C                     0.15714   0.79258  -0.99809 
 C                    -1.16544   0.28039  -0.45029 
 C                    -1.30944  -0.93416   0.12759 
 C                    -0.05187  -1.68588   0.37907 
 C                    -2.59756  -1.51686   0.6307 
 O                    -2.625    -2.05445   1.72661 
 C                    -3.81906  -1.49533  -0.2892 
 C                    -5.13725  -1.51105   0.49965 
 C                    -3.69964  -2.71951  -1.22646 
 O                    -0.00393  -2.9032    0.37723 
 C                    -0.0832    2.31684  -0.91513 
 C                    -1.59875   2.45224  -1.18383 
 O                    -2.14264   1.1844   -0.6295 
 C                     0.41468   2.64834   0.50553 
 O                     0.31344   0.27789  -2.30483 
 C                     2.49243  -1.63903   0.58314 
 C                     3.3832   -0.73223  -0.28652 
 O                     2.46143   0.13395  -0.96316 
 C                     4.28469  -1.45094  -1.26247 
 C                     5.28425  -2.38277  -0.62139 
 C                     4.22106  -1.26182  -2.58235 
 C                    -1.92359   2.47942  -2.67959 
 C                    -2.31375   3.57774  -0.44307 
 H                     0.50421   2.8461   -1.67128 
 H                     2.47748   2.24919   0.07419 
 C                     3.02577   2.76055   2.6378 
 H                     2.14789   0.50523   3.86754 
 H                     1.08681  -1.44534   2.87439 
 H                    -0.12137  -0.25984   2.46181 
 H                    -3.77175  -0.59038  -0.90587 
 H                    -5.13281  -2.37817   1.16994 
 H                    -5.96057  -1.66131  -0.21176 
 H                    -2.74888  -2.72134  -1.77012 
 H                    -4.51334  -2.71192  -1.9603 
 H                    -3.76149  -3.65019  -0.6518 
 H                    -0.32942   2.35907   1.25724 
 H                     0.62021   3.71362   0.64832 
 H                     1.24137  -0.03021  -2.34501 
 H                     2.98106  -1.89016   1.52808 
 H                     2.25735  -2.57586   0.07098 
 H                     4.01457  -0.10966   0.36933 
 H                     4.78707  -3.20607  -0.09212 
 H                     5.90033  -1.85651   0.12092 
 H                     5.95311  -2.81772  -1.36937 
 H                     4.88813  -1.79204  -3.25682 
 H                     3.51573  -0.57272  -3.03361 
 H                    -3.00363   2.37936  -2.8291 
 H                    -1.60395   3.43289  -3.11542 
 H                    -1.41271   1.6693   -3.205 
 H                    -1.94348   4.54853  -0.79049 
 H                    -2.16416   3.51454   0.63761 
 H                    -3.38944   3.53352  -0.64125 
 H                     3.31245   2.58205   3.67896 
 H                     3.94396   2.88069   2.04604 
 H                     2.49972   3.72435   2.59481 
 C                    -5.38811  -0.23543   1.31104 
 H                    -5.38975   0.65323   0.66737 
 H                    -4.61552  -0.09704   2.07476 
 H                    -6.35653  -0.27924   1.82246 
 

 GradGradGradGradGradGradGradGradGradGradGradGradGradGradGradGradGradGrad
 Berny optimization.
 Initialization pass.
                           ----------------------------
                           !    Initial Parameters    !
                           ! (Angstroms and Degrees)  !
 --------------------------                            --------------------------
 ! Name  Definition              Value          Derivative Info.                !
 --------------------------------------------------------------------------------
 ! R1    R(1,2)                  1.3386         estimate D2E/DX2                !
 ! R2    R(1,6)                  1.5049         estimate D2E/DX2                !
 ! R3    R(1,33)                 1.0892         estimate D2E/DX2                !
 ! R4    R(2,3)                  1.511          estimate D2E/DX2                !
 ! R5    R(2,32)                 1.5069         estimate D2E/DX2                !
 ! R6    R(3,4)                  1.5632         estimate D2E/DX2                !
 ! R7    R(3,20)                 1.5511         estimate D2E/DX2                !
 ! R8    R(3,31)                 1.0987         estimate D2E/DX2                !
 ! R9    R(4,5)                  1.5683         estimate D2E/DX2                !
 ! R10   R(4,7)                  1.5645         estimate D2E/DX2                !
 ! R11   R(4,24)                 1.4364         estimate D2E/DX2                !
 ! R12   R(5,6)                  1.5589         estimate D2E/DX2                !
 ! R13   R(5,10)                 1.5544         estimate D2E/DX2                !
 ! R14   R(5,22)                 1.5495         estimate D2E/DX2                !
 ! R15   R(6,34)                 1.0952         estimate D2E/DX2                !
 ! R16   R(6,35)                 1.0996         estimate D2E/DX2                !
 ! R17   R(7,8)                  1.5204         estimate D2E/DX2                !
 ! R18   R(7,17)                 1.5453         estimate D2E/DX2                !
 ! R19   R(7,21)                 1.4131         estimate D2E/DX2                !
 ! R20   R(8,9)                  1.3527         estimate D2E/DX2                !
 ! R21   R(8,19)                 1.3432         estimate D2E/DX2                !
 ! R22   R(9,10)                 1.4865         estimate D2E/DX2                !
 ! R23   R(9,11)                 1.5006         estimate D2E/DX2                !
 ! R24   R(10,16)                1.2183         estimate D2E/DX2                !
 ! R25   R(11,12)                1.221          estimate D2E/DX2                !
 ! R26   R(11,13)                1.5293         estimate D2E/DX2                !
 ! R27   R(13,14)                1.5363         estimate D2E/DX2                !
 ! R28   R(13,15)                1.5464         estimate D2E/DX2                !
 ! R29   R(13,36)                1.0961         estimate D2E/DX2                !
 ! R30   R(14,37)                1.096          estimate D2E/DX2                !
 ! R31   R(14,38)                1.0984         estimate D2E/DX2                !
 ! R32   R(14,62)                1.5325         estimate D2E/DX2                !
 ! R33   R(15,39)                1.0952         estimate D2E/DX2                !
 ! R34   R(15,40)                1.0958         estimate D2E/DX2                !
 ! R35   R(15,41)                1.0955         estimate D2E/DX2                !
 ! R36   R(17,18)                1.5451         estimate D2E/DX2                !
 ! R37   R(17,20)                1.5414         estimate D2E/DX2                !
 ! R38   R(17,30)                1.094          estimate D2E/DX2                !
 ! R39   R(18,19)                1.4868         estimate D2E/DX2                !
 ! R40   R(18,28)                1.5309         estimate D2E/DX2                !
 ! R41   R(18,29)                1.5254         estimate D2E/DX2                !
 ! R42   R(20,42)                1.0966         estimate D2E/DX2                !
 ! R43   R(20,43)                1.0943         estimate D2E/DX2                !
 ! R44   R(21,44)                0.9786         estimate D2E/DX2                !
 ! R45   R(22,23)                1.5401         estimate D2E/DX2                !
 ! R46   R(22,45)                1.093          estimate D2E/DX2                !
 ! R47   R(22,46)                1.0933         estimate D2E/DX2                !
 ! R48   R(23,24)                1.4345         estimate D2E/DX2                !
 ! R49   R(23,25)                1.5105         estimate D2E/DX2                !
 ! R50   R(23,47)                1.1029         estimate D2E/DX2                !
 ! R51   R(24,44)                1.8507         estimate D2E/DX2                !
 ! R52   R(25,26)                1.5094         estimate D2E/DX2                !
 ! R53   R(25,27)                1.3349         estimate D2E/DX2                !
 ! R54   R(26,48)                1.0978         estimate D2E/DX2                !
 ! R55   R(26,49)                1.0989         estimate D2E/DX2                !
 ! R56   R(26,50)                1.0936         estimate D2E/DX2                !
 ! R57   R(27,51)                1.0868         estimate D2E/DX2                !
 ! R58   R(27,52)                1.0844         estimate D2E/DX2                !
 ! R59   R(28,53)                1.0949         estimate D2E/DX2                !
 ! R60   R(28,54)                1.096          estimate D2E/DX2                !
 ! R61   R(28,55)                1.0924         estimate D2E/DX2                !
 ! R62   R(29,56)                1.0956         estimate D2E/DX2                !
 ! R63   R(29,57)                1.0928         estimate D2E/DX2                !
 ! R64   R(29,58)                1.0947         estimate D2E/DX2                !
 ! R65   R(32,59)                1.0946         estimate D2E/DX2                !
 ! R66   R(32,60)                1.099          estimate D2E/DX2                !
 ! R67   R(32,61)                1.0989         estimate D2E/DX2                !
 ! R68   R(62,63)                1.0973         estimate D2E/DX2                !
 ! R69   R(62,64)                1.0951         estimate D2E/DX2                !
 ! R70   R(62,65)                1.096          estimate D2E/DX2                !
 ! A1    A(2,1,6)              122.9697         estimate D2E/DX2                !
 ! A2    A(2,1,33)             119.6327         estimate D2E/DX2                !
 ! A3    A(6,1,33)             117.371          estimate D2E/DX2                !
 ! A4    A(1,2,3)              120.1903         estimate D2E/DX2                !
 ! A5    A(1,2,32)             122.9127         estimate D2E/DX2                !
 ! A6    A(3,2,32)             116.881          estimate D2E/DX2                !
 ! A7    A(2,3,4)              116.206          estimate D2E/DX2                !
 ! A8    A(2,3,20)             114.5972         estimate D2E/DX2                !
 ! A9    A(2,3,31)             108.8425         estimate D2E/DX2                !
 ! A10   A(4,3,20)             105.1814         estimate D2E/DX2                !
 ! A11   A(4,3,31)             104.3377         estimate D2E/DX2                !
 ! A12   A(20,3,31)            106.8357         estimate D2E/DX2                !
 ! A13   A(3,4,5)              116.9622         estimate D2E/DX2                !
 ! A14   A(3,4,7)              104.4135         estimate D2E/DX2                !
 ! A15   A(3,4,24)             109.1844         estimate D2E/DX2                !
 ! A16   A(5,4,7)              114.6883         estimate D2E/DX2                !
 ! A17   A(5,4,24)             105.1329         estimate D2E/DX2                !
 ! A18   A(7,4,24)             105.9354         estimate D2E/DX2                !
 ! A19   A(4,5,6)              113.1247         estimate D2E/DX2                !
 ! A20   A(4,5,10)             112.9366         estimate D2E/DX2                !
 ! A21   A(4,5,22)             103.8909         estimate D2E/DX2                !
 ! A22   A(6,5,10)             104.3683         estimate D2E/DX2                !
 ! A23   A(6,5,22)             112.0624         estimate D2E/DX2                !
 ! A24   A(10,5,22)            110.6693         estimate D2E/DX2                !
 ! A25   A(1,6,5)              113.2273         estimate D2E/DX2                !
 ! A26   A(1,6,34)             110.8132         estimate D2E/DX2                !
 ! A27   A(1,6,35)             109.914          estimate D2E/DX2                !
 ! A28   A(5,6,34)             107.7767         estimate D2E/DX2                !
 ! A29   A(5,6,35)             109.6925         estimate D2E/DX2                !
 ! A30   A(34,6,35)            105.0804         estimate D2E/DX2                !
 ! A31   A(4,7,8)              112.9093         estimate D2E/DX2                !
 ! A32   A(4,7,17)             108.0138         estimate D2E/DX2                !
 ! A33   A(4,7,21)             112.1265         estimate D2E/DX2                !
 ! A34   A(8,7,17)             100.2335         estimate D2E/DX2                !
 ! A35   A(8,7,21)             107.8599         estimate D2E/DX2                !
 ! A36   A(17,7,21)            115.2207         estimate D2E/DX2                !
 ! A37   A(7,8,9)              123.2983         estimate D2E/DX2                !
 ! A38   A(7,8,19)             110.9806         estimate D2E/DX2                !
 ! A39   A(9,8,19)             125.7196         estimate D2E/DX2                !
 ! A40   A(8,9,10)             115.8645         estimate D2E/DX2                !
 ! A41   A(8,9,11)             125.6797         estimate D2E/DX2                !
 ! A42   A(10,9,11)            118.235          estimate D2E/DX2                !
 ! A43   A(5,10,9)             116.2815         estimate D2E/DX2                !
 ! A44   A(5,10,16)            120.8278         estimate D2E/DX2                !
 ! A45   A(9,10,16)            122.5697         estimate D2E/DX2                !
 ! A46   A(9,11,12)            119.4187         estimate D2E/DX2                !
 ! A47   A(9,11,13)            118.5859         estimate D2E/DX2                !
 ! A48   A(12,11,13)           121.8811         estimate D2E/DX2                !
 ! A49   A(11,13,14)           112.1065         estimate D2E/DX2                !
 ! A50   A(11,13,15)           106.9625         estimate D2E/DX2                !
 ! A51   A(11,13,36)           108.3952         estimate D2E/DX2                !
 ! A52   A(14,13,15)           111.6771         estimate D2E/DX2                !
 ! A53   A(14,13,36)           109.5343         estimate D2E/DX2                !
 ! A54   A(15,13,36)           108.0143         estimate D2E/DX2                !
 ! A55   A(13,14,37)           108.5819         estimate D2E/DX2                !
 ! A56   A(13,14,38)           108.1785         estimate D2E/DX2                !
 ! A57   A(13,14,62)           113.8162         estimate D2E/DX2                !
 ! A58   A(37,14,38)           106.9123         estimate D2E/DX2                !
 ! A59   A(37,14,62)           109.5982         estimate D2E/DX2                !
 ! A60   A(38,14,62)           109.5164         estimate D2E/DX2                !
 ! A61   A(13,15,39)           111.6675         estimate D2E/DX2                !
 ! A62   A(13,15,40)           110.0641         estimate D2E/DX2                !
 ! A63   A(13,15,41)           110.5005         estimate D2E/DX2                !
 ! A64   A(39,15,40)           108.1932         estimate D2E/DX2                !
 ! A65   A(39,15,41)           107.9368         estimate D2E/DX2                !
 ! A66   A(40,15,41)           108.3766         estimate D2E/DX2                !
 ! A67   A(7,17,18)            103.276          estimate D2E/DX2                !
 ! A68   A(7,17,20)            102.2027         estimate D2E/DX2                !
 ! A69   A(7,17,30)            110.8896         estimate D2E/DX2                !
 ! A70   A(18,17,20)           117.2739         estimate D2E/DX2                !
 ! A71   A(18,17,30)           111.3491         estimate D2E/DX2                !
 ! A72   A(20,17,30)           111.0719         estimate D2E/DX2                !
 ! A73   A(17,18,19)           102.6653         estimate D2E/DX2                !
 ! A74   A(17,18,28)           112.3092         estimate D2E/DX2                !
 ! A75   A(17,18,29)           116.1022         estimate D2E/DX2                !
 ! A76   A(19,18,28)           107.5659         estimate D2E/DX2                !
 ! A77   A(19,18,29)           106.0612         estimate D2E/DX2                !
 ! A78   A(28,18,29)           111.2188         estimate D2E/DX2                !
 ! A79   A(8,19,18)            110.9473         estimate D2E/DX2                !
 ! A80   A(3,20,17)            104.1594         estimate D2E/DX2                !
 ! A81   A(3,20,42)            109.5089         estimate D2E/DX2                !
 ! A82   A(3,20,43)            112.2216         estimate D2E/DX2                !
 ! A83   A(17,20,42)           110.8483         estimate D2E/DX2                !
 ! A84   A(17,20,43)           112.972          estimate D2E/DX2                !
 ! A85   A(42,20,43)           107.1461         estimate D2E/DX2                !
 ! A86   A(7,21,44)            104.9231         estimate D2E/DX2                !
 ! A87   A(5,22,23)            105.3752         estimate D2E/DX2                !
 ! A88   A(5,22,45)            111.9984         estimate D2E/DX2                !
 ! A89   A(5,22,46)            109.0046         estimate D2E/DX2                !
 ! A90   A(23,22,45)           111.4            estimate D2E/DX2                !
 ! A91   A(23,22,46)           111.3687         estimate D2E/DX2                !
 ! A92   A(45,22,46)           107.7126         estimate D2E/DX2                !
 ! A93   A(22,23,24)           104.4906         estimate D2E/DX2                !
 ! A94   A(22,23,25)           115.4583         estimate D2E/DX2                !
 ! A95   A(22,23,47)           109.1275         estimate D2E/DX2                !
 ! A96   A(24,23,25)           111.4713         estimate D2E/DX2                !
 ! A97   A(24,23,47)           107.909          estimate D2E/DX2                !
 ! A98   A(25,23,47)           108.1277         estimate D2E/DX2                !
 ! A99   A(4,24,23)            109.0446         estimate D2E/DX2                !
 ! A100  A(23,25,26)           114.4901         estimate D2E/DX2                !
 ! A101  A(23,25,27)           122.8865         estimate D2E/DX2                !
 ! A102  A(26,25,27)           122.6133         estimate D2E/DX2                !
 ! A103  A(25,26,48)           111.582          estimate D2E/DX2                !
 ! A104  A(25,26,49)           111.2548         estimate D2E/DX2                !
 ! A105  A(25,26,50)           111.1033         estimate D2E/DX2                !
 ! A106  A(48,26,49)           106.7015         estimate D2E/DX2                !
 ! A107  A(48,26,50)           107.9669         estimate D2E/DX2                !
 ! A108  A(49,26,50)           108.0348         estimate D2E/DX2                !
 ! A109  A(25,27,51)           121.0154         estimate D2E/DX2                !
 ! A110  A(25,27,52)           122.1737         estimate D2E/DX2                !
 ! A111  A(51,27,52)           116.8087         estimate D2E/DX2                !
 ! A112  A(18,28,53)           109.9441         estimate D2E/DX2                !
 ! A113  A(18,28,54)           110.0049         estimate D2E/DX2                !
 ! A114  A(18,28,55)           110.9491         estimate D2E/DX2                !
 ! A115  A(53,28,54)           108.2325         estimate D2E/DX2                !
 ! A116  A(53,28,55)           109.139          estimate D2E/DX2                !
 ! A117  A(54,28,55)           108.5118         estimate D2E/DX2                !
 ! A118  A(18,29,56)           109.9624         estimate D2E/DX2                !
 ! A119  A(18,29,57)           111.9259         estimate D2E/DX2                !
 ! A120  A(18,29,58)           110.0526         estimate D2E/DX2                !
 ! A121  A(56,29,57)           108.5776         estimate D2E/DX2                !
 ! A122  A(56,29,58)           108.0886         estimate D2E/DX2                !
 ! A123  A(57,29,58)           108.1319         estimate D2E/DX2                !
 ! A124  A(2,32,59)            111.5551         estimate D2E/DX2                !
 ! A125  A(2,32,60)            111.2314         estimate D2E/DX2                !
 ! A126  A(2,32,61)            111.4591         estimate D2E/DX2                !
 ! A127  A(59,32,60)           108.132          estimate D2E/DX2                !
 ! A128  A(59,32,61)           107.7962         estimate D2E/DX2                !
 ! A129  A(60,32,61)           106.441          estimate D2E/DX2                !
 ! A130  A(14,62,63)           111.3332         estimate D2E/DX2                !
 ! A131  A(14,62,64)           111.0347         estimate D2E/DX2                !
 ! A132  A(14,62,65)           111.0026         estimate D2E/DX2                !
 ! A133  A(63,62,64)           107.9268         estimate D2E/DX2                !
 ! A134  A(63,62,65)           107.7441         estimate D2E/DX2                !
 ! A135  A(64,62,65)           107.637          estimate D2E/DX2                !
 ! D1    D(6,1,2,3)             -0.1324         estimate D2E/DX2                !
 ! D2    D(6,1,2,32)           178.3684         estimate D2E/DX2                !
 ! D3    D(33,1,2,3)          -178.2074         estimate D2E/DX2                !
 ! D4    D(33,1,2,32)            0.2934         estimate D2E/DX2                !
 ! D5    D(2,1,6,5)             36.1262         estimate D2E/DX2                !
 ! D6    D(2,1,6,34)           157.3625         estimate D2E/DX2                !
 ! D7    D(2,1,6,35)           -86.9318         estimate D2E/DX2                !
 ! D8    D(33,1,6,5)          -145.7579         estimate D2E/DX2                !
 ! D9    D(33,1,6,34)          -24.5217         estimate D2E/DX2                !
 ! D10   D(33,1,6,35)           91.184          estimate D2E/DX2                !
 ! D11   D(1,2,3,4)            -27.3648         estimate D2E/DX2                !
 ! D12   D(1,2,3,20)            95.75           estimate D2E/DX2                !
 ! D13   D(1,2,3,31)          -144.726          estimate D2E/DX2                !
 ! D14   D(32,2,3,4)           154.0463         estimate D2E/DX2                !
 ! D15   D(32,2,3,20)          -82.8389         estimate D2E/DX2                !
 ! D16   D(32,2,3,31)           36.6851         estimate D2E/DX2                !
 ! D17   D(1,2,32,59)            0.4354         estimate D2E/DX2                !
 ! D18   D(1,2,32,60)          121.262          estimate D2E/DX2                !
 ! D19   D(1,2,32,61)         -120.1199         estimate D2E/DX2                !
 ! D20   D(3,2,32,59)          178.9825         estimate D2E/DX2                !
 ! D21   D(3,2,32,60)          -60.1909         estimate D2E/DX2                !
 ! D22   D(3,2,32,61)           58.4273         estimate D2E/DX2                !
 ! D23   D(2,3,4,5)             17.3296         estimate D2E/DX2                !
 ! D24   D(2,3,4,7)            145.2514         estimate D2E/DX2                !
 ! D25   D(2,3,4,24)          -101.8212         estimate D2E/DX2                !
 ! D26   D(20,3,4,5)          -110.5678         estimate D2E/DX2                !
 ! D27   D(20,3,4,7)            17.354          estimate D2E/DX2                !
 ! D28   D(20,3,4,24)          130.2814         estimate D2E/DX2                !
 ! D29   D(31,3,4,5)           137.1539         estimate D2E/DX2                !
 ! D30   D(31,3,4,7)           -94.9242         estimate D2E/DX2                !
 ! D31   D(31,3,4,24)           18.0032         estimate D2E/DX2                !
 ! D32   D(2,3,20,17)         -164.971          estimate D2E/DX2                !
 ! D33   D(2,3,20,42)          -46.365          estimate D2E/DX2                !
 ! D34   D(2,3,20,43)           72.4902         estimate D2E/DX2                !
 ! D35   D(4,3,20,17)          -36.109          estimate D2E/DX2                !
 ! D36   D(4,3,20,42)           82.497          estimate D2E/DX2                !
 ! D37   D(4,3,20,43)         -158.6478         estimate D2E/DX2                !
 ! D38   D(31,3,20,17)          74.3899         estimate D2E/DX2                !
 ! D39   D(31,3,20,42)        -167.0041         estimate D2E/DX2                !
 ! D40   D(31,3,20,43)         -48.1489         estimate D2E/DX2                !
 ! D41   D(3,4,5,6)             16.4258         estimate D2E/DX2                !
 ! D42   D(3,4,5,10)           134.7014         estimate D2E/DX2                !
 ! D43   D(3,4,5,22)          -105.3333         estimate D2E/DX2                !
 ! D44   D(7,4,5,6)           -106.3407         estimate D2E/DX2                !
 ! D45   D(7,4,5,10)            11.9349         estimate D2E/DX2                !
 ! D46   D(7,4,5,22)           131.9002         estimate D2E/DX2                !
 ! D47   D(24,4,5,6)           137.7244         estimate D2E/DX2                !
 ! D48   D(24,4,5,10)         -104.0            estimate D2E/DX2                !
 ! D49   D(24,4,5,22)           15.9652         estimate D2E/DX2                !
 ! D50   D(3,4,7,8)           -102.4106         estimate D2E/DX2                !
 ! D51   D(3,4,7,17)             7.481          estimate D2E/DX2                !
 ! D52   D(3,4,7,21)           135.4991         estimate D2E/DX2                !
 ! D53   D(5,4,7,8)             26.8893         estimate D2E/DX2                !
 ! D54   D(5,4,7,17)           136.7809         estimate D2E/DX2                !
 ! D55   D(5,4,7,21)           -95.2009         estimate D2E/DX2                !
 ! D56   D(24,4,7,8)           142.3609         estimate D2E/DX2                !
 ! D57   D(24,4,7,17)         -107.7476         estimate D2E/DX2                !
 ! D58   D(24,4,7,21)           20.2706         estimate D2E/DX2                !
 ! D59   D(3,4,24,23)           93.3356         estimate D2E/DX2                !
 ! D60   D(5,4,24,23)          -32.9209         estimate D2E/DX2                !
 ! D61   D(7,4,24,23)         -154.7371         estimate D2E/DX2                !
 ! D62   D(4,5,6,1)            -41.8661         estimate D2E/DX2                !
 ! D63   D(4,5,6,34)          -164.7983         estimate D2E/DX2                !
 ! D64   D(4,5,6,35)            81.3142         estimate D2E/DX2                !
 ! D65   D(10,5,6,1)          -165.0164         estimate D2E/DX2                !
 ! D66   D(10,5,6,34)           72.0513         estimate D2E/DX2                !
 ! D67   D(10,5,6,35)          -41.8362         estimate D2E/DX2                !
 ! D68   D(22,5,6,1)            75.183          estimate D2E/DX2                !
 ! D69   D(22,5,6,34)          -47.7493         estimate D2E/DX2                !
 ! D70   D(22,5,6,35)         -161.6368         estimate D2E/DX2                !
 ! D71   D(4,5,10,9)           -45.5193         estimate D2E/DX2                !
 ! D72   D(4,5,10,16)          140.8239         estimate D2E/DX2                !
 ! D73   D(6,5,10,9)            77.7532         estimate D2E/DX2                !
 ! D74   D(6,5,10,16)          -95.9036         estimate D2E/DX2                !
 ! D75   D(22,5,10,9)         -161.5123         estimate D2E/DX2                !
 ! D76   D(22,5,10,16)          24.8309         estimate D2E/DX2                !
 ! D77   D(4,5,22,23)            4.6779         estimate D2E/DX2                !
 ! D78   D(4,5,22,45)          125.9581         estimate D2E/DX2                !
 ! D79   D(4,5,22,46)         -114.9514         estimate D2E/DX2                !
 ! D80   D(6,5,22,23)         -117.7856         estimate D2E/DX2                !
 ! D81   D(6,5,22,45)            3.4946         estimate D2E/DX2                !
 ! D82   D(6,5,22,46)          122.5852         estimate D2E/DX2                !
 ! D83   D(10,5,22,23)         126.1691         estimate D2E/DX2                !
 ! D84   D(10,5,22,45)        -112.5507         estimate D2E/DX2                !
 ! D85   D(10,5,22,46)           6.5398         estimate D2E/DX2                !
 ! D86   D(4,7,8,9)            -40.8496         estimate D2E/DX2                !
 ! D87   D(4,7,8,19)           139.5749         estimate D2E/DX2                !
 ! D88   D(17,7,8,9)          -155.5232         estimate D2E/DX2                !
 ! D89   D(17,7,8,19)           24.9012         estimate D2E/DX2                !
 ! D90   D(21,7,8,9)            83.6071         estimate D2E/DX2                !
 ! D91   D(21,7,8,19)          -95.9685         estimate D2E/DX2                !
 ! D92   D(4,7,17,18)         -151.493          estimate D2E/DX2                !
 ! D93   D(4,7,17,20)          -29.3025         estimate D2E/DX2                !
 ! D94   D(4,7,17,30)           89.1393         estimate D2E/DX2                !
 ! D95   D(8,7,17,18)          -33.1556         estimate D2E/DX2                !
 ! D96   D(8,7,17,20)           89.0348         estimate D2E/DX2                !
 ! D97   D(8,7,17,30)         -152.5233         estimate D2E/DX2                !
 ! D98   D(21,7,17,18)          82.2814         estimate D2E/DX2                !
 ! D99   D(21,7,17,20)        -155.5281         estimate D2E/DX2                !
 ! D100  D(21,7,17,30)         -37.0863         estimate D2E/DX2                !
 ! D101  D(4,7,21,44)          -10.4534         estimate D2E/DX2                !
 ! D102  D(8,7,21,44)         -135.3789         estimate D2E/DX2                !
 ! D103  D(17,7,21,44)         113.6382         estimate D2E/DX2                !
 ! D104  D(7,8,9,10)             8.3688         estimate D2E/DX2                !
 ! D105  D(7,8,9,11)          -177.153          estimate D2E/DX2                !
 ! D106  D(19,8,9,10)         -172.1193         estimate D2E/DX2                !
 ! D107  D(19,8,9,11)            2.3589         estimate D2E/DX2                !
 ! D108  D(7,8,19,18)           -5.6004         estimate D2E/DX2                !
 ! D109  D(9,8,19,18)          174.8365         estimate D2E/DX2                !
 ! D110  D(8,9,10,5)            36.3475         estimate D2E/DX2                !
 ! D111  D(8,9,10,16)         -150.1164         estimate D2E/DX2                !
 ! D112  D(11,9,10,5)         -138.5626         estimate D2E/DX2                !
 ! D113  D(11,9,10,16)          34.9734         estimate D2E/DX2                !
 ! D114  D(8,9,11,12)         -134.3583         estimate D2E/DX2                !
 ! D115  D(8,9,11,13)           49.4552         estimate D2E/DX2                !
 ! D116  D(10,9,11,12)          40.0016         estimate D2E/DX2                !
 ! D117  D(10,9,11,13)        -136.1849         estimate D2E/DX2                !
 ! D118  D(9,11,13,14)        -154.222          estimate D2E/DX2                !
 ! D119  D(9,11,13,15)          83.0459         estimate D2E/DX2                !
 ! D120  D(9,11,13,36)         -33.1964         estimate D2E/DX2                !
 ! D121  D(12,11,13,14)         29.69           estimate D2E/DX2                !
 ! D122  D(12,11,13,15)        -93.0421         estimate D2E/DX2                !
 ! D123  D(12,11,13,36)        150.7156         estimate D2E/DX2                !
 ! D124  D(11,13,14,37)        -55.1217         estimate D2E/DX2                !
 ! D125  D(11,13,14,38)       -170.8066         estimate D2E/DX2                !
 ! D126  D(11,13,14,62)         67.2356         estimate D2E/DX2                !
 ! D127  D(15,13,14,37)         64.8991         estimate D2E/DX2                !
 ! D128  D(15,13,14,38)        -50.7859         estimate D2E/DX2                !
 ! D129  D(15,13,14,62)       -172.7436         estimate D2E/DX2                !
 ! D130  D(36,13,14,37)       -175.4879         estimate D2E/DX2                !
 ! D131  D(36,13,14,38)         68.8271         estimate D2E/DX2                !
 ! D132  D(36,13,14,62)        -53.1306         estimate D2E/DX2                !
 ! D133  D(11,13,15,39)        -55.5744         estimate D2E/DX2                !
 ! D134  D(11,13,15,40)       -175.7579         estimate D2E/DX2                !
 ! D135  D(11,13,15,41)         64.58           estimate D2E/DX2                !
 ! D136  D(14,13,15,39)       -178.5736         estimate D2E/DX2                !
 ! D137  D(14,13,15,40)         61.2429         estimate D2E/DX2                !
 ! D138  D(14,13,15,41)        -58.4192         estimate D2E/DX2                !
 ! D139  D(36,13,15,39)         60.9206         estimate D2E/DX2                !
 ! D140  D(36,13,15,40)        -59.2629         estimate D2E/DX2                !
 ! D141  D(36,13,15,41)       -178.925          estimate D2E/DX2                !
 ! D142  D(13,14,62,63)         57.7185         estimate D2E/DX2                !
 ! D143  D(13,14,62,64)        -62.5614         estimate D2E/DX2                !
 ! D144  D(13,14,62,65)        177.7454         estimate D2E/DX2                !
 ! D145  D(37,14,62,63)        179.5146         estimate D2E/DX2                !
 ! D146  D(37,14,62,64)         59.2346         estimate D2E/DX2                !
 ! D147  D(37,14,62,65)        -60.4586         estimate D2E/DX2                !
 ! D148  D(38,14,62,63)        -63.4965         estimate D2E/DX2                !
 ! D149  D(38,14,62,64)        176.2235         estimate D2E/DX2                !
 ! D150  D(38,14,62,65)         56.5304         estimate D2E/DX2                !
 ! D151  D(7,17,18,19)          30.9295         estimate D2E/DX2                !
 ! D152  D(7,17,18,28)         -84.3203         estimate D2E/DX2                !
 ! D153  D(7,17,18,29)         146.1353         estimate D2E/DX2                !
 ! D154  D(20,17,18,19)        -80.5387         estimate D2E/DX2                !
 ! D155  D(20,17,18,28)        164.2116         estimate D2E/DX2                !
 ! D156  D(20,17,18,29)         34.6672         estimate D2E/DX2                !
 ! D157  D(30,17,18,19)        149.9797         estimate D2E/DX2                !
 ! D158  D(30,17,18,28)         34.7299         estimate D2E/DX2                !
 ! D159  D(30,17,18,29)        -94.8145         estimate D2E/DX2                !
 ! D160  D(7,17,20,3)           39.8903         estimate D2E/DX2                !
 ! D161  D(7,17,20,42)         -77.7956         estimate D2E/DX2                !
 ! D162  D(7,17,20,43)         161.9348         estimate D2E/DX2                !
 ! D163  D(18,17,20,3)         151.9659         estimate D2E/DX2                !
 ! D164  D(18,17,20,42)         34.28           estimate D2E/DX2                !
 ! D165  D(18,17,20,43)        -85.9895         estimate D2E/DX2                !
 ! D166  D(30,17,20,3)         -78.4221         estimate D2E/DX2                !
 ! D167  D(30,17,20,42)        163.892          estimate D2E/DX2                !
 ! D168  D(30,17,20,43)         43.6224         estimate D2E/DX2                !
 ! D169  D(17,18,19,8)         -16.3946         estimate D2E/DX2                !
 ! D170  D(28,18,19,8)         102.2413         estimate D2E/DX2                !
 ! D171  D(29,18,19,8)        -138.6681         estimate D2E/DX2                !
 ! D172  D(17,18,28,53)        169.0326         estimate D2E/DX2                !
 ! D173  D(17,18,28,54)        -71.8687         estimate D2E/DX2                !
 ! D174  D(17,18,28,55)         48.2096         estimate D2E/DX2                !
 ! D175  D(19,18,28,53)         56.7931         estimate D2E/DX2                !
 ! D176  D(19,18,28,54)        175.8918         estimate D2E/DX2                !
 ! D177  D(19,18,28,55)        -64.0299         estimate D2E/DX2                !
 ! D178  D(29,18,28,53)        -58.9418         estimate D2E/DX2                !
 ! D179  D(29,18,28,54)         60.1569         estimate D2E/DX2                !
 ! D180  D(29,18,28,55)       -179.7648         estimate D2E/DX2                !
 ! D181  D(17,18,29,56)         65.5829         estimate D2E/DX2                !
 ! D182  D(17,18,29,57)        -55.1869         estimate D2E/DX2                !
 ! D183  D(17,18,29,58)       -175.4548         estimate D2E/DX2                !
 ! D184  D(19,18,29,56)        178.857          estimate D2E/DX2                !
 ! D185  D(19,18,29,57)         58.0872         estimate D2E/DX2                !
 ! D186  D(19,18,29,58)        -62.1807         estimate D2E/DX2                !
 ! D187  D(28,18,29,56)        -64.484          estimate D2E/DX2                !
 ! D188  D(28,18,29,57)        174.7463         estimate D2E/DX2                !
 ! D189  D(28,18,29,58)         54.4783         estimate D2E/DX2                !
 ! D190  D(5,22,23,24)         -23.7825         estimate D2E/DX2                !
 ! D191  D(5,22,23,25)        -146.586          estimate D2E/DX2                !
 ! D192  D(5,22,23,47)          91.4189         estimate D2E/DX2                !
 ! D193  D(45,22,23,24)       -145.4517         estimate D2E/DX2                !
 ! D194  D(45,22,23,25)         91.7448         estimate D2E/DX2                !
 ! D195  D(45,22,23,47)        -30.2503         estimate D2E/DX2                !
 ! D196  D(46,22,23,24)         94.2682         estimate D2E/DX2                !
 ! D197  D(46,22,23,25)        -28.5353         estimate D2E/DX2                !
 ! D198  D(46,22,23,47)       -150.5304         estimate D2E/DX2                !
 ! D199  D(22,23,24,4)          35.9701         estimate D2E/DX2                !
 ! D200  D(25,23,24,4)         161.3321         estimate D2E/DX2                !
 ! D201  D(47,23,24,4)         -80.0821         estimate D2E/DX2                !
 ! D202  D(22,23,25,26)        -60.9896         estimate D2E/DX2                !
 ! D203  D(22,23,25,27)        120.1448         estimate D2E/DX2                !
 ! D204  D(24,23,25,26)        179.9943         estimate D2E/DX2                !
 ! D205  D(24,23,25,27)          1.1287         estimate D2E/DX2                !
 ! D206  D(47,23,25,26)         61.5395         estimate D2E/DX2                !
 ! D207  D(47,23,25,27)       -117.3262         estimate D2E/DX2                !
 ! D208  D(23,25,26,48)         63.5115         estimate D2E/DX2                !
 ! D209  D(23,25,26,49)        -55.532          estimate D2E/DX2                !
 ! D210  D(23,25,26,50)       -175.9424         estimate D2E/DX2                !
 ! D211  D(27,25,26,48)       -117.6194         estimate D2E/DX2                !
 ! D212  D(27,25,26,49)        123.3371         estimate D2E/DX2                !
 ! D213  D(27,25,26,50)          2.9267         estimate D2E/DX2                !
 ! D214  D(23,25,27,51)        179.7113         estimate D2E/DX2                !
 ! D215  D(23,25,27,52)          0.2641         estimate D2E/DX2                !
 ! D216  D(26,25,27,51)          0.9369         estimate D2E/DX2                !
 ! D217  D(26,25,27,52)       -178.5103         estimate D2E/DX2                !
 --------------------------------------------------------------------------------
 Trust Radius=3.00D-01 FncErr=1.00D-07 GrdErr=1.00D-06
 Number of steps in this run=    390 maximum allowed number of steps=    390.
 GradGradGradGradGradGradGradGradGradGradGradGradGradGradGradGradGradGrad

 Stoichiometry    C26H34O5
 Framework group  C1[X(C26H34O5)]
 Deg. of freedom   189
 Full point group                 C1      NOp   1
 Largest Abelian subgroup         C1      NOp   1
 Largest concise Abelian subgroup C1      NOp   1
                         Standard orientation:                         
 ---------------------------------------------------------------------
 Center     Atomic      Atomic             Coordinates (Angstroms)
 Number     Number       Type             X           Y           Z
 ---------------------------------------------------------------------
      1          6           0        1.817539    0.579475    2.832340
      2          6           0        2.171826    1.641878    2.099120
      3          6           0        1.687196    1.777597    0.674447
      4          6           0        1.373399    0.443788   -0.078000
      5          6           0        1.182432   -0.840734    0.801318
      6          6           0        0.935508   -0.520857    2.306948
      7          6           0        0.157136    0.792582   -0.998089
      8          6           0       -1.165436    0.280391   -0.450293
      9          6           0       -1.309443   -0.934163    0.127587
     10          6           0       -0.051873   -1.685878    0.379070
     11          6           0       -2.597557   -1.516864    0.630703
     12          8           0       -2.624997   -2.054454    1.726610
     13          6           0       -3.819058   -1.495325   -0.289201
     14          6           0       -5.137246   -1.511053    0.499652
     15          6           0       -3.699638   -2.719511   -1.226463
     16          8           0       -0.003928   -2.903201    0.377225
     17          6           0       -0.083195    2.316843   -0.915129
     18          6           0       -1.598745    2.452238   -1.183834
     19          8           0       -2.142641    1.184396   -0.629503
     20          6           0        0.414682    2.648339    0.505529
     21          8           0        0.313439    0.277889   -2.304832
     22          6           0        2.492432   -1.639029    0.583140
     23          6           0        3.383195   -0.732227   -0.286522
     24          8           0        2.461432    0.133946   -0.963156
     25          6           0        4.284689   -1.450938   -1.262467
     26          6           0        5.284253   -2.382771   -0.621393
     27          6           0        4.221057   -1.261817   -2.582349
     28          6           0       -1.923587    2.479418   -2.679587
     29          6           0       -2.313749    3.577742   -0.443067
     30          1           0        0.504210    2.846103   -1.671278
     31          1           0        2.477476    2.249187    0.074192
     32          6           0        3.025774    2.760545    2.637804
     33          1           0        2.147893    0.505230    3.867543
     34          1           0        1.086809   -1.445340    2.874392
     35          1           0       -0.121370   -0.259844    2.461812
     36          1           0       -3.771750   -0.590382   -0.905868
     37          1           0       -5.132806   -2.378167    1.169937
     38          1           0       -5.960571   -1.661310   -0.211759
     39          1           0       -2.748876   -2.721342   -1.770118
     40          1           0       -4.513340   -2.711915   -1.960300
     41          1           0       -3.761486   -3.650185   -0.651795
     42          1           0       -0.329419    2.359068    1.257238
     43          1           0        0.620209    3.713623    0.648317
     44          1           0        1.241372   -0.030212   -2.345006
     45          1           0        2.981060   -1.890158    1.528075
     46          1           0        2.257348   -2.575859    0.070980
     47          1           0        4.014574   -0.109656    0.369328
     48          1           0        4.787072   -3.206071   -0.092121
     49          1           0        5.900329   -1.856512    0.120924
     50          1           0        5.953111   -2.817715   -1.369365
     51          1           0        4.888131   -1.792044   -3.256816
     52          1           0        3.515734   -0.572722   -3.033610
     53          1           0       -3.003634    2.379359   -2.829095
     54          1           0       -1.603953    3.432886   -3.115422
     55          1           0       -1.412712    1.669301   -3.205001
     56          1           0       -1.943483    4.548532   -0.790494
     57          1           0       -2.164162    3.514542    0.637613
     58          1           0       -3.389439    3.533522   -0.641254
     59          1           0        3.312453    2.582051    3.678963
     60          1           0        3.943964    2.880687    2.046038
     61          1           0        2.499720    3.724346    2.594811
     62          6           0       -5.388109   -0.235426    1.311037
     63          1           0       -5.389749    0.653225    0.667367
     64          1           0       -4.615519   -0.097040    2.074758
     65          1           0       -6.356534   -0.279239    1.822455
 ---------------------------------------------------------------------
 Rotational constants (GHZ):      0.2172310      0.1214016      0.1074409
 Standard basis: 6-311+G(d) (5D, 7F)
 There are   784 symmetry adapted basis functions of A   symmetry.
 Integral buffers will be    131072 words long.
 Raffenetti 2 integral format.
 Two-electron integral symmetry is turned on.
   784 basis functions,  1286 primitive gaussians,   815 cartesian basis functions
   115 alpha electrons      115 beta electrons
       nuclear repulsion energy      3495.3414377306 Hartrees.
 NAtoms=   65 NActive=   65 NUniq=   65 SFac= 1.00D+00 NAtFMM=   50 NAOKFM=T Big=T
 One-electron integrals computed using PRISM.
 NBasis=   784 RedAO= T  NBF=   784
 NBsUse=   778 1.00D-06 NBFU=   778
 Harris functional with IExCor=  402 diagonalized for initial guess.
 ExpMin= 4.38D-02 ExpMax= 8.59D+03 ExpMxC= 1.30D+03 IAcc=2 IRadAn=         0 AccDes= 0.00D+00
 HarFok:  IExCor=  402 AccDes= 0.00D+00 IRadAn=         0 IDoV= 1
 ScaDFX=  1.000000  1.000000  1.000000  1.000000
 FoFCou: FMM=F IPFlag=           0 FMFlag=      100000 FMFlg1=        2001
         NFxFlg=           0 DoJE=T BraDBF=F KetDBF=T FulRan=T
         Omega=  0.000000  0.000000  1.000000  0.000000  0.000000 ICntrl=     500 IOpCl=  0
         NMat0=    1 NMatS0=    1 NMatT0=    0 NMatD0=    1 NMtDS0=    0 NMtDT0=    0
         I1Cent=           4 NGrid=           0.
 Petite list used in FoFCou.
 Initial guess orbital symmetries:
       Occupied  (A) (A) (A) (A) (A) (A) (A) (A) (A) (A) (A) (A)
                 (A) (A) (A) (A) (A) (A) (A) (A) (A) (A) (A) (A)
                 (A) (A) (A) (A) (A) (A) (A) (A) (A) (A) (A) (A)
                 (A) (A) (A) (A) (A) (A) (A) (A) (A) (A) (A) (A)
                 (A) (A) (A) (A) (A) (A) (A) (A) (A) (A) (A) (A)
                 (A) (A) (A) (A) (A) (A) (A) (A) (A) (A) (A) (A)
                 (A) (A) (A) (A) (A) (A) (A) (A) (A) (A) (A) (A)
                 (A) (A) (A) (A) (A) (A) (A) (A) (A) (A) (A) (A)
                 (A) (A) (A) (A) (A) (A) (A) (A) (A) (A) (A) (A)
                 (A) (A) (A) (A) (A) (A) (A)
       Virtual   (A) (A) (A) (A) (A) (A) (A) (A) (A) (A) (A) (A)
                 (A) (A) (A) (A) (A) (A) (A) (A) (A) (A) (A) (A)
                 (A) (A) (A) (A) (A) (A) (A) (A) (A) (A) (A) (A)
                 (A) (A) (A) (A) (A) (A) (A) (A) (A) (A) (A) (A)
                 (A) (A) (A) (A) (A) (A) (A) (A) (A) (A) (A) (A)
                 (A) (A) (A) (A) (A) (A) (A) (A) (A) (A) (A) (A)
                 (A) (A) (A) (A) (A) (A) (A) (A) (A) (A) (A) (A)
                 (A) (A) (A) (A) (A) (A) (A) (A) (A) (A) (A) (A)
                 (A) (A) (A) (A) (A) (A) (A) (A) (A) (A) (A) (A)
                 (A) (A) (A) (A) (A) (A) (A) (A) (A) (A) (A) (A)
                 (A) (A) (A) (A) (A) (A) (A) (A) (A) (A) (A) (A)
                 (A) (A) (A) (A) (A) (A) (A) (A) (A) (A) (A) (A)
                 (A) (A) (A) (A) (A) (A) (A) (A) (A) (A) (A) (A)
                 (A) (A) (A) (A) (A) (A) (A) (A) (A) (A) (A) (A)
                 (A) (A) (A) (A) (A) (A) (A) (A) (A) (A) (A) (A)
                 (A) (A) (A) (A) (A) (A) (A) (A) (A) (A) (A) (A)
                 (A) (A) (A) (A) (A) (A) (A) (A) (A) (A) (A) (A)
                 (A) (A) (A) (A) (A) (A) (A) (A) (A) (A) (A) (A)
                 (A) (A) (A) (A) (A) (A) (A) (A) (A) (A) (A) (A)
                 (A) (A) (A) (A) (A) (A) (A) (A) (A) (A) (A) (A)
                 (A) (A) (A) (A) (A) (A) (A) (A) (A) (A) (A) (A)
                 (A) (A) (A) (A) (A) (A) (A) (A) (A) (A) (A) (A)
                 (A) (A) (A) (A) (A) (A) (A) (A) (A) (A) (A) (A)
                 (A) (A) (A) (A) (A) (A) (A) (A) (A) (A) (A) (A)
                 (A) (A) (A) (A) (A) (A) (A) (A) (A) (A) (A) (A)
                 (A) (A) (A) (A) (A) (A) (A) (A) (A) (A) (A) (A)
                 (A) (A) (A) (A) (A) (A) (A) (A) (A) (A) (A) (A)
                 (A) (A) (A) (A) (A) (A) (A) (A) (A) (A) (A) (A)
                 (A) (A) (A) (A) (A) (A) (A) (A) (A) (A) (A) (A)
                 (A) (A) (A) (A) (A) (A) (A) (A) (A) (A) (A) (A)
                 (A) (A) (A) (A) (A) (A) (A) (A) (A) (A) (A) (A)
                 (A) (A) (A) (A) (A) (A) (A) (A) (A) (A) (A) (A)
                 (A) (A) (A) (A) (A) (A) (A) (A) (A) (A) (A) (A)
                 (A) (A) (A) (A) (A) (A) (A) (A) (A) (A) (A) (A)
                 (A) (A) (A) (A) (A) (A) (A) (A) (A) (A) (A) (A)
                 (A) (A) (A) (A) (A) (A) (A) (A) (A) (A) (A) (A)
                 (A) (A) (A) (A) (A) (A) (A) (A) (A) (A) (A) (A)
                 (A) (A) (A) (A) (A) (A) (A) (A) (A) (A) (A) (A)
                 (A) (A) (A) (A) (A) (A) (A) (A) (A) (A) (A) (A)
                 (A) (A) (A) (A) (A) (A) (A) (A) (A) (A) (A) (A)
                 (A) (A) (A) (A) (A) (A) (A) (A) (A) (A) (A) (A)
                 (A) (A) (A) (A) (A) (A) (A) (A) (A) (A) (A) (A)
                 (A) (A) (A) (A) (A) (A) (A) (A) (A) (A) (A) (A)
                 (A) (A) (A) (A) (A) (A) (A) (A) (A) (A) (A) (A)
                 (A) (A) (A) (A) (A) (A) (A) (A) (A) (A) (A) (A)
                 (A) (A) (A) (A) (A) (A) (A) (A) (A) (A) (A) (A)
                 (A) (A) (A) (A) (A) (A) (A) (A) (A) (A) (A) (A)
                 (A) (A) (A) (A) (A) (A) (A) (A) (A) (A) (A) (A)
                 (A) (A) (A) (A) (A) (A) (A) (A) (A) (A) (A) (A)
                 (A) (A) (A) (A) (A) (A) (A) (A) (A) (A) (A) (A)
                 (A) (A) (A) (A) (A) (A) (A) (A) (A) (A) (A) (A)
                 (A) (A) (A) (A) (A) (A) (A) (A) (A) (A) (A) (A)
                 (A) (A) (A) (A) (A) (A) (A) (A) (A) (A) (A) (A)
                 (A) (A) (A) (A) (A) (A) (A) (A) (A) (A) (A) (A)
                 (A) (A) (A) (A) (A) (A) (A) (A) (A) (A) (A) (A)
                 (A) (A) (A)
 The electronic state of the initial guess is 1-A.
 Requested convergence on RMS density matrix=1.00D-08 within 128 cycles.
 Requested convergence on MAX density matrix=1.00D-06.
 Requested convergence on             energy=1.00D-06.
 No special actions if energy rises.
 SCF Done:  E(RB3LYP) =  -1387.65003403     A.U. after   17 cycles
             Convg  =    0.7486D-08             -V/T =  2.0043

 **********************************************************************

            Population analysis using the SCF density.

 **********************************************************************

 Orbital symmetries:
       Occupied  (A) (A) (A) (A) (A) (A) (A) (A) (A) (A) (A) (A)
                 (A) (A) (A) (A) (A) (A) (A) (A) (A) (A) (A) (A)
                 (A) (A) (A) (A) (A) (A) (A) (A) (A) (A) (A) (A)
                 (A) (A) (A) (A) (A) (A) (A) (A) (A) (A) (A) (A)
                 (A) (A) (A) (A) (A) (A) (A) (A) (A) (A) (A) (A)
                 (A) (A) (A) (A) (A) (A) (A) (A) (A) (A) (A) (A)
                 (A) (A) (A) (A) (A) (A) (A) (A) (A) (A) (A) (A)
                 (A) (A) (A) (A) (A) (A) (A) (A) (A) (A) (A) (A)
                 (A) (A) (A) (A) (A) (A) (A) (A) (A) (A) (A) (A)
                 (A) (A) (A) (A) (A) (A) (A)
       Virtual   (A) (A) (A) (A) (A) (A) (A) (A) (A) (A) (A) (A)
                 (A) (A) (A) (A) (A) (A) (A) (A) (A) (A) (A) (A)
                 (A) (A) (A) (A) (A) (A) (A) (A) (A) (A) (A) (A)
                 (A) (A) (A) (A) (A) (A) (A) (A) (A) (A) (A) (A)
                 (A) (A) (A) (A) (A) (A) (A) (A) (A) (A) (A) (A)
                 (A) (A) (A) (A) (A) (A) (A) (A) (A) (A) (A) (A)
                 (A) (A) (A) (A) (A) (A) (A) (A) (A) (A) (A) (A)
                 (A) (A) (A) (A) (A) (A) (A) (A) (A) (A) (A) (A)
                 (A) (A) (A) (A) (A) (A) (A) (A) (A) (A) (A) (A)
                 (A) (A) (A) (A) (A) (A) (A) (A) (A) (A) (A) (A)
                 (A) (A) (A) (A) (A) (A) (A) (A) (A) (A) (A) (A)
                 (A) (A) (A) (A) (A) (A) (A) (A) (A) (A) (A) (A)
                 (A) (A) (A) (A) (A) (A) (A) (A) (A) (A) (A) (A)
                 (A) (A) (A) (A) (A) (A) (A) (A) (A) (A) (A) (A)
                 (A) (A) (A) (A) (A) (A) (A) (A) (A) (A) (A) (A)
                 (A) (A) (A) (A) (A) (A) (A) (A) (A) (A) (A) (A)
                 (A) (A) (A) (A) (A) (A) (A) (A) (A) (A) (A) (A)
                 (A) (A) (A) (A) (A) (A) (A) (A) (A) (A) (A) (A)
                 (A) (A) (A) (A) (A) (A) (A) (A) (A) (A) (A) (A)
                 (A) (A) (A) (A) (A) (A) (A) (A) (A) (A) (A) (A)
                 (A) (A) (A) (A) (A) (A) (A) (A) (A) (A) (A) (A)
                 (A) (A) (A) (A) (A) (A) (A) (A) (A) (A) (A) (A)
                 (A) (A) (A) (A) (A) (A) (A) (A) (A) (A) (A) (A)
                 (A) (A) (A) (A) (A) (A) (A) (A) (A) (A) (A) (A)
                 (A) (A) (A) (A) (A) (A) (A) (A) (A) (A) (A) (A)
                 (A) (A) (A) (A) (A) (A) (A) (A) (A) (A) (A) (A)
                 (A) (A) (A) (A) (A) (A) (A) (A) (A) (A) (A) (A)
                 (A) (A) (A) (A) (A) (A) (A) (A) (A) (A) (A) (A)
                 (A) (A) (A) (A) (A) (A) (A) (A) (A) (A) (A) (A)
                 (A) (A) (A) (A) (A) (A) (A) (A) (A) (A) (A) (A)
                 (A) (A) (A) (A) (A) (A) (A) (A) (A) (A) (A) (A)
                 (A) (A) (A) (A) (A) (A) (A) (A) (A) (A) (A) (A)
                 (A) (A) (A) (A) (A) (A) (A) (A) (A) (A) (A) (A)
                 (A) (A) (A) (A) (A) (A) (A) (A) (A) (A) (A) (A)
                 (A) (A) (A) (A) (A) (A) (A) (A) (A) (A) (A) (A)
                 (A) (A) (A) (A) (A) (A) (A) (A) (A) (A) (A) (A)
                 (A) (A) (A) (A) (A) (A) (A) (A) (A) (A) (A) (A)
                 (A) (A) (A) (A) (A) (A) (A) (A) (A) (A) (A) (A)
                 (A) (A) (A) (A) (A) (A) (A) (A) (A) (A) (A) (A)
                 (A) (A) (A) (A) (A) (A) (A) (A) (A) (A) (A) (A)
                 (A) (A) (A) (A) (A) (A) (A) (A) (A) (A) (A) (A)
                 (A) (A) (A) (A) (A) (A) (A) (A) (A) (A) (A) (A)
                 (A) (A) (A) (A) (A) (A) (A) (A) (A) (A) (A) (A)
                 (A) (A) (A) (A) (A) (A) (A) (A) (A) (A) (A) (A)
                 (A) (A) (A) (A) (A) (A) (A) (A) (A) (A) (A) (A)
                 (A) (A) (A) (A) (A) (A) (A) (A) (A) (A) (A) (A)
                 (A) (A) (A) (A) (A) (A) (A) (A) (A) (A) (A) (A)
                 (A) (A) (A) (A) (A) (A) (A) (A) (A) (A) (A) (A)
                 (A) (A) (A) (A) (A) (A) (A) (A) (A) (A) (A) (A)
                 (A) (A) (A) (A) (A) (A) (A) (A) (A) (A) (A) (A)
                 (A) (A) (A) (A) (A) (A) (A) (A) (A) (A) (A) (A)
                 (A) (A) (A) (A) (A) (A) (A) (A) (A) (A) (A) (A)
                 (A) (A) (A) (A) (A) (A) (A) (A) (A) (A) (A) (A)
                 (A) (A) (A) (A) (A) (A) (A) (A) (A) (A) (A) (A)
                 (A) (A) (A) (A) (A) (A) (A) (A) (A) (A) (A) (A)
                 (A) (A) (A)
 The electronic state is 1-A.
 Alpha  occ. eigenvalues --  -19.17936 -19.15278 -19.13585 -19.11139 -19.10631
 Alpha  occ. eigenvalues --  -10.26405 -10.26363 -10.26157 -10.25897 -10.25775
 Alpha  occ. eigenvalues --  -10.25770 -10.24132 -10.20887 -10.20016 -10.19868
 Alpha  occ. eigenvalues --  -10.19459 -10.19237 -10.19095 -10.18626 -10.18335
 Alpha  occ. eigenvalues --  -10.18182 -10.17968 -10.17841 -10.17760 -10.17612
 Alpha  occ. eigenvalues --  -10.17311 -10.17309 -10.16604 -10.15724 -10.15714
 Alpha  occ. eigenvalues --  -10.14871  -1.10298  -1.07904  -1.04670  -1.03827
 Alpha  occ. eigenvalues --   -1.03464  -0.88042  -0.84864  -0.83168  -0.82355
 Alpha  occ. eigenvalues --   -0.81054  -0.80276  -0.77843  -0.74888  -0.74143
 Alpha  occ. eigenvalues --   -0.73224  -0.72388  -0.71071  -0.69852  -0.69302
 Alpha  occ. eigenvalues --   -0.65713  -0.64987  -0.64302  -0.62709  -0.61886
 Alpha  occ. eigenvalues --   -0.60093  -0.59857  -0.57885  -0.56182  -0.54323
 Alpha  occ. eigenvalues --   -0.54274  -0.52943  -0.52015  -0.50925  -0.50478
 Alpha  occ. eigenvalues --   -0.49453  -0.48634  -0.48073  -0.47552  -0.47083
 Alpha  occ. eigenvalues --   -0.46033  -0.45350  -0.45132  -0.44401  -0.44034
 Alpha  occ. eigenvalues --   -0.43514  -0.43282  -0.43097  -0.42751  -0.42421
 Alpha  occ. eigenvalues --   -0.41857  -0.41774  -0.41425  -0.41021  -0.40972
 Alpha  occ. eigenvalues --   -0.40406  -0.40220  -0.40005  -0.39559  -0.39267
 Alpha  occ. eigenvalues --   -0.38733  -0.38626  -0.38283  -0.37344  -0.36933
 Alpha  occ. eigenvalues --   -0.36735  -0.36529  -0.36228  -0.35758  -0.35534
 Alpha  occ. eigenvalues --   -0.34987  -0.34708  -0.34083  -0.33545  -0.33395
 Alpha  occ. eigenvalues --   -0.32641  -0.32436  -0.31909  -0.29588  -0.28884
 Alpha  occ. eigenvalues --   -0.26155  -0.25951  -0.25514  -0.24671  -0.24156
 Alpha virt. eigenvalues --   -0.05679  -0.03376  -0.01624  -0.00866  -0.00772
 Alpha virt. eigenvalues --    0.00166   0.00321   0.00532   0.01445   0.01762
 Alpha virt. eigenvalues --    0.02049   0.02193   0.02643   0.03326   0.03548
 Alpha virt. eigenvalues --    0.03648   0.03821   0.04289   0.04623   0.04736
 Alpha virt. eigenvalues --    0.04904   0.05420   0.05574   0.05971   0.06008
 Alpha virt. eigenvalues --    0.06496   0.06698   0.07069   0.07162   0.07265
 Alpha virt. eigenvalues --    0.07578   0.07774   0.08369   0.08460   0.08757
 Alpha virt. eigenvalues --    0.08781   0.09076   0.09110   0.09286   0.09494
 Alpha virt. eigenvalues --    0.09722   0.10356   0.10598   0.10841   0.10939
 Alpha virt. eigenvalues --    0.11250   0.11639   0.11763   0.12021   0.12350
 Alpha virt. eigenvalues --    0.12568   0.12769   0.13050   0.13218   0.13482
 Alpha virt. eigenvalues --    0.13657   0.13966   0.14226   0.14280   0.14398
 Alpha virt. eigenvalues --    0.14698   0.14856   0.15337   0.15597   0.15858
 Alpha virt. eigenvalues --    0.15998   0.16243   0.16499   0.16768   0.16868
 Alpha virt. eigenvalues --    0.17382   0.17551   0.17859   0.17989   0.18193
 Alpha virt. eigenvalues --    0.18366   0.18568   0.18648   0.18889   0.19080
 Alpha virt. eigenvalues --    0.19267   0.19508   0.19696   0.19851   0.20052
 Alpha virt. eigenvalues --    0.20265   0.20355   0.20597   0.20751   0.20985
 Alpha virt. eigenvalues --    0.21140   0.21297   0.21565   0.21838   0.21948
 Alpha virt. eigenvalues --    0.22046   0.22232   0.22372   0.22723   0.22824
 Alpha virt. eigenvalues --    0.23121   0.23217   0.23441   0.23677   0.23929
 Alpha virt. eigenvalues --    0.24007   0.24159   0.24305   0.24563   0.24764
 Alpha virt. eigenvalues --    0.24911   0.25054   0.25539   0.25552   0.25924
 Alpha virt. eigenvalues --    0.26040   0.26464   0.26582   0.26724   0.26957
 Alpha virt. eigenvalues --    0.27128   0.27621   0.27795   0.27995   0.28139
 Alpha virt. eigenvalues --    0.28362   0.28677   0.28967   0.29076   0.29439
 Alpha virt. eigenvalues --    0.29579   0.29881   0.30125   0.30289   0.30620
 Alpha virt. eigenvalues --    0.30818   0.30967   0.31706   0.31807   0.32209
 Alpha virt. eigenvalues --    0.32399   0.32776   0.33081   0.33362   0.33608
 Alpha virt. eigenvalues --    0.33795   0.34328   0.34443   0.34960   0.35152
 Alpha virt. eigenvalues --    0.35441   0.35748   0.35983   0.36226   0.36416
 Alpha virt. eigenvalues --    0.37095   0.37266   0.37674   0.37942   0.37995
 Alpha virt. eigenvalues --    0.38406   0.38923   0.39088   0.39499   0.39755
 Alpha virt. eigenvalues --    0.39937   0.40478   0.40913   0.41102   0.41489
 Alpha virt. eigenvalues --    0.42143   0.42934   0.43199   0.43644   0.43734
 Alpha virt. eigenvalues --    0.43921   0.44461   0.44579   0.45220   0.45346
 Alpha virt. eigenvalues --    0.45499   0.46037   0.46400   0.46774   0.47267
 Alpha virt. eigenvalues --    0.47338   0.47786   0.48547   0.48793   0.49094
 Alpha virt. eigenvalues --    0.49655   0.50336   0.50568   0.50830   0.50918
 Alpha virt. eigenvalues --    0.51830   0.52041   0.52319   0.53422   0.53739
 Alpha virt. eigenvalues --    0.54023   0.54438   0.55037   0.55356   0.55728
 Alpha virt. eigenvalues --    0.55859   0.56345   0.56601   0.57201   0.57459
 Alpha virt. eigenvalues --    0.57842   0.58329   0.58914   0.59116   0.59419
 Alpha virt. eigenvalues --    0.59722   0.60087   0.60349   0.60910   0.61386
 Alpha virt. eigenvalues --    0.61858   0.62088   0.62501   0.62748   0.63065
 Alpha virt. eigenvalues --    0.64008   0.64533   0.64729   0.65021   0.65575
 Alpha virt. eigenvalues --    0.65974   0.66725   0.66869   0.67151   0.67454
 Alpha virt. eigenvalues --    0.67631   0.68077   0.68299   0.68702   0.68743
 Alpha virt. eigenvalues --    0.69253   0.69514   0.69617   0.70007   0.70469
 Alpha virt. eigenvalues --    0.70629   0.70839   0.71024   0.71328   0.71524
 Alpha virt. eigenvalues --    0.71869   0.72064   0.72183   0.72936   0.73054
 Alpha virt. eigenvalues --    0.73510   0.73560   0.73805   0.74110   0.74557
 Alpha virt. eigenvalues --    0.74882   0.75592   0.75778   0.75938   0.76702
 Alpha virt. eigenvalues --    0.77673   0.77822   0.77924   0.78165   0.78789
 Alpha virt. eigenvalues --    0.79205   0.79503   0.80039   0.80469   0.80683
 Alpha virt. eigenvalues --    0.80759   0.81087   0.81729   0.82089   0.82719
 Alpha virt. eigenvalues --    0.83286   0.83706   0.83926   0.84336   0.84899
 Alpha virt. eigenvalues --    0.85704   0.86066   0.86832   0.87247   0.88493
 Alpha virt. eigenvalues --    0.89697   0.89773   0.90233   0.91161   0.91745
 Alpha virt. eigenvalues --    0.92628   0.93340   0.94239   0.94888   0.95762
 Alpha virt. eigenvalues --    0.96721   0.97862   0.98283   0.98565   0.99328
 Alpha virt. eigenvalues --    1.00415   1.00793   1.02096   1.03720   1.04663
 Alpha virt. eigenvalues --    1.05188   1.06163   1.06896   1.07627   1.10134
 Alpha virt. eigenvalues --    1.10775   1.11220   1.12516   1.13875   1.14913
 Alpha virt. eigenvalues --    1.15155   1.15811   1.16211   1.17095   1.17864
 Alpha virt. eigenvalues --    1.18938   1.19358   1.21084   1.22657   1.22885
 Alpha virt. eigenvalues --    1.23274   1.23973   1.24777   1.26194   1.27564
 Alpha virt. eigenvalues --    1.28284   1.28899   1.29698   1.30198   1.31104
 Alpha virt. eigenvalues --    1.31383   1.32674   1.33795   1.34248   1.34581
 Alpha virt. eigenvalues --    1.35391   1.36555   1.37030   1.37367   1.38608
 Alpha virt. eigenvalues --    1.38716   1.40081   1.40823   1.41447   1.42832
 Alpha virt. eigenvalues --    1.43771   1.45243   1.45861   1.47113   1.47710
 Alpha virt. eigenvalues --    1.48355   1.48793   1.50152   1.51403   1.51947
 Alpha virt. eigenvalues --    1.53328   1.53497   1.54186   1.54783   1.55571
 Alpha virt. eigenvalues --    1.55828   1.56533   1.56655   1.57363   1.58115
 Alpha virt. eigenvalues --    1.58494   1.58698   1.59801   1.60049   1.60296
 Alpha virt. eigenvalues --    1.60679   1.61000   1.61379   1.61930   1.62173
 Alpha virt. eigenvalues --    1.62622   1.62972   1.63256   1.64034   1.64335
 Alpha virt. eigenvalues --    1.64873   1.65336   1.65628   1.66139   1.67167
 Alpha virt. eigenvalues --    1.67554   1.67785   1.68456   1.69079   1.69362
 Alpha virt. eigenvalues --    1.70372   1.70818   1.71060   1.71688   1.72105
 Alpha virt. eigenvalues --    1.72737   1.72911   1.73562   1.75023   1.75395
 Alpha virt. eigenvalues --    1.75952   1.76567   1.77753   1.78422   1.78930
 Alpha virt. eigenvalues --    1.79222   1.80845   1.81312   1.82285   1.83019
 Alpha virt. eigenvalues --    1.83218   1.83944   1.84834   1.85822   1.87193
 Alpha virt. eigenvalues --    1.88142   1.88479   1.89369   1.89863   1.90970
 Alpha virt. eigenvalues --    1.92537   1.92673   1.93244   1.94098   1.94861
 Alpha virt. eigenvalues --    1.95725   1.97884   1.98054   1.99608   2.00104
 Alpha virt. eigenvalues --    2.00535   2.01681   2.02986   2.04129   2.04780
 Alpha virt. eigenvalues --    2.05626   2.07313   2.08086   2.08644   2.08909
 Alpha virt. eigenvalues --    2.11762   2.12896   2.13174   2.14326   2.15520
 Alpha virt. eigenvalues --    2.17072   2.17126   2.20273   2.20603   2.21164
 Alpha virt. eigenvalues --    2.21897   2.22580   2.24038   2.24903   2.26458
 Alpha virt. eigenvalues --    2.26682   2.27698   2.29499   2.30902   2.31785
 Alpha virt. eigenvalues --    2.33590   2.34499   2.35413   2.37626   2.38827
 Alpha virt. eigenvalues --    2.40029   2.43396   2.46995   2.48514   2.50802
 Alpha virt. eigenvalues --    2.51179   2.51808   2.52824   2.53255   2.53929
 Alpha virt. eigenvalues --    2.54703   2.55131   2.55659   2.56123   2.57451
 Alpha virt. eigenvalues --    2.57619   2.57768   2.58282   2.60083   2.60927
 Alpha virt. eigenvalues --    2.61021   2.63093   2.63733   2.64109   2.65517
 Alpha virt. eigenvalues --    2.65578   2.66756   2.67971   2.69324   2.69513
 Alpha virt. eigenvalues --    2.70984   2.71526   2.71931   2.72313   2.72973
 Alpha virt. eigenvalues --    2.74528   2.75075   2.78289   2.78645   2.80428
 Alpha virt. eigenvalues --    2.85596   2.86356   2.87223   2.89361   2.90525
 Alpha virt. eigenvalues --    2.90966   2.92706   2.93101   2.94249   2.94713
 Alpha virt. eigenvalues --    2.96198   2.96476   2.96634   2.97993   2.98931
 Alpha virt. eigenvalues --    2.99395   3.00181   3.01745   3.02304   3.02813
 Alpha virt. eigenvalues --    3.03530   3.04083   3.04716   3.04928   3.06561
 Alpha virt. eigenvalues --    3.07106   3.08915   3.10371   3.11182   3.12073
 Alpha virt. eigenvalues --    3.12917   3.13620   3.15158   3.15432   3.16769
 Alpha virt. eigenvalues --    3.18283   3.18765   3.20110   3.20983   3.22043
 Alpha virt. eigenvalues --    3.22954   3.23804   3.24277   3.24652   3.25321
 Alpha virt. eigenvalues --    3.25985   3.26891   3.28434   3.29343   3.30269
 Alpha virt. eigenvalues --    3.30873   3.31515   3.31985   3.32719   3.33832
 Alpha virt. eigenvalues --    3.34875   3.35339   3.35981   3.37476   3.38311
 Alpha virt. eigenvalues --    3.38702   3.39112   3.39720   3.41064   3.42968
 Alpha virt. eigenvalues --    3.45504   3.46368   3.47424   3.50519   3.52084
 Alpha virt. eigenvalues --    3.52935   3.53349   3.58269   3.60969   3.65401
 Alpha virt. eigenvalues --    3.74907   3.76218   3.77969   3.80572   3.86238
 Alpha virt. eigenvalues --    3.89577   3.92646   3.94319   3.98245   4.01468
 Alpha virt. eigenvalues --    4.02063   4.05940   4.06112   4.07691   4.09506
 Alpha virt. eigenvalues --    4.11538   4.15884   4.17218   4.18258   4.20686
 Alpha virt. eigenvalues --    4.22137   4.23902   4.26528   4.28047   4.32781
 Alpha virt. eigenvalues --    4.45198   4.55030   5.14524   5.15528   5.16192
 Alpha virt. eigenvalues --    5.20282   5.22959   5.28311   5.31696   5.32066
 Alpha virt. eigenvalues --    5.41669   5.44289   5.56901   5.71572   5.72979
 Alpha virt. eigenvalues --    5.78248   5.81930  23.45966  23.49582  23.50695
 Alpha virt. eigenvalues --   23.53491  23.61998  23.62267  23.65229  23.66325
 Alpha virt. eigenvalues --   23.67161  23.70080  23.72324  23.74041  23.76298
 Alpha virt. eigenvalues --   23.78329  23.78996  23.79851  23.83594  23.84681
 Alpha virt. eigenvalues --   23.84983  23.88486  23.89003  23.90842  23.94818
 Alpha virt. eigenvalues --   24.19026  24.20644  24.21666  49.97708  50.00109
 Alpha virt. eigenvalues --   50.01507  50.02877  50.06306
          Condensed to atoms (all electrons):
 Mulliken atomic charges:
              1
     1  C   -0.654227
     2  C    0.959725
     3  C    0.088444
     4  C    0.407925
     5  C    1.284821
     6  C   -1.287590
     7  C   -0.866781
     8  C    0.100564
     9  C    0.519517
    10  C   -0.631132
    11  C   -0.634541
    12  O   -0.177311
    13  C    0.336030
    14  C   -0.276132
    15  C   -1.107467
    16  O   -0.156022
    17  C   -0.405075
    18  C    0.835538
    19  O    0.192207
    20  C   -1.707532
    21  O   -0.049309
    22  C   -0.710107
    23  C   -0.350072
    24  O    0.019001
    25  C    0.949555
    26  C   -1.141880
    27  C   -0.797784
    28  C   -0.695895
    29  C   -0.638642
    30  H    0.235719
    31  H    0.259664
    32  C   -1.214384
    33  H    0.208063
    34  H    0.264030
    35  H    0.280456
    36  H    0.233084
    37  H    0.259361
    38  H    0.217635
    39  H    0.279009
    40  H    0.254135
    41  H    0.275655
    42  H    0.295790
    43  H    0.263870
    44  H    0.270913
    45  H    0.258555
    46  H    0.298484
    47  H    0.255823
    48  H    0.265590
    49  H    0.252533
    50  H    0.259821
    51  H    0.220694
    52  H    0.230301
    53  H    0.262866
    54  H    0.247756
    55  H    0.315436
    56  H    0.263679
    57  H    0.265352
    58  H    0.272064
    59  H    0.250723
    60  H    0.258692
    61  H    0.246595
    62  C   -0.939327
    63  H    0.227222
    64  H    0.254519
    65  H    0.243795
 Sum of Mulliken atomic charges =   0.00000
 Mulliken charges with hydrogens summed into heavy atoms:
              1
     1  C   -0.446164
     2  C    0.959725
     3  C    0.348108
     4  C    0.407925
     5  C    1.284821
     6  C   -0.743103
     7  C   -0.866781
     8  C    0.100564
     9  C    0.519517
    10  C   -0.631132
    11  C   -0.634541
    12  O   -0.177311
    13  C    0.569113
    14  C    0.200865
    15  C   -0.298667
    16  O   -0.156022
    17  C   -0.169355
    18  C    0.835538
    19  O    0.192207
    20  C   -1.147872
    21  O    0.221604
    22  C   -0.153068
    23  C   -0.094249
    24  O    0.019001
    25  C    0.949555
    26  C   -0.363936
    27  C   -0.346788
    28  C    0.130162
    29  C    0.162452
    32  C   -0.458374
    62  C   -0.213792
 Sum of Mulliken charges with hydrogens summed into heavy atoms =   0.00000
 Electronic spatial extent (au):  <R**2>=          11804.3823
 Charge=              0.0000 electrons
 Dipole moment (field-independent basis, Debye):
    X=              2.8921    Y=              5.9436    Z=             -0.5642  Tot=              6.6339
 Quadrupole moment (field-independent basis, Debye-Ang):
   XX=           -179.8863   YY=           -189.8950   ZZ=           -191.1897
   XY=             -9.0327   XZ=             10.9678   YZ=              3.7230
 Traceless Quadrupole moment (field-independent basis, Debye-Ang):
   XX=              7.1040   YY=             -2.9047   ZZ=             -4.1994
   XY=             -9.0327   XZ=             10.9678   YZ=              3.7230
 Octapole moment (field-independent basis, Debye-Ang**2):
  XXX=             19.2747  YYY=             73.5150  ZZZ=             -2.5345  XYY=             13.0317
  XXY=            -21.0774  XXZ=            -19.0075  XZZ=             20.9555  YZZ=              9.3104
  YYZ=            -26.1629  XYZ=             -1.8454
 Hexadecapole moment (field-independent basis, Debye-Ang**3):
 XXXX=          -9255.9995 YYYY=          -4218.6381 ZZZZ=          -2676.9429 XXXY=           -115.3688
 XXXZ=             64.0877 YYYX=            -48.4229 YYYZ=            -26.0393 ZZZX=             22.2152
 ZZZY=             -9.0528 XXYY=          -2202.9432 XXZZ=          -2008.1512 YYZZ=          -1156.6920
 XXYZ=             60.5052 YYXZ=             41.7416 ZZXY=            -49.1779
 N-N= 3.495341437731D+03 E-N=-1.022340412949D+04  KE= 1.381711503543D+03
 Calling FoFJK, ICntrl=      2127 FMM=T ISym2X=0 I1Cent= 0 IOpClX= 0 NMat=1 NMatS=1 NMatT=0.
 ***** Axes restored to original set *****
 -------------------------------------------------------------------
 Center     Atomic                   Forces (Hartrees/Bohr)
 Number     Number              X              Y              Z
 -------------------------------------------------------------------
      1        6           0.000487648    0.002096815   -0.001652400
      2        6          -0.000672003   -0.001785324    0.001571447
      3        6          -0.000101529    0.000354077   -0.000063846
      4        6          -0.000462001    0.000801583    0.000464046
      5        6           0.000403787   -0.000604807   -0.000167266
      6        6          -0.000267607   -0.000329659   -0.000091200
      7        6          -0.002198028    0.001048956    0.002688644
      8        6          -0.002600296   -0.002207799    0.000724515
      9        6           0.001317332    0.002070903   -0.000232037
     10        6          -0.000178607   -0.007226334    0.000547724
     11        6          -0.000677258   -0.003610463    0.005990859
     12        8           0.000170206    0.004102091   -0.007595379
     13        6          -0.000253557    0.000220060    0.000195952
     14        6           0.000138527   -0.000117604   -0.000012110
     15        6           0.000414432   -0.000252447    0.000252391
     16        8          -0.000356567    0.008541012   -0.000180371
     17        6           0.000299769    0.000115077   -0.000410514
     18        6          -0.000153258    0.001662726   -0.000622022
     19        8           0.002304283   -0.002565044    0.000718532
     20        6          -0.000229330   -0.000051839    0.000430444
     21        8           0.006014079   -0.000923525    0.000384600
     22        6           0.000308475   -0.000231281   -0.000085923
     23        6           0.001119238   -0.001252743    0.000309573
     24        8          -0.000093863   -0.000552825    0.000934087
     25        6           0.000412659    0.000466185   -0.001318396
     26        6          -0.000030631   -0.000153718    0.000324975
     27        6           0.000115113   -0.000210031    0.001683378
     28        6           0.000355377    0.000051995    0.000360634
     29        6           0.000487682   -0.000246926   -0.000150382
     30        1          -0.000752849   -0.000691448    0.000781646
     31        1          -0.000791007   -0.000432785    0.000993748
     32        6           0.000058012    0.000290710   -0.000067780
     33        1          -0.000255055    0.000002357   -0.000843421
     34        1          -0.000527447    0.001418737   -0.000627918
     35        1           0.001746915   -0.000235118    0.000235484
     36        1           0.000028334   -0.001132754    0.000809559
     37        1          -0.000739387    0.000910779   -0.001124482
     38        1           0.000989537   -0.000124261    0.000929029
     39        1          -0.001652840   -0.000377880    0.000383187
     40        1           0.001276795   -0.000027672    0.000984340
     41        1           0.000057885    0.001149976   -0.001285627
     42        1           0.001180343    0.000653971   -0.000881418
     43        1          -0.000416317   -0.001515953   -0.000203789
     44        1          -0.004534840    0.000899908   -0.002700046
     45        1          -0.000713015    0.000169667   -0.001363106
     46        1           0.000895601    0.001301967    0.000825644
     47        1          -0.000630797   -0.000571462   -0.001311110
     48        1           0.000883868    0.001169822   -0.000843446
     49        1          -0.000788183   -0.000890702   -0.001135975
     50        1          -0.000874606    0.000557307    0.001324394
     51        1          -0.000611221    0.000508514    0.000540473
     52        1           0.000713373   -0.000797994    0.000359663
     53        1           0.001584229    0.000240161   -0.000118153
     54        1          -0.000518504   -0.001413366    0.000330548
     55        1          -0.001236378    0.001543789    0.000206357
     56        1          -0.000705015   -0.001128835    0.000691470
     57        1          -0.000466415    0.000433750   -0.001592772
     58        1           0.001602938    0.000383932    0.000370404
     59        1          -0.000301906    0.000493896   -0.001601150
     60        1          -0.001256053   -0.000147658    0.000977806
     61        1           0.000884217   -0.001392688    0.000202096
     62        6           0.000222589    0.000013787   -0.000093507
     63        1          -0.000281680   -0.001066287    0.001162895
[...]
                 (A) (A) (A) (A) (A) (A) (A) (A) (A) (A) (A) (A)
                 (A) (A) (A) (A) (A) (A) (A) (A) (A) (A) (A) (A)
                 (A) (A) (A) (A) (A) (A) (A) (A) (A) (A) (A) (A)
                 (A) (A) (A)
 The electronic state is 1-A.
 Alpha  occ. eigenvalues --  -19.17836 -19.15117 -19.13545 -19.11051 -19.10693
 Alpha  occ. eigenvalues --  -10.26306 -10.26222 -10.26132 -10.25821 -10.25729
 Alpha  occ. eigenvalues --  -10.25728 -10.24005 -10.20796 -10.19912 -10.19768
 Alpha  occ. eigenvalues --  -10.19359 -10.19150 -10.18985 -10.18518 -10.18187
 Alpha  occ. eigenvalues --  -10.18079 -10.17865 -10.17726 -10.17675 -10.17506
 Alpha  occ. eigenvalues --  -10.17262 -10.17230 -10.16514 -10.15645 -10.15620
 Alpha  occ. eigenvalues --  -10.14742  -1.10243  -1.07731  -1.04915  -1.03815
 Alpha  occ. eigenvalues --   -1.03784  -0.88110  -0.84907  -0.83225  -0.82400
 Alpha  occ. eigenvalues --   -0.81083  -0.80333  -0.77872  -0.74897  -0.74154
 Alpha  occ. eigenvalues --   -0.73278  -0.72424  -0.71135  -0.69899  -0.69327
 Alpha  occ. eigenvalues --   -0.65708  -0.64995  -0.64347  -0.62748  -0.61887
 Alpha  occ. eigenvalues --   -0.60107  -0.59917  -0.57929  -0.56205  -0.54394
 Alpha  occ. eigenvalues --   -0.54256  -0.52959  -0.51994  -0.50969  -0.50458
 Alpha  occ. eigenvalues --   -0.49496  -0.48686  -0.48069  -0.47577  -0.47069
 Alpha  occ. eigenvalues --   -0.46036  -0.45378  -0.45163  -0.44446  -0.44117
 Alpha  occ. eigenvalues --   -0.43505  -0.43320  -0.43103  -0.42784  -0.42454
 Alpha  occ. eigenvalues --   -0.41901  -0.41796  -0.41435  -0.41045  -0.40965
 Alpha  occ. eigenvalues --   -0.40438  -0.40272  -0.39998  -0.39589  -0.39267
 Alpha  occ. eigenvalues --   -0.38690  -0.38590  -0.38309  -0.37339  -0.36936
 Alpha  occ. eigenvalues --   -0.36808  -0.36537  -0.36218  -0.35764  -0.35587
 Alpha  occ. eigenvalues --   -0.34971  -0.34675  -0.34130  -0.33533  -0.33374
 Alpha  occ. eigenvalues --   -0.32661  -0.32448  -0.31926  -0.29537  -0.28858
 Alpha  occ. eigenvalues --   -0.26155  -0.25909  -0.25496  -0.24663  -0.24100
 Alpha virt. eigenvalues --   -0.05541  -0.03185  -0.01588  -0.00821  -0.00738
 Alpha virt. eigenvalues --    0.00194   0.00343   0.00548   0.01449   0.01784
 Alpha virt. eigenvalues --    0.02015   0.02216   0.02657   0.03363   0.03567
 Alpha virt. eigenvalues --    0.03694   0.03823   0.04261   0.04633   0.04786
 Alpha virt. eigenvalues --    0.04930   0.05412   0.05585   0.05919   0.06057
 Alpha virt. eigenvalues --    0.06480   0.06701   0.07113   0.07192   0.07260
 Alpha virt. eigenvalues --    0.07641   0.07825   0.08389   0.08483   0.08721
 Alpha virt. eigenvalues --    0.08859   0.09049   0.09136   0.09296   0.09536
 Alpha virt. eigenvalues --    0.09819   0.10362   0.10663   0.10789   0.10903
 Alpha virt. eigenvalues --    0.11222   0.11688   0.11778   0.12083   0.12359
 Alpha virt. eigenvalues --    0.12647   0.12860   0.13073   0.13258   0.13560
 Alpha virt. eigenvalues --    0.13704   0.13965   0.14181   0.14345   0.14446
 Alpha virt. eigenvalues --    0.14689   0.14850   0.15377   0.15626   0.15885
 Alpha virt. eigenvalues --    0.16018   0.16296   0.16448   0.16802   0.16956
 Alpha virt. eigenvalues --    0.17366   0.17590   0.17844   0.18030   0.18217
 Alpha virt. eigenvalues --    0.18429   0.18617   0.18683   0.18959   0.19131
 Alpha virt. eigenvalues --    0.19301   0.19486   0.19732   0.19883   0.20026
 Alpha virt. eigenvalues --    0.20359   0.20500   0.20659   0.20921   0.20973
 Alpha virt. eigenvalues --    0.21239   0.21335   0.21603   0.21917   0.22015
 Alpha virt. eigenvalues --    0.22147   0.22182   0.22428   0.22719   0.22896
 Alpha virt. eigenvalues --    0.23262   0.23317   0.23512   0.23583   0.24024
 Alpha virt. eigenvalues --    0.24110   0.24262   0.24298   0.24653   0.24855
 Alpha virt. eigenvalues --    0.25043   0.25210   0.25535   0.25612   0.25890
 Alpha virt. eigenvalues --    0.26120   0.26469   0.26536   0.26868   0.27132
 Alpha virt. eigenvalues --    0.27177   0.27586   0.27935   0.28114   0.28209
 Alpha virt. eigenvalues --    0.28428   0.28825   0.28969   0.29116   0.29566
 Alpha virt. eigenvalues --    0.29655   0.29869   0.30127   0.30302   0.30657
 Alpha virt. eigenvalues --    0.30924   0.31016   0.31794   0.31856   0.32114
 Alpha virt. eigenvalues --    0.32472   0.32907   0.33104   0.33497   0.33637
 Alpha virt. eigenvalues --    0.33901   0.34389   0.34564   0.34919   0.35216
 Alpha virt. eigenvalues --    0.35644   0.35697   0.36108   0.36361   0.36480
 Alpha virt. eigenvalues --    0.36998   0.37410   0.37758   0.37930   0.38106
 Alpha virt. eigenvalues --    0.38348   0.38860   0.39049   0.39437   0.39986
 Alpha virt. eigenvalues --    0.40035   0.40565   0.41111   0.41220   0.41669
 Alpha virt. eigenvalues --    0.42184   0.43001   0.43174   0.43704   0.43948
 Alpha virt. eigenvalues --    0.44108   0.44327   0.44612   0.45206   0.45474
 Alpha virt. eigenvalues --    0.45618   0.46073   0.46495   0.46807   0.47226
 Alpha virt. eigenvalues --    0.47343   0.47717   0.48447   0.48734   0.49175
 Alpha virt. eigenvalues --    0.49902   0.50477   0.50745   0.50943   0.50966
 Alpha virt. eigenvalues --    0.51832   0.52018   0.52379   0.53543   0.53909
 Alpha virt. eigenvalues --    0.54141   0.54681   0.55175   0.55411   0.55627
 Alpha virt. eigenvalues --    0.55938   0.56443   0.56629   0.57230   0.57467
 Alpha virt. eigenvalues --    0.57890   0.58388   0.58852   0.59211   0.59518
 Alpha virt. eigenvalues --    0.59776   0.59957   0.60400   0.60883   0.61419
 Alpha virt. eigenvalues --    0.61862   0.62197   0.62485   0.62784   0.63077
 Alpha virt. eigenvalues --    0.64170   0.64630   0.64745   0.65178   0.65783
 Alpha virt. eigenvalues --    0.66019   0.66876   0.67092   0.67215   0.67546
 Alpha virt. eigenvalues --    0.67770   0.68116   0.68409   0.68808   0.68902
 Alpha virt. eigenvalues --    0.69430   0.69524   0.69765   0.70040   0.70496
 Alpha virt. eigenvalues --    0.70776   0.70991   0.71177   0.71556   0.71664
 Alpha virt. eigenvalues --    0.72149   0.72363   0.72453   0.72942   0.73198
 Alpha virt. eigenvalues --    0.73262   0.73605   0.73988   0.74302   0.74680
 Alpha virt. eigenvalues --    0.75275   0.75630   0.75725   0.76052   0.76909
 Alpha virt. eigenvalues --    0.77764   0.77970   0.78132   0.78398   0.78982
 Alpha virt. eigenvalues --    0.79103   0.79570   0.80009   0.80473   0.80723
 Alpha virt. eigenvalues --    0.81054   0.81169   0.81990   0.82333   0.82514
 Alpha virt. eigenvalues --    0.83068   0.83584   0.83818   0.84450   0.84859
 Alpha virt. eigenvalues --    0.85835   0.86040   0.86932   0.87188   0.88576
 Alpha virt. eigenvalues --    0.89826   0.90143   0.90675   0.91221   0.91857
 Alpha virt. eigenvalues --    0.92610   0.93460   0.94164   0.94799   0.95859
 Alpha virt. eigenvalues --    0.96616   0.97719   0.97991   0.98778   0.99401
 Alpha virt. eigenvalues --    1.00705   1.00982   1.02082   1.03762   1.04787
 Alpha virt. eigenvalues --    1.05358   1.06117   1.06855   1.07489   1.10272
 Alpha virt. eigenvalues --    1.10965   1.11322   1.12734   1.13952   1.14772
 Alpha virt. eigenvalues --    1.15259   1.15477   1.16285   1.17020   1.17588
 Alpha virt. eigenvalues --    1.19294   1.19651   1.21098   1.22509   1.22850
 Alpha virt. eigenvalues --    1.23593   1.23931   1.24774   1.25874   1.27779
 Alpha virt. eigenvalues --    1.28505   1.29069   1.29693   1.30048   1.31357
 Alpha virt. eigenvalues --    1.31718   1.32540   1.33726   1.34399   1.34898
 Alpha virt. eigenvalues --    1.35445   1.36636   1.36877   1.37502   1.38800
 Alpha virt. eigenvalues --    1.39031   1.40083   1.40531   1.41199   1.42787
 Alpha virt. eigenvalues --    1.44121   1.45146   1.45850   1.47541   1.47909
 Alpha virt. eigenvalues --    1.48404   1.48846   1.50382   1.51333   1.52018
 Alpha virt. eigenvalues --    1.53295   1.53448   1.54256   1.55060   1.55631
 Alpha virt. eigenvalues --    1.56013   1.56441   1.56687   1.57516   1.58121
 Alpha virt. eigenvalues --    1.58504   1.58833   1.60053   1.60090   1.60431
 Alpha virt. eigenvalues --    1.60660   1.61166   1.61397   1.62013   1.62277
 Alpha virt. eigenvalues --    1.62807   1.63154   1.63169   1.64105   1.64435
 Alpha virt. eigenvalues --    1.65021   1.65438   1.65822   1.66386   1.67211
 Alpha virt. eigenvalues --    1.67707   1.67819   1.68598   1.69381   1.69656
 Alpha virt. eigenvalues --    1.70522   1.70765   1.70986   1.71792   1.72239
 Alpha virt. eigenvalues --    1.72784   1.73249   1.73681   1.74979   1.75380
 Alpha virt. eigenvalues --    1.75889   1.76425   1.77922   1.78635   1.79173
 Alpha virt. eigenvalues --    1.79294   1.80944   1.81283   1.82483   1.83271
 Alpha virt. eigenvalues --    1.83447   1.84132   1.84898   1.86254   1.87249
 Alpha virt. eigenvalues --    1.88009   1.88463   1.89453   1.90233   1.90964
 Alpha virt. eigenvalues --    1.92548   1.92742   1.93456   1.93962   1.95092
 Alpha virt. eigenvalues --    1.95888   1.98013   1.98334   1.99733   2.00363
 Alpha virt. eigenvalues --    2.00519   2.01910   2.03095   2.04344   2.05087
 Alpha virt. eigenvalues --    2.05837   2.07561   2.08347   2.08753   2.09142
 Alpha virt. eigenvalues --    2.11807   2.12899   2.13269   2.14684   2.15740
 Alpha virt. eigenvalues --    2.17352   2.17451   2.20506   2.20651   2.21544
 Alpha virt. eigenvalues --    2.22169   2.22734   2.24223   2.24987   2.26775
 Alpha virt. eigenvalues --    2.27006   2.27606   2.29676   2.30894   2.32043
 Alpha virt. eigenvalues --    2.34049   2.34735   2.35684   2.37701   2.39050
 Alpha virt. eigenvalues --    2.40302   2.43689   2.47061   2.48734   2.50840
 Alpha virt. eigenvalues --    2.51364   2.51908   2.52801   2.53324   2.54124
 Alpha virt. eigenvalues --    2.54808   2.54937   2.55418   2.56406   2.57588
 Alpha virt. eigenvalues --    2.57800   2.57914   2.58420   2.60236   2.60940
 Alpha virt. eigenvalues --    2.61064   2.63189   2.63911   2.64316   2.65610
 Alpha virt. eigenvalues --    2.65852   2.66947   2.68078   2.69306   2.69778
 Alpha virt. eigenvalues --    2.70902   2.71570   2.71979   2.72702   2.73091
 Alpha virt. eigenvalues --    2.74611   2.75145   2.78422   2.78883   2.80689
 Alpha virt. eigenvalues --    2.85703   2.86412   2.87342   2.89279   2.90412
 Alpha virt. eigenvalues --    2.91292   2.92701   2.93251   2.94229   2.94797
 Alpha virt. eigenvalues --    2.96334   2.96587   2.97048   2.98195   2.99297
 Alpha virt. eigenvalues --    2.99541   3.00626   3.01974   3.02529   3.03119
 Alpha virt. eigenvalues --    3.03681   3.04417   3.05077   3.05315   3.06849
 Alpha virt. eigenvalues --    3.07313   3.09314   3.10408   3.11313   3.12214
 Alpha virt. eigenvalues --    3.12978   3.14069   3.15378   3.15806   3.17160
 Alpha virt. eigenvalues --    3.18612   3.19143   3.20430   3.21176   3.22259
 Alpha virt. eigenvalues --    3.23011   3.24341   3.24771   3.25115   3.25481
 Alpha virt. eigenvalues --    3.26365   3.27335   3.28655   3.29828   3.30594
 Alpha virt. eigenvalues --    3.31410   3.31790   3.32563   3.32641   3.33822
 Alpha virt. eigenvalues --    3.35144   3.35839   3.36335   3.37767   3.38741
 Alpha virt. eigenvalues --    3.39256   3.39850   3.40388   3.41693   3.43240
 Alpha virt. eigenvalues --    3.46031   3.46938   3.47863   3.50982   3.52294
 Alpha virt. eigenvalues --    3.53316   3.53644   3.59102   3.61392   3.65797
 Alpha virt. eigenvalues --    3.75474   3.76728   3.78357   3.80994   3.86418
 Alpha virt. eigenvalues --    3.89896   3.93238   3.94753   3.98685   4.01899
 Alpha virt. eigenvalues --    4.02492   4.06179   4.06371   4.07820   4.09686
 Alpha virt. eigenvalues --    4.11680   4.16246   4.17360   4.18281   4.20957
 Alpha virt. eigenvalues --    4.22458   4.24246   4.26566   4.28544   4.32734
 Alpha virt. eigenvalues --    4.45210   4.55562   5.14349   5.15244   5.16111
 Alpha virt. eigenvalues --    5.20204   5.23065   5.28284   5.32245   5.32494
 Alpha virt. eigenvalues --    5.41555   5.44532   5.56735   5.71890   5.73381
 Alpha virt. eigenvalues --    5.78456   5.82375  23.46002  23.50077  23.50880
 Alpha virt. eigenvalues --   23.53848  23.62301  23.62616  23.65412  23.66624
 Alpha virt. eigenvalues --   23.67378  23.70402  23.72482  23.74359  23.76670
 Alpha virt. eigenvalues --   23.78520  23.79298  23.80103  23.84001  23.84956
 Alpha virt. eigenvalues --   23.85555  23.88907  23.89347  23.91423  23.95557
 Alpha virt. eigenvalues --   24.20260  24.21692  24.23077  49.97785  49.99933
 Alpha virt. eigenvalues --   50.01781  50.03044  50.06844
          Condensed to atoms (all electrons):
 Mulliken atomic charges:
              1
     1  C   -0.690120
     2  C    0.994581
     3  C    0.032891
     4  C    0.357034
     5  C    1.312803
     6  C   -1.253066
     7  C   -0.878807
     8  C    0.099431
     9  C    0.567189
    10  C   -0.649849
    11  C   -0.672048
    12  O   -0.174670
    13  C    0.324454
    14  C   -0.248348
    15  C   -1.102850
    16  O   -0.158185
    17  C   -0.427875
    18  C    0.855636
    19  O    0.198944
    20  C   -1.679432
    21  O   -0.059478
    22  C   -0.697617
    23  C   -0.374278
    24  O    0.014822
    25  C    0.951596
    26  C   -1.151524
    27  C   -0.780375
    28  C   -0.690664
    29  C   -0.625564
    30  H    0.236729
    31  H    0.261510
    32  C   -1.202691
    33  H    0.207871
    34  H    0.264745
    35  H    0.276507
    36  H    0.234364
    37  H    0.258347
    38  H    0.217702
    39  H    0.281215
    40  H    0.255653
    41  H    0.275676
    42  H    0.294346
    43  H    0.263912
    44  H    0.281459
    45  H    0.259403
    46  H    0.296243
    47  H    0.256006
    48  H    0.265893
    49  H    0.253087
    50  H    0.259956
    51  H    0.220807
    52  H    0.229088
    53  H    0.263374
    54  H    0.248548
    55  H    0.314248
    56  H    0.264023
    57  H    0.265717
    58  H    0.272129
    59  H    0.250733
    60  H    0.258827
    61  H    0.247265
    62  C   -0.956263
    63  H    0.227968
    64  H    0.257178
    65  H    0.243794
 Sum of Mulliken atomic charges =   0.00000
 Mulliken charges with hydrogens summed into heavy atoms:
              1
     1  C   -0.482250
     2  C    0.994581
     3  C    0.294401
     4  C    0.357034
     5  C    1.312803
     6  C   -0.711814
     7  C   -0.878807
     8  C    0.099431
     9  C    0.567189
    10  C   -0.649849
    11  C   -0.672048
    12  O   -0.174670
    13  C    0.558818
    14  C    0.227701
    15  C   -0.290305
    16  O   -0.158185
    17  C   -0.191146
    18  C    0.855636
    19  O    0.198944
    20  C   -1.121175
    21  O    0.221981
    22  C   -0.141971
    23  C   -0.118272
    24  O    0.014822
    25  C    0.951596
    26  C   -0.372588
    27  C   -0.330479
    28  C    0.135507
    29  C    0.176305
    32  C   -0.445865
    62  C   -0.227323
 Sum of Mulliken charges with hydrogens summed into heavy atoms =   0.00000
 Electronic spatial extent (au):  <R**2>=          11835.7365
 Charge=              0.0000 electrons
 Dipole moment (field-independent basis, Debye):
    X=              3.0096    Y=              5.7950    Z=             -0.8077  Tot=              6.5796
 Quadrupole moment (field-independent basis, Debye-Ang):
   XX=           -180.1852   YY=           -188.6191   ZZ=           -191.6242
   XY=             -8.6600   XZ=             11.2754   YZ=              4.1922
 Traceless Quadrupole moment (field-independent basis, Debye-Ang):
   XX=              6.6243   YY=             -1.8096   ZZ=             -4.8147
   XY=             -8.6600   XZ=             11.2754   YZ=              4.1922
 Octapole moment (field-independent basis, Debye-Ang**2):
  XXX=             20.5729  YYY=             70.9229  ZZZ=             -4.8477  XYY=             11.5936
  XXY=            -20.3522  XXZ=            -18.3473  XZZ=             21.9748  YZZ=              9.3621
  YYZ=            -26.9555  XYZ=             -2.0554
 Hexadecapole moment (field-independent basis, Debye-Ang**3):
 XXXX=          -9326.9539 YYYY=          -4243.4103 ZZZZ=          -2616.4571 XXXY=           -109.1333
 XXXZ=             73.1679 YYYX=            -46.7963 YYYZ=            -25.5672 ZZZX=             25.8531
 ZZZY=             -5.5015 XXYY=          -2209.0647 XXZZ=          -2015.3686 YYZZ=          -1153.3310
 XXYZ=             61.1216 YYXZ=             36.8189 ZZXY=            -51.7411
 N-N= 3.494967596790D+03 E-N=-1.022286145609D+04  KE= 1.381923568924D+03
 1\1\GINC-B0800\FOpt\RB3LYP\6-311+G(d)\C26H34O5\CAOFEI\13-Apr-2021\0\\#
  opt b3lyp/6-311+g(d) geom=connectivity\\Title Card Required\\0,1\C,1.
 8888793548,0.6161288776,2.8164285887\C,2.2430437967,1.6590917844,2.061
 6437763\C,1.7114763447,1.7858825766,0.6544895019\C,1.3667556614,0.4479
 483887,-0.0780077358\C,1.1779187299,-0.8189811227,0.8255975824\C,0.964
 4065104,-0.4641224491,2.3268779919\C,0.1361135515,0.8064919419,-0.9723
 123404\C,-1.1799600481,0.2960942211,-0.4114779897\C,-1.3220524261,-0.9
 08483913,0.1793749495\C,-0.0721326643,-1.6618798292,0.4472186477\C,-2.
 6250109979,-1.4824641339,0.6656417015\O,-2.6928009645,-1.9522251395,1.
 7834222544\C,-3.8011649045,-1.5252986102,-0.3089915763\C,-5.1575291682
 ,-1.5784012527,0.4070433407\C,-3.5925482183,-2.7522835385,-1.224486797
 4\O,-0.0375979304,-2.8741333221,0.4922905586\C,-0.094215433,2.32899704
 43,-0.882809347\C,-1.6113481622,2.4779141171,-1.1270544332\O,-2.155650
 7572,1.1971464904,-0.59288788\C,0.4381441074,2.6577183846,0.5232072989
 \O,0.2622552385,0.311228989,-2.2932010094\C,2.4783918753,-1.630213603,
 0.6017393121\C,3.361525615,-0.7475456709,-0.29648704\O,2.4323463787,0.
 1071710129,-0.9782484937\C,4.2533073827,-1.4885220364,-1.2614507078\C,
 5.2576948314,-2.4000183755,-0.6030776135\C,4.1779681084,-1.3362510138,
 -2.5831017911\C,-1.9588037144,2.5456145928,-2.6136206038\C,-2.30402509
 72,3.5903404248,-0.3510755416\H,0.4817970769,2.8510107153,-1.649844047
 4\H,2.4818153187,2.2507192853,0.027202136\C,3.1418779219,2.7620971119,
 2.551756674\H,2.2513586039,0.5410938456,3.8394038496\H,1.0912695975,-1
 .3791611374,2.9105987379\H,-0.0776494685,-0.1637229826,2.493104147\H,-
 3.7551532602,-0.628576195,-0.9350615502\H,-5.1640626921,-2.4329366696,
 1.0901935894\H,-5.9297673083,-1.7765358373,-0.3457328885\H,-2.62361689
 08,-2.7263231463,-1.7287006831\H,-4.3706965658,-2.7815672466,-1.992055
 602\H,-3.6456375871,-3.6802223995,-0.6491739169\H,-0.2831028314,2.3710
 999841,1.2943907463\H,0.6483510666,3.7203504306,0.6611704446\H,1.17315
 80567,-0.0170686747,-2.378511868\H,2.9769065976,-1.8694074291,1.541950
 2044\H,2.2351627848,-2.5731385007,0.1103018986\H,4.0019866477,-0.11201
 71204,0.3337896784\H,4.7674863241,-3.2085093944,-0.0504157869\H,5.8770
 066098,-1.855616096,0.1194680017\H,5.9222858336,-2.8535783235,-1.34012
 1376\H,4.8400291306,-1.881316719,-3.2484541684\H,3.4666128224,-0.66418
 37999,-3.0467558202\H,-3.0401632001,2.4695452171,-2.7504150795\H,-1.63
 13817318,3.5018090444,-3.0317550475\H,-1.4744548547,1.7438702495,-3.17
 04235477\H,-1.9245061552,4.564028071,-0.6728056554\H,-2.1495943371,3.4
 990262561,0.7243540111\H,-3.3794606586,3.5702431665,-0.5408761046\H,3.
 458042832,2.5963473185,3.5838279324\H,4.0415962025,2.8470009078,1.9307
 716757\H,2.6426327351,3.7371561057,2.5085820175\C,-5.5121404473,-0.302
 0126976,1.1745098276\H,-5.5245360368,0.5717508913,0.5146746522\H,-4.79
 6784116,-0.1062985985,1.9767795726\H,-6.502606021,-0.3831324685,1.6316
 747417\\Version=EM64L-G09RevB.01\State=1-A\HF=-1387.6506539\RMSD=6.238
 e-09\RMSF=8.061e-06\Dipole=1.1753955,2.2880215,-0.2904828\Quadrupole=4
 .8876301,-1.4605394,-3.4270907,-6.5028417,8.3590507,3.1365826\PG=C01 [
 X(C26H34O5)]\\@


 ONE THORN OF EXPERIENCE IS WORTH A WHOLE WILDERNESS OF
 WARNING....  LOWELL - AMONG MY BOOKS
 Job cpu time:  0 days 22 hours 51 minutes 42.0 seconds.
 File lengths (MBytes):  RWF=    372 Int=      0 D2E=      0 Chk=     38 Scr=      1
 Normal termination of Gaussian 09 at Tue Apr 13 16:41:08 2021.
