 Entering Gaussian System, Link 0=g09
 Initial command:
 /public/software/g09/g09/l1.exe /tmp/Gau-27625.inp -scrdir=/tmp/
 Entering Link 1 = /public/software/g09/g09/l1.exe PID=     27626.
  
 Copyright (c) 1988,1990,1992,1993,1995,1998,2003,2009,2010,
            Gaussian, Inc.  All Rights Reserved.
  
 This is part of the Gaussian(R) 09 program.  It is based on
 the Gaussian(R) 03 system (copyright 2003, Gaussian, Inc.),
 the Gaussian(R) 98 system (copyright 1998, Gaussian, Inc.),
 the Gaussian(R) 94 system (copyright 1995, Gaussian, Inc.),
 the Gaussian 92(TM) system (copyright 1992, Gaussian, Inc.),
 the Gaussian 90(TM) system (copyright 1990, Gaussian, Inc.),
 the Gaussian 88(TM) system (copyright 1988, Gaussian, Inc.),
 the Gaussian 86(TM) system (copyright 1986, Carnegie Mellon
 University), and the Gaussian 82(TM) system (copyright 1983,
 Carnegie Mellon University). Gaussian is a federally registered
 trademark of Gaussian, Inc.
  
 This software contains proprietary and confidential information,
 including trade secrets, belonging to Gaussian, Inc.
  
 This software is provided under written license and may be
 used, copied, transmitted, or stored only in accord with that
 written license.
  
 The following legend is applicable only to US Government
 contracts under FAR:
  
                    RESTRICTED RIGHTS LEGEND
  
 Use, reproduction and disclosure by the US Government is
 subject to restrictions as set forth in subparagraphs (a)
 and (c) of the Commercial Computer Software - Restricted
 Rights clause in FAR 52.227-19.
  
 Gaussian, Inc.
 340 Quinnipiac St., Bldg. 40, Wallingford CT 06492
  
  
 ---------------------------------------------------------------
 Warning -- This program may not be used in any manner that
 competes with the business of Gaussian, Inc. or will provide
 assistance to any competitor of Gaussian, Inc.  The licensee
 of this program is prohibited from giving any competitor of
 Gaussian, Inc. access to this program.  By using this program,
 the user acknowledges that Gaussian, Inc. is engaged in the
 business of creating and licensing software in the field of
 computational chemistry and represents and warrants to the
 licensee that it is not a competitor of Gaussian, Inc. and that
 it will not use this program in any manner prohibited above.
 ---------------------------------------------------------------
  

 Cite this work as:
 Gaussian 09, Revision B.01,
 M. J. Frisch, G. W. Trucks, H. B. Schlegel, G. E. Scuseria, 
 M. A. Robb, J. R. Cheeseman, G. Scalmani, V. Barone, B. Mennucci, 
 G. A. Petersson, H. Nakatsuji, M. Caricato, X. Li, H. P. Hratchian, 
 A. F. Izmaylov, J. Bloino, G. Zheng, J. L. Sonnenberg, M. Hada, 
 M. Ehara, K. Toyota, R. Fukuda, J. Hasegawa, M. Ishida, T. Nakajima, 
 Y. Honda, O. Kitao, H. Nakai, T. Vreven, J. A. Montgomery, Jr., 
 J. E. Peralta, F. Ogliaro, M. Bearpark, J. J. Heyd, E. Brothers, 
 K. N. Kudin, V. N. Staroverov, T. Keith, R. Kobayashi, J. Normand, 
 K. Raghavachari, A. Rendell, J. C. Burant, S. S. Iyengar, J. Tomasi, 
 M. Cossi, N. Rega, J. M. Millam, M. Klene, J. E. Knox, J. B. Cross, 
 V. Bakken, C. Adamo, J. Jaramillo, R. Gomperts, R. E. Stratmann, 
 O. Yazyev, A. J. Austin, R. Cammi, C. Pomelli, J. W. Ochterski, 
 R. L. Martin, K. Morokuma, V. G. Zakrzewski, G. A. Voth, 
 P. Salvador, J. J. Dannenberg, S. Dapprich, A. D. Daniels, 
 O. Farkas, J. B. Foresman, J. V. Ortiz, J. Cioslowski, 
 and D. J. Fox, Gaussian, Inc., Wallingford CT, 2010.
 
 ******************************************
 Gaussian 09:  EM64L-G09RevB.01 12-Aug-2010
                13-Apr-2021 
 ******************************************
 %mem=600MW
 %nprocshared=10
 Will use up to   10 processors via shared memory.
 ----------------------------------------
 # opt b3lyp/6-311+g(d) geom=connectivity
 ----------------------------------------
 1/14=-1,18=20,19=15,26=3,38=1,57=2/1,3;
 2/9=110,12=2,17=6,18=5,40=1/2;
 3/5=4,6=6,7=11,11=2,16=1,25=1,30=1,71=1,74=-5/1,2,3;
 4//1;
 5/5=2,38=5/2;
 6/7=2,8=2,9=2,10=2,28=1/1;
 7//1,2,3,16;
 1/14=-1,18=20,19=15/3(2);
 2/9=110/2;
 99//99;
 2/9=110/2;
 3/5=4,6=6,7=11,11=2,16=1,25=1,30=1,71=1,74=-5/1,2,3;
 4/5=5,16=3/1;
 5/5=2,38=5/2;
 7//1,2,3,16;
 1/14=-1,18=20,19=15/3(-5);
 2/9=110/2;
 6/7=2,8=2,9=2,10=2,19=2,28=1/1;
 99/9=1/99;
 -------------------
 Title Card Required
 -------------------
 Symbolic Z-matrix:
 Charge =  0 Multiplicity = 1
 C                     1.9036   -0.02149   2.84571 
 C                     2.58956   0.91128   2.17362 
 C                     2.15633   1.31141   0.78184 
 C                     1.40997   0.21547  -0.04757 
 C                     0.82261  -0.99586   0.74637 
 C                     0.692    -0.70683   2.27166 
 C                     0.35176   1.00287  -0.87686 
 C                    -1.05746   0.89007  -0.30199 
 C                    -1.59347  -0.2977    0.11878 
 C                    -0.61537  -1.39831   0.27902 
 C                    -3.06418  -0.42398   0.38781 
 O                    -3.74199   0.58483   0.53458 
 C                    -3.71715  -1.80881   0.49466 
 C                    -5.16934  -1.76843  -0.01344 
 C                    -3.65788  -2.26168   1.96988 
 O                    -0.90201  -2.58722   0.21815 
 C                     0.61388   2.51145  -0.68309 
 C                    -0.78681   3.13372  -0.86159 
 O                    -1.68625   2.05565  -0.36746 
 C                     1.23092   2.55643   0.72879 
 O                     0.29775   0.56874  -2.22004 
 C                     1.82376  -2.14716   0.46073 
 C                     2.9333   -1.52496  -0.39195 
 O                     2.31241  -0.36462  -0.99894 
 C                     3.58281  -2.35022  -1.48138 
 C                     4.51459  -1.58727  -2.39199 
 C                     3.40218  -3.66917  -1.59163 
 C                    -1.13676   3.38218  -2.33072 
 C                    -1.09669   4.35741  -0.00551 
 H                     1.31709   2.88447  -1.43338 
 H                     3.04769   1.54864   0.18497 
 C                     3.78146   1.62864   2.75215 
 H                     2.20159  -0.28746   3.85882 
 H                     0.5055   -1.65813   2.78242 
 H                    -0.20036  -0.09128   2.45368 
 H                    -3.1374   -2.52052  -0.098 
 H                    -5.72184  -1.00713   0.54844 
 H                    -5.63296  -2.73739   0.21656 
 H                    -2.62687  -2.34233   2.32881 
 H                    -4.1235   -3.24768   2.07922 
 H                    -4.19663  -1.55516   2.61214 
 H                     0.45293   2.46712   1.49642 
 H                     1.77394   3.48534   0.92812 
 H                     1.07873  -0.01148  -2.3295 
 H                     2.22696  -2.57556   1.3821 
 H                     1.29387  -2.93988  -0.07074 
 H                     3.73479  -1.14894   0.26559 
 H                     5.30731  -1.08992  -1.816 
 H                     3.98118  -0.79814  -2.93406 
 H                     4.98801  -2.25022  -3.12204 
 H                     3.92175  -4.24186  -2.35563 
 H                     2.74719  -4.23092  -0.93388 
 H                    -2.1999    3.62545  -2.42346 
 H                    -0.55454   4.22725  -2.71567 
 H                    -0.91737   2.50244  -2.93998 
 H                    -0.45166   5.19201  -0.30147 
 H                    -0.9458    4.1602    1.05866 
 H                    -2.13815   4.66043  -0.14991 
 H                     4.00474   1.2844    3.76686 
 H                     4.677     1.4749    2.13408 
 H                     3.61506   2.71394   2.79415 
 C                    -5.29384  -1.48922  -1.51517 
 H                    -4.74807  -2.23527  -2.10648 
 H                    -4.89571  -0.50052  -1.76655 
 H                    -6.34256  -1.51476  -1.83339 
 

 GradGradGradGradGradGradGradGradGradGradGradGradGradGradGradGradGradGrad
 Berny optimization.
 Initialization pass.
                           ----------------------------
                           !    Initial Parameters    !
                           ! (Angstroms and Degrees)  !
 --------------------------                            --------------------------
 ! Name  Definition              Value          Derivative Info.                !
 --------------------------------------------------------------------------------
 ! R1    R(1,2)                  1.3388         estimate D2E/DX2                !
 ! R2    R(1,6)                  1.5057         estimate D2E/DX2                !
 ! R3    R(1,33)                 1.089          estimate D2E/DX2                !
 ! R4    R(2,3)                  1.5116         estimate D2E/DX2                !
 ! R5    R(2,32)                 1.5066         estimate D2E/DX2                !
 ! R6    R(3,4)                  1.564          estimate D2E/DX2                !
 ! R7    R(3,20)                 1.5522         estimate D2E/DX2                !
 ! R8    R(3,31)                 1.0987         estimate D2E/DX2                !
 ! R9    R(4,5)                  1.5629         estimate D2E/DX2                !
 ! R10   R(4,7)                  1.5581         estimate D2E/DX2                !
 ! R11   R(4,24)                 1.4339         estimate D2E/DX2                !
 ! R12   R(5,6)                  1.5579         estimate D2E/DX2                !
 ! R13   R(5,10)                 1.5647         estimate D2E/DX2                !
 ! R14   R(5,22)                 1.5522         estimate D2E/DX2                !
 ! R15   R(6,34)                 1.0957         estimate D2E/DX2                !
 ! R16   R(6,35)                 1.0992         estimate D2E/DX2                !
 ! R17   R(7,8)                  1.5261         estimate D2E/DX2                !
 ! R18   R(7,17)                 1.5434         estimate D2E/DX2                !
 ! R19   R(7,21)                 1.4126         estimate D2E/DX2                !
 ! R20   R(8,9)                  1.3694         estimate D2E/DX2                !
 ! R21   R(8,19)                 1.326          estimate D2E/DX2                !
 ! R22   R(9,10)                 1.4811         estimate D2E/DX2                !
 ! R23   R(9,11)                 1.5004         estimate D2E/DX2                !
 ! R24   R(10,16)                1.2245         estimate D2E/DX2                !
 ! R25   R(11,12)                1.2242         estimate D2E/DX2                !
 ! R26   R(11,13)                1.5348         estimate D2E/DX2                !
 ! R27   R(13,14)                1.5391         estimate D2E/DX2                !
 ! R28   R(13,15)                1.5443         estimate D2E/DX2                !
 ! R29   R(13,36)                1.0926         estimate D2E/DX2                !
 ! R30   R(14,37)                1.0957         estimate D2E/DX2                !
 ! R31   R(14,38)                1.0985         estimate D2E/DX2                !
 ! R32   R(14,62)                1.5325         estimate D2E/DX2                !
 ! R33   R(15,39)                1.0947         estimate D2E/DX2                !
 ! R34   R(15,40)                1.0959         estimate D2E/DX2                !
 ! R35   R(15,41)                1.0963         estimate D2E/DX2                !
 ! R36   R(17,18)                1.5431         estimate D2E/DX2                !
 ! R37   R(17,20)                1.5415         estimate D2E/DX2                !
 ! R38   R(17,30)                1.0939         estimate D2E/DX2                !
 ! R39   R(18,19)                1.4884         estimate D2E/DX2                !
 ! R40   R(18,28)                1.5305         estimate D2E/DX2                !
 ! R41   R(18,29)                1.5252         estimate D2E/DX2                !
 ! R42   R(20,42)                1.0966         estimate D2E/DX2                !
 ! R43   R(20,43)                1.0943         estimate D2E/DX2                !
 ! R44   R(21,44)                0.9791         estimate D2E/DX2                !
 ! R45   R(22,23)                1.5314         estimate D2E/DX2                !
 ! R46   R(22,45)                1.0932         estimate D2E/DX2                !
 ! R47   R(22,46)                1.0916         estimate D2E/DX2                !
 ! R48   R(23,24)                1.4492         estimate D2E/DX2                !
 ! R49   R(23,25)                1.5132         estimate D2E/DX2                !
 ! R50   R(23,47)                1.1028         estimate D2E/DX2                !
 ! R51   R(24,44)                1.8485         estimate D2E/DX2                !
 ! R52   R(25,26)                1.5098         estimate D2E/DX2                !
 ! R53   R(25,27)                1.3358         estimate D2E/DX2                !
 ! R54   R(26,48)                1.0989         estimate D2E/DX2                !
 ! R55   R(26,49)                1.0959         estimate D2E/DX2                !
 ! R56   R(26,50)                1.0939         estimate D2E/DX2                !
 ! R57   R(27,51)                1.087          estimate D2E/DX2                !
 ! R58   R(27,52)                1.085          estimate D2E/DX2                !
 ! R59   R(28,53)                1.0946         estimate D2E/DX2                !
 ! R60   R(28,54)                1.0961         estimate D2E/DX2                !
 ! R61   R(28,55)                1.0924         estimate D2E/DX2                !
 ! R62   R(29,56)                1.0955         estimate D2E/DX2                !
 ! R63   R(29,57)                1.0928         estimate D2E/DX2                !
 ! R64   R(29,58)                1.0942         estimate D2E/DX2                !
 ! R65   R(32,59)                1.0945         estimate D2E/DX2                !
 ! R66   R(32,60)                1.0989         estimate D2E/DX2                !
 ! R67   R(32,61)                1.0988         estimate D2E/DX2                !
 ! R68   R(62,63)                1.0973         estimate D2E/DX2                !
 ! R69   R(62,64)                1.0951         estimate D2E/DX2                !
 ! R70   R(62,65)                1.0962         estimate D2E/DX2                !
 ! A1    A(2,1,6)              122.5496         estimate D2E/DX2                !
 ! A2    A(2,1,33)             119.8013         estimate D2E/DX2                !
 ! A3    A(6,1,33)             117.6257         estimate D2E/DX2                !
 ! A4    A(1,2,3)              119.9876         estimate D2E/DX2                !
 ! A5    A(1,2,32)             122.9782         estimate D2E/DX2                !
 ! A6    A(3,2,32)             117.0173         estimate D2E/DX2                !
 ! A7    A(2,3,4)              116.0768         estimate D2E/DX2                !
 ! A8    A(2,3,20)             114.4987         estimate D2E/DX2                !
 ! A9    A(2,3,31)             108.9558         estimate D2E/DX2                !
 ! A10   A(4,3,20)             105.036          estimate D2E/DX2                !
 ! A11   A(4,3,31)             104.5001         estimate D2E/DX2                !
 ! A12   A(20,3,31)            106.9738         estimate D2E/DX2                !
 ! A13   A(3,4,5)              116.9397         estimate D2E/DX2                !
 ! A14   A(3,4,7)              104.6108         estimate D2E/DX2                !
 ! A15   A(3,4,24)             109.5731         estimate D2E/DX2                !
 ! A16   A(5,4,7)              114.0056         estimate D2E/DX2                !
 ! A17   A(5,4,24)             105.071          estimate D2E/DX2                !
 ! A18   A(7,4,24)             106.1869         estimate D2E/DX2                !
 ! A19   A(4,5,6)              112.6483         estimate D2E/DX2                !
 ! A20   A(4,5,10)             113.1416         estimate D2E/DX2                !
 ! A21   A(4,5,22)             103.8271         estimate D2E/DX2                !
 ! A22   A(6,5,10)             105.2542         estimate D2E/DX2                !
 ! A23   A(6,5,22)             111.8297         estimate D2E/DX2                !
 ! A24   A(10,5,22)            110.3049         estimate D2E/DX2                !
 ! A25   A(1,6,5)              112.9692         estimate D2E/DX2                !
 ! A26   A(1,6,34)             110.7571         estimate D2E/DX2                !
 ! A27   A(1,6,35)             109.5857         estimate D2E/DX2                !
 ! A28   A(5,6,34)             108.0336         estimate D2E/DX2                !
 ! A29   A(5,6,35)             109.5157         estimate D2E/DX2                !
 ! A30   A(34,6,35)            105.7125         estimate D2E/DX2                !
 ! A31   A(4,7,8)              112.9116         estimate D2E/DX2                !
 ! A32   A(4,7,17)             108.1679         estimate D2E/DX2                !
 ! A33   A(4,7,21)             112.132          estimate D2E/DX2                !
 ! A34   A(8,7,17)             100.4734         estimate D2E/DX2                !
 ! A35   A(8,7,21)             107.4664         estimate D2E/DX2                !
 ! A36   A(17,7,21)            115.2304         estimate D2E/DX2                !
 ! A37   A(7,8,9)              122.7723         estimate D2E/DX2                !
 ! A38   A(7,8,19)             110.7508         estimate D2E/DX2                !
 ! A39   A(9,8,19)             126.3            estimate D2E/DX2                !
 ! A40   A(8,9,10)             114.7907         estimate D2E/DX2                !
 ! A41   A(8,9,11)             120.7821         estimate D2E/DX2                !
 ! A42   A(10,9,11)            124.427          estimate D2E/DX2                !
 ! A43   A(5,10,9)             116.6214         estimate D2E/DX2                !
 ! A44   A(5,10,16)            118.6673         estimate D2E/DX2                !
 ! A45   A(9,10,16)            124.1623         estimate D2E/DX2                !
 ! A46   A(9,11,12)            119.6595         estimate D2E/DX2                !
 ! A47   A(9,11,13)            120.3607         estimate D2E/DX2                !
 ! A48   A(12,11,13)           119.9764         estimate D2E/DX2                !
 ! A49   A(11,13,14)           110.7799         estimate D2E/DX2                !
 ! A50   A(11,13,15)           108.3475         estimate D2E/DX2                !
 ! A51   A(11,13,36)           108.9188         estimate D2E/DX2                !
 ! A52   A(14,13,15)           111.0558         estimate D2E/DX2                !
 ! A53   A(14,13,36)           109.7956         estimate D2E/DX2                !
 ! A54   A(15,13,36)           107.8643         estimate D2E/DX2                !
 ! A55   A(13,14,37)           108.9485         estimate D2E/DX2                !
 ! A56   A(13,14,38)           107.8158         estimate D2E/DX2                !
 ! A57   A(13,14,62)           113.8871         estimate D2E/DX2                !
 ! A58   A(37,14,38)           107.0193         estimate D2E/DX2                !
 ! A59   A(37,14,62)           109.5695         estimate D2E/DX2                !
 ! A60   A(38,14,62)           109.3652         estimate D2E/DX2                !
 ! A61   A(13,15,39)           111.7753         estimate D2E/DX2                !
 ! A62   A(13,15,40)           110.0509         estimate D2E/DX2                !
 ! A63   A(13,15,41)           110.5959         estimate D2E/DX2                !
 ! A64   A(39,15,40)           107.5279         estimate D2E/DX2                !
 ! A65   A(39,15,41)           108.5559         estimate D2E/DX2                !
 ! A66   A(40,15,41)           108.2153         estimate D2E/DX2                !
 ! A67   A(7,17,18)            103.0317         estimate D2E/DX2                !
 ! A68   A(7,17,20)            102.2102         estimate D2E/DX2                !
 ! A69   A(7,17,30)            110.8782         estimate D2E/DX2                !
 ! A70   A(18,17,20)           117.2289         estimate D2E/DX2                !
 ! A71   A(18,17,30)           111.511          estimate D2E/DX2                !
 ! A72   A(20,17,30)           111.1581         estimate D2E/DX2                !
 ! A73   A(17,18,19)           102.5938         estimate D2E/DX2                !
 ! A74   A(17,18,28)           112.5849         estimate D2E/DX2                !
 ! A75   A(17,18,29)           116.2982         estimate D2E/DX2                !
 ! A76   A(19,18,28)           107.3419         estimate D2E/DX2                !
 ! A77   A(19,18,29)           105.7837         estimate D2E/DX2                !
 ! A78   A(28,18,29)           111.2274         estimate D2E/DX2                !
 ! A79   A(8,19,18)            111.5013         estimate D2E/DX2                !
 ! A80   A(3,20,17)            104.2735         estimate D2E/DX2                !
 ! A81   A(3,20,42)            109.4954         estimate D2E/DX2                !
 ! A82   A(3,20,43)            112.2602         estimate D2E/DX2                !
 ! A83   A(17,20,42)           110.7805         estimate D2E/DX2                !
 ! A84   A(17,20,43)           112.9702         estimate D2E/DX2                !
 ! A85   A(42,20,43)           107.0779         estimate D2E/DX2                !
 ! A86   A(7,21,44)            104.9473         estimate D2E/DX2                !
 ! A87   A(5,22,23)            105.5697         estimate D2E/DX2                !
 ! A88   A(5,22,45)            111.9293         estimate D2E/DX2                !
 ! A89   A(5,22,46)            108.3687         estimate D2E/DX2                !
 ! A90   A(23,22,45)           111.1783         estimate D2E/DX2                !
 ! A91   A(23,22,46)           112.0648         estimate D2E/DX2                !
 ! A92   A(45,22,46)           107.7459         estimate D2E/DX2                !
 ! A93   A(22,23,24)           104.3648         estimate D2E/DX2                !
 ! A94   A(22,23,25)           119.358          estimate D2E/DX2                !
 ! A95   A(22,23,47)           109.4579         estimate D2E/DX2                !
 ! A96   A(24,23,25)           108.6029         estimate D2E/DX2                !
 ! A97   A(24,23,47)           106.7441         estimate D2E/DX2                !
 ! A98   A(25,23,47)           107.6541         estimate D2E/DX2                !
 ! A99   A(4,24,23)            108.4005         estimate D2E/DX2                !
 ! A100  A(23,25,26)           115.0579         estimate D2E/DX2                !
 ! A101  A(23,25,27)           122.6745         estimate D2E/DX2                !
 ! A102  A(26,25,27)           122.1826         estimate D2E/DX2                !
 ! A103  A(25,26,48)           110.9636         estimate D2E/DX2                !
 ! A104  A(25,26,49)           111.2113         estimate D2E/DX2                !
 ! A105  A(25,26,50)           111.3069         estimate D2E/DX2                !
 ! A106  A(48,26,49)           106.5275         estimate D2E/DX2                !
 ! A107  A(48,26,50)           108.1744         estimate D2E/DX2                !
 ! A108  A(49,26,50)           108.477          estimate D2E/DX2                !
 ! A109  A(25,27,51)           120.9014         estimate D2E/DX2                !
 ! A110  A(25,27,52)           122.8747         estimate D2E/DX2                !
 ! A111  A(51,27,52)           116.2221         estimate D2E/DX2                !
 ! A112  A(18,28,53)           109.8461         estimate D2E/DX2                !
 ! A113  A(18,28,54)           109.9273         estimate D2E/DX2                !
 ! A114  A(18,28,55)           111.0211         estimate D2E/DX2                !
 ! A115  A(53,28,54)           108.351          estimate D2E/DX2                !
 ! A116  A(53,28,55)           109.0756         estimate D2E/DX2                !
 ! A117  A(54,28,55)           108.5638         estimate D2E/DX2                !
 ! A118  A(18,29,56)           109.8739         estimate D2E/DX2                !
 ! A119  A(18,29,57)           111.9473         estimate D2E/DX2                !
 ! A120  A(18,29,58)           109.9671         estimate D2E/DX2                !
 ! A121  A(56,29,57)           108.6187         estimate D2E/DX2                !
 ! A122  A(56,29,58)           108.2868         estimate D2E/DX2                !
 ! A123  A(57,29,58)           108.0541         estimate D2E/DX2                !
 ! A124  A(2,32,59)            111.5691         estimate D2E/DX2                !
 ! A125  A(2,32,60)            111.2298         estimate D2E/DX2                !
 ! A126  A(2,32,61)            111.4184         estimate D2E/DX2                !
 ! A127  A(59,32,60)           108.1294         estimate D2E/DX2                !
 ! A128  A(59,32,61)           107.8246         estimate D2E/DX2                !
 ! A129  A(60,32,61)           106.4449         estimate D2E/DX2                !
 ! A130  A(14,62,63)           111.3313         estimate D2E/DX2                !
 ! A131  A(14,62,64)           111.0936         estimate D2E/DX2                !
 ! A132  A(14,62,65)           110.9722         estimate D2E/DX2                !
 ! A133  A(63,62,64)           108.018          estimate D2E/DX2                !
 ! A134  A(63,62,65)           107.6708         estimate D2E/DX2                !
 ! A135  A(64,62,65)           107.5902         estimate D2E/DX2                !
 ! D1    D(6,1,2,3)             -0.0954         estimate D2E/DX2                !
 ! D2    D(6,1,2,32)           178.3648         estimate D2E/DX2                !
 ! D3    D(33,1,2,3)          -178.2905         estimate D2E/DX2                !
 ! D4    D(33,1,2,32)            0.1696         estimate D2E/DX2                !
 ! D5    D(2,1,6,5)             37.5673         estimate D2E/DX2                !
 ! D6    D(2,1,6,34)           158.9137         estimate D2E/DX2                !
 ! D7    D(2,1,6,35)           -84.839          estimate D2E/DX2                !
 ! D8    D(33,1,6,5)          -144.2004         estimate D2E/DX2                !
 ! D9    D(33,1,6,34)          -22.854          estimate D2E/DX2                !
 ! D10   D(33,1,6,35)           93.3933         estimate D2E/DX2                !
 ! D11   D(1,2,3,4)            -28.1072         estimate D2E/DX2                !
 ! D12   D(1,2,3,20)            94.6049         estimate D2E/DX2                !
 ! D13   D(1,2,3,31)          -145.6771         estimate D2E/DX2                !
 ! D14   D(32,2,3,4)           153.3428         estimate D2E/DX2                !
 ! D15   D(32,2,3,20)          -83.9451         estimate D2E/DX2                !
 ! D16   D(32,2,3,31)           35.7729         estimate D2E/DX2                !
 ! D17   D(1,2,32,59)            0.39           estimate D2E/DX2                !
 ! D18   D(1,2,32,60)          121.2218         estimate D2E/DX2                !
 ! D19   D(1,2,32,61)         -120.183          estimate D2E/DX2                !
 ! D20   D(3,2,32,59)          178.8929         estimate D2E/DX2                !
 ! D21   D(3,2,32,60)          -60.2753         estimate D2E/DX2                !
 ! D22   D(3,2,32,61)           58.3199         estimate D2E/DX2                !
 ! D23   D(2,3,4,5)             17.3419         estimate D2E/DX2                !
 ! D24   D(2,3,4,7)            144.5042         estimate D2E/DX2                !
 ! D25   D(2,3,4,24)          -102.0149         estimate D2E/DX2                !
 ! D26   D(20,3,4,5)          -110.2112         estimate D2E/DX2                !
 ! D27   D(20,3,4,7)            16.9511         estimate D2E/DX2                !
 ! D28   D(20,3,4,24)          130.432          estimate D2E/DX2                !
 ! D29   D(31,3,4,5)           137.3497         estimate D2E/DX2                !
 ! D30   D(31,3,4,7)           -95.4879         estimate D2E/DX2                !
 ! D31   D(31,3,4,24)           17.9929         estimate D2E/DX2                !
 ! D32   D(2,3,20,17)         -164.091          estimate D2E/DX2                !
 ! D33   D(2,3,20,42)          -45.5086         estimate D2E/DX2                !
 ! D34   D(2,3,20,43)           73.2768         estimate D2E/DX2                !
 ! D35   D(4,3,20,17)          -35.5847         estimate D2E/DX2                !
 ! D36   D(4,3,20,42)           82.9978         estimate D2E/DX2                !
 ! D37   D(4,3,20,43)         -158.2168         estimate D2E/DX2                !
 ! D38   D(31,3,20,17)          75.0898         estimate D2E/DX2                !
 ! D39   D(31,3,20,42)        -166.3278         estimate D2E/DX2                !
 ! D40   D(31,3,20,43)         -47.5424         estimate D2E/DX2                !
 ! D41   D(3,4,5,6)             17.7297         estimate D2E/DX2                !
 ! D42   D(3,4,5,10)           136.9627         estimate D2E/DX2                !
 ! D43   D(3,4,5,22)          -103.4443         estimate D2E/DX2                !
 ! D44   D(7,4,5,6)           -104.687          estimate D2E/DX2                !
 ! D45   D(7,4,5,10)            14.546          estimate D2E/DX2                !
 ! D46   D(7,4,5,22)           134.139          estimate D2E/DX2                !
 ! D47   D(24,4,5,6)           139.4667         estimate D2E/DX2                !
 ! D48   D(24,4,5,10)         -101.3003         estimate D2E/DX2                !
 ! D49   D(24,4,5,22)           18.2927         estimate D2E/DX2                !
 ! D50   D(3,4,7,8)           -102.6032         estimate D2E/DX2                !
 ! D51   D(3,4,7,17)             7.6642         estimate D2E/DX2                !
 ! D52   D(3,4,7,21)           135.8181         estimate D2E/DX2                !
 ! D53   D(5,4,7,8)             26.3449         estimate D2E/DX2                !
 ! D54   D(5,4,7,17)           136.6123         estimate D2E/DX2                !
 ! D55   D(5,4,7,21)           -95.2338         estimate D2E/DX2                !
 ! D56   D(24,4,7,8)           141.5373         estimate D2E/DX2                !
 ! D57   D(24,4,7,17)         -108.1953         estimate D2E/DX2                !
 ! D58   D(24,4,7,21)           19.9586         estimate D2E/DX2                !
 ! D59   D(3,4,24,23)           91.8415         estimate D2E/DX2                !
 ! D60   D(5,4,24,23)          -34.579          estimate D2E/DX2                !
 ! D61   D(7,4,24,23)         -155.7019         estimate D2E/DX2                !
 ! D62   D(4,5,6,1)            -43.9474         estimate D2E/DX2                !
 ! D63   D(4,5,6,34)          -166.822          estimate D2E/DX2                !
 ! D64   D(4,5,6,35)            78.4979         estimate D2E/DX2                !
 ! D65   D(10,5,6,1)          -167.6707         estimate D2E/DX2                !
 ! D66   D(10,5,6,34)           69.4548         estimate D2E/DX2                !
 ! D67   D(10,5,6,35)          -45.2253         estimate D2E/DX2                !
 ! D68   D(22,5,6,1)            72.5466         estimate D2E/DX2                !
 ! D69   D(22,5,6,34)          -50.328          estimate D2E/DX2                !
 ! D70   D(22,5,6,35)         -165.0081         estimate D2E/DX2                !
 ! D71   D(4,5,10,9)           -47.173          estimate D2E/DX2                !
 ! D72   D(4,5,10,16)          140.9666         estimate D2E/DX2                !
 ! D73   D(6,5,10,9)            76.2363         estimate D2E/DX2                !
 ! D74   D(6,5,10,16)          -95.624          estimate D2E/DX2                !
 ! D75   D(22,5,10,9)         -162.9751         estimate D2E/DX2                !
 ! D76   D(22,5,10,16)          25.1645         estimate D2E/DX2                !
 ! D77   D(4,5,22,23)            2.9296         estimate D2E/DX2                !
 ! D78   D(4,5,22,45)          124.0248         estimate D2E/DX2                !
 ! D79   D(4,5,22,46)         -117.2971         estimate D2E/DX2                !
 ! D80   D(6,5,22,23)         -118.7918         estimate D2E/DX2                !
 ! D81   D(6,5,22,45)            2.3034         estimate D2E/DX2                !
 ! D82   D(6,5,22,46)          120.9816         estimate D2E/DX2                !
 ! D83   D(10,5,22,23)         124.4376         estimate D2E/DX2                !
 ! D84   D(10,5,22,45)        -114.4672         estimate D2E/DX2                !
 ! D85   D(10,5,22,46)           4.2109         estimate D2E/DX2                !
 ! D86   D(4,7,8,9)            -45.0904         estimate D2E/DX2                !
 ! D87   D(4,7,8,19)           139.4674         estimate D2E/DX2                !
 ! D88   D(17,7,8,9)          -160.075          estimate D2E/DX2                !
 ! D89   D(17,7,8,19)           24.4828         estimate D2E/DX2                !
 ! D90   D(21,7,8,9)            79.0878         estimate D2E/DX2                !
 ! D91   D(21,7,8,19)          -96.3544         estimate D2E/DX2                !
 ! D92   D(4,7,17,18)         -151.2537         estimate D2E/DX2                !
 ! D93   D(4,7,17,20)          -29.208          estimate D2E/DX2                !
 ! D94   D(4,7,17,30)           89.3331         estimate D2E/DX2                !
 ! D95   D(8,7,17,18)          -32.7417         estimate D2E/DX2                !
 ! D96   D(8,7,17,20)           89.304          estimate D2E/DX2                !
 ! D97   D(8,7,17,30)         -152.1549         estimate D2E/DX2                !
 ! D98   D(21,7,17,18)          82.3791         estimate D2E/DX2                !
 ! D99   D(21,7,17,20)        -155.5752         estimate D2E/DX2                !
 ! D100  D(21,7,17,30)         -37.0341         estimate D2E/DX2                !
 ! D101  D(4,7,21,44)          -10.8601         estimate D2E/DX2                !
 ! D102  D(8,7,21,44)         -135.5102         estimate D2E/DX2                !
 ! D103  D(17,7,21,44)         113.4552         estimate D2E/DX2                !
 ! D104  D(7,8,9,10)            13.8718         estimate D2E/DX2                !
 ! D105  D(7,8,9,11)          -166.3032         estimate D2E/DX2                !
 ! D106  D(19,8,9,10)         -171.4186         estimate D2E/DX2                !
 ! D107  D(19,8,9,11)            8.4064         estimate D2E/DX2                !
 ! D108  D(7,8,19,18)           -5.2218         estimate D2E/DX2                !
 ! D109  D(9,8,19,18)          179.5338         estimate D2E/DX2                !
 ! D110  D(8,9,10,5)            33.2221         estimate D2E/DX2                !
 ! D111  D(8,9,10,16)         -155.4127         estimate D2E/DX2                !
 ! D112  D(11,9,10,5)         -146.5956         estimate D2E/DX2                !
 ! D113  D(11,9,10,16)          24.7696         estimate D2E/DX2                !
 ! D114  D(8,9,11,12)          -16.8622         estimate D2E/DX2                !
 ! D115  D(8,9,11,13)          163.8092         estimate D2E/DX2                !
 ! D116  D(10,9,11,12)         162.9453         estimate D2E/DX2                !
 ! D117  D(10,9,11,13)         -16.3834         estimate D2E/DX2                !
 ! D118  D(9,11,13,14)        -148.0004         estimate D2E/DX2                !
 ! D119  D(9,11,13,15)          89.9468         estimate D2E/DX2                !
 ! D120  D(9,11,13,36)         -27.1384         estimate D2E/DX2                !
 ! D121  D(12,11,13,14)         32.673          estimate D2E/DX2                !
 ! D122  D(12,11,13,15)        -89.3797         estimate D2E/DX2                !
 ! D123  D(12,11,13,36)        153.535          estimate D2E/DX2                !
 ! D124  D(11,13,14,37)        -56.2015         estimate D2E/DX2                !
 ! D125  D(11,13,14,38)       -172.0112         estimate D2E/DX2                !
 ! D126  D(11,13,14,62)         66.4388         estimate D2E/DX2                !
 ! D127  D(15,13,14,37)         64.2531         estimate D2E/DX2                !
 ! D128  D(15,13,14,38)        -51.5567         estimate D2E/DX2                !
 ! D129  D(15,13,14,62)       -173.1066         estimate D2E/DX2                !
 ! D130  D(36,13,14,37)       -176.5427         estimate D2E/DX2                !
 ! D131  D(36,13,14,38)         67.6476         estimate D2E/DX2                !
 ! D132  D(36,13,14,62)        -53.9024         estimate D2E/DX2                !
 ! D133  D(11,13,15,39)        -60.9374         estimate D2E/DX2                !
 ! D134  D(11,13,15,40)        179.6541         estimate D2E/DX2                !
 ! D135  D(11,13,15,41)         60.1403         estimate D2E/DX2                !
 ! D136  D(14,13,15,39)        177.1788         estimate D2E/DX2                !
 ! D137  D(14,13,15,40)         57.7703         estimate D2E/DX2                !
 ! D138  D(14,13,15,41)        -61.7435         estimate D2E/DX2                !
 ! D139  D(36,13,15,39)         56.8236         estimate D2E/DX2                !
 ! D140  D(36,13,15,40)        -62.5849         estimate D2E/DX2                !
 ! D141  D(36,13,15,41)        177.9013         estimate D2E/DX2                !
 ! D142  D(13,14,62,63)         57.5864         estimate D2E/DX2                !
 ! D143  D(13,14,62,64)        -62.8479         estimate D2E/DX2                !
 ! D144  D(13,14,62,65)        177.499          estimate D2E/DX2                !
 ! D145  D(37,14,62,63)        179.8857         estimate D2E/DX2                !
 ! D146  D(37,14,62,64)         59.4515         estimate D2E/DX2                !
 ! D147  D(37,14,62,65)        -60.2017         estimate D2E/DX2                !
 ! D148  D(38,14,62,63)        -63.1002         estimate D2E/DX2                !
 ! D149  D(38,14,62,64)        176.4655         estimate D2E/DX2                !
 ! D150  D(38,14,62,65)         56.8124         estimate D2E/DX2                !
 ! D151  D(7,17,18,19)          30.6371         estimate D2E/DX2                !
 ! D152  D(7,17,18,28)         -84.4324         estimate D2E/DX2                !
 ! D153  D(7,17,18,29)         145.5537         estimate D2E/DX2                !
 ! D154  D(20,17,18,19)        -80.6623         estimate D2E/DX2                !
 ! D155  D(20,17,18,28)        164.2682         estimate D2E/DX2                !
 ! D156  D(20,17,18,29)         34.2542         estimate D2E/DX2                !
 ! D157  D(30,17,18,19)        149.6112         estimate D2E/DX2                !
 ! D158  D(30,17,18,28)         34.5417         estimate D2E/DX2                !
 ! D159  D(30,17,18,29)        -95.4723         estimate D2E/DX2                !
 ! D160  D(7,17,20,3)           39.5258         estimate D2E/DX2                !
 ! D161  D(7,17,20,42)         -78.1756         estimate D2E/DX2                !
 ! D162  D(7,17,20,43)         161.6919         estimate D2E/DX2                !
 ! D163  D(18,17,20,3)         151.2915         estimate D2E/DX2                !
 ! D164  D(18,17,20,42)         33.5901         estimate D2E/DX2                !
 ! D165  D(18,17,20,43)        -86.5425         estimate D2E/DX2                !
 ! D166  D(30,17,20,3)         -78.8167         estimate D2E/DX2                !
 ! D167  D(30,17,20,42)        163.4819         estimate D2E/DX2                !
 ! D168  D(30,17,20,43)         43.3494         estimate D2E/DX2                !
 ! D169  D(17,18,19,8)         -16.5133         estimate D2E/DX2                !
 ! D170  D(28,18,19,8)         102.3044         estimate D2E/DX2                !
 ! D171  D(29,18,19,8)        -138.8506         estimate D2E/DX2                !
 ! D172  D(17,18,28,53)        168.3993         estimate D2E/DX2                !
 ! D173  D(17,18,28,54)        -72.4648         estimate D2E/DX2                !
 ! D174  D(17,18,28,55)         47.674          estimate D2E/DX2                !
 ! D175  D(19,18,28,53)         56.2339         estimate D2E/DX2                !
 ! D176  D(19,18,28,54)        175.3698         estimate D2E/DX2                !
 ! D177  D(19,18,28,55)        -64.4914         estimate D2E/DX2                !
 ! D178  D(29,18,28,53)        -59.043          estimate D2E/DX2                !
 ! D179  D(29,18,28,54)         60.0929         estimate D2E/DX2                !
 ! D180  D(29,18,28,55)       -179.7683         estimate D2E/DX2                !
 ! D181  D(17,18,29,56)         65.7264         estimate D2E/DX2                !
 ! D182  D(17,18,29,57)        -55.049          estimate D2E/DX2                !
 ! D183  D(17,18,29,58)       -175.1749         estimate D2E/DX2                !
 ! D184  D(19,18,29,56)        178.8321         estimate D2E/DX2                !
 ! D185  D(19,18,29,57)         58.0568         estimate D2E/DX2                !
 ! D186  D(19,18,29,58)        -62.0691         estimate D2E/DX2                !
 ! D187  D(28,18,29,56)        -64.9305         estimate D2E/DX2                !
 ! D188  D(28,18,29,57)        174.2942         estimate D2E/DX2                !
 ! D189  D(28,18,29,58)         54.1683         estimate D2E/DX2                !
 ! D190  D(5,22,23,24)         -22.8921         estimate D2E/DX2                !
 ! D191  D(5,22,23,25)        -144.3509         estimate D2E/DX2                !
 ! D192  D(5,22,23,47)          91.0548         estimate D2E/DX2                !
 ! D193  D(45,22,23,24)       -144.4744         estimate D2E/DX2                !
 ! D194  D(45,22,23,25)         94.0668         estimate D2E/DX2                !
 ! D195  D(45,22,23,47)        -30.5275         estimate D2E/DX2                !
 ! D196  D(46,22,23,24)         94.8784         estimate D2E/DX2                !
 ! D197  D(46,22,23,25)        -26.5804         estimate D2E/DX2                !
 ! D198  D(46,22,23,47)       -151.1747         estimate D2E/DX2                !
 ! D199  D(22,23,24,4)          36.4536         estimate D2E/DX2                !
 ! D200  D(25,23,24,4)         164.7836         estimate D2E/DX2                !
 ! D201  D(47,23,24,4)         -79.4043         estimate D2E/DX2                !
 ! D202  D(22,23,25,26)        171.3758         estimate D2E/DX2                !
 ! D203  D(22,23,25,27)        -11.9121         estimate D2E/DX2                !
 ! D204  D(24,23,25,26)         52.0562         estimate D2E/DX2                !
 ! D205  D(24,23,25,27)       -131.2317         estimate D2E/DX2                !
 ! D206  D(47,23,25,26)        -63.1659         estimate D2E/DX2                !
 ! D207  D(47,23,25,27)        113.5462         estimate D2E/DX2                !
 ! D208  D(23,25,26,48)         56.565          estimate D2E/DX2                !
 ! D209  D(23,25,26,49)        -61.8252         estimate D2E/DX2                !
 ! D210  D(23,25,26,50)        177.0929         estimate D2E/DX2                !
 ! D211  D(27,25,26,48)       -120.165          estimate D2E/DX2                !
 ! D212  D(27,25,26,49)        121.4448         estimate D2E/DX2                !
 ! D213  D(27,25,26,50)          0.3628         estimate D2E/DX2                !
 ! D214  D(23,25,27,51)       -176.9442         estimate D2E/DX2                !
 ! D215  D(23,25,27,52)          2.5601         estimate D2E/DX2                !
 ! D216  D(26,25,27,51)         -0.4636         estimate D2E/DX2                !
 ! D217  D(26,25,27,52)        179.0407         estimate D2E/DX2                !
 --------------------------------------------------------------------------------
 Trust Radius=3.00D-01 FncErr=1.00D-07 GrdErr=1.00D-06
 Number of steps in this run=    390 maximum allowed number of steps=    390.
 GradGradGradGradGradGradGradGradGradGradGradGradGradGradGradGradGradGrad

 Stoichiometry    C26H34O5
 Framework group  C1[X(C26H34O5)]
 Deg. of freedom   189
 Full point group                 C1      NOp   1
 Largest Abelian subgroup         C1      NOp   1
 Largest concise Abelian subgroup C1      NOp   1
                         Standard orientation:                         
 ---------------------------------------------------------------------
 Center     Atomic      Atomic             Coordinates (Angstroms)
 Number     Number       Type             X           Y           Z
 ---------------------------------------------------------------------
      1          6           0        1.903602   -0.021493    2.845708
      2          6           0        2.589564    0.911277    2.173619
      3          6           0        2.156329    1.311406    0.781835
      4          6           0        1.409973    0.215471   -0.047573
      5          6           0        0.822613   -0.995862    0.746371
      6          6           0        0.691996   -0.706834    2.271661
      7          6           0        0.351757    1.002874   -0.876857
      8          6           0       -1.057457    0.890070   -0.301989
      9          6           0       -1.593467   -0.297698    0.118782
     10          6           0       -0.615369   -1.398311    0.279018
     11          6           0       -3.064182   -0.423983    0.387810
     12          8           0       -3.741989    0.584828    0.534582
     13          6           0       -3.717145   -1.808812    0.494660
     14          6           0       -5.169343   -1.768433   -0.013443
     15          6           0       -3.657879   -2.261682    1.969878
     16          8           0       -0.902011   -2.587221    0.218148
     17          6           0        0.613877    2.511445   -0.683088
     18          6           0       -0.786813    3.133722   -0.861586
     19          8           0       -1.686247    2.055652   -0.367459
     20          6           0        1.230921    2.556428    0.728785
     21          8           0        0.297750    0.568738   -2.220043
     22          6           0        1.823756   -2.147155    0.460728
     23          6           0        2.933295   -1.524958   -0.391948
     24          8           0        2.312410   -0.364624   -0.998937
     25          6           0        3.582813   -2.350220   -1.481376
     26          6           0        4.514589   -1.587272   -2.391991
     27          6           0        3.402181   -3.669168   -1.591627
     28          6           0       -1.136764    3.382177   -2.330718
     29          6           0       -1.096687    4.357409   -0.005509
     30          1           0        1.317085    2.884469   -1.433376
     31          1           0        3.047691    1.548644    0.184971
     32          6           0        3.781456    1.628643    2.752149
     33          1           0        2.201585   -0.287456    3.858823
     34          1           0        0.505500   -1.658127    2.782416
     35          1           0       -0.200359   -0.091284    2.453678
     36          1           0       -3.137400   -2.520521   -0.097996
     37          1           0       -5.721838   -1.007132    0.548437
     38          1           0       -5.632956   -2.737389    0.216555
     39          1           0       -2.626867   -2.342331    2.328807
     40          1           0       -4.123498   -3.247680    2.079220
     41          1           0       -4.196630   -1.555156    2.612135
     42          1           0        0.452927    2.467119    1.496417
     43          1           0        1.773935    3.485338    0.928123
     44          1           0        1.078729   -0.011483   -2.329496
     45          1           0        2.226962   -2.575560    1.382098
     46          1           0        1.293865   -2.939877   -0.070735
     47          1           0        3.734786   -1.148935    0.265593
     48          1           0        5.307306   -1.089922   -1.815998
     49          1           0        3.981183   -0.798141   -2.934063
     50          1           0        4.988009   -2.250222   -3.122038
     51          1           0        3.921747   -4.241855   -2.355630
     52          1           0        2.747194   -4.230917   -0.933878
     53          1           0       -2.199900    3.625448   -2.423460
     54          1           0       -0.554536    4.227252   -2.715667
     55          1           0       -0.917370    2.502444   -2.939977
     56          1           0       -0.451655    5.192009   -0.301474
     57          1           0       -0.945796    4.160203    1.058656
     58          1           0       -2.138145    4.660426   -0.149906
     59          1           0        4.004743    1.284403    3.766861
     60          1           0        4.677002    1.474901    2.134082
     61          1           0        3.615061    2.713943    2.794152
     62          6           0       -5.293838   -1.489217   -1.515173
     63          1           0       -4.748068   -2.235269   -2.106478
     64          1           0       -4.895705   -0.500515   -1.766549
     65          1           0       -6.342560   -1.514760   -1.833389
 ---------------------------------------------------------------------
 Rotational constants (GHZ):      0.1955144      0.1287891      0.1062902
 Standard basis: 6-311+G(d) (5D, 7F)
 There are   784 symmetry adapted basis functions of A   symmetry.
 Integral buffers will be    131072 words long.
 Raffenetti 2 integral format.
 Two-electron integral symmetry is turned on.
   784 basis functions,  1286 primitive gaussians,   815 cartesian basis functions
   115 alpha electrons      115 beta electrons
       nuclear repulsion energy      3489.3624674390 Hartrees.
 NAtoms=   65 NActive=   65 NUniq=   65 SFac= 1.00D+00 NAtFMM=   50 NAOKFM=T Big=T
 One-electron integrals computed using PRISM.
 NBasis=   784 RedAO= T  NBF=   784
 NBsUse=   777 1.00D-06 NBFU=   777
 Harris functional with IExCor=  402 diagonalized for initial guess.
 ExpMin= 4.38D-02 ExpMax= 8.59D+03 ExpMxC= 1.30D+03 IAcc=2 IRadAn=         0 AccDes= 0.00D+00
 HarFok:  IExCor=  402 AccDes= 0.00D+00 IRadAn=         0 IDoV= 1
 ScaDFX=  1.000000  1.000000  1.000000  1.000000
 FoFCou: FMM=F IPFlag=           0 FMFlag=      100000 FMFlg1=        2001
         NFxFlg=           0 DoJE=T BraDBF=F KetDBF=T FulRan=T
         Omega=  0.000000  0.000000  1.000000  0.000000  0.000000 ICntrl=     500 IOpCl=  0
         NMat0=    1 NMatS0=    1 NMatT0=    0 NMatD0=    1 NMtDS0=    0 NMtDT0=    0
         I1Cent=           4 NGrid=           0.
 Petite list used in FoFCou.
 Initial guess orbital symmetries:
       Occupied  (A) (A) (A) (A) (A) (A) (A) (A) (A) (A) (A) (A)
                 (A) (A) (A) (A) (A) (A) (A) (A) (A) (A) (A) (A)
                 (A) (A) (A) (A) (A) (A) (A) (A) (A) (A) (A) (A)
                 (A) (A) (A) (A) (A) (A) (A) (A) (A) (A) (A) (A)
                 (A) (A) (A) (A) (A) (A) (A) (A) (A) (A) (A) (A)
                 (A) (A) (A) (A) (A) (A) (A) (A) (A) (A) (A) (A)
                 (A) (A) (A) (A) (A) (A) (A) (A) (A) (A) (A) (A)
                 (A) (A) (A) (A) (A) (A) (A) (A) (A) (A) (A) (A)
                 (A) (A) (A) (A) (A) (A) (A) (A) (A) (A) (A) (A)
                 (A) (A) (A) (A) (A) (A) (A)
       Virtual   (A) (A) (A) (A) (A) (A) (A) (A) (A) (A) (A) (A)
                 (A) (A) (A) (A) (A) (A) (A) (A) (A) (A) (A) (A)
                 (A) (A) (A) (A) (A) (A) (A) (A) (A) (A) (A) (A)
                 (A) (A) (A) (A) (A) (A) (A) (A) (A) (A) (A) (A)
                 (A) (A) (A) (A) (A) (A) (A) (A) (A) (A) (A) (A)
                 (A) (A) (A) (A) (A) (A) (A) (A) (A) (A) (A) (A)
                 (A) (A) (A) (A) (A) (A) (A) (A) (A) (A) (A) (A)
                 (A) (A) (A) (A) (A) (A) (A) (A) (A) (A) (A) (A)
                 (A) (A) (A) (A) (A) (A) (A) (A) (A) (A) (A) (A)
                 (A) (A) (A) (A) (A) (A) (A) (A) (A) (A) (A) (A)
                 (A) (A) (A) (A) (A) (A) (A) (A) (A) (A) (A) (A)
                 (A) (A) (A) (A) (A) (A) (A) (A) (A) (A) (A) (A)
                 (A) (A) (A) (A) (A) (A) (A) (A) (A) (A) (A) (A)
                 (A) (A) (A) (A) (A) (A) (A) (A) (A) (A) (A) (A)
                 (A) (A) (A) (A) (A) (A) (A) (A) (A) (A) (A) (A)
                 (A) (A) (A) (A) (A) (A) (A) (A) (A) (A) (A) (A)
                 (A) (A) (A) (A) (A) (A) (A) (A) (A) (A) (A) (A)
                 (A) (A) (A) (A) (A) (A) (A) (A) (A) (A) (A) (A)
                 (A) (A) (A) (A) (A) (A) (A) (A) (A) (A) (A) (A)
                 (A) (A) (A) (A) (A) (A) (A) (A) (A) (A) (A) (A)
                 (A) (A) (A) (A) (A) (A) (A) (A) (A) (A) (A) (A)
                 (A) (A) (A) (A) (A) (A) (A) (A) (A) (A) (A) (A)
                 (A) (A) (A) (A) (A) (A) (A) (A) (A) (A) (A) (A)
                 (A) (A) (A) (A) (A) (A) (A) (A) (A) (A) (A) (A)
                 (A) (A) (A) (A) (A) (A) (A) (A) (A) (A) (A) (A)
                 (A) (A) (A) (A) (A) (A) (A) (A) (A) (A) (A) (A)
                 (A) (A) (A) (A) (A) (A) (A) (A) (A) (A) (A) (A)
                 (A) (A) (A) (A) (A) (A) (A) (A) (A) (A) (A) (A)
                 (A) (A) (A) (A) (A) (A) (A) (A) (A) (A) (A) (A)
                 (A) (A) (A) (A) (A) (A) (A) (A) (A) (A) (A) (A)
                 (A) (A) (A) (A) (A) (A) (A) (A) (A) (A) (A) (A)
                 (A) (A) (A) (A) (A) (A) (A) (A) (A) (A) (A) (A)
                 (A) (A) (A) (A) (A) (A) (A) (A) (A) (A) (A) (A)
                 (A) (A) (A) (A) (A) (A) (A) (A) (A) (A) (A) (A)
                 (A) (A) (A) (A) (A) (A) (A) (A) (A) (A) (A) (A)
                 (A) (A) (A) (A) (A) (A) (A) (A) (A) (A) (A) (A)
                 (A) (A) (A) (A) (A) (A) (A) (A) (A) (A) (A) (A)
                 (A) (A) (A) (A) (A) (A) (A) (A) (A) (A) (A) (A)
                 (A) (A) (A) (A) (A) (A) (A) (A) (A) (A) (A) (A)
                 (A) (A) (A) (A) (A) (A) (A) (A) (A) (A) (A) (A)
                 (A) (A) (A) (A) (A) (A) (A) (A) (A) (A) (A) (A)
                 (A) (A) (A) (A) (A) (A) (A) (A) (A) (A) (A) (A)
                 (A) (A) (A) (A) (A) (A) (A) (A) (A) (A) (A) (A)
                 (A) (A) (A) (A) (A) (A) (A) (A) (A) (A) (A) (A)
                 (A) (A) (A) (A) (A) (A) (A) (A) (A) (A) (A) (A)
                 (A) (A) (A) (A) (A) (A) (A) (A) (A) (A) (A) (A)
                 (A) (A) (A) (A) (A) (A) (A) (A) (A) (A) (A) (A)
                 (A) (A) (A) (A) (A) (A) (A) (A) (A) (A) (A) (A)
                 (A) (A) (A) (A) (A) (A) (A) (A) (A) (A) (A) (A)
                 (A) (A) (A) (A) (A) (A) (A) (A) (A) (A) (A) (A)
                 (A) (A) (A) (A) (A) (A) (A) (A) (A) (A) (A) (A)
                 (A) (A) (A) (A) (A) (A) (A) (A) (A) (A) (A) (A)
                 (A) (A) (A) (A) (A) (A) (A) (A) (A) (A) (A) (A)
                 (A) (A) (A) (A) (A) (A) (A) (A) (A) (A) (A) (A)
                 (A) (A) (A) (A) (A) (A) (A) (A) (A) (A) (A) (A)
                 (A) (A)
 The electronic state of the initial guess is 1-A.
 Requested convergence on RMS density matrix=1.00D-08 within 128 cycles.
 Requested convergence on MAX density matrix=1.00D-06.
 Requested convergence on             energy=1.00D-06.
 No special actions if energy rises.
 SCF Done:  E(RB3LYP) =  -1387.64821697     A.U. after   16 cycles
             Convg  =    0.9088D-08             -V/T =  2.0043

 **********************************************************************

            Population analysis using the SCF density.

 **********************************************************************

 Orbital symmetries:
       Occupied  (A) (A) (A) (A) (A) (A) (A) (A) (A) (A) (A) (A)
                 (A) (A) (A) (A) (A) (A) (A) (A) (A) (A) (A) (A)
                 (A) (A) (A) (A) (A) (A) (A) (A) (A) (A) (A) (A)
                 (A) (A) (A) (A) (A) (A) (A) (A) (A) (A) (A) (A)
                 (A) (A) (A) (A) (A) (A) (A) (A) (A) (A) (A) (A)
                 (A) (A) (A) (A) (A) (A) (A) (A) (A) (A) (A) (A)
                 (A) (A) (A) (A) (A) (A) (A) (A) (A) (A) (A) (A)
                 (A) (A) (A) (A) (A) (A) (A) (A) (A) (A) (A) (A)
                 (A) (A) (A) (A) (A) (A) (A) (A) (A) (A) (A) (A)
                 (A) (A) (A) (A) (A) (A) (A)
       Virtual   (A) (A) (A) (A) (A) (A) (A) (A) (A) (A) (A) (A)
                 (A) (A) (A) (A) (A) (A) (A) (A) (A) (A) (A) (A)
                 (A) (A) (A) (A) (A) (A) (A) (A) (A) (A) (A) (A)
                 (A) (A) (A) (A) (A) (A) (A) (A) (A) (A) (A) (A)
                 (A) (A) (A) (A) (A) (A) (A) (A) (A) (A) (A) (A)
                 (A) (A) (A) (A) (A) (A) (A) (A) (A) (A) (A) (A)
                 (A) (A) (A) (A) (A) (A) (A) (A) (A) (A) (A) (A)
                 (A) (A) (A) (A) (A) (A) (A) (A) (A) (A) (A) (A)
                 (A) (A) (A) (A) (A) (A) (A) (A) (A) (A) (A) (A)
                 (A) (A) (A) (A) (A) (A) (A) (A) (A) (A) (A) (A)
                 (A) (A) (A) (A) (A) (A) (A) (A) (A) (A) (A) (A)
                 (A) (A) (A) (A) (A) (A) (A) (A) (A) (A) (A) (A)
                 (A) (A) (A) (A) (A) (A) (A) (A) (A) (A) (A) (A)
                 (A) (A) (A) (A) (A) (A) (A) (A) (A) (A) (A) (A)
                 (A) (A) (A) (A) (A) (A) (A) (A) (A) (A) (A) (A)
                 (A) (A) (A) (A) (A) (A) (A) (A) (A) (A) (A) (A)
                 (A) (A) (A) (A) (A) (A) (A) (A) (A) (A) (A) (A)
                 (A) (A) (A) (A) (A) (A) (A) (A) (A) (A) (A) (A)
                 (A) (A) (A) (A) (A) (A) (A) (A) (A) (A) (A) (A)
                 (A) (A) (A) (A) (A) (A) (A) (A) (A) (A) (A) (A)
                 (A) (A) (A) (A) (A) (A) (A) (A) (A) (A) (A) (A)
                 (A) (A) (A) (A) (A) (A) (A) (A) (A) (A) (A) (A)
                 (A) (A) (A) (A) (A) (A) (A) (A) (A) (A) (A) (A)
                 (A) (A) (A) (A) (A) (A) (A) (A) (A) (A) (A) (A)
                 (A) (A) (A) (A) (A) (A) (A) (A) (A) (A) (A) (A)
                 (A) (A) (A) (A) (A) (A) (A) (A) (A) (A) (A) (A)
                 (A) (A) (A) (A) (A) (A) (A) (A) (A) (A) (A) (A)
                 (A) (A) (A) (A) (A) (A) (A) (A) (A) (A) (A) (A)
                 (A) (A) (A) (A) (A) (A) (A) (A) (A) (A) (A) (A)
                 (A) (A) (A) (A) (A) (A) (A) (A) (A) (A) (A) (A)
                 (A) (A) (A) (A) (A) (A) (A) (A) (A) (A) (A) (A)
                 (A) (A) (A) (A) (A) (A) (A) (A) (A) (A) (A) (A)
                 (A) (A) (A) (A) (A) (A) (A) (A) (A) (A) (A) (A)
                 (A) (A) (A) (A) (A) (A) (A) (A) (A) (A) (A) (A)
                 (A) (A) (A) (A) (A) (A) (A) (A) (A) (A) (A) (A)
                 (A) (A) (A) (A) (A) (A) (A) (A) (A) (A) (A) (A)
                 (A) (A) (A) (A) (A) (A) (A) (A) (A) (A) (A) (A)
                 (A) (A) (A) (A) (A) (A) (A) (A) (A) (A) (A) (A)
                 (A) (A) (A) (A) (A) (A) (A) (A) (A) (A) (A) (A)
                 (A) (A) (A) (A) (A) (A) (A) (A) (A) (A) (A) (A)
                 (A) (A) (A) (A) (A) (A) (A) (A) (A) (A) (A) (A)
                 (A) (A) (A) (A) (A) (A) (A) (A) (A) (A) (A) (A)
                 (A) (A) (A) (A) (A) (A) (A) (A) (A) (A) (A) (A)
                 (A) (A) (A) (A) (A) (A) (A) (A) (A) (A) (A) (A)
                 (A) (A) (A) (A) (A) (A) (A) (A) (A) (A) (A) (A)
                 (A) (A) (A) (A) (A) (A) (A) (A) (A) (A) (A) (A)
                 (A) (A) (A) (A) (A) (A) (A) (A) (A) (A) (A) (A)
                 (A) (A) (A) (A) (A) (A) (A) (A) (A) (A) (A) (A)
                 (A) (A) (A) (A) (A) (A) (A) (A) (A) (A) (A) (A)
                 (A) (A) (A) (A) (A) (A) (A) (A) (A) (A) (A) (A)
                 (A) (A) (A) (A) (A) (A) (A) (A) (A) (A) (A) (A)
                 (A) (A) (A) (A) (A) (A) (A) (A) (A) (A) (A) (A)
                 (A) (A) (A) (A) (A) (A) (A) (A) (A) (A) (A) (A)
                 (A) (A) (A) (A) (A) (A) (A) (A) (A) (A) (A) (A)
                 (A) (A) (A) (A) (A) (A) (A) (A) (A) (A) (A) (A)
                 (A) (A)
 The electronic state is 1-A.
 Alpha  occ. eigenvalues --  -19.18079 -19.15304 -19.13596 -19.11178 -19.09401
 Alpha  occ. eigenvalues --  -10.26899 -10.26694 -10.25864 -10.25836 -10.25744
 Alpha  occ. eigenvalues --  -10.25053 -10.24220 -10.21042 -10.20025 -10.19928
 Alpha  occ. eigenvalues --  -10.19511 -10.19505 -10.19346 -10.19087 -10.18448
 Alpha  occ. eigenvalues --  -10.18161 -10.18075 -10.17774 -10.17674 -10.17391
 Alpha  occ. eigenvalues --  -10.17199 -10.16968 -10.16180 -10.15293 -10.14940
 Alpha  occ. eigenvalues --  -10.14099  -1.10694  -1.07850  -1.04528  -1.03810
 Alpha  occ. eigenvalues --   -1.02691  -0.88153  -0.84751  -0.83166  -0.82385
 Alpha  occ. eigenvalues --   -0.81092  -0.79482  -0.77728  -0.75046  -0.74134
 Alpha  occ. eigenvalues --   -0.73166  -0.71812  -0.70809  -0.69986  -0.69185
 Alpha  occ. eigenvalues --   -0.65920  -0.64952  -0.64154  -0.62414  -0.61788
 Alpha  occ. eigenvalues --   -0.60234  -0.59421  -0.57891  -0.55782  -0.54539
 Alpha  occ. eigenvalues --   -0.53732  -0.52757  -0.52270  -0.50969  -0.50575
 Alpha  occ. eigenvalues --   -0.49163  -0.48322  -0.48018  -0.47613  -0.47066
 Alpha  occ. eigenvalues --   -0.46317  -0.45372  -0.45077  -0.44530  -0.43790
 Alpha  occ. eigenvalues --   -0.43361  -0.42879  -0.42850  -0.42500  -0.42115
 Alpha  occ. eigenvalues --   -0.41692  -0.41550  -0.41272  -0.40901  -0.40834
 Alpha  occ. eigenvalues --   -0.40297  -0.40198  -0.39916  -0.39371  -0.39061
 Alpha  occ. eigenvalues --   -0.38543  -0.38264  -0.38057  -0.37664  -0.37325
 Alpha  occ. eigenvalues --   -0.36961  -0.36280  -0.35769  -0.35308  -0.35192
 Alpha  occ. eigenvalues --   -0.34868  -0.34253  -0.33956  -0.33581  -0.32677
 Alpha  occ. eigenvalues --   -0.32599  -0.31904  -0.31443  -0.29561  -0.28785
 Alpha  occ. eigenvalues --   -0.26927  -0.25783  -0.25485  -0.24682  -0.23391
 Alpha virt. eigenvalues --   -0.06355  -0.02825  -0.01833  -0.01206  -0.00837
 Alpha virt. eigenvalues --    0.00154   0.00360   0.00614   0.01518   0.01997
 Alpha virt. eigenvalues --    0.02036   0.02263   0.02741   0.03307   0.03497
 Alpha virt. eigenvalues --    0.03699   0.03947   0.04450   0.04732   0.04750
 Alpha virt. eigenvalues --    0.04995   0.05400   0.05680   0.05998   0.06460
 Alpha virt. eigenvalues --    0.06699   0.06939   0.07107   0.07293   0.07337
 Alpha virt. eigenvalues --    0.07819   0.07888   0.08107   0.08184   0.08521
 Alpha virt. eigenvalues --    0.08646   0.09110   0.09308   0.09401   0.10024
 Alpha virt. eigenvalues --    0.10181   0.10245   0.10481   0.10746   0.10964
 Alpha virt. eigenvalues --    0.11355   0.11594   0.11711   0.12152   0.12498
 Alpha virt. eigenvalues --    0.12681   0.12880   0.13121   0.13355   0.13395
 Alpha virt. eigenvalues --    0.13538   0.13847   0.14109   0.14244   0.14557
 Alpha virt. eigenvalues --    0.14846   0.14962   0.15371   0.15979   0.16213
 Alpha virt. eigenvalues --    0.16280   0.16570   0.16644   0.17048   0.17125
 Alpha virt. eigenvalues --    0.17250   0.17314   0.17714   0.17839   0.18061
 Alpha virt. eigenvalues --    0.18358   0.18563   0.18734   0.18905   0.19122
 Alpha virt. eigenvalues --    0.19301   0.19387   0.19664   0.20016   0.20147
 Alpha virt. eigenvalues --    0.20346   0.20398   0.20550   0.20763   0.20793
 Alpha virt. eigenvalues --    0.21155   0.21240   0.21669   0.21850   0.22258
 Alpha virt. eigenvalues --    0.22332   0.22411   0.22627   0.22801   0.23024
 Alpha virt. eigenvalues --    0.23213   0.23392   0.23500   0.23663   0.23828
 Alpha virt. eigenvalues --    0.24087   0.24323   0.24445   0.24624   0.24835
 Alpha virt. eigenvalues --    0.25169   0.25620   0.25732   0.25823   0.26225
 Alpha virt. eigenvalues --    0.26299   0.26535   0.26626   0.27113   0.27296
 Alpha virt. eigenvalues --    0.27419   0.27792   0.27967   0.28083   0.28280
 Alpha virt. eigenvalues --    0.28952   0.29093   0.29156   0.29464   0.29752
 Alpha virt. eigenvalues --    0.29798   0.30375   0.30555   0.30612   0.30985
 Alpha virt. eigenvalues --    0.31314   0.31464   0.31756   0.31876   0.31925
 Alpha virt. eigenvalues --    0.32037   0.32849   0.33061   0.33441   0.33615
 Alpha virt. eigenvalues --    0.33938   0.33964   0.34476   0.34710   0.34866
 Alpha virt. eigenvalues --    0.35135   0.35393   0.35540   0.35897   0.36347
 Alpha virt. eigenvalues --    0.36818   0.37265   0.37514   0.37922   0.38194
 Alpha virt. eigenvalues --    0.38630   0.38847   0.39042   0.39607   0.40204
 Alpha virt. eigenvalues --    0.40719   0.41079   0.41315   0.41949   0.42192
 Alpha virt. eigenvalues --    0.42250   0.42726   0.43128   0.43423   0.43502
 Alpha virt. eigenvalues --    0.43939   0.44606   0.45227   0.45385   0.45640
 Alpha virt. eigenvalues --    0.45866   0.46081   0.46262   0.46786   0.47385
 Alpha virt. eigenvalues --    0.47752   0.48223   0.48550   0.49355   0.49567
 Alpha virt. eigenvalues --    0.49663   0.50696   0.51313   0.51391   0.51897
 Alpha virt. eigenvalues --    0.52701   0.52963   0.53049   0.53477   0.53977
 Alpha virt. eigenvalues --    0.54178   0.54903   0.55266   0.55510   0.56099
 Alpha virt. eigenvalues --    0.56419   0.57367   0.57492   0.57668   0.58087
 Alpha virt. eigenvalues --    0.58491   0.58646   0.59436   0.59576   0.59881
 Alpha virt. eigenvalues --    0.60085   0.60349   0.60829   0.61107   0.61495
 Alpha virt. eigenvalues --    0.61996   0.62357   0.63033   0.63459   0.63702
 Alpha virt. eigenvalues --    0.64339   0.64766   0.65258   0.65504   0.65805
 Alpha virt. eigenvalues --    0.66191   0.66668   0.66790   0.67396   0.67575
 Alpha virt. eigenvalues --    0.67911   0.68060   0.68504   0.68952   0.69038
 Alpha virt. eigenvalues --    0.69479   0.69843   0.70338   0.70421   0.70734
 Alpha virt. eigenvalues --    0.70790   0.71170   0.71415   0.71599   0.71809
 Alpha virt. eigenvalues --    0.72269   0.72815   0.72976   0.73416   0.73531
 Alpha virt. eigenvalues --    0.73706   0.74365   0.74594   0.75026   0.75144
 Alpha virt. eigenvalues --    0.75720   0.75918   0.76303   0.76543   0.76685
 Alpha virt. eigenvalues --    0.77646   0.77856   0.78378   0.78508   0.78705
 Alpha virt. eigenvalues --    0.79281   0.79827   0.80362   0.80604   0.80940
 Alpha virt. eigenvalues --    0.81361   0.81543   0.81987   0.82359   0.82892
 Alpha virt. eigenvalues --    0.83579   0.83914   0.84544   0.85166   0.85526
 Alpha virt. eigenvalues --    0.86445   0.86761   0.87358   0.87810   0.88728
 Alpha virt. eigenvalues --    0.89998   0.90232   0.90859   0.91621   0.92285
 Alpha virt. eigenvalues --    0.92946   0.93990   0.94634   0.95906   0.96452
 Alpha virt. eigenvalues --    0.97036   0.98038   0.98792   0.99444   1.00045
 Alpha virt. eigenvalues --    1.00861   1.02138   1.02517   1.03358   1.04210
 Alpha virt. eigenvalues --    1.05709   1.06814   1.08287   1.09665   1.10348
 Alpha virt. eigenvalues --    1.11053   1.11875   1.12099   1.12966   1.14503
 Alpha virt. eigenvalues --    1.15987   1.16277   1.17456   1.18845   1.19127
 Alpha virt. eigenvalues --    1.20251   1.21363   1.21684   1.23393   1.23472
 Alpha virt. eigenvalues --    1.24030   1.25146   1.25737   1.26804   1.27684
 Alpha virt. eigenvalues --    1.28516   1.29329   1.30787   1.30982   1.31802
 Alpha virt. eigenvalues --    1.32824   1.33271   1.34084   1.34372   1.35163
 Alpha virt. eigenvalues --    1.36157   1.36856   1.37708   1.38959   1.39651
 Alpha virt. eigenvalues --    1.40118   1.40933   1.41715   1.42333   1.44133
 Alpha virt. eigenvalues --    1.44781   1.45720   1.46478   1.47436   1.48838
 Alpha virt. eigenvalues --    1.49621   1.50421   1.50973   1.51869   1.52665
 Alpha virt. eigenvalues --    1.52830   1.53404   1.53912   1.55272   1.55820
 Alpha virt. eigenvalues --    1.56013   1.56819   1.57261   1.57669   1.57899
 Alpha virt. eigenvalues --    1.58603   1.59282   1.59968   1.60357   1.60584
 Alpha virt. eigenvalues --    1.61046   1.61153   1.61848   1.62138   1.62786
 Alpha virt. eigenvalues --    1.63023   1.63359   1.63763   1.64680   1.64904
 Alpha virt. eigenvalues --    1.65292   1.65740   1.66114   1.66658   1.67437
 Alpha virt. eigenvalues --    1.67899   1.68145   1.69006   1.69607   1.70297
 Alpha virt. eigenvalues --    1.70692   1.71663   1.71878   1.72346   1.72600
 Alpha virt. eigenvalues --    1.73349   1.74060   1.74500   1.74912   1.75764
 Alpha virt. eigenvalues --    1.76387   1.77154   1.78474   1.79181   1.79777
 Alpha virt. eigenvalues --    1.80449   1.81412   1.81902   1.82110   1.83815
 Alpha virt. eigenvalues --    1.84349   1.84527   1.85776   1.86764   1.87646
 Alpha virt. eigenvalues --    1.88107   1.88437   1.88866   1.89534   1.92064
 Alpha virt. eigenvalues --    1.92375   1.93760   1.95031   1.96000   1.96074
 Alpha virt. eigenvalues --    1.97875   1.98550   1.99163   2.00319   2.01177
 Alpha virt. eigenvalues --    2.02696   2.03537   2.05051   2.05376   2.05828
 Alpha virt. eigenvalues --    2.06305   2.07298   2.09476   2.09571   2.10207
 Alpha virt. eigenvalues --    2.12245   2.12895   2.13905   2.14599   2.16104
 Alpha virt. eigenvalues --    2.16560   2.17469   2.17879   2.20151   2.20886
 Alpha virt. eigenvalues --    2.22517   2.23800   2.24631   2.25233   2.26545
 Alpha virt. eigenvalues --    2.28255   2.29329   2.30509   2.32359   2.34441
 Alpha virt. eigenvalues --    2.35641   2.36373   2.37861   2.39196   2.40501
 Alpha virt. eigenvalues --    2.43201   2.45897   2.47918   2.50234   2.52145
 Alpha virt. eigenvalues --    2.52520   2.53829   2.54247   2.54573   2.54683
 Alpha virt. eigenvalues --    2.55160   2.56034   2.56537   2.57071   2.57155
 Alpha virt. eigenvalues --    2.58719   2.59122   2.59376   2.59924   2.61979
 Alpha virt. eigenvalues --    2.62772   2.63164   2.64214   2.65286   2.66483
 Alpha virt. eigenvalues --    2.66669   2.68085   2.69497   2.70053   2.70700
 Alpha virt. eigenvalues --    2.71167   2.71345   2.72060   2.73201   2.73225
 Alpha virt. eigenvalues --    2.74788   2.76442   2.79738   2.82326   2.84720
 Alpha virt. eigenvalues --    2.86555   2.86894   2.88799   2.89766   2.90676
 Alpha virt. eigenvalues --    2.91548   2.91692   2.93625   2.94124   2.95224
 Alpha virt. eigenvalues --    2.95950   2.97075   2.97779   2.98530   3.00222
 Alpha virt. eigenvalues --    3.00858   3.01870   3.02043   3.03168   3.03439
 Alpha virt. eigenvalues --    3.03815   3.04175   3.05017   3.06657   3.08176
 Alpha virt. eigenvalues --    3.08721   3.09831   3.10943   3.11664   3.13415
 Alpha virt. eigenvalues --    3.14104   3.14854   3.16360   3.17374   3.17705
 Alpha virt. eigenvalues --    3.19165   3.19997   3.20628   3.21303   3.22875
 Alpha virt. eigenvalues --    3.23232   3.23912   3.25636   3.25753   3.26176
 Alpha virt. eigenvalues --    3.26788   3.27144   3.28483   3.29065   3.29481
 Alpha virt. eigenvalues --    3.31175   3.31889   3.32464   3.33503   3.34257
 Alpha virt. eigenvalues --    3.35431   3.36405   3.37627   3.38409   3.38912
 Alpha virt. eigenvalues --    3.39075   3.39614   3.41234   3.42879   3.45239
 Alpha virt. eigenvalues --    3.46006   3.47299   3.51551   3.52458   3.52807
 Alpha virt. eigenvalues --    3.53528   3.57224   3.60613   3.65644   3.74226
 Alpha virt. eigenvalues --    3.75752   3.76959   3.79708   3.85436   3.90125
 Alpha virt. eigenvalues --    3.92684   3.94162   3.96997   4.01534   4.02064
 Alpha virt. eigenvalues --    4.04635   4.06505   4.07581   4.09528   4.11481
 Alpha virt. eigenvalues --    4.15072   4.16540   4.18338   4.23257   4.24288
 Alpha virt. eigenvalues --    4.26138   4.28024   4.32337   4.36689   4.44772
 Alpha virt. eigenvalues --    4.53996   5.13613   5.15332   5.15505   5.19768
 Alpha virt. eigenvalues --    5.23770   5.27595   5.30515   5.32519   5.43668
 Alpha virt. eigenvalues --    5.43951   5.55669   5.70606   5.72576   5.81339
 Alpha virt. eigenvalues --    5.82284  23.44451  23.48964  23.51650  23.52765
 Alpha virt. eigenvalues --   23.62844  23.63566  23.65551  23.67024  23.67516
 Alpha virt. eigenvalues --   23.70064  23.72114  23.74196  23.75402  23.78657
 Alpha virt. eigenvalues --   23.79065  23.79965  23.83153  23.84687  23.85228
 Alpha virt. eigenvalues --   23.88239  23.89332  23.91219  23.94779  24.12658
 Alpha virt. eigenvalues --   24.19704  24.21421  49.97071  50.00250  50.01850
 Alpha virt. eigenvalues --   50.04431  50.05124
          Condensed to atoms (all electrons):
 Mulliken atomic charges:
              1
     1  C   -0.816636
     2  C    1.033488
     3  C   -0.048486
     4  C    0.195727
     5  C    1.393668
     6  C   -1.203771
     7  C   -0.813184
     8  C    0.017575
     9  C    0.065387
    10  C   -0.882429
    11  C    0.083702
    12  O   -0.230476
    13  C    0.289264
    14  C   -0.140300
    15  C   -1.120699
    16  O   -0.166941
    17  C   -0.037319
    18  C    0.812279
    19  O    0.238447
    20  C   -1.874695
    21  O   -0.136401
    22  C   -0.488844
    23  C   -0.208839
    24  O    0.069597
    25  C    1.061888
    26  C   -1.011351
    27  C   -1.333604
    28  C   -0.709195
    29  C   -0.586484
    30  H    0.234284
    31  H    0.268712
    32  C   -1.234027
    33  H    0.208438
    34  H    0.257382
    35  H    0.259055
    36  H    0.260418
    37  H    0.258694
    38  H    0.209968
    39  H    0.274228
    40  H    0.243617
    41  H    0.267362
    42  H    0.298544
    43  H    0.265859
    44  H    0.326352
    45  H    0.263941
    46  H    0.258424
    47  H    0.261489
    48  H    0.262010
    49  H    0.269520
    50  H    0.256977
    51  H    0.230428
    52  H    0.234637
    53  H    0.264062
    54  H    0.244221
    55  H    0.310451
    56  H    0.258155
    57  H    0.265711
    58  H    0.273936
    59  H    0.250082
    60  H    0.258925
    61  H    0.248704
    62  C   -0.996758
    63  H    0.234114
    64  H    0.261454
    65  H    0.239260
 Sum of Mulliken atomic charges =   0.00000
 Mulliken charges with hydrogens summed into heavy atoms:
              1
     1  C   -0.608197
     2  C    1.033488
     3  C    0.220226
     4  C    0.195727
     5  C    1.393668
     6  C   -0.687333
     7  C   -0.813184
     8  C    0.017575
     9  C    0.065387
    10  C   -0.882429
    11  C    0.083702
    12  O   -0.230476
    13  C    0.549682
    14  C    0.328362
    15  C   -0.335492
    16  O   -0.166941
    17  C    0.196966
    18  C    0.812279
    19  O    0.238447
    20  C   -1.310293
    21  O    0.189951
    22  C    0.033521
    23  C    0.052650
    24  O    0.069597
    25  C    1.061888
    26  C   -0.222844
    27  C   -0.868539
    28  C    0.109540
    29  C    0.211318
    32  C   -0.476316
    62  C   -0.261930
 Sum of Mulliken charges with hydrogens summed into heavy atoms =   0.00000
 Electronic spatial extent (au):  <R**2>=          11876.1161
 Charge=              0.0000 electrons
 Dipole moment (field-independent basis, Debye):
    X=              6.0662    Y=              2.7163    Z=              1.0927  Tot=              6.7358
 Quadrupole moment (field-independent basis, Debye-Ang):
   XX=           -194.9676   YY=           -179.8980   ZZ=           -186.6625
   XY=              3.2481   XZ=              1.9314   YZ=             -2.2559
 Traceless Quadrupole moment (field-independent basis, Debye-Ang):
   XX=             -7.7916   YY=              7.2780   ZZ=              0.5135
   XY=              3.2481   XZ=              1.9314   YZ=             -2.2559
 Octapole moment (field-independent basis, Debye-Ang**2):
  XXX=             67.1132  YYY=             68.0116  ZZZ=              4.3243  XYY=             11.1198
  XXY=            -19.7994  XXZ=            -17.8887  XZZ=             16.2065  YZZ=             -3.5613
  YYZ=            -19.8784  XYZ=             16.9323
 Hexadecapole moment (field-independent basis, Debye-Ang**3):
 XXXX=          -8886.9722 YYYY=          -4820.2156 ZZZZ=          -2697.7263 XXXY=             95.9655
 XXXZ=            -17.0412 YYYX=            -68.3608 YYYZ=            -25.3341 ZZZX=            -19.0417
 ZZZY=            -12.7782 XXYY=          -2255.2316 XXZZ=          -1864.7931 YYZZ=          -1254.7585
 XXYZ=             21.6959 YYXZ=            -24.8990 ZZXY=            -45.6480
 N-N= 3.489362467439D+03 E-N=-1.021171684545D+04  KE= 1.381713539659D+03
 Calling FoFJK, ICntrl=      2127 FMM=T ISym2X=0 I1Cent= 0 IOpClX= 0 NMat=1 NMatS=1 NMatT=0.
 ***** Axes restored to original set *****
 -------------------------------------------------------------------
 Center     Atomic                   Forces (Hartrees/Bohr)
 Number     Number              X              Y              Z
 -------------------------------------------------------------------
      1        6           0.001095072    0.001909224   -0.001471500
      2        6          -0.001244468   -0.001528586    0.001458673
      3        6           0.000101817    0.000330118   -0.000105468
      4        6          -0.000219547    0.000721029    0.000653629
      5        6          -0.000010040   -0.000517662   -0.000242116
      6        6          -0.000503903   -0.000015065   -0.000205403
      7        6          -0.001331851    0.001494968    0.002773291
      8        6          -0.003305310    0.000751357   -0.000191797
      9        6           0.001108120    0.001605668   -0.000264604
     10        6          -0.002100212   -0.007155499    0.000670837
     11        6          -0.003670221    0.005224789    0.000500037
     12        8           0.004610044   -0.006552413   -0.000190220
     13        6          -0.000191172    0.000095649   -0.000289597
     14        6          -0.000006877    0.000097482    0.000139327
     15        6           0.000098449    0.000357085    0.000147302
     16        8           0.001654824    0.008384015    0.000115445
     17        6           0.000187645   -0.000014367   -0.000420894
     18        6           0.000354923    0.001559848   -0.000612378
     19        8           0.002325370   -0.004345070    0.000363908
     20        6          -0.000269389   -0.000008828    0.000411993
     21        8           0.005565352   -0.002780501   -0.000067594
     22        6           0.000378481   -0.000224559   -0.000329291
     23        6           0.000606435   -0.001267616    0.000205145
     24        8          -0.000376874   -0.000286879    0.000994822
     25        6           0.000475907   -0.001738834   -0.000075576
     26        6          -0.000017059    0.000275802   -0.000093604
     27        6           0.000213655    0.001728113    0.000370827
     28        6           0.000355584   -0.000075015    0.000327791
     29        6           0.000318836   -0.000373814   -0.000181360
     30        1          -0.000914513   -0.000457291    0.000769141
     31        1          -0.000873065   -0.000195014    0.001008205
     32        6           0.000126672    0.000228990   -0.000029508
     33        1          -0.000228858    0.000170764   -0.000822472
     34        1           0.000117158    0.001526147   -0.000511907
     35        1           0.001269916   -0.000988595    0.000235398
     36        1          -0.000925487    0.000806945    0.000616597
     37        1           0.000096279   -0.001510985   -0.000567964
     38        1           0.000464208    0.001283667   -0.000061857
     39        1          -0.001687314   -0.000070691   -0.000045264
     40        1           0.000841011    0.001396501    0.000028313
     41        1           0.000705959   -0.001318670   -0.000636959
     42        1           0.001310548    0.000331346   -0.000902704
     43        1          -0.000899163   -0.001277470   -0.000278060
     44        1          -0.004366253    0.002314758   -0.002455905
     45        1          -0.000573500    0.000402039   -0.001296422
     46        1           0.001279857    0.001143690    0.001055747
     47        1          -0.000801614   -0.000491893   -0.001015814
     48        1          -0.001049035   -0.000757227   -0.000942277
     49        1           0.001076482   -0.001248824    0.000609760
     50        1          -0.000601851    0.001138448    0.000996642
     51        1          -0.000499019    0.000445106    0.000744529
     52        1           0.000581222    0.000522529   -0.000729695
     53        1           0.001587590   -0.000283761   -0.000175430
     54        1          -0.000897398   -0.001202919    0.000256735
     55        1          -0.000701048    0.001799876    0.000386974
     56        1          -0.000973057   -0.000907366    0.000614653
     57        1          -0.000383788    0.000669569   -0.001528006
     58        1           0.001647565   -0.000218907    0.000330987
     59        1          -0.000144426    0.000703098   -0.001544191
     60        1          -0.001216233    0.000226536    0.001018935
     61        1           0.000353019   -0.001618408    0.000065476
     62        6           0.000323798    0.000015107    0.000055380
     63        1          -0.000907349    0.001115344    0.000483670
[...]
                 (A) (A) (A) (A) (A) (A) (A) (A) (A) (A) (A) (A)
                 (A) (A) (A) (A) (A) (A) (A) (A) (A) (A) (A) (A)
                 (A) (A) (A) (A) (A) (A) (A) (A) (A) (A) (A) (A)
                 (A) (A) (A)
 The electronic state is 1-A.
 Alpha  occ. eigenvalues --  -19.17795 -19.15084 -19.13494 -19.10948 -19.10138
 Alpha  occ. eigenvalues --  -10.26563 -10.26473 -10.25865 -10.25721 -10.25647
 Alpha  occ. eigenvalues --  -10.25333 -10.24054 -10.20903 -10.19826 -10.19799
 Alpha  occ. eigenvalues --  -10.19428 -10.19317 -10.19099 -10.18793 -10.18213
 Alpha  occ. eigenvalues --  -10.17953 -10.17830 -10.17646 -10.17611 -10.17276
 Alpha  occ. eigenvalues --  -10.17121 -10.16941 -10.16405 -10.15430 -10.14751
 Alpha  occ. eigenvalues --  -10.14545  -1.10491  -1.07581  -1.04626  -1.03709
 Alpha  occ. eigenvalues --   -1.03534  -0.88117  -0.84754  -0.83206  -0.82412
 Alpha  occ. eigenvalues --   -0.81082  -0.79753  -0.77780  -0.75033  -0.74085
 Alpha  occ. eigenvalues --   -0.73140  -0.72035  -0.70876  -0.70026  -0.69182
 Alpha  occ. eigenvalues --   -0.65962  -0.64923  -0.64239  -0.62421  -0.61787
 Alpha  occ. eigenvalues --   -0.60216  -0.59610  -0.57912  -0.55831  -0.54540
 Alpha  occ. eigenvalues --   -0.53746  -0.52879  -0.52121  -0.51037  -0.50487
 Alpha  occ. eigenvalues --   -0.49254  -0.48597  -0.47943  -0.47572  -0.46948
 Alpha  occ. eigenvalues --   -0.46261  -0.45362  -0.45103  -0.44448  -0.43868
 Alpha  occ. eigenvalues --   -0.43310  -0.43286  -0.42793  -0.42565  -0.42114
 Alpha  occ. eigenvalues --   -0.41735  -0.41480  -0.41243  -0.40833  -0.40701
 Alpha  occ. eigenvalues --   -0.40632  -0.40324  -0.39912  -0.39401  -0.39082
 Alpha  occ. eigenvalues --   -0.38541  -0.38276  -0.38164  -0.37890  -0.37177
 Alpha  occ. eigenvalues --   -0.36800  -0.36230  -0.35602  -0.35514  -0.35189
 Alpha  occ. eigenvalues --   -0.34804  -0.34245  -0.34012  -0.33550  -0.33270
 Alpha  occ. eigenvalues --   -0.32494  -0.32075  -0.31499  -0.29449  -0.28745
 Alpha  occ. eigenvalues --   -0.26946  -0.25761  -0.25463  -0.24584  -0.23693
 Alpha virt. eigenvalues --   -0.05999  -0.02547  -0.01763  -0.01130  -0.00729
 Alpha virt. eigenvalues --    0.00221   0.00420   0.00597   0.01700   0.01817
 Alpha virt. eigenvalues --    0.02028   0.02254   0.02720   0.03302   0.03511
 Alpha virt. eigenvalues --    0.03609   0.04026   0.04339   0.04625   0.04863
 Alpha virt. eigenvalues --    0.04913   0.05296   0.05659   0.05958   0.06226
 Alpha virt. eigenvalues --    0.06769   0.06839   0.07024   0.07368   0.07431
 Alpha virt. eigenvalues --    0.07716   0.07771   0.08088   0.08334   0.08475
 Alpha virt. eigenvalues --    0.08671   0.09019   0.09306   0.09455   0.10150
 Alpha virt. eigenvalues --    0.10221   0.10347   0.10516   0.10812   0.11028
 Alpha virt. eigenvalues --    0.11267   0.11728   0.11772   0.12117   0.12498
 Alpha virt. eigenvalues --    0.12725   0.13004   0.13197   0.13311   0.13542
 Alpha virt. eigenvalues --    0.13740   0.13841   0.14034   0.14306   0.14667
 Alpha virt. eigenvalues --    0.14938   0.15143   0.15173   0.15731   0.16003
 Alpha virt. eigenvalues --    0.16225   0.16445   0.16619   0.16978   0.17057
 Alpha virt. eigenvalues --    0.17205   0.17500   0.17811   0.17856   0.18052
 Alpha virt. eigenvalues --    0.18288   0.18634   0.18822   0.18877   0.19067
 Alpha virt. eigenvalues --    0.19299   0.19431   0.19600   0.19891   0.20000
 Alpha virt. eigenvalues --    0.20150   0.20344   0.20562   0.20695   0.20869
 Alpha virt. eigenvalues --    0.21281   0.21385   0.21649   0.21826   0.22150
 Alpha virt. eigenvalues --    0.22423   0.22480   0.22587   0.22878   0.22997
 Alpha virt. eigenvalues --    0.23139   0.23179   0.23505   0.23792   0.24006
 Alpha virt. eigenvalues --    0.24116   0.24531   0.24682   0.24727   0.24845
 Alpha virt. eigenvalues --    0.24981   0.25295   0.25590   0.25911   0.25975
 Alpha virt. eigenvalues --    0.26305   0.26577   0.26868   0.27078   0.27367
 Alpha virt. eigenvalues --    0.27450   0.27813   0.28007   0.28162   0.28330
 Alpha virt. eigenvalues --    0.28673   0.28908   0.29177   0.29392   0.29566
 Alpha virt. eigenvalues --    0.29821   0.30157   0.30243   0.30714   0.31095
 Alpha virt. eigenvalues --    0.31229   0.31560   0.31805   0.31963   0.32052
 Alpha virt. eigenvalues --    0.32344   0.32443   0.32921   0.33085   0.33283
 Alpha virt. eigenvalues --    0.33947   0.34028   0.34426   0.34632   0.35055
 Alpha virt. eigenvalues --    0.35114   0.35358   0.35901   0.36166   0.36344
 Alpha virt. eigenvalues --    0.36763   0.37219   0.37511   0.37613   0.37728
 Alpha virt. eigenvalues --    0.38427   0.38690   0.39331   0.39679   0.40297
 Alpha virt. eigenvalues --    0.40596   0.40861   0.41543   0.41721   0.41899
 Alpha virt. eigenvalues --    0.42457   0.42513   0.43027   0.43264   0.43784
 Alpha virt. eigenvalues --    0.43869   0.44179   0.44443   0.45176   0.45527
 Alpha virt. eigenvalues --    0.45676   0.46310   0.46704   0.46801   0.46986
 Alpha virt. eigenvalues --    0.47569   0.48006   0.48417   0.48797   0.49458
 Alpha virt. eigenvalues --    0.49752   0.50116   0.50160   0.50466   0.51520
 Alpha virt. eigenvalues --    0.52037   0.52447   0.52666   0.53213   0.53380
 Alpha virt. eigenvalues --    0.53709   0.54260   0.54837   0.55108   0.55319
 Alpha virt. eigenvalues --    0.55919   0.56501   0.57167   0.57321   0.57812
 Alpha virt. eigenvalues --    0.58249   0.58487   0.58693   0.59100   0.59396
 Alpha virt. eigenvalues --    0.59956   0.60698   0.60917   0.61153   0.61205
 Alpha virt. eigenvalues --    0.61433   0.62193   0.62550   0.62730   0.63466
 Alpha virt. eigenvalues --    0.63616   0.64453   0.64714   0.65273   0.66092
 Alpha virt. eigenvalues --    0.66153   0.66408   0.66935   0.67189   0.67416
 Alpha virt. eigenvalues --    0.68088   0.68185   0.68625   0.68856   0.69213
 Alpha virt. eigenvalues --    0.69617   0.69922   0.70206   0.70449   0.70726
 Alpha virt. eigenvalues --    0.70773   0.71056   0.71107   0.71721   0.72087
 Alpha virt. eigenvalues --    0.72535   0.72873   0.72940   0.73047   0.73695
 Alpha virt. eigenvalues --    0.73839   0.74173   0.74431   0.74896   0.75326
 Alpha virt. eigenvalues --    0.75726   0.75781   0.75912   0.76406   0.76903
 Alpha virt. eigenvalues --    0.77433   0.78013   0.78318   0.78475   0.78636
 Alpha virt. eigenvalues --    0.78882   0.79698   0.79922   0.80373   0.80565
 Alpha virt. eigenvalues --    0.81367   0.81723   0.82028   0.82174   0.82668
 Alpha virt. eigenvalues --    0.83194   0.83616   0.84245   0.84619   0.85151
 Alpha virt. eigenvalues --    0.85488   0.86503   0.86997   0.87529   0.88027
 Alpha virt. eigenvalues --    0.89604   0.89800   0.90309   0.91126   0.91744
 Alpha virt. eigenvalues --    0.91973   0.92173   0.93816   0.94522   0.94975
 Alpha virt. eigenvalues --    0.95439   0.97885   0.97975   0.99198   0.99497
 Alpha virt. eigenvalues --    0.99892   1.00661   1.02319   1.02940   1.03524
 Alpha virt. eigenvalues --    1.04299   1.05952   1.06592   1.08212   1.09661
 Alpha virt. eigenvalues --    1.10536   1.12193   1.12596   1.13269   1.14123
 Alpha virt. eigenvalues --    1.15178   1.16181   1.16714   1.17176   1.18310
 Alpha virt. eigenvalues --    1.19284   1.19871   1.21235   1.22249   1.22313
 Alpha virt. eigenvalues --    1.24056   1.25039   1.25596   1.26256   1.27213
 Alpha virt. eigenvalues --    1.28421   1.28943   1.29586   1.30476   1.32112
 Alpha virt. eigenvalues --    1.32935   1.33290   1.33973   1.34374   1.35009
 Alpha virt. eigenvalues --    1.35812   1.36043   1.36761   1.37463   1.38270
 Alpha virt. eigenvalues --    1.38816   1.40009   1.40601   1.42430   1.42971
 Alpha virt. eigenvalues --    1.43351   1.44795   1.45547   1.46369   1.47217
 Alpha virt. eigenvalues --    1.48693   1.49528   1.49819   1.50760   1.52045
 Alpha virt. eigenvalues --    1.52471   1.52992   1.53876   1.54705   1.54934
 Alpha virt. eigenvalues --    1.55798   1.56633   1.57121   1.57498   1.57911
 Alpha virt. eigenvalues --    1.58199   1.58728   1.59420   1.60336   1.60737
 Alpha virt. eigenvalues --    1.60943   1.61148   1.61747   1.62332   1.62983
 Alpha virt. eigenvalues --    1.63098   1.63952   1.64015   1.64484   1.64962
 Alpha virt. eigenvalues --    1.65129   1.65894   1.66053   1.66411   1.67044
 Alpha virt. eigenvalues --    1.67562   1.67825   1.68506   1.69216   1.69780
 Alpha virt. eigenvalues --    1.70429   1.71076   1.71526   1.72134   1.72672
 Alpha virt. eigenvalues --    1.73123   1.73296   1.73927   1.74806   1.75310
 Alpha virt. eigenvalues --    1.76141   1.76523   1.77343   1.78785   1.79206
 Alpha virt. eigenvalues --    1.80442   1.80828   1.81139   1.82263   1.82547
 Alpha virt. eigenvalues --    1.83618   1.84763   1.85050   1.85620   1.87141
 Alpha virt. eigenvalues --    1.87255   1.88235   1.88657   1.89995   1.90661
 Alpha virt. eigenvalues --    1.93041   1.93368   1.94046   1.95148   1.95746
 Alpha virt. eigenvalues --    1.97522   1.98263   1.99393   2.00085   2.00734
 Alpha virt. eigenvalues --    2.01126   2.03229   2.04206   2.04554   2.05448
 Alpha virt. eigenvalues --    2.06128   2.06445   2.06646   2.09114   2.09832
 Alpha virt. eigenvalues --    2.10369   2.12498   2.12726   2.14351   2.14971
 Alpha virt. eigenvalues --    2.16336   2.16800   2.17905   2.18107   2.20999
 Alpha virt. eigenvalues --    2.22254   2.22389   2.24089   2.25085   2.26282
 Alpha virt. eigenvalues --    2.27127   2.28140   2.29707   2.31263   2.32329
 Alpha virt. eigenvalues --    2.34625   2.35440   2.37048   2.38158   2.39493
 Alpha virt. eigenvalues --    2.40815   2.43234   2.45734   2.48300   2.49552
 Alpha virt. eigenvalues --    2.51194   2.52539   2.52918   2.53319   2.54513
 Alpha virt. eigenvalues --    2.55023   2.55267   2.55900   2.56866   2.57504
 Alpha virt. eigenvalues --    2.57713   2.59190   2.59547   2.59816   2.60206
 Alpha virt. eigenvalues --    2.62177   2.62960   2.63463   2.64615   2.66068
 Alpha virt. eigenvalues --    2.66404   2.67215   2.67901   2.69521   2.70430
 Alpha virt. eigenvalues --    2.70686   2.71283   2.72045   2.72642   2.72982
 Alpha virt. eigenvalues --    2.73881   2.74967   2.76110   2.80845   2.82731
 Alpha virt. eigenvalues --    2.84648   2.86185   2.86751   2.88936   2.90474
 Alpha virt. eigenvalues --    2.91473   2.91869   2.92518   2.93729   2.94854
 Alpha virt. eigenvalues --    2.95404   2.96152   2.97632   2.97888   2.98758
 Alpha virt. eigenvalues --    3.00441   3.01144   3.02021   3.02361   3.03293
 Alpha virt. eigenvalues --    3.03572   3.04118   3.04636   3.05125   3.06189
 Alpha virt. eigenvalues --    3.08046   3.09175   3.10088   3.11330   3.13137
 Alpha virt. eigenvalues --    3.13897   3.14673   3.15238   3.16593   3.17750
 Alpha virt. eigenvalues --    3.18360   3.19775   3.20542   3.21259   3.21788
 Alpha virt. eigenvalues --    3.22574   3.23660   3.24461   3.25662   3.26411
 Alpha virt. eigenvalues --    3.26945   3.27247   3.27766   3.28612   3.29796
 Alpha virt. eigenvalues --    3.30158   3.32220   3.32480   3.33084   3.34380
 Alpha virt. eigenvalues --    3.34923   3.35867   3.36268   3.37890   3.38899
 Alpha virt. eigenvalues --    3.39350   3.40171   3.40566   3.42399   3.43438
 Alpha virt. eigenvalues --    3.45880   3.46775   3.48090   3.52140   3.52579
 Alpha virt. eigenvalues --    3.53386   3.53751   3.58010   3.60914   3.64377
 Alpha virt. eigenvalues --    3.75540   3.76512   3.78219   3.79972   3.85647
 Alpha virt. eigenvalues --    3.91289   3.93486   3.94984   3.98136   4.01932
 Alpha virt. eigenvalues --    4.02786   4.05065   4.06597   4.08500   4.10383
 Alpha virt. eigenvalues --    4.11775   4.14825   4.15985   4.18127   4.22494
 Alpha virt. eigenvalues --    4.24529   4.26189   4.28236   4.30131   4.33298
 Alpha virt. eigenvalues --    4.45096   4.55479   5.13693   5.14746   5.17029
 Alpha virt. eigenvalues --    5.19997   5.24276   5.29957   5.31607   5.33198
 Alpha virt. eigenvalues --    5.41073   5.43687   5.55535   5.70896   5.72823
 Alpha virt. eigenvalues --    5.79593   5.83869  23.44514  23.49439  23.51814
 Alpha virt. eigenvalues --   23.53266  23.63006  23.64474  23.65779  23.67492
 Alpha virt. eigenvalues --   23.67837  23.70776  23.72188  23.73567  23.75829
 Alpha virt. eigenvalues --   23.78642  23.79318  23.79810  23.83692  23.85483
 Alpha virt. eigenvalues --   23.85959  23.88727  23.88900  23.91260  23.95947
 Alpha virt. eigenvalues --   24.16036  24.20657  24.23073  49.97021  50.00411
 Alpha virt. eigenvalues --   50.02248  50.03871  50.06114
          Condensed to atoms (all electrons):
 Mulliken atomic charges:
              1
     1  C   -0.665419
     2  C    1.072780
     3  C   -0.031346
     4  C   -0.011263
     5  C    1.340174
     6  C   -1.294692
     7  C   -0.765180
     8  C    0.240800
     9  C    0.786315
    10  C   -1.129200
    11  C   -0.331035
    12  O   -0.183972
    13  C    0.406600
    14  C   -0.335718
    15  C   -1.113169
    16  O   -0.167759
    17  C   -0.221770
    18  C    0.783074
    19  O    0.213962
    20  C   -1.725825
    21  O   -0.145728
    22  C   -0.494831
    23  C   -0.203250
    24  O    0.070633
    25  C    1.043401
    26  C   -1.022424
    27  C   -1.298959
    28  C   -0.811676
    29  C   -0.616102
    30  H    0.237376
    31  H    0.268019
    32  C   -1.228866
    33  H    0.208417
    34  H    0.259887
    35  H    0.260534
    36  H    0.235549
    37  H    0.263093
    38  H    0.217334
    39  H    0.277696
    40  H    0.234056
    41  H    0.266999
    42  H    0.294334
    43  H    0.263400
    44  H    0.330545
    45  H    0.264574
    46  H    0.257403
    47  H    0.261791
    48  H    0.261912
    49  H    0.270609
    50  H    0.257610
    51  H    0.230434
    52  H    0.234597
    53  H    0.265388
    54  H    0.249033
    55  H    0.310659
    56  H    0.260684
    57  H    0.271095
    58  H    0.274024
    59  H    0.250282
    60  H    0.258750
    61  H    0.247707
    62  C   -0.950087
    63  H    0.240989
    64  H    0.260156
    65  H    0.245595
 Sum of Mulliken atomic charges =   0.00000
 Mulliken charges with hydrogens summed into heavy atoms:
              1
     1  C   -0.457002
     2  C    1.072780
     3  C    0.236673
     4  C   -0.011263
     5  C    1.340174
     6  C   -0.774272
     7  C   -0.765180
     8  C    0.240800
     9  C    0.786315
    10  C   -1.129200
    11  C   -0.331035
    12  O   -0.183972
    13  C    0.642149
    14  C    0.144709
    15  C   -0.334418
    16  O   -0.167759
    17  C    0.015606
    18  C    0.783074
    19  O    0.213962
    20  C   -1.168091
    21  O    0.184817
    22  C    0.027146
    23  C    0.058541
    24  O    0.070633
    25  C    1.043401
    26  C   -0.232293
    27  C   -0.833928
    28  C    0.013405
    29  C    0.189701
    32  C   -0.472126
    62  C   -0.203347
 Sum of Mulliken charges with hydrogens summed into heavy atoms =   0.00000
 Electronic spatial extent (au):  <R**2>=          11762.9694
 Charge=              0.0000 electrons
 Dipole moment (field-independent basis, Debye):
    X=              5.4864    Y=              3.0225    Z=             -0.2908  Tot=              6.2706
 Quadrupole moment (field-independent basis, Debye-Ang):
   XX=           -191.6770   YY=           -180.0087   ZZ=           -188.5020
   XY=              2.0126   XZ=              6.2452   YZ=             -1.1599
 Traceless Quadrupole moment (field-independent basis, Debye-Ang):
   XX=             -4.9478   YY=              6.7205   ZZ=             -1.7728
   XY=              2.0126   XZ=              6.2452   YZ=             -1.1599
 Octapole moment (field-independent basis, Debye-Ang**2):
  XXX=             47.5686  YYY=             66.0483  ZZZ=              4.4490  XYY=              5.2498
  XXY=            -16.3653  XXZ=            -32.9382  XZZ=             23.9120  YZZ=             -5.2251
  YYZ=            -22.9039  XYZ=             15.0961
 Hexadecapole moment (field-independent basis, Debye-Ang**3):
 XXXX=          -8750.4721 YYYY=          -4754.4409 ZZZZ=          -2675.0543 XXXY=             84.5042
 XXXZ=             40.5036 YYYX=            -74.5104 YYYZ=             -6.5784 ZZZX=            -16.8329
 ZZZY=            -15.9008 XXYY=          -2206.4523 XXZZ=          -1873.5602 YYZZ=          -1244.4727
 XXYZ=             22.7841 YYXZ=            -14.3571 ZZXY=            -36.7847
 N-N= 3.494096052356D+03 E-N=-1.022136587197D+04  KE= 1.381926387595D+03
 1\1\GINC-B0600\FOpt\RB3LYP\6-311+G(d)\C26H34O5\CAOFEI\13-Apr-2021\0\\#
  opt b3lyp/6-311+g(d) geom=connectivity\\Title Card Required\\0,1\C,2.
 1112025045,0.1108779501,2.8393016755\C,2.7136760651,1.0237968676,2.073
 7427337\C,2.1597907228,1.3430389573,0.7061119528\C,1.3911782844,0.1874
 090819,-0.0159810243\C,0.8904485421,-0.9919980168,0.8831486785\C,0.877
 7007344,-0.6274288236,2.3974970996\C,0.2673893863,0.9132765966,-0.8131
 044941\C,-1.1007038314,0.7879946558,-0.1578890662\C,-1.5649987303,-0.3
 741541609,0.3735039309\C,-0.5720493309,-1.4432868683,0.5798380497\C,-3
 .0078582319,-0.5278454725,0.7671062562\O,-3.5923482115,0.394639848,1.3
 026307169\C,-3.7380216428,-1.8408957759,0.4622098839\C,-5.0571336289,-
 1.5531465509,-0.2804791584\C,-3.9971206632,-2.5903571748,1.7822238482\
 O,-0.8629657444,-2.6221044243,0.7004694832\C,0.4929876387,2.4331865532
 ,-0.6954356787\C,-0.9311283785,3.0141163938,-0.8248295043\O,-1.7812045
 392,1.9205810776,-0.2719164423\C,1.19271902,2.5535584271,0.6703455137\
 O,0.1511725769,0.4425482964,-2.1434794374\C,1.8863951046,-2.1418084867
 ,0.5749801593\C,2.9326066888,-1.5380166966,-0.3611060916\O,2.246740393
 6,-0.4266628146,-0.989775515\C,3.5547991377,-2.4008425494,-1.435073371
 6\C,4.4302863411,-1.665583306,-2.4181400072\C,3.4002412291,-3.72492089
 54,-1.4718669966\C,-1.3461296354,3.2309559419,-2.2791630336\C,-1.23029
 11293,4.2447305815,0.0210287454\H,1.1398927174,2.7899710802,-1.4995959
 552\H,2.9941336656,1.5798997904,0.0346832634\C,3.9266472462,1.79675587
 28,2.5159315358\H,2.4952911952,-0.0998932771,3.8349625827\H,0.75402245
 67,-1.5525187523,2.9662004983\H,-0.0103598194,-0.023759352,2.623137940
 5\H,-3.0983078625,-2.4639905209,-0.1655978512\H,-5.6741946881,-0.89336
 44948,0.3370385568\H,-5.6023984074,-2.5004526221,-0.3668044783\H,-3.06
 28827238,-2.8446972197,2.2869733556\H,-4.5320919407,-3.5239428025,1.58
 53702462\H,-4.605589237,-1.9832243704,2.4576548896\H,0.4721105506,2.47
 1273597,1.4895034579\H,1.7144218648,3.5042152163,0.7988569412\H,0.9141
 869024,-0.1402263035,-2.2973500171\H,2.3458174607,-2.5372898503,1.4820
 401889\H,1.3423219793,-2.9580478444,0.1020720704\H,3.7537153127,-1.109
 8490843,0.2338456724\H,5.2328463094,-1.1251935506,-1.9023969408\H,3.86
 07966749,-0.9170160229,-2.9755440042\H,4.8890956433,-2.3511155748,-3.1
 329816153\H,3.9012499396,-4.3251847081,-2.2250899243\H,2.7852203331,-4
 .2656503881,-0.7624109047\H,-2.4122630182,3.4626441615,-2.3337125339\H
 ,-0.7934860607,4.0740380562,-2.7037424734\H,-1.1453705836,2.3478831121
 ,-2.8853333104\H,-0.6087675391,5.0831547667,-0.3053792234\H,-1.0461171
 763,4.0693985393,1.0811196105\H,-2.2767438499,4.5344145599,-0.09360642
 31\H,4.243764681,1.5105527734,3.5209856144\H,4.7711283196,1.6354516714
 ,1.8353608678\H,3.7348504883,2.8760928579,2.5214190372\C,-4.8764767591
 ,-0.9443804116,-1.6737087188\H,-4.2584207743,-1.5825541819,-2.31352429
 35\H,-4.4018010983,0.0401284134,-1.6290076844\H,-5.8419048746,-0.81591
 83487,-2.1719378839\\Version=EM64L-G09RevB.01\State=1-A\HF=-1387.64938
 91\RMSD=5.773e-09\RMSF=2.325e-06\Dipole=2.1912367,1.1258921,-0.1308557
 \Quadrupole=-3.5660366,4.8831018,-1.3170652,1.7861614,4.603456,-1.0621
 832\PG=C01 [X(C26H34O5)]\\@


 GOD DOES NOT PLAY WITH DICE.
               -- A. EINSTEIN
 Job cpu time:  1 days 23 hours 39 minutes 33.8 seconds.
 File lengths (MBytes):  RWF=    403 Int=      0 D2E=      0 Chk=     40 Scr=      1
 Normal termination of Gaussian 09 at Tue Apr 13 20:20:31 2021.
