 Entering Gaussian System, Link 0=g09
 Initial command:
 /public/software/g09/g09/l1.exe /tmp/Gau-21460.inp -scrdir=/tmp/
 Entering Link 1 = /public/software/g09/g09/l1.exe PID=     21461.
  
 Copyright (c) 1988,1990,1992,1993,1995,1998,2003,2009,2010,
            Gaussian, Inc.  All Rights Reserved.
  
 This is part of the Gaussian(R) 09 program.  It is based on
 the Gaussian(R) 03 system (copyright 2003, Gaussian, Inc.),
 the Gaussian(R) 98 system (copyright 1998, Gaussian, Inc.),
 the Gaussian(R) 94 system (copyright 1995, Gaussian, Inc.),
 the Gaussian 92(TM) system (copyright 1992, Gaussian, Inc.),
 the Gaussian 90(TM) system (copyright 1990, Gaussian, Inc.),
 the Gaussian 88(TM) system (copyright 1988, Gaussian, Inc.),
 the Gaussian 86(TM) system (copyright 1986, Carnegie Mellon
 University), and the Gaussian 82(TM) system (copyright 1983,
 Carnegie Mellon University). Gaussian is a federally registered
 trademark of Gaussian, Inc.
  
 This software contains proprietary and confidential information,
 including trade secrets, belonging to Gaussian, Inc.
  
 This software is provided under written license and may be
 used, copied, transmitted, or stored only in accord with that
 written license.
  
 The following legend is applicable only to US Government
 contracts under FAR:
  
                    RESTRICTED RIGHTS LEGEND
  
 Use, reproduction and disclosure by the US Government is
 subject to restrictions as set forth in subparagraphs (a)
 and (c) of the Commercial Computer Software - Restricted
 Rights clause in FAR 52.227-19.
  
 Gaussian, Inc.
 340 Quinnipiac St., Bldg. 40, Wallingford CT 06492
  
  
 ---------------------------------------------------------------
 Warning -- This program may not be used in any manner that
 competes with the business of Gaussian, Inc. or will provide
 assistance to any competitor of Gaussian, Inc.  The licensee
 of this program is prohibited from giving any competitor of
 Gaussian, Inc. access to this program.  By using this program,
 the user acknowledges that Gaussian, Inc. is engaged in the
 business of creating and licensing software in the field of
 computational chemistry and represents and warrants to the
 licensee that it is not a competitor of Gaussian, Inc. and that
 it will not use this program in any manner prohibited above.
 ---------------------------------------------------------------
  

 Cite this work as:
 Gaussian 09, Revision B.01,
 M. J. Frisch, G. W. Trucks, H. B. Schlegel, G. E. Scuseria, 
 M. A. Robb, J. R. Cheeseman, G. Scalmani, V. Barone, B. Mennucci, 
 G. A. Petersson, H. Nakatsuji, M. Caricato, X. Li, H. P. Hratchian, 
 A. F. Izmaylov, J. Bloino, G. Zheng, J. L. Sonnenberg, M. Hada, 
 M. Ehara, K. Toyota, R. Fukuda, J. Hasegawa, M. Ishida, T. Nakajima, 
 Y. Honda, O. Kitao, H. Nakai, T. Vreven, J. A. Montgomery, Jr., 
 J. E. Peralta, F. Ogliaro, M. Bearpark, J. J. Heyd, E. Brothers, 
 K. N. Kudin, V. N. Staroverov, T. Keith, R. Kobayashi, J. Normand, 
 K. Raghavachari, A. Rendell, J. C. Burant, S. S. Iyengar, J. Tomasi, 
 M. Cossi, N. Rega, J. M. Millam, M. Klene, J. E. Knox, J. B. Cross, 
 V. Bakken, C. Adamo, J. Jaramillo, R. Gomperts, R. E. Stratmann, 
 O. Yazyev, A. J. Austin, R. Cammi, C. Pomelli, J. W. Ochterski, 
 R. L. Martin, K. Morokuma, V. G. Zakrzewski, G. A. Voth, 
 P. Salvador, J. J. Dannenberg, S. Dapprich, A. D. Daniels, 
 O. Farkas, J. B. Foresman, J. V. Ortiz, J. Cioslowski, 
 and D. J. Fox, Gaussian, Inc., Wallingford CT, 2010.
 
 ******************************************
 Gaussian 09:  EM64L-G09RevB.01 12-Aug-2010
                13-Apr-2021 
 ******************************************
 %mem=600MW
 %nprocshared=10
 Will use up to   10 processors via shared memory.
 ----------------------------------------
 # opt b3lyp/6-311+g(d) geom=connectivity
 ----------------------------------------
 1/14=-1,18=20,19=15,26=3,38=1,57=2/1,3;
 2/9=110,12=2,17=6,18=5,40=1/2;
 3/5=4,6=6,7=11,11=2,16=1,25=1,30=1,71=1,74=-5/1,2,3;
 4//1;
 5/5=2,38=5/2;
 6/7=2,8=2,9=2,10=2,28=1/1;
 7//1,2,3,16;
 1/14=-1,18=20,19=15/3(2);
 2/9=110/2;
 99//99;
 2/9=110/2;
 3/5=4,6=6,7=11,11=2,16=1,25=1,30=1,71=1,74=-5/1,2,3;
 4/5=5,16=3/1;
 5/5=2,38=5/2;
 7//1,2,3,16;
 1/14=-1,18=20,19=15/3(-5);
 2/9=110/2;
 6/7=2,8=2,9=2,10=2,19=2,28=1/1;
 99/9=1/99;
 -------------------
 Title Card Required
 -------------------
 Symbolic Z-matrix:
 Charge =  0 Multiplicity = 1
 C                     2.27422   0.21727   2.73992 
 C                     3.01769   0.9287    1.88365 
 C                     2.50018   1.19727   0.4886 
 C                     1.57044   0.09566  -0.12043 
 C                     0.93491  -0.90467   0.88677 
 C                     0.94167  -0.36824   2.35128 
 C                     0.52599   0.89983  -0.9664 
 C                    -0.84052   0.98644  -0.30142 
 C                    -1.44916  -0.09042   0.28808 
 C                    -0.56143  -1.23913   0.57018 
 C                    -2.90888  -0.04565   0.63605 
 O                    -3.47689   1.03454   0.72801 
 C                    -3.69064  -1.3446    0.87538 
 C                    -5.13418  -1.2101    0.35772 
 C                    -3.66958  -1.65404   2.38782 
 O                    -0.95665  -2.38827   0.73415 
 C                     0.94248   2.38535  -0.96794 
 C                    -0.40536   3.12442  -1.11562 
 O                    -1.36458   2.19351  -0.45841 
 C                     1.69352   2.51884   0.36925 
 O                     0.33841   0.33465  -2.24869 
 C                     1.82565  -2.16138   0.77083 
 C                     2.62691  -2.02299  -0.54038 
 O                     2.30882  -0.70165  -1.0548 
 C                     2.34966  -3.06434  -1.60572 
 C                     0.92646  -3.25426  -2.0709 
 C                     3.36374  -3.79098  -2.08666 
 C                    -0.83786   3.2665   -2.57658 
 C                    -0.53627   4.44705  -0.36774 
 H                     1.60546   2.59926  -1.81154 
 H                     3.34687   1.26508  -0.20713 
 C                     4.34823   1.5305    2.25194 
 H                     2.62461   0.05182   3.75753 
 H                     0.14747   0.38115   2.47449 
 H                     0.67491  -1.1978    3.01592 
 H                    -3.18647  -2.16418   0.35794 
 H                    -5.69039  -2.10176   0.67736 
 H                    -5.60534  -0.34742   0.84175 
 H                    -4.23688  -2.56928   2.59174 
 H                    -4.12548  -0.83417   2.95498 
 H                    -2.64989  -1.80834   2.7544 
 H                     0.98953   2.59252   1.20679 
 H                     2.33804   3.40218   0.41272 
 H                     1.13353  -0.22327  -2.38155 
 H                     1.19953  -3.0551    0.79598 
 H                     2.51762  -2.21044   1.61515 
 H                     3.7021   -2.02846  -0.32701 
 H                     0.2831   -3.62223  -1.2629 
 H                     0.48049  -2.31133  -2.40684 
 H                     0.87899  -3.96859  -2.89792 
 H                     3.20926  -4.56313  -2.83612 
 H                     4.3858   -3.64628  -1.74431 
 H                    -0.21035   4.01028  -3.0808 
 H                    -0.74349   2.31552  -3.10574 
 H                    -1.87828   3.60262  -2.62626 
 H                    -1.55331   4.83705  -0.47251 
 H                    -0.32426   4.33545   0.69844 
 H                     0.15903   5.18246  -0.78724 
 H                     5.14922   1.1472    1.60469 
 H                     4.34328   2.62222   2.1274 
 H                     4.61566   1.31235   3.29072 
 C                    -5.23695  -1.06494  -1.16443 
 H                    -4.74381  -0.14933  -1.50827 
 H                    -6.28434  -1.01631  -1.48419 
 H                    -4.77081  -1.91455  -1.6792 
 

 GradGradGradGradGradGradGradGradGradGradGradGradGradGradGradGradGradGrad
 Berny optimization.
 Initialization pass.
                           ----------------------------
                           !    Initial Parameters    !
                           ! (Angstroms and Degrees)  !
 --------------------------                            --------------------------
 ! Name  Definition              Value          Derivative Info.                !
 --------------------------------------------------------------------------------
 ! R1    R(1,2)                  1.3387         estimate D2E/DX2                !
 ! R2    R(1,6)                  1.5065         estimate D2E/DX2                !
 ! R3    R(1,33)                 1.0889         estimate D2E/DX2                !
 ! R4    R(2,3)                  1.512          estimate D2E/DX2                !
 ! R5    R(2,32)                 1.506          estimate D2E/DX2                !
 ! R6    R(3,4)                  1.5649         estimate D2E/DX2                !
 ! R7    R(3,20)                 1.5529         estimate D2E/DX2                !
 ! R8    R(3,31)                 1.098          estimate D2E/DX2                !
 ! R9    R(4,5)                  1.5553         estimate D2E/DX2                !
 ! R10   R(4,7)                  1.5663         estimate D2E/DX2                !
 ! R11   R(4,24)                 1.4332         estimate D2E/DX2                !
 ! R12   R(5,6)                  1.5597         estimate D2E/DX2                !
 ! R13   R(5,10)                 1.5656         estimate D2E/DX2                !
 ! R14   R(5,22)                 1.5447         estimate D2E/DX2                !
 ! R15   R(6,34)                 1.0989         estimate D2E/DX2                !
 ! R16   R(6,35)                 1.0959         estimate D2E/DX2                !
 ! R17   R(7,8)                  1.5222         estimate D2E/DX2                !
 ! R18   R(7,17)                 1.5428         estimate D2E/DX2                !
 ! R19   R(7,21)                 1.4138         estimate D2E/DX2                !
 ! R20   R(8,9)                  1.3702         estimate D2E/DX2                !
 ! R21   R(8,19)                 1.3253         estimate D2E/DX2                !
 ! R22   R(9,10)                 1.4789         estimate D2E/DX2                !
 ! R23   R(9,11)                 1.5013         estimate D2E/DX2                !
 ! R24   R(10,16)                1.2262         estimate D2E/DX2                !
 ! R25   R(11,12)                1.2239         estimate D2E/DX2                !
 ! R26   R(11,13)                1.5348         estimate D2E/DX2                !
 ! R27   R(13,14)                1.5394         estimate D2E/DX2                !
 ! R28   R(13,15)                1.5439         estimate D2E/DX2                !
 ! R29   R(13,36)                1.0925         estimate D2E/DX2                !
 ! R30   R(14,37)                1.0984         estimate D2E/DX2                !
 ! R31   R(14,38)                1.0957         estimate D2E/DX2                !
 ! R32   R(14,62)                1.5325         estimate D2E/DX2                !
 ! R33   R(15,39)                1.0959         estimate D2E/DX2                !
 ! R34   R(15,40)                1.0962         estimate D2E/DX2                !
 ! R35   R(15,41)                1.0945         estimate D2E/DX2                !
 ! R36   R(17,18)                1.5442         estimate D2E/DX2                !
 ! R37   R(17,20)                1.5395         estimate D2E/DX2                !
 ! R38   R(17,30)                1.0941         estimate D2E/DX2                !
 ! R39   R(18,19)                1.4895         estimate D2E/DX2                !
 ! R40   R(18,28)                1.5303         estimate D2E/DX2                !
 ! R41   R(18,29)                1.5251         estimate D2E/DX2                !
 ! R42   R(20,42)                1.0966         estimate D2E/DX2                !
 ! R43   R(20,43)                1.0943         estimate D2E/DX2                !
 ! R44   R(21,44)                0.9804         estimate D2E/DX2                !
 ! R45   R(22,23)                1.5429         estimate D2E/DX2                !
 ! R46   R(22,45)                1.0915         estimate D2E/DX2                !
 ! R47   R(22,46)                1.0928         estimate D2E/DX2                !
 ! R48   R(23,24)                1.4532         estimate D2E/DX2                !
 ! R49   R(23,25)                1.5153         estimate D2E/DX2                !
 ! R50   R(23,47)                1.0962         estimate D2E/DX2                !
 ! R51   R(24,44)                1.8359         estimate D2E/DX2                !
 ! R52   R(25,26)                1.5093         estimate D2E/DX2                !
 ! R53   R(25,27)                1.337          estimate D2E/DX2                !
 ! R54   R(26,48)                1.0964         estimate D2E/DX2                !
 ! R55   R(26,49)                1.0958         estimate D2E/DX2                !
 ! R56   R(26,50)                1.0938         estimate D2E/DX2                !
 ! R57   R(27,51)                1.0871         estimate D2E/DX2                !
 ! R58   R(27,52)                1.0875         estimate D2E/DX2                !
 ! R59   R(28,53)                1.096          estimate D2E/DX2                !
 ! R60   R(28,54)                1.0924         estimate D2E/DX2                !
 ! R61   R(28,55)                1.0945         estimate D2E/DX2                !
 ! R62   R(29,56)                1.0943         estimate D2E/DX2                !
 ! R63   R(29,57)                1.0928         estimate D2E/DX2                !
 ! R64   R(29,58)                1.0956         estimate D2E/DX2                !
 ! R65   R(32,59)                1.0988         estimate D2E/DX2                !
 ! R66   R(32,60)                1.0988         estimate D2E/DX2                !
 ! R67   R(32,61)                1.0946         estimate D2E/DX2                !
 ! R68   R(62,63)                1.0953         estimate D2E/DX2                !
 ! R69   R(62,64)                1.0962         estimate D2E/DX2                !
 ! R70   R(62,65)                1.0973         estimate D2E/DX2                !
 ! A1    A(2,1,6)              122.1939         estimate D2E/DX2                !
 ! A2    A(2,1,33)             119.9868         estimate D2E/DX2                !
 ! A3    A(6,1,33)             117.8179         estimate D2E/DX2                !
 ! A4    A(1,2,3)              119.6352         estimate D2E/DX2                !
 ! A5    A(1,2,32)             123.1341         estimate D2E/DX2                !
 ! A6    A(3,2,32)             117.196          estimate D2E/DX2                !
 ! A7    A(2,3,4)              115.9375         estimate D2E/DX2                !
 ! A8    A(2,3,20)             113.57           estimate D2E/DX2                !
 ! A9    A(2,3,31)             109.3702         estimate D2E/DX2                !
 ! A10   A(4,3,20)             105.1034         estimate D2E/DX2                !
 ! A11   A(4,3,31)             104.7754         estimate D2E/DX2                !
 ! A12   A(20,3,31)            107.4169         estimate D2E/DX2                !
 ! A13   A(3,4,5)              116.3277         estimate D2E/DX2                !
 ! A14   A(3,4,7)              104.1792         estimate D2E/DX2                !
 ! A15   A(3,4,24)             109.8319         estimate D2E/DX2                !
 ! A16   A(5,4,7)              114.0487         estimate D2E/DX2                !
 ! A17   A(5,4,24)             105.9569         estimate D2E/DX2                !
 ! A18   A(7,4,24)             106.0845         estimate D2E/DX2                !
 ! A19   A(4,5,6)              112.6496         estimate D2E/DX2                !
 ! A20   A(4,5,10)             113.3899         estimate D2E/DX2                !
 ! A21   A(4,5,22)             103.8289         estimate D2E/DX2                !
 ! A22   A(6,5,10)             105.5149         estimate D2E/DX2                !
 ! A23   A(6,5,22)             110.3519         estimate D2E/DX2                !
 ! A24   A(10,5,22)            111.232          estimate D2E/DX2                !
 ! A25   A(1,6,5)              112.3169         estimate D2E/DX2                !
 ! A26   A(1,6,34)             110.2012         estimate D2E/DX2                !
 ! A27   A(1,6,35)             110.6732         estimate D2E/DX2                !
 ! A28   A(5,6,34)             109.676          estimate D2E/DX2                !
 ! A29   A(5,6,35)             107.9426         estimate D2E/DX2                !
 ! A30   A(34,6,35)            105.8008         estimate D2E/DX2                !
 ! A31   A(4,7,8)              113.0723         estimate D2E/DX2                !
 ! A32   A(4,7,17)             108.354          estimate D2E/DX2                !
 ! A33   A(4,7,21)             111.9068         estimate D2E/DX2                !
 ! A34   A(8,7,17)             100.8362         estimate D2E/DX2                !
 ! A35   A(8,7,21)             107.4486         estimate D2E/DX2                !
 ! A36   A(17,7,21)            114.8236         estimate D2E/DX2                !
 ! A37   A(7,8,9)              122.8193         estimate D2E/DX2                !
 ! A38   A(7,8,19)             110.7977         estimate D2E/DX2                !
 ! A39   A(9,8,19)             126.2359         estimate D2E/DX2                !
 ! A40   A(8,9,10)             115.2045         estimate D2E/DX2                !
 ! A41   A(8,9,11)             120.5419         estimate D2E/DX2                !
 ! A42   A(10,9,11)            124.2351         estimate D2E/DX2                !
 ! A43   A(5,10,9)             116.5092         estimate D2E/DX2                !
 ! A44   A(5,10,16)            118.7643         estimate D2E/DX2                !
 ! A45   A(9,10,16)            124.0519         estimate D2E/DX2                !
 ! A46   A(9,11,12)            119.669          estimate D2E/DX2                !
 ! A47   A(9,11,13)            120.4077         estimate D2E/DX2                !
 ! A48   A(12,11,13)           119.9233         estimate D2E/DX2                !
 ! A49   A(11,13,14)           110.5635         estimate D2E/DX2                !
 ! A50   A(11,13,15)           108.3866         estimate D2E/DX2                !
 ! A51   A(11,13,36)           109.0247         estimate D2E/DX2                !
 ! A52   A(14,13,15)           111.0824         estimate D2E/DX2                !
 ! A53   A(14,13,36)           109.816          estimate D2E/DX2                !
 ! A54   A(15,13,36)           107.8971         estimate D2E/DX2                !
 ! A55   A(13,14,37)           107.8211         estimate D2E/DX2                !
 ! A56   A(13,14,38)           108.8733         estimate D2E/DX2                !
 ! A57   A(13,14,62)           113.9002         estimate D2E/DX2                !
 ! A58   A(37,14,38)           107.0279         estimate D2E/DX2                !
 ! A59   A(37,14,62)           109.3878         estimate D2E/DX2                !
 ! A60   A(38,14,62)           109.5943         estimate D2E/DX2                !
 ! A61   A(13,15,39)           110.035          estimate D2E/DX2                !
 ! A62   A(13,15,40)           110.5642         estimate D2E/DX2                !
 ! A63   A(13,15,41)           111.6578         estimate D2E/DX2                !
 ! A64   A(39,15,40)           108.2426         estimate D2E/DX2                !
 ! A65   A(39,15,41)           107.5898         estimate D2E/DX2                !
 ! A66   A(40,15,41)           108.6395         estimate D2E/DX2                !
 ! A67   A(7,17,18)            103.0203         estimate D2E/DX2                !
 ! A68   A(7,17,20)            102.3758         estimate D2E/DX2                !
 ! A69   A(7,17,30)            110.6473         estimate D2E/DX2                !
 ! A70   A(18,17,20)           117.8643         estimate D2E/DX2                !
 ! A71   A(18,17,30)           111.1985         estimate D2E/DX2                !
 ! A72   A(20,17,30)           110.9267         estimate D2E/DX2                !
 ! A73   A(17,18,19)           102.7545         estimate D2E/DX2                !
 ! A74   A(17,18,28)           112.4842         estimate D2E/DX2                !
 ! A75   A(17,18,29)           116.3011         estimate D2E/DX2                !
 ! A76   A(19,18,28)           107.2932         estimate D2E/DX2                !
 ! A77   A(19,18,29)           105.6863         estimate D2E/DX2                !
 ! A78   A(28,18,29)           111.3094         estimate D2E/DX2                !
 ! A79   A(8,19,18)            111.5217         estimate D2E/DX2                !
 ! A80   A(3,20,17)            104.2636         estimate D2E/DX2                !
 ! A81   A(3,20,42)            109.3883         estimate D2E/DX2                !
 ! A82   A(3,20,43)            112.2073         estimate D2E/DX2                !
 ! A83   A(17,20,42)           110.8574         estimate D2E/DX2                !
 ! A84   A(17,20,43)           113.0677         estimate D2E/DX2                !
 ! A85   A(42,20,43)           107.0688         estimate D2E/DX2                !
 ! A86   A(7,21,44)            104.0521         estimate D2E/DX2                !
 ! A87   A(5,22,23)            106.8745         estimate D2E/DX2                !
 ! A88   A(5,22,45)            109.4891         estimate D2E/DX2                !
 ! A89   A(5,22,46)            110.1013         estimate D2E/DX2                !
 ! A90   A(23,22,45)           113.0118         estimate D2E/DX2                !
 ! A91   A(23,22,46)           109.3787         estimate D2E/DX2                !
 ! A92   A(45,22,46)           107.9797         estimate D2E/DX2                !
 ! A93   A(22,23,24)           105.5885         estimate D2E/DX2                !
 ! A94   A(22,23,25)           116.1566         estimate D2E/DX2                !
 ! A95   A(22,23,47)           110.0914         estimate D2E/DX2                !
 ! A96   A(24,23,25)           109.6292         estimate D2E/DX2                !
 ! A97   A(24,23,47)           106.7466         estimate D2E/DX2                !
 ! A98   A(25,23,47)           108.2332         estimate D2E/DX2                !
 ! A99   A(4,24,23)            112.8196         estimate D2E/DX2                !
 ! A100  A(23,25,26)           118.4043         estimate D2E/DX2                !
 ! A101  A(23,25,27)           119.1824         estimate D2E/DX2                !
 ! A102  A(26,25,27)           122.4077         estimate D2E/DX2                !
 ! A103  A(25,26,48)           111.6169         estimate D2E/DX2                !
 ! A104  A(25,26,49)           111.7135         estimate D2E/DX2                !
 ! A105  A(25,26,50)           110.8629         estimate D2E/DX2                !
 ! A106  A(48,26,49)           106.015          estimate D2E/DX2                !
 ! A107  A(48,26,50)           108.2117         estimate D2E/DX2                !
 ! A108  A(49,26,50)           108.2095         estimate D2E/DX2                !
 ! A109  A(25,27,51)           121.7508         estimate D2E/DX2                !
 ! A110  A(25,27,52)           121.8195         estimate D2E/DX2                !
 ! A111  A(51,27,52)           116.4284         estimate D2E/DX2                !
 ! A112  A(18,28,53)           109.9013         estimate D2E/DX2                !
 ! A113  A(18,28,54)           110.93           estimate D2E/DX2                !
 ! A114  A(18,28,55)           109.9087         estimate D2E/DX2                !
 ! A115  A(53,28,54)           108.571          estimate D2E/DX2                !
 ! A116  A(53,28,55)           108.3589         estimate D2E/DX2                !
 ! A117  A(54,28,55)           109.1167         estimate D2E/DX2                !
 ! A118  A(18,29,56)           109.9938         estimate D2E/DX2                !
 ! A119  A(18,29,57)           111.9154         estimate D2E/DX2                !
 ! A120  A(18,29,58)           109.8718         estimate D2E/DX2                !
 ! A121  A(56,29,57)           108.0669         estimate D2E/DX2                !
 ! A122  A(56,29,58)           108.2975         estimate D2E/DX2                !
 ! A123  A(57,29,58)           108.6036         estimate D2E/DX2                !
 ! A124  A(2,32,59)            111.1353         estimate D2E/DX2                !
 ! A125  A(2,32,60)            111.427          estimate D2E/DX2                !
 ! A126  A(2,32,61)            111.6094         estimate D2E/DX2                !
 ! A127  A(59,32,60)           106.4455         estimate D2E/DX2                !
 ! A128  A(59,32,61)           108.1424         estimate D2E/DX2                !
 ! A129  A(60,32,61)           107.8583         estimate D2E/DX2                !
 ! A130  A(14,62,63)           111.1487         estimate D2E/DX2                !
 ! A131  A(14,62,64)           110.9779         estimate D2E/DX2                !
 ! A132  A(14,62,65)           111.3535         estimate D2E/DX2                !
 ! A133  A(63,62,64)           107.549          estimate D2E/DX2                !
 ! A134  A(63,62,65)           107.9811         estimate D2E/DX2                !
 ! A135  A(64,62,65)           107.661          estimate D2E/DX2                !
 ! D1    D(6,1,2,3)              1.8219         estimate D2E/DX2                !
 ! D2    D(6,1,2,32)           179.6158         estimate D2E/DX2                !
 ! D3    D(33,1,2,3)          -177.729          estimate D2E/DX2                !
 ! D4    D(33,1,2,32)            0.0649         estimate D2E/DX2                !
 ! D5    D(2,1,6,5)             37.9014         estimate D2E/DX2                !
 ! D6    D(2,1,6,34)           -84.7043         estimate D2E/DX2                !
 ! D7    D(2,1,6,35)           158.6193         estimate D2E/DX2                !
 ! D8    D(33,1,6,5)          -142.5385         estimate D2E/DX2                !
 ! D9    D(33,1,6,34)           94.8559         estimate D2E/DX2                !
 ! D10   D(33,1,6,35)          -21.8205         estimate D2E/DX2                !
 ! D11   D(1,2,3,4)            -30.7968         estimate D2E/DX2                !
 ! D12   D(1,2,3,20)            91.0947         estimate D2E/DX2                !
 ! D13   D(1,2,3,31)          -148.9357         estimate D2E/DX2                !
 ! D14   D(32,2,3,4)           151.2801         estimate D2E/DX2                !
 ! D15   D(32,2,3,20)          -86.8283         estimate D2E/DX2                !
 ! D16   D(32,2,3,31)           33.1412         estimate D2E/DX2                !
 ! D17   D(1,2,32,59)          120.7308         estimate D2E/DX2                !
 ! D18   D(1,2,32,60)         -120.7297         estimate D2E/DX2                !
 ! D19   D(1,2,32,61)           -0.0799         estimate D2E/DX2                !
 ! D20   D(3,2,32,59)          -61.425          estimate D2E/DX2                !
 ! D21   D(3,2,32,60)           57.1144         estimate D2E/DX2                !
 ! D22   D(3,2,32,61)          177.7643         estimate D2E/DX2                !
 ! D23   D(2,3,4,5)             18.1539         estimate D2E/DX2                !
 ! D24   D(2,3,4,7)            144.5942         estimate D2E/DX2                !
 ! D25   D(2,3,4,24)          -102.1463         estimate D2E/DX2                !
 ! D26   D(20,3,4,5)          -108.1334         estimate D2E/DX2                !
 ! D27   D(20,3,4,7)            18.3068         estimate D2E/DX2                !
 ! D28   D(20,3,4,24)          131.5664         estimate D2E/DX2                !
 ! D29   D(31,3,4,5)           138.799          estimate D2E/DX2                !
 ! D30   D(31,3,4,7)           -94.7608         estimate D2E/DX2                !
 ! D31   D(31,3,4,24)           18.4988         estimate D2E/DX2                !
 ! D32   D(2,3,20,17)         -164.136          estimate D2E/DX2                !
 ! D33   D(2,3,20,42)          -45.521          estimate D2E/DX2                !
 ! D34   D(2,3,20,43)           73.1493         estimate D2E/DX2                !
 ! D35   D(4,3,20,17)          -36.4005         estimate D2E/DX2                !
 ! D36   D(4,3,20,42)           82.2145         estimate D2E/DX2                !
 ! D37   D(4,3,20,43)         -159.1152         estimate D2E/DX2                !
 ! D38   D(31,3,20,17)          74.7926         estimate D2E/DX2                !
 ! D39   D(31,3,20,42)        -166.5924         estimate D2E/DX2                !
 ! D40   D(31,3,20,43)         -47.9221         estimate D2E/DX2                !
 ! D41   D(3,4,5,6)             19.2479         estimate D2E/DX2                !
 ! D42   D(3,4,5,10)           139.002          estimate D2E/DX2                !
 ! D43   D(3,4,5,22)          -100.1462         estimate D2E/DX2                !
 ! D44   D(7,4,5,6)           -102.0911         estimate D2E/DX2                !
 ! D45   D(7,4,5,10)            17.663          estimate D2E/DX2                !
 ! D46   D(7,4,5,22)           138.5148         estimate D2E/DX2                !
 ! D47   D(24,4,5,6)           141.6042         estimate D2E/DX2                !
 ! D48   D(24,4,5,10)          -98.6417         estimate D2E/DX2                !
 ! D49   D(24,4,5,22)           22.2101         estimate D2E/DX2                !
 ! D50   D(3,4,7,8)           -104.7633         estimate D2E/DX2                !
 ! D51   D(3,4,7,17)             6.1295         estimate D2E/DX2                !
 ! D52   D(3,4,7,21)           133.7311         estimate D2E/DX2                !
 ! D53   D(5,4,7,8)             23.0918         estimate D2E/DX2                !
 ! D54   D(5,4,7,17)           133.9846         estimate D2E/DX2                !
 ! D55   D(5,4,7,21)           -98.4138         estimate D2E/DX2                !
 ! D56   D(24,4,7,8)           139.3222         estimate D2E/DX2                !
 ! D57   D(24,4,7,17)         -109.785          estimate D2E/DX2                !
 ! D58   D(24,4,7,21)           17.8166         estimate D2E/DX2                !
 ! D59   D(3,4,24,23)          106.1168         estimate D2E/DX2                !
 ! D60   D(5,4,24,23)          -20.2877         estimate D2E/DX2                !
 ! D61   D(7,4,24,23)         -141.859          estimate D2E/DX2                !
 ! D62   D(4,5,6,1)            -46.2315         estimate D2E/DX2                !
 ! D63   D(4,5,6,34)            76.6703         estimate D2E/DX2                !
 ! D64   D(4,5,6,35)          -168.5108         estimate D2E/DX2                !
 ! D65   D(10,5,6,1)          -170.4442         estimate D2E/DX2                !
 ! D66   D(10,5,6,34)          -47.5424         estimate D2E/DX2                !
 ! D67   D(10,5,6,35)           67.2764         estimate D2E/DX2                !
 ! D68   D(22,5,6,1)            69.3014         estimate D2E/DX2                !
 ! D69   D(22,5,6,34)         -167.7968         estimate D2E/DX2                !
 ! D70   D(22,5,6,35)          -52.978          estimate D2E/DX2                !
 ! D71   D(4,5,10,9)           -47.488          estimate D2E/DX2                !
 ! D72   D(4,5,10,16)          141.5388         estimate D2E/DX2                !
 ! D73   D(6,5,10,9)            76.2581         estimate D2E/DX2                !
 ! D74   D(6,5,10,16)          -94.7151         estimate D2E/DX2                !
 ! D75   D(22,5,10,9)         -164.0672         estimate D2E/DX2                !
 ! D76   D(22,5,10,16)          24.9596         estimate D2E/DX2                !
 ! D77   D(4,5,22,23)          -16.7817         estimate D2E/DX2                !
 ! D78   D(4,5,22,45)         -139.5124         estimate D2E/DX2                !
 ! D79   D(4,5,22,46)          101.9197         estimate D2E/DX2                !
 ! D80   D(6,5,22,23)         -137.7328         estimate D2E/DX2                !
 ! D81   D(6,5,22,45)           99.5364         estimate D2E/DX2                !
 ! D82   D(6,5,22,46)          -19.0314         estimate D2E/DX2                !
 ! D83   D(10,5,22,23)         105.5111         estimate D2E/DX2                !
 ! D84   D(10,5,22,45)         -17.2196         estimate D2E/DX2                !
 ! D85   D(10,5,22,46)        -135.7874         estimate D2E/DX2                !
 ! D86   D(4,7,8,9)            -44.4357         estimate D2E/DX2                !
 ! D87   D(4,7,8,19)           139.7229         estimate D2E/DX2                !
 ! D88   D(17,7,8,9)          -159.9042         estimate D2E/DX2                !
 ! D89   D(17,7,8,19)           24.2544         estimate D2E/DX2                !
 ! D90   D(21,7,8,9)            79.5498         estimate D2E/DX2                !
 ! D91   D(21,7,8,19)          -96.2916         estimate D2E/DX2                !
 ! D92   D(4,7,17,18)         -150.9577         estimate D2E/DX2                !
 ! D93   D(4,7,17,20)          -28.147          estimate D2E/DX2                !
 ! D94   D(4,7,17,30)           90.1116         estimate D2E/DX2                !
 ! D95   D(8,7,17,18)          -32.0174         estimate D2E/DX2                !
 ! D96   D(8,7,17,20)           90.7933         estimate D2E/DX2                !
 ! D97   D(8,7,17,30)         -150.9482         estimate D2E/DX2                !
 ! D98   D(21,7,17,18)          83.128          estimate D2E/DX2                !
 ! D99   D(21,7,17,20)        -154.0614         estimate D2E/DX2                !
 ! D100  D(21,7,17,30)         -35.8028         estimate D2E/DX2                !
 ! D101  D(4,7,21,44)          -19.1156         estimate D2E/DX2                !
 ! D102  D(8,7,21,44)         -143.8074         estimate D2E/DX2                !
 ! D103  D(17,7,21,44)         104.9374         estimate D2E/DX2                !
 ! D104  D(7,8,9,10)            16.1029         estimate D2E/DX2                !
 ! D105  D(7,8,9,11)          -165.3953         estimate D2E/DX2                !
 ! D106  D(19,8,9,10)         -168.7184         estimate D2E/DX2                !
 ! D107  D(19,8,9,11)            9.7833         estimate D2E/DX2                !
 ! D108  D(7,8,19,18)           -5.5534         estimate D2E/DX2                !
 ! D109  D(9,8,19,18)          178.7799         estimate D2E/DX2                !
 ! D110  D(8,9,10,5)            30.7958         estimate D2E/DX2                !
 ! D111  D(8,9,10,16)         -158.7595         estimate D2E/DX2                !
 ! D112  D(11,9,10,5)         -147.6433         estimate D2E/DX2                !
 ! D113  D(11,9,10,16)          22.8013         estimate D2E/DX2                !
 ! D114  D(8,9,11,12)          -19.2113         estimate D2E/DX2                !
 ! D115  D(8,9,11,13)          160.7422         estimate D2E/DX2                !
 ! D116  D(10,9,11,12)         159.1489         estimate D2E/DX2                !
 ! D117  D(10,9,11,13)         -20.8976         estimate D2E/DX2                !
 ! D118  D(9,11,13,14)        -144.6511         estimate D2E/DX2                !
 ! D119  D(9,11,13,15)          93.3735         estimate D2E/DX2                !
 ! D120  D(9,11,13,36)         -23.8308         estimate D2E/DX2                !
 ! D121  D(12,11,13,14)         35.3023         estimate D2E/DX2                !
 ! D122  D(12,11,13,15)        -86.6731         estimate D2E/DX2                !
 ! D123  D(12,11,13,36)        156.1226         estimate D2E/DX2                !
 ! D124  D(11,13,14,37)       -172.045          estimate D2E/DX2                !
 ! D125  D(11,13,14,38)        -56.2615         estimate D2E/DX2                !
 ! D126  D(11,13,14,62)         66.3639         estimate D2E/DX2                !
 ! D127  D(15,13,14,37)        -51.668          estimate D2E/DX2                !
 ! D128  D(15,13,14,38)         64.1154         estimate D2E/DX2                !
 ! D129  D(15,13,14,62)       -173.2592         estimate D2E/DX2                !
 ! D130  D(36,13,14,37)         67.6068         estimate D2E/DX2                !
 ! D131  D(36,13,14,38)       -176.6097         estimate D2E/DX2                !
 ! D132  D(36,13,14,62)        -53.9844         estimate D2E/DX2                !
 ! D133  D(11,13,15,39)        178.9942         estimate D2E/DX2                !
 ! D134  D(11,13,15,40)         59.4766         estimate D2E/DX2                !
 ! D135  D(11,13,15,41)        -61.6058         estimate D2E/DX2                !
 ! D136  D(14,13,15,39)         57.3368         estimate D2E/DX2                !
 ! D137  D(14,13,15,40)        -62.1808         estimate D2E/DX2                !
 ! D138  D(14,13,15,41)        176.7368         estimate D2E/DX2                !
 ! D139  D(36,13,15,39)        -63.0803         estimate D2E/DX2                !
 ! D140  D(36,13,15,40)        177.4021         estimate D2E/DX2                !
 ! D141  D(36,13,15,41)         56.3197         estimate D2E/DX2                !
 ! D142  D(13,14,62,63)        -62.8003         estimate D2E/DX2                !
 ! D143  D(13,14,62,64)        177.5583         estimate D2E/DX2                !
 ! D144  D(13,14,62,65)         57.6395         estimate D2E/DX2                !
 ! D145  D(37,14,62,63)        176.4809         estimate D2E/DX2                !
 ! D146  D(37,14,62,64)         56.8396         estimate D2E/DX2                !
 ! D147  D(37,14,62,65)        -63.0793         estimate D2E/DX2                !
 ! D148  D(38,14,62,63)         59.4291         estimate D2E/DX2                !
 ! D149  D(38,14,62,64)        -60.2123         estimate D2E/DX2                !
 ! D150  D(38,14,62,65)        179.8689         estimate D2E/DX2                !
 ! D151  D(7,17,18,19)          29.6528         estimate D2E/DX2                !
 ! D152  D(7,17,18,28)         -85.4057         estimate D2E/DX2                !
 ! D153  D(7,17,18,29)         144.557          estimate D2E/DX2                !
 ! D154  D(20,17,18,19)        -82.1294         estimate D2E/DX2                !
 ! D155  D(20,17,18,28)        162.812          estimate D2E/DX2                !
 ! D156  D(20,17,18,29)         32.7747         estimate D2E/DX2                !
 ! D157  D(30,17,18,19)        148.1993         estimate D2E/DX2                !
 ! D158  D(30,17,18,28)         33.1407         estimate D2E/DX2                !
 ! D159  D(30,17,18,29)        -96.8966         estimate D2E/DX2                !
 ! D160  D(7,17,20,3)           39.3445         estimate D2E/DX2                !
 ! D161  D(7,17,20,42)         -78.2628         estimate D2E/DX2                !
 ! D162  D(7,17,20,43)         161.4945         estimate D2E/DX2                !
 ! D163  D(18,17,20,3)         151.4868         estimate D2E/DX2                !
 ! D164  D(18,17,20,42)         33.8795         estimate D2E/DX2                !
 ! D165  D(18,17,20,43)        -86.3631         estimate D2E/DX2                !
 ! D166  D(30,17,20,3)         -78.7159         estimate D2E/DX2                !
 ! D167  D(30,17,20,42)        163.6767         estimate D2E/DX2                !
 ! D168  D(30,17,20,43)         43.4341         estimate D2E/DX2                !
 ! D169  D(17,18,19,8)         -15.7223         estimate D2E/DX2                !
 ! D170  D(28,18,19,8)         103.0377         estimate D2E/DX2                !
 ! D171  D(29,18,19,8)        -138.0961         estimate D2E/DX2                !
 ! D172  D(17,18,28,53)        -72.509          estimate D2E/DX2                !
 ! D173  D(17,18,28,54)         47.5635         estimate D2E/DX2                !
 ! D174  D(17,18,28,55)        168.3227         estimate D2E/DX2                !
 ! D175  D(19,18,28,53)        175.2126         estimate D2E/DX2                !
 ! D176  D(19,18,28,54)        -64.7149         estimate D2E/DX2                !
 ! D177  D(19,18,28,55)         56.0443         estimate D2E/DX2                !
 ! D178  D(29,18,28,53)         60.0369         estimate D2E/DX2                !
 ! D179  D(29,18,28,54)       -179.8906         estimate D2E/DX2                !
 ! D180  D(29,18,28,55)        -59.1314         estimate D2E/DX2                !
 ! D181  D(17,18,29,56)       -175.1515         estimate D2E/DX2                !
 ! D182  D(17,18,29,57)        -55.0123         estimate D2E/DX2                !
 ! D183  D(17,18,29,58)         65.7215         estimate D2E/DX2                !
 ! D184  D(19,18,29,56)        -61.9107         estimate D2E/DX2                !
 ! D185  D(19,18,29,57)         58.2285         estimate D2E/DX2                !
 ! D186  D(19,18,29,58)        178.9622         estimate D2E/DX2                !
 ! D187  D(28,18,29,56)         54.2547         estimate D2E/DX2                !
 ! D188  D(28,18,29,57)        174.3939         estimate D2E/DX2                !
 ! D189  D(28,18,29,58)        -64.8723         estimate D2E/DX2                !
 ! D190  D(5,22,23,24)           5.5699         estimate D2E/DX2                !
 ! D191  D(5,22,23,25)        -116.1366         estimate D2E/DX2                !
 ! D192  D(5,22,23,47)         120.4407         estimate D2E/DX2                !
 ! D193  D(45,22,23,24)        126.0748         estimate D2E/DX2                !
 ! D194  D(45,22,23,25)          4.3684         estimate D2E/DX2                !
 ! D195  D(45,22,23,47)       -119.0543         estimate D2E/DX2                !
 ! D196  D(46,22,23,24)       -113.6006         estimate D2E/DX2                !
 ! D197  D(46,22,23,25)        124.6929         estimate D2E/DX2                !
 ! D198  D(46,22,23,47)          1.2702         estimate D2E/DX2                !
 ! D199  D(22,23,24,4)           9.3777         estimate D2E/DX2                !
 ! D200  D(25,23,24,4)         135.209          estimate D2E/DX2                !
 ! D201  D(47,23,24,4)        -107.7761         estimate D2E/DX2                !
 ! D202  D(22,23,25,26)         55.3628         estimate D2E/DX2                !
 ! D203  D(22,23,25,27)       -123.7955         estimate D2E/DX2                !
 ! D204  D(24,23,25,26)        -64.1766         estimate D2E/DX2                !
 ! D205  D(24,23,25,27)        116.6652         estimate D2E/DX2                !
 ! D206  D(47,23,25,26)        179.7463         estimate D2E/DX2                !
 ! D207  D(47,23,25,27)          0.5881         estimate D2E/DX2                !
 ! D208  D(23,25,26,48)        -64.2436         estimate D2E/DX2                !
 ! D209  D(23,25,26,49)         54.261          estimate D2E/DX2                !
 ! D210  D(23,25,26,50)        175.0401         estimate D2E/DX2                !
 ! D211  D(27,25,26,48)        114.8859         estimate D2E/DX2                !
 ! D212  D(27,25,26,49)       -126.6095         estimate D2E/DX2                !
 ! D213  D(27,25,26,50)         -5.8304         estimate D2E/DX2                !
 ! D214  D(23,25,27,51)        178.7049         estimate D2E/DX2                !
 ! D215  D(23,25,27,52)         -0.8565         estimate D2E/DX2                !
 ! D216  D(26,25,27,51)         -0.4181         estimate D2E/DX2                !
 ! D217  D(26,25,27,52)       -179.9795         estimate D2E/DX2                !
 --------------------------------------------------------------------------------
 Trust Radius=3.00D-01 FncErr=1.00D-07 GrdErr=1.00D-06
 Number of steps in this run=    390 maximum allowed number of steps=    390.
 GradGradGradGradGradGradGradGradGradGradGradGradGradGradGradGradGradGrad

 Stoichiometry    C26H34O5
 Framework group  C1[X(C26H34O5)]
 Deg. of freedom   189
 Full point group                 C1      NOp   1
 Largest Abelian subgroup         C1      NOp   1
 Largest concise Abelian subgroup C1      NOp   1
                         Standard orientation:                         
 ---------------------------------------------------------------------
 Center     Atomic      Atomic             Coordinates (Angstroms)
 Number     Number       Type             X           Y           Z
 ---------------------------------------------------------------------
      1          6           0        2.274221    0.217265    2.739915
      2          6           0        3.017686    0.928699    1.883649
      3          6           0        2.500177    1.197270    0.488595
      4          6           0        1.570440    0.095662   -0.120427
      5          6           0        0.934913   -0.904668    0.886771
      6          6           0        0.941666   -0.368242    2.351283
      7          6           0        0.525993    0.899833   -0.966401
      8          6           0       -0.840515    0.986436   -0.301424
      9          6           0       -1.449161   -0.090418    0.288083
     10          6           0       -0.561429   -1.239129    0.570181
     11          6           0       -2.908881   -0.045650    0.636050
     12          8           0       -3.476893    1.034538    0.728010
     13          6           0       -3.690642   -1.344596    0.875377
     14          6           0       -5.134181   -1.210100    0.357723
     15          6           0       -3.669580   -1.654037    2.387818
     16          8           0       -0.956645   -2.388270    0.734150
     17          6           0        0.942482    2.385353   -0.967939
     18          6           0       -0.405356    3.124416   -1.115619
     19          8           0       -1.364575    2.193505   -0.458411
     20          6           0        1.693524    2.518836    0.369251
     21          8           0        0.338410    0.334652   -2.248689
     22          6           0        1.825652   -2.161377    0.770833
     23          6           0        2.626909   -2.022990   -0.540375
     24          8           0        2.308822   -0.701646   -1.054801
     25          6           0        2.349655   -3.064338   -1.605723
     26          6           0        0.926463   -3.254256   -2.070904
     27          6           0        3.363743   -3.790977   -2.086664
     28          6           0       -0.837862    3.266496   -2.576584
     29          6           0       -0.536265    4.447047   -0.367740
     30          1           0        1.605463    2.599257   -1.811539
     31          1           0        3.346874    1.265076   -0.207129
     32          6           0        4.348232    1.530501    2.251937
     33          1           0        2.624613    0.051815    3.757526
     34          1           0        0.147466    0.381151    2.474490
     35          1           0        0.674913   -1.197800    3.015923
     36          1           0       -3.186472   -2.164179    0.357938
     37          1           0       -5.690389   -2.101757    0.677362
     38          1           0       -5.605343   -0.347417    0.841745
     39          1           0       -4.236884   -2.569281    2.591739
     40          1           0       -4.125482   -0.834173    2.954976
     41          1           0       -2.649891   -1.808341    2.754396
     42          1           0        0.989531    2.592524    1.206794
     43          1           0        2.338044    3.402178    0.412720
     44          1           0        1.133528   -0.223272   -2.381552
     45          1           0        1.199531   -3.055100    0.795978
     46          1           0        2.517623   -2.210440    1.615153
     47          1           0        3.702095   -2.028456   -0.327005
     48          1           0        0.283103   -3.622230   -1.262900
     49          1           0        0.480488   -2.311325   -2.406839
     50          1           0        0.878986   -3.968594   -2.897916
     51          1           0        3.209261   -4.563131   -2.836118
     52          1           0        4.385802   -3.646281   -1.744307
     53          1           0       -0.210345    4.010282   -3.080796
     54          1           0       -0.743487    2.315521   -3.105735
     55          1           0       -1.878281    3.602620   -2.626264
     56          1           0       -1.553309    4.837046   -0.472511
     57          1           0       -0.324257    4.335446    0.698443
     58          1           0        0.159026    5.182461   -0.787237
     59          1           0        5.149221    1.147196    1.604689
     60          1           0        4.343279    2.622221    2.127399
     61          1           0        4.615661    1.312354    3.290724
     62          6           0       -5.236946   -1.064937   -1.164425
     63          1           0       -4.743811   -0.149330   -1.508271
     64          1           0       -6.284341   -1.016313   -1.484192
     65          1           0       -4.770806   -1.914550   -1.679197
 ---------------------------------------------------------------------
 Rotational constants (GHZ):      0.1873023      0.1393825      0.1122775
 Standard basis: 6-311+G(d) (5D, 7F)
 There are   784 symmetry adapted basis functions of A   symmetry.
 Integral buffers will be    131072 words long.
 Raffenetti 2 integral format.
 Two-electron integral symmetry is turned on.
   784 basis functions,  1286 primitive gaussians,   815 cartesian basis functions
   115 alpha electrons      115 beta electrons
       nuclear repulsion energy      3517.5911381334 Hartrees.
 NAtoms=   65 NActive=   65 NUniq=   65 SFac= 1.00D+00 NAtFMM=   50 NAOKFM=T Big=T
 One-electron integrals computed using PRISM.
 NBasis=   784 RedAO= T  NBF=   784
 NBsUse=   778 1.00D-06 NBFU=   778
 Harris functional with IExCor=  402 diagonalized for initial guess.
 ExpMin= 4.38D-02 ExpMax= 8.59D+03 ExpMxC= 1.30D+03 IAcc=2 IRadAn=         0 AccDes= 0.00D+00
 HarFok:  IExCor=  402 AccDes= 0.00D+00 IRadAn=         0 IDoV= 1
 ScaDFX=  1.000000  1.000000  1.000000  1.000000
 FoFCou: FMM=F IPFlag=           0 FMFlag=      100000 FMFlg1=        2001
         NFxFlg=           0 DoJE=T BraDBF=F KetDBF=T FulRan=T
         Omega=  0.000000  0.000000  1.000000  0.000000  0.000000 ICntrl=     500 IOpCl=  0
         NMat0=    1 NMatS0=    1 NMatT0=    0 NMatD0=    1 NMtDS0=    0 NMtDT0=    0
         I1Cent=           4 NGrid=           0.
 Petite list used in FoFCou.
 Initial guess orbital symmetries:
       Occupied  (A) (A) (A) (A) (A) (A) (A) (A) (A) (A) (A) (A)
                 (A) (A) (A) (A) (A) (A) (A) (A) (A) (A) (A) (A)
                 (A) (A) (A) (A) (A) (A) (A) (A) (A) (A) (A) (A)
                 (A) (A) (A) (A) (A) (A) (A) (A) (A) (A) (A) (A)
                 (A) (A) (A) (A) (A) (A) (A) (A) (A) (A) (A) (A)
                 (A) (A) (A) (A) (A) (A) (A) (A) (A) (A) (A) (A)
                 (A) (A) (A) (A) (A) (A) (A) (A) (A) (A) (A) (A)
                 (A) (A) (A) (A) (A) (A) (A) (A) (A) (A) (A) (A)
                 (A) (A) (A) (A) (A) (A) (A) (A) (A) (A) (A) (A)
                 (A) (A) (A) (A) (A) (A) (A)
       Virtual   (A) (A) (A) (A) (A) (A) (A) (A) (A) (A) (A) (A)
                 (A) (A) (A) (A) (A) (A) (A) (A) (A) (A) (A) (A)
                 (A) (A) (A) (A) (A) (A) (A) (A) (A) (A) (A) (A)
                 (A) (A) (A) (A) (A) (A) (A) (A) (A) (A) (A) (A)
                 (A) (A) (A) (A) (A) (A) (A) (A) (A) (A) (A) (A)
                 (A) (A) (A) (A) (A) (A) (A) (A) (A) (A) (A) (A)
                 (A) (A) (A) (A) (A) (A) (A) (A) (A) (A) (A) (A)
                 (A) (A) (A) (A) (A) (A) (A) (A) (A) (A) (A) (A)
                 (A) (A) (A) (A) (A) (A) (A) (A) (A) (A) (A) (A)
                 (A) (A) (A) (A) (A) (A) (A) (A) (A) (A) (A) (A)
                 (A) (A) (A) (A) (A) (A) (A) (A) (A) (A) (A) (A)
                 (A) (A) (A) (A) (A) (A) (A) (A) (A) (A) (A) (A)
                 (A) (A) (A) (A) (A) (A) (A) (A) (A) (A) (A) (A)
                 (A) (A) (A) (A) (A) (A) (A) (A) (A) (A) (A) (A)
                 (A) (A) (A) (A) (A) (A) (A) (A) (A) (A) (A) (A)
                 (A) (A) (A) (A) (A) (A) (A) (A) (A) (A) (A) (A)
                 (A) (A) (A) (A) (A) (A) (A) (A) (A) (A) (A) (A)
                 (A) (A) (A) (A) (A) (A) (A) (A) (A) (A) (A) (A)
                 (A) (A) (A) (A) (A) (A) (A) (A) (A) (A) (A) (A)
                 (A) (A) (A) (A) (A) (A) (A) (A) (A) (A) (A) (A)
                 (A) (A) (A) (A) (A) (A) (A) (A) (A) (A) (A) (A)
                 (A) (A) (A) (A) (A) (A) (A) (A) (A) (A) (A) (A)
                 (A) (A) (A) (A) (A) (A) (A) (A) (A) (A) (A) (A)
                 (A) (A) (A) (A) (A) (A) (A) (A) (A) (A) (A) (A)
                 (A) (A) (A) (A) (A) (A) (A) (A) (A) (A) (A) (A)
                 (A) (A) (A) (A) (A) (A) (A) (A) (A) (A) (A) (A)
                 (A) (A) (A) (A) (A) (A) (A) (A) (A) (A) (A) (A)
                 (A) (A) (A) (A) (A) (A) (A) (A) (A) (A) (A) (A)
                 (A) (A) (A) (A) (A) (A) (A) (A) (A) (A) (A) (A)
                 (A) (A) (A) (A) (A) (A) (A) (A) (A) (A) (A) (A)
                 (A) (A) (A) (A) (A) (A) (A) (A) (A) (A) (A) (A)
                 (A) (A) (A) (A) (A) (A) (A) (A) (A) (A) (A) (A)
                 (A) (A) (A) (A) (A) (A) (A) (A) (A) (A) (A) (A)
                 (A) (A) (A) (A) (A) (A) (A) (A) (A) (A) (A) (A)
                 (A) (A) (A) (A) (A) (A) (A) (A) (A) (A) (A) (A)
                 (A) (A) (A) (A) (A) (A) (A) (A) (A) (A) (A) (A)
                 (A) (A) (A) (A) (A) (A) (A) (A) (A) (A) (A) (A)
                 (A) (A) (A) (A) (A) (A) (A) (A) (A) (A) (A) (A)
                 (A) (A) (A) (A) (A) (A) (A) (A) (A) (A) (A) (A)
                 (A) (A) (A) (A) (A) (A) (A) (A) (A) (A) (A) (A)
                 (A) (A) (A) (A) (A) (A) (A) (A) (A) (A) (A) (A)
                 (A) (A) (A) (A) (A) (A) (A) (A) (A) (A) (A) (A)
                 (A) (A) (A) (A) (A) (A) (A) (A) (A) (A) (A) (A)
                 (A) (A) (A) (A) (A) (A) (A) (A) (A) (A) (A) (A)
                 (A) (A) (A) (A) (A) (A) (A) (A) (A) (A) (A) (A)
                 (A) (A) (A) (A) (A) (A) (A) (A) (A) (A) (A) (A)
                 (A) (A) (A) (A) (A) (A) (A) (A) (A) (A) (A) (A)
                 (A) (A) (A) (A) (A) (A) (A) (A) (A) (A) (A) (A)
                 (A) (A) (A) (A) (A) (A) (A) (A) (A) (A) (A) (A)
                 (A) (A) (A) (A) (A) (A) (A) (A) (A) (A) (A) (A)
                 (A) (A) (A) (A) (A) (A) (A) (A) (A) (A) (A) (A)
                 (A) (A) (A) (A) (A) (A) (A) (A) (A) (A) (A) (A)
                 (A) (A) (A) (A) (A) (A) (A) (A) (A) (A) (A) (A)
                 (A) (A) (A) (A) (A) (A) (A) (A) (A) (A) (A) (A)
                 (A) (A) (A) (A) (A) (A) (A) (A) (A) (A) (A) (A)
                 (A) (A) (A)
 The electronic state of the initial guess is 1-A.
 Requested convergence on RMS density matrix=1.00D-08 within 128 cycles.
 Requested convergence on MAX density matrix=1.00D-06.
 Requested convergence on             energy=1.00D-06.
 No special actions if energy rises.
 SCF Done:  E(RB3LYP) =  -1387.64884663     A.U. after   17 cycles
             Convg  =    0.5769D-08             -V/T =  2.0043

 **********************************************************************

            Population analysis using the SCF density.

 **********************************************************************

 Orbital symmetries:
       Occupied  (A) (A) (A) (A) (A) (A) (A) (A) (A) (A) (A) (A)
                 (A) (A) (A) (A) (A) (A) (A) (A) (A) (A) (A) (A)
                 (A) (A) (A) (A) (A) (A) (A) (A) (A) (A) (A) (A)
                 (A) (A) (A) (A) (A) (A) (A) (A) (A) (A) (A) (A)
                 (A) (A) (A) (A) (A) (A) (A) (A) (A) (A) (A) (A)
                 (A) (A) (A) (A) (A) (A) (A) (A) (A) (A) (A) (A)
                 (A) (A) (A) (A) (A) (A) (A) (A) (A) (A) (A) (A)
                 (A) (A) (A) (A) (A) (A) (A) (A) (A) (A) (A) (A)
                 (A) (A) (A) (A) (A) (A) (A) (A) (A) (A) (A) (A)
                 (A) (A) (A) (A) (A) (A) (A)
       Virtual   (A) (A) (A) (A) (A) (A) (A) (A) (A) (A) (A) (A)
                 (A) (A) (A) (A) (A) (A) (A) (A) (A) (A) (A) (A)
                 (A) (A) (A) (A) (A) (A) (A) (A) (A) (A) (A) (A)
                 (A) (A) (A) (A) (A) (A) (A) (A) (A) (A) (A) (A)
                 (A) (A) (A) (A) (A) (A) (A) (A) (A) (A) (A) (A)
                 (A) (A) (A) (A) (A) (A) (A) (A) (A) (A) (A) (A)
                 (A) (A) (A) (A) (A) (A) (A) (A) (A) (A) (A) (A)
                 (A) (A) (A) (A) (A) (A) (A) (A) (A) (A) (A) (A)
                 (A) (A) (A) (A) (A) (A) (A) (A) (A) (A) (A) (A)
                 (A) (A) (A) (A) (A) (A) (A) (A) (A) (A) (A) (A)
                 (A) (A) (A) (A) (A) (A) (A) (A) (A) (A) (A) (A)
                 (A) (A) (A) (A) (A) (A) (A) (A) (A) (A) (A) (A)
                 (A) (A) (A) (A) (A) (A) (A) (A) (A) (A) (A) (A)
                 (A) (A) (A) (A) (A) (A) (A) (A) (A) (A) (A) (A)
                 (A) (A) (A) (A) (A) (A) (A) (A) (A) (A) (A) (A)
                 (A) (A) (A) (A) (A) (A) (A) (A) (A) (A) (A) (A)
                 (A) (A) (A) (A) (A) (A) (A) (A) (A) (A) (A) (A)
                 (A) (A) (A) (A) (A) (A) (A) (A) (A) (A) (A) (A)
                 (A) (A) (A) (A) (A) (A) (A) (A) (A) (A) (A) (A)
                 (A) (A) (A) (A) (A) (A) (A) (A) (A) (A) (A) (A)
                 (A) (A) (A) (A) (A) (A) (A) (A) (A) (A) (A) (A)
                 (A) (A) (A) (A) (A) (A) (A) (A) (A) (A) (A) (A)
                 (A) (A) (A) (A) (A) (A) (A) (A) (A) (A) (A) (A)
                 (A) (A) (A) (A) (A) (A) (A) (A) (A) (A) (A) (A)
                 (A) (A) (A) (A) (A) (A) (A) (A) (A) (A) (A) (A)
                 (A) (A) (A) (A) (A) (A) (A) (A) (A) (A) (A) (A)
                 (A) (A) (A) (A) (A) (A) (A) (A) (A) (A) (A) (A)
                 (A) (A) (A) (A) (A) (A) (A) (A) (A) (A) (A) (A)
                 (A) (A) (A) (A) (A) (A) (A) (A) (A) (A) (A) (A)
                 (A) (A) (A) (A) (A) (A) (A) (A) (A) (A) (A) (A)
                 (A) (A) (A) (A) (A) (A) (A) (A) (A) (A) (A) (A)
                 (A) (A) (A) (A) (A) (A) (A) (A) (A) (A) (A) (A)
                 (A) (A) (A) (A) (A) (A) (A) (A) (A) (A) (A) (A)
                 (A) (A) (A) (A) (A) (A) (A) (A) (A) (A) (A) (A)
                 (A) (A) (A) (A) (A) (A) (A) (A) (A) (A) (A) (A)
                 (A) (A) (A) (A) (A) (A) (A) (A) (A) (A) (A) (A)
                 (A) (A) (A) (A) (A) (A) (A) (A) (A) (A) (A) (A)
                 (A) (A) (A) (A) (A) (A) (A) (A) (A) (A) (A) (A)
                 (A) (A) (A) (A) (A) (A) (A) (A) (A) (A) (A) (A)
                 (A) (A) (A) (A) (A) (A) (A) (A) (A) (A) (A) (A)
                 (A) (A) (A) (A) (A) (A) (A) (A) (A) (A) (A) (A)
                 (A) (A) (A) (A) (A) (A) (A) (A) (A) (A) (A) (A)
                 (A) (A) (A) (A) (A) (A) (A) (A) (A) (A) (A) (A)
                 (A) (A) (A) (A) (A) (A) (A) (A) (A) (A) (A) (A)
                 (A) (A) (A) (A) (A) (A) (A) (A) (A) (A) (A) (A)
                 (A) (A) (A) (A) (A) (A) (A) (A) (A) (A) (A) (A)
                 (A) (A) (A) (A) (A) (A) (A) (A) (A) (A) (A) (A)
                 (A) (A) (A) (A) (A) (A) (A) (A) (A) (A) (A) (A)
                 (A) (A) (A) (A) (A) (A) (A) (A) (A) (A) (A) (A)
                 (A) (A) (A) (A) (A) (A) (A) (A) (A) (A) (A) (A)
                 (A) (A) (A) (A) (A) (A) (A) (A) (A) (A) (A) (A)
                 (A) (A) (A) (A) (A) (A) (A) (A) (A) (A) (A) (A)
                 (A) (A) (A) (A) (A) (A) (A) (A) (A) (A) (A) (A)
                 (A) (A) (A) (A) (A) (A) (A) (A) (A) (A) (A) (A)
                 (A) (A) (A) (A) (A) (A) (A) (A) (A) (A) (A) (A)
                 (A) (A) (A)
 The electronic state is 1-A.
 Alpha  occ. eigenvalues --  -19.18241 -19.15063 -19.13653 -19.11315 -19.09576
 Alpha  occ. eigenvalues --  -10.27097 -10.26900 -10.25962 -10.25845 -10.25708
 Alpha  occ. eigenvalues --  -10.25206 -10.23963 -10.21136 -10.19916 -10.19893
 Alpha  occ. eigenvalues --  -10.19454 -10.19289 -10.19178 -10.19002 -10.18614
 Alpha  occ. eigenvalues --  -10.18074 -10.18002 -10.17837 -10.17772 -10.17067
 Alpha  occ. eigenvalues --  -10.16998 -10.16455 -10.16316 -10.15270 -10.15092
 Alpha  occ. eigenvalues --  -10.14298  -1.10835  -1.07492  -1.04638  -1.03665
 Alpha  occ. eigenvalues --   -1.02865  -0.88202  -0.84846  -0.83102  -0.82297
 Alpha  occ. eigenvalues --   -0.80953  -0.79585  -0.77805  -0.74904  -0.74153
 Alpha  occ. eigenvalues --   -0.73169  -0.71916  -0.70865  -0.69690  -0.69126
 Alpha  occ. eigenvalues --   -0.65999  -0.64678  -0.64142  -0.62503  -0.61766
 Alpha  occ. eigenvalues --   -0.60113  -0.59573  -0.57805  -0.55532  -0.54748
 Alpha  occ. eigenvalues --   -0.53827  -0.52908  -0.52181  -0.51080  -0.50250
 Alpha  occ. eigenvalues --   -0.48784  -0.48488  -0.48157  -0.47656  -0.47081
 Alpha  occ. eigenvalues --   -0.46141  -0.45616  -0.45125  -0.44576  -0.43714
 Alpha  occ. eigenvalues --   -0.43435  -0.42960  -0.42716  -0.42223  -0.41938
 Alpha  occ. eigenvalues --   -0.41642  -0.41576  -0.41161  -0.40736  -0.40598
 Alpha  occ. eigenvalues --   -0.40420  -0.40291  -0.39786  -0.39353  -0.38805
 Alpha  occ. eigenvalues --   -0.38557  -0.38289  -0.37882  -0.37465  -0.37017
 Alpha  occ. eigenvalues --   -0.36900  -0.36346  -0.35755  -0.35512  -0.35350
 Alpha  occ. eigenvalues --   -0.34940  -0.34642  -0.34016  -0.33486  -0.32853
 Alpha  occ. eigenvalues --   -0.32718  -0.31998  -0.31508  -0.29040  -0.28921
 Alpha  occ. eigenvalues --   -0.26447  -0.25971  -0.25549  -0.24830  -0.23549
 Alpha virt. eigenvalues --   -0.06640  -0.02976  -0.01509  -0.01115  -0.00638
 Alpha virt. eigenvalues --   -0.00051   0.00472   0.00613   0.01547   0.01838
 Alpha virt. eigenvalues --    0.02067   0.02347   0.02832   0.03233   0.03582
 Alpha virt. eigenvalues --    0.03789   0.04012   0.04327   0.04700   0.04797
 Alpha virt. eigenvalues --    0.05049   0.05303   0.05785   0.06083   0.06432
 Alpha virt. eigenvalues --    0.06666   0.06888   0.07055   0.07190   0.07394
 Alpha virt. eigenvalues --    0.07750   0.07806   0.08010   0.08427   0.08661
 Alpha virt. eigenvalues --    0.08968   0.09216   0.09376   0.09723   0.10068
 Alpha virt. eigenvalues --    0.10096   0.10539   0.10647   0.11073   0.11197
 Alpha virt. eigenvalues --    0.11526   0.11746   0.12298   0.12329   0.12470
 Alpha virt. eigenvalues --    0.12685   0.12981   0.13057   0.13187   0.13428
 Alpha virt. eigenvalues --    0.13558   0.13833   0.14011   0.14215   0.14366
 Alpha virt. eigenvalues --    0.14821   0.14976   0.15417   0.16050   0.16160
 Alpha virt. eigenvalues --    0.16335   0.16428   0.16806   0.16866   0.16995
 Alpha virt. eigenvalues --    0.17390   0.17653   0.17809   0.18040   0.18101
 Alpha virt. eigenvalues --    0.18307   0.18520   0.18665   0.18891   0.19108
 Alpha virt. eigenvalues --    0.19338   0.19548   0.19908   0.20113   0.20147
 Alpha virt. eigenvalues --    0.20373   0.20382   0.20481   0.20784   0.20842
 Alpha virt. eigenvalues --    0.21090   0.21384   0.21679   0.21795   0.22248
 Alpha virt. eigenvalues --    0.22433   0.22442   0.22642   0.22929   0.23096
 Alpha virt. eigenvalues --    0.23182   0.23403   0.23560   0.23680   0.24044
 Alpha virt. eigenvalues --    0.24203   0.24306   0.24398   0.24783   0.25106
 Alpha virt. eigenvalues --    0.25229   0.25427   0.25532   0.25893   0.25935
 Alpha virt. eigenvalues --    0.26152   0.26562   0.26722   0.26775   0.27051
 Alpha virt. eigenvalues --    0.27207   0.27306   0.27469   0.27782   0.28360
 Alpha virt. eigenvalues --    0.28432   0.28778   0.28953   0.29233   0.29509
 Alpha virt. eigenvalues --    0.29638   0.30011   0.30091   0.30615   0.30920
 Alpha virt. eigenvalues --    0.31191   0.31260   0.31715   0.31830   0.31961
 Alpha virt. eigenvalues --    0.32156   0.32581   0.32810   0.33103   0.33336
 Alpha virt. eigenvalues --    0.33445   0.33749   0.34326   0.34429   0.34999
 Alpha virt. eigenvalues --    0.35086   0.35345   0.35780   0.36067   0.36481
 Alpha virt. eigenvalues --    0.36805   0.37010   0.37676   0.38082   0.38390
 Alpha virt. eigenvalues --    0.38498   0.38716   0.39132   0.39473   0.40155
 Alpha virt. eigenvalues --    0.40396   0.41160   0.41479   0.41792   0.42143
 Alpha virt. eigenvalues --    0.42505   0.42777   0.43120   0.43708   0.44069
 Alpha virt. eigenvalues --    0.44238   0.44605   0.44867   0.45373   0.45587
 Alpha virt. eigenvalues --    0.46044   0.46227   0.46935   0.47037   0.47791
 Alpha virt. eigenvalues --    0.47912   0.48307   0.48634   0.49213   0.49704
 Alpha virt. eigenvalues --    0.50199   0.50552   0.51282   0.51596   0.51988
 Alpha virt. eigenvalues --    0.52270   0.52532   0.52807   0.53418   0.53764
 Alpha virt. eigenvalues --    0.54265   0.54487   0.54741   0.55543   0.56080
 Alpha virt. eigenvalues --    0.56551   0.57163   0.57702   0.57896   0.58032
 Alpha virt. eigenvalues --    0.58374   0.58671   0.58946   0.59427   0.59907
 Alpha virt. eigenvalues --    0.60220   0.60385   0.60536   0.61076   0.61314
 Alpha virt. eigenvalues --    0.62098   0.62521   0.63011   0.63372   0.63657
 Alpha virt. eigenvalues --    0.64301   0.64703   0.64983   0.65466   0.65595
 Alpha virt. eigenvalues --    0.66475   0.66657   0.66978   0.67602   0.67820
 Alpha virt. eigenvalues --    0.67972   0.68315   0.68626   0.69121   0.69234
 Alpha virt. eigenvalues --    0.69589   0.69962   0.70192   0.70252   0.70726
 Alpha virt. eigenvalues --    0.70857   0.71194   0.71424   0.71678   0.72109
 Alpha virt. eigenvalues --    0.72396   0.72959   0.73366   0.73473   0.73619
 Alpha virt. eigenvalues --    0.73660   0.74278   0.74806   0.75052   0.75330
 Alpha virt. eigenvalues --    0.75691   0.76162   0.76311   0.76791   0.76915
 Alpha virt. eigenvalues --    0.77499   0.77758   0.77981   0.78255   0.78956
 Alpha virt. eigenvalues --    0.79171   0.79599   0.79692   0.80454   0.80689
 Alpha virt. eigenvalues --    0.81155   0.81634   0.81733   0.82033   0.82464
 Alpha virt. eigenvalues --    0.83078   0.83447   0.83835   0.84321   0.85207
 Alpha virt. eigenvalues --    0.85578   0.86225   0.86793   0.87524   0.87902
 Alpha virt. eigenvalues --    0.88239   0.90031   0.90576   0.91091   0.92404
 Alpha virt. eigenvalues --    0.93404   0.94410   0.95123   0.95981   0.96066
 Alpha virt. eigenvalues --    0.96469   0.97248   0.97812   0.98927   1.00643
 Alpha virt. eigenvalues --    1.01208   1.02090   1.02374   1.03397   1.03932
 Alpha virt. eigenvalues --    1.05174   1.05813   1.07305   1.08813   1.09699
 Alpha virt. eigenvalues --    1.10450   1.10853   1.11393   1.13728   1.14153
 Alpha virt. eigenvalues --    1.15011   1.15552   1.17041   1.17433   1.19608
 Alpha virt. eigenvalues --    1.20423   1.20828   1.21891   1.22926   1.23768
 Alpha virt. eigenvalues --    1.24189   1.24757   1.25627   1.26449   1.26622
 Alpha virt. eigenvalues --    1.26927   1.28298   1.29643   1.30118   1.31214
 Alpha virt. eigenvalues --    1.31517   1.32574   1.33289   1.33476   1.34780
 Alpha virt. eigenvalues --    1.35231   1.36862   1.37471   1.37915   1.39041
 Alpha virt. eigenvalues --    1.40156   1.41023   1.42130   1.42694   1.43082
 Alpha virt. eigenvalues --    1.44033   1.44346   1.46070   1.47012   1.48018
 Alpha virt. eigenvalues --    1.48551   1.50205   1.50346   1.51424   1.51658
 Alpha virt. eigenvalues --    1.52629   1.53179   1.54210   1.54693   1.55244
 Alpha virt. eigenvalues --    1.56210   1.56518   1.57250   1.57942   1.58590
 Alpha virt. eigenvalues --    1.59043   1.59353   1.60045   1.60233   1.60970
 Alpha virt. eigenvalues --    1.61319   1.61491   1.62266   1.62932   1.63032
 Alpha virt. eigenvalues --    1.63429   1.63826   1.64173   1.64829   1.65092
 Alpha virt. eigenvalues --    1.65615   1.65826   1.66377   1.66704   1.67019
 Alpha virt. eigenvalues --    1.67606   1.68280   1.68769   1.69212   1.70297
 Alpha virt. eigenvalues --    1.70852   1.71260   1.71424   1.72326   1.72457
 Alpha virt. eigenvalues --    1.72861   1.74125   1.74362   1.75244   1.75823
 Alpha virt. eigenvalues --    1.76186   1.77251   1.77637   1.77984   1.79408
 Alpha virt. eigenvalues --    1.80485   1.80772   1.81874   1.82291   1.83541
 Alpha virt. eigenvalues --    1.84489   1.84991   1.85543   1.86194   1.86482
 Alpha virt. eigenvalues --    1.87567   1.88248   1.88906   1.90184   1.91717
 Alpha virt. eigenvalues --    1.92360   1.93954   1.94357   1.94653   1.96010
 Alpha virt. eigenvalues --    1.96461   1.97837   1.99046   2.00923   2.01063
 Alpha virt. eigenvalues --    2.01574   2.02757   2.03961   2.04061   2.04227
 Alpha virt. eigenvalues --    2.05354   2.06075   2.07314   2.08886   2.09453
 Alpha virt. eigenvalues --    2.10013   2.11813   2.12532   2.14160   2.14882
 Alpha virt. eigenvalues --    2.16386   2.17384   2.17691   2.20827   2.20853
 Alpha virt. eigenvalues --    2.22066   2.22902   2.23745   2.24582   2.25612
 Alpha virt. eigenvalues --    2.27198   2.28036   2.30141   2.31233   2.32902
 Alpha virt. eigenvalues --    2.33498   2.33851   2.35675   2.35882   2.37600
 Alpha virt. eigenvalues --    2.39555   2.43385   2.46658   2.47770   2.50437
 Alpha virt. eigenvalues --    2.51491   2.51940   2.52594   2.54185   2.54496
 Alpha virt. eigenvalues --    2.54773   2.55687   2.56014   2.56982   2.57503
 Alpha virt. eigenvalues --    2.58436   2.58893   2.59345   2.60854   2.62002
 Alpha virt. eigenvalues --    2.63006   2.63119   2.63361   2.64258   2.65567
 Alpha virt. eigenvalues --    2.66448   2.66959   2.68287   2.69641   2.70334
 Alpha virt. eigenvalues --    2.70766   2.71766   2.72512   2.72687   2.73193
 Alpha virt. eigenvalues --    2.74566   2.75219   2.78433   2.79707   2.80457
 Alpha virt. eigenvalues --    2.85437   2.86425   2.87322   2.88641   2.90077
 Alpha virt. eigenvalues --    2.90908   2.91845   2.92754   2.93934   2.94706
 Alpha virt. eigenvalues --    2.95838   2.96964   2.97096   2.97832   2.98565
 Alpha virt. eigenvalues --    3.00168   3.00767   3.00852   3.01721   3.03080
 Alpha virt. eigenvalues --    3.03431   3.03901   3.04759   3.06065   3.06343
 Alpha virt. eigenvalues --    3.07847   3.09133   3.11138   3.11631   3.12519
 Alpha virt. eigenvalues --    3.13253   3.14247   3.15355   3.16980   3.18016
 Alpha virt. eigenvalues --    3.18637   3.19581   3.20452   3.20920   3.22877
 Alpha virt. eigenvalues --    3.23342   3.23680   3.23912   3.25129   3.26313
 Alpha virt. eigenvalues --    3.26436   3.26828   3.27926   3.28946   3.29436
 Alpha virt. eigenvalues --    3.30751   3.31314   3.31680   3.32715   3.33545
 Alpha virt. eigenvalues --    3.34584   3.36068   3.36802   3.37638   3.38819
 Alpha virt. eigenvalues --    3.39214   3.39725   3.41217   3.42265   3.43007
 Alpha virt. eigenvalues --    3.45214   3.46243   3.48388   3.51133   3.52125
 Alpha virt. eigenvalues --    3.52772   3.53184   3.57379   3.60436   3.65306
 Alpha virt. eigenvalues --    3.74721   3.76323   3.77560   3.81867   3.84899
 Alpha virt. eigenvalues --    3.89918   3.92188   3.94155   3.96462   4.01418
 Alpha virt. eigenvalues --    4.04233   4.05555   4.06797   4.07973   4.09721
 Alpha virt. eigenvalues --    4.11498   4.15360   4.17797   4.18742   4.20553
 Alpha virt. eigenvalues --    4.23504   4.24428   4.27540   4.31723   4.36025
 Alpha virt. eigenvalues --    4.44327   4.53987   5.14063   5.15797   5.17989
 Alpha virt. eigenvalues --    5.21944   5.25971   5.27574   5.30752   5.34354
 Alpha virt. eigenvalues --    5.42581   5.43734   5.56077   5.71932   5.72982
 Alpha virt. eigenvalues --    5.81239   5.83206  23.45458  23.48456  23.52154
 Alpha virt. eigenvalues --   23.52320  23.62674  23.63641  23.65316  23.67138
 Alpha virt. eigenvalues --   23.68730  23.70036  23.72132  23.74026  23.76060
 Alpha virt. eigenvalues --   23.78536  23.79496  23.80010  23.82536  23.85228
 Alpha virt. eigenvalues --   23.85973  23.88239  23.89855  23.91223  23.96382
 Alpha virt. eigenvalues --   24.12161  24.20432  24.21403  49.97785  49.99925
 Alpha virt. eigenvalues --   50.02160  50.04213  50.05714
          Condensed to atoms (all electrons):
 Mulliken atomic charges:
              1
     1  C   -0.760078
     2  C    0.905833
     3  C   -0.223466
     4  C   -0.184653
     5  C    1.555669
     6  C   -1.037252
     7  C   -1.132699
     8  C    0.249678
     9  C    0.635857
    10  C   -1.021560
    11  C   -0.310294
    12  O   -0.200031
    13  C    0.432308
    14  C   -0.121384
    15  C   -1.111767
    16  O   -0.194165
    17  C   -0.570510
    18  C    0.959574
    19  O    0.230677
    20  C   -1.204955
    21  O   -0.085274
    22  C   -0.869994
    23  C    0.228338
    24  O   -0.064947
    25  C    0.772623
    26  C   -1.163032
    27  C   -0.952849
    28  C   -0.732824
    29  C   -0.599155
    30  H    0.245152
    31  H    0.258712
    32  C   -1.152280
    33  H    0.210756
    34  H    0.261384
    35  H    0.260720
    36  H    0.250416
    37  H    0.210125
    38  H    0.260925
    39  H    0.239772
    40  H    0.266114
    41  H    0.277053
    42  H    0.287912
    43  H    0.260246
    44  H    0.308036
    45  H    0.297974
    46  H    0.257542
    47  H    0.207414
    48  H    0.293739
    49  H    0.271046
    50  H    0.253807
    51  H    0.228834
    52  H    0.215473
    53  H    0.245524
    54  H    0.312045
    55  H    0.262959
    56  H    0.272872
    57  H    0.263535
    58  H    0.258449
    59  H    0.260832
    60  H    0.247501
    61  H    0.251414
    62  C   -1.013495
    63  H    0.261976
    64  H    0.240968
    65  H    0.234878
 Sum of Mulliken atomic charges =   0.00000
 Mulliken charges with hydrogens summed into heavy atoms:
              1
     1  C   -0.549322
     2  C    0.905833
     3  C    0.035246
     4  C   -0.184653
     5  C    1.555669
     6  C   -0.515148
     7  C   -1.132699
     8  C    0.249678
     9  C    0.635857
    10  C   -1.021560
    11  C   -0.310294
    12  O   -0.200031
    13  C    0.682724
    14  C    0.349666
    15  C   -0.328827
    16  O   -0.194165
    17  C   -0.325358
    18  C    0.959574
    19  O    0.230677
    20  C   -0.656797
    21  O    0.222762
    22  C   -0.314478
    23  C    0.435753
    24  O   -0.064947
    25  C    0.772623
    26  C   -0.344440
    27  C   -0.508542
    28  C    0.087705
    29  C    0.195702
    32  C   -0.392533
    62  C   -0.275672
 Sum of Mulliken charges with hydrogens summed into heavy atoms =   0.00000
 Electronic spatial extent (au):  <R**2>=          11420.0062
 Charge=              0.0000 electrons
 Dipole moment (field-independent basis, Debye):
    X=              5.5618    Y=              2.1167    Z=              0.3269  Tot=              5.9599
 Quadrupole moment (field-independent basis, Debye-Ang):
   XX=           -193.8368   YY=           -180.8765   ZZ=           -187.1699
   XY=              6.3774   XZ=              5.0888   YZ=             -2.1454
 Traceless Quadrupole moment (field-independent basis, Debye-Ang):
   XX=             -6.5424   YY=              6.4179   ZZ=              0.1245
   XY=              6.3774   XZ=              5.0888   YZ=             -2.1454
 Octapole moment (field-independent basis, Debye-Ang**2):
  XXX=             54.2964  YYY=             63.1908  ZZZ=              6.8911  XYY=             20.7811
  XXY=            -21.0024  XXZ=             -0.3487  XZZ=              6.7783  YZZ=             -1.8802
  YYZ=            -39.4539  XYZ=              9.6325
 Hexadecapole moment (field-independent basis, Debye-Ang**3):
 XXXX=          -7825.6324 YYYY=          -5085.6797 ZZZZ=          -2785.1063 XXXY=             75.2849
 XXXZ=             43.8411 YYYX=            -22.0153 YYYZ=              0.9950 ZZZX=             15.7412
 ZZZY=            -12.2585 XXYY=          -2149.1476 XXZZ=          -1776.8393 YYZZ=          -1274.9017
 XXYZ=            -25.3475 YYXZ=            -22.0795 ZZXY=            -22.6441
 N-N= 3.517591138133D+03 E-N=-1.026820748813D+04  KE= 1.381710525270D+03
 Calling FoFJK, ICntrl=      2127 FMM=T ISym2X=0 I1Cent= 0 IOpClX= 0 NMat=1 NMatS=1 NMatT=0.
 ***** Axes restored to original set *****
 -------------------------------------------------------------------
 Center     Atomic                   Forces (Hartrees/Bohr)
 Number     Number              X              Y              Z
 -------------------------------------------------------------------
      1        6           0.001228787    0.001382575   -0.001888835
      2        6          -0.001294159   -0.001054328    0.001670221
      3        6           0.000036187    0.000352442   -0.000137913
      4        6           0.000019531    0.001137363    0.000519786
      5        6          -0.000096747   -0.000313922    0.000041312
      6        6          -0.000478221    0.000070186   -0.000167750
      7        6          -0.001065318    0.001819931    0.001844530
      8        6          -0.003099365    0.001109218   -0.000170004
      9        6           0.001154060    0.001451406   -0.000385488
     10        6          -0.003063216   -0.007007541    0.001942981
     11        6          -0.003013093    0.005575798    0.000177233
     12        8           0.003932389   -0.006969575    0.000198253
     13        6          -0.000246808    0.000126704   -0.000284314
     14        6          -0.000017420    0.000116782    0.000131286
     15        6           0.000150510    0.000328329    0.000096987
     16        8           0.002702773    0.008603626   -0.001380412
     17        6           0.000203770   -0.000002863   -0.000289326
     18        6           0.000493083    0.001414505   -0.000777941
     19        8           0.001894348   -0.004481167    0.000774888
     20        6          -0.000278836    0.000124868    0.000420636
     21        8           0.005757898   -0.002082435    0.000377421
     22        6          -0.000168626   -0.000085980   -0.000069839
     23        6           0.000908140   -0.002152609    0.000694769
     24        8           0.000274780   -0.000313376    0.000757969
     25        6           0.001020725   -0.000941786   -0.000784556
     26        6           0.000017024    0.000084244    0.000467123
     27        6          -0.000912734    0.000642806    0.000472876
     28        6           0.000364953   -0.000057972    0.000310564
     29        6           0.000268107   -0.000426681   -0.000164521
     30        1          -0.000877279   -0.000313511    0.000897418
     31        1          -0.000839636   -0.000052227    0.001074171
     32        6           0.000253296    0.000237314   -0.000100058
     33        1          -0.000248062    0.000046090   -0.000855700
     34        1           0.001128104   -0.001113446    0.000309432
     35        1           0.000273719    0.001342759   -0.000731726
     36        1          -0.000809342    0.000954288    0.000546437
     37        1           0.000594339    0.001216026   -0.000174799
     38        1          -0.000048608   -0.001564828   -0.000421737
     39        1           0.000975584    0.001284209   -0.000093739
     40        1           0.000557975   -0.001464666   -0.000491198
     41        1          -0.001676964    0.000089941   -0.000039131
     42        1           0.001233064    0.000105902   -0.001048847
     43        1          -0.001011877   -0.001203792   -0.000013303
     44        1          -0.004863152    0.001978543   -0.001718176
     45        1           0.001649333    0.001123073    0.000028070
     46        1          -0.000962790   -0.000320795   -0.001286652
     47        1          -0.001558603    0.000349751   -0.000325441
     48        1           0.001101958    0.000309446   -0.001531945
     49        1           0.000333789   -0.002321299   -0.000145642
     50        1          -0.000183865    0.001156970    0.001222281
     51        1           0.000172144    0.000658801    0.000700937
     52        1          -0.000988115   -0.000054335   -0.000342592
     53        1          -0.000995744   -0.001071115    0.000436953
     54        1          -0.000493578    0.001881404    0.000266594
     55        1           0.001535076   -0.000440210   -0.000241446
     56        1           0.001624522   -0.000338919    0.000255738
     57        1          -0.000421572    0.000561437   -0.001560750
     58        1          -0.001007002   -0.000737705    0.000772118
     59        1          -0.001121910    0.000557134    0.001054775
     60        1           0.000128786   -0.001611283    0.000297942
     61        1          -0.000192454    0.000467946   -0.001608844
     62        6           0.000309871    0.000009341    0.000077934
     63        1          -0.000990147   -0.001369014   -0.000150689
[...]
 Alpha  occ. eigenvalues --  -19.17860 -19.15092 -19.13559 -19.11094 -19.10193
 Alpha  occ. eigenvalues --  -10.26610 -10.26584 -10.25908 -10.25735 -10.25672
 Alpha  occ. eigenvalues --  -10.25392 -10.23916 -10.20904 -10.19808 -10.19805
 Alpha  occ. eigenvalues --  -10.19391 -10.19316 -10.19110 -10.18834 -10.18266
 Alpha  occ. eigenvalues --  -10.17936 -10.17829 -10.17681 -10.17634 -10.17222
 Alpha  occ. eigenvalues --  -10.17194 -10.16986 -10.16472 -10.15509 -10.14834
 Alpha  occ. eigenvalues --  -10.14616  -1.10539  -1.07607  -1.04732  -1.03767
 Alpha  occ. eigenvalues --   -1.03593  -0.88162  -0.84799  -0.83230  -0.82437
 Alpha  occ. eigenvalues --   -0.81067  -0.79823  -0.77796  -0.74935  -0.74095
 Alpha  occ. eigenvalues --   -0.73149  -0.72103  -0.70918  -0.70229  -0.69236
 Alpha  occ. eigenvalues --   -0.66003  -0.64694  -0.64278  -0.62478  -0.61781
 Alpha  occ. eigenvalues --   -0.60079  -0.59669  -0.57916  -0.55933  -0.54701
 Alpha  occ. eigenvalues --   -0.53774  -0.52948  -0.52184  -0.51176  -0.50471
 Alpha  occ. eigenvalues --   -0.49088  -0.48601  -0.48001  -0.47618  -0.46959
 Alpha  occ. eigenvalues --   -0.46253  -0.45333  -0.45180  -0.44640  -0.43746
 Alpha  occ. eigenvalues --   -0.43386  -0.43328  -0.42771  -0.42376  -0.42200
 Alpha  occ. eigenvalues --   -0.41845  -0.41528  -0.41259  -0.41001  -0.40778
 Alpha  occ. eigenvalues --   -0.40514  -0.40406  -0.39913  -0.39390  -0.38850
 Alpha  occ. eigenvalues --   -0.38586  -0.38236  -0.38140  -0.37800  -0.37242
 Alpha  occ. eigenvalues --   -0.36897  -0.36263  -0.35716  -0.35612  -0.35401
 Alpha  occ. eigenvalues --   -0.34873  -0.34617  -0.34061  -0.33369  -0.33320
 Alpha  occ. eigenvalues --   -0.32583  -0.32161  -0.31581  -0.29604  -0.28865
 Alpha  occ. eigenvalues --   -0.26622  -0.25874  -0.25507  -0.24620  -0.23756
 Alpha virt. eigenvalues --   -0.06104  -0.02617  -0.01493  -0.01361  -0.00550
 Alpha virt. eigenvalues --   -0.00054   0.00366   0.00708   0.01697   0.01809
 Alpha virt. eigenvalues --    0.01878   0.02144   0.03013   0.03293   0.03465
 Alpha virt. eigenvalues --    0.03613   0.03959   0.04412   0.04713   0.04791
 Alpha virt. eigenvalues --    0.05054   0.05245   0.05678   0.05997   0.06187
 Alpha virt. eigenvalues --    0.06372   0.06938   0.07195   0.07259   0.07318
 Alpha virt. eigenvalues --    0.07646   0.07855   0.08179   0.08393   0.08595
 Alpha virt. eigenvalues --    0.08749   0.08920   0.09303   0.09533   0.09688
 Alpha virt. eigenvalues --    0.10147   0.10408   0.10674   0.10937   0.11024
 Alpha virt. eigenvalues --    0.11512   0.11887   0.12137   0.12275   0.12477
 Alpha virt. eigenvalues --    0.12702   0.12927   0.12935   0.13099   0.13365
 Alpha virt. eigenvalues --    0.13719   0.14024   0.14199   0.14343   0.14457
 Alpha virt. eigenvalues --    0.14649   0.14914   0.15134   0.15501   0.15744
 Alpha virt. eigenvalues --    0.16258   0.16311   0.16525   0.16894   0.17096
 Alpha virt. eigenvalues --    0.17347   0.17569   0.17759   0.17989   0.18272
 Alpha virt. eigenvalues --    0.18349   0.18398   0.18738   0.18930   0.18988
 Alpha virt. eigenvalues --    0.19268   0.19495   0.19677   0.19975   0.20019
 Alpha virt. eigenvalues --    0.20089   0.20535   0.20597   0.20752   0.20928
 Alpha virt. eigenvalues --    0.21180   0.21667   0.21792   0.22214   0.22231
 Alpha virt. eigenvalues --    0.22361   0.22502   0.22752   0.22883   0.23013
 Alpha virt. eigenvalues --    0.23261   0.23520   0.23670   0.23958   0.24105
 Alpha virt. eigenvalues --    0.24215   0.24424   0.24563   0.24653   0.24898
 Alpha virt. eigenvalues --    0.25038   0.25395   0.25449   0.25754   0.26251
 Alpha virt. eigenvalues --    0.26352   0.26602   0.26959   0.26984   0.27247
 Alpha virt. eigenvalues --    0.27423   0.27547   0.27973   0.28143   0.28437
 Alpha virt. eigenvalues --    0.28681   0.29004   0.29127   0.29345   0.29482
 Alpha virt. eigenvalues --    0.29712   0.29859   0.30172   0.30463   0.30723
 Alpha virt. eigenvalues --    0.31038   0.31262   0.31378   0.31765   0.31952
 Alpha virt. eigenvalues --    0.32204   0.32320   0.32964   0.33143   0.33448
 Alpha virt. eigenvalues --    0.33552   0.33969   0.34187   0.34542   0.35005
 Alpha virt. eigenvalues --    0.35285   0.35724   0.35972   0.36052   0.36288
 Alpha virt. eigenvalues --    0.36518   0.37174   0.37722   0.37864   0.38187
 Alpha virt. eigenvalues --    0.38292   0.38879   0.39503   0.39969   0.40263
 Alpha virt. eigenvalues --    0.40622   0.40962   0.41346   0.41760   0.42026
 Alpha virt. eigenvalues --    0.42374   0.42661   0.43043   0.43234   0.43750
 Alpha virt. eigenvalues --    0.44065   0.44650   0.44910   0.45454   0.45673
 Alpha virt. eigenvalues --    0.45851   0.46514   0.46773   0.47069   0.47121
 Alpha virt. eigenvalues --    0.47723   0.47930   0.48647   0.49127   0.49471
 Alpha virt. eigenvalues --    0.49764   0.50417   0.50809   0.50955   0.51733
 Alpha virt. eigenvalues --    0.51941   0.52394   0.52701   0.53023   0.53518
 Alpha virt. eigenvalues --    0.53904   0.54112   0.54460   0.54797   0.55921
 Alpha virt. eigenvalues --    0.56430   0.56725   0.56831   0.57590   0.57714
 Alpha virt. eigenvalues --    0.57876   0.58911   0.58928   0.59271   0.59913
 Alpha virt. eigenvalues --    0.60188   0.60467   0.60819   0.61068   0.61170
 Alpha virt. eigenvalues --    0.61764   0.62371   0.62593   0.63058   0.63342
 Alpha virt. eigenvalues --    0.63886   0.64362   0.65108   0.65206   0.65670
 Alpha virt. eigenvalues --    0.66119   0.66752   0.66977   0.67270   0.67973
 Alpha virt. eigenvalues --    0.68067   0.68294   0.68608   0.68935   0.69229
 Alpha virt. eigenvalues --    0.69730   0.70017   0.70184   0.70243   0.70454
 Alpha virt. eigenvalues --    0.70914   0.71155   0.71492   0.72015   0.72444
 Alpha virt. eigenvalues --    0.72612   0.73090   0.73400   0.73654   0.73764
 Alpha virt. eigenvalues --    0.74105   0.74271   0.74423   0.74751   0.75359
 Alpha virt. eigenvalues --    0.75625   0.76009   0.76401   0.76843   0.77409
 Alpha virt. eigenvalues --    0.77525   0.78019   0.78190   0.78294   0.78723
 Alpha virt. eigenvalues --    0.79004   0.79460   0.79588   0.80054   0.80701
 Alpha virt. eigenvalues --    0.80972   0.81527   0.81710   0.82441   0.82651
 Alpha virt. eigenvalues --    0.83477   0.83996   0.84376   0.84414   0.85262
 Alpha virt. eigenvalues --    0.86112   0.86718   0.86910   0.87416   0.88083
 Alpha virt. eigenvalues --    0.89520   0.89837   0.90227   0.91152   0.91376
 Alpha virt. eigenvalues --    0.93121   0.93319   0.94481   0.94914   0.95660
 Alpha virt. eigenvalues --    0.96033   0.96666   0.97011   0.97813   0.99175
 Alpha virt. eigenvalues --    0.99810   1.02047   1.02479   1.03809   1.04171
 Alpha virt. eigenvalues --    1.05677   1.06185   1.07277   1.07594   1.08948
 Alpha virt. eigenvalues --    1.09951   1.11914   1.12604   1.13252   1.14631
 Alpha virt. eigenvalues --    1.15291   1.15452   1.16720   1.17753   1.18581
 Alpha virt. eigenvalues --    1.19476   1.20289   1.20927   1.22206   1.23539
 Alpha virt. eigenvalues --    1.23900   1.24956   1.25946   1.26941   1.27402
 Alpha virt. eigenvalues --    1.28085   1.28418   1.29586   1.29920   1.31099
 Alpha virt. eigenvalues --    1.32576   1.33308   1.33704   1.34567   1.35168
 Alpha virt. eigenvalues --    1.35581   1.36483   1.37211   1.37761   1.38348
 Alpha virt. eigenvalues --    1.39020   1.39784   1.40907   1.41373   1.42394
 Alpha virt. eigenvalues --    1.43166   1.44113   1.45887   1.46173   1.47091
 Alpha virt. eigenvalues --    1.48590   1.49111   1.49509   1.51112   1.51665
 Alpha virt. eigenvalues --    1.52371   1.52784   1.53539   1.53920   1.55210
 Alpha virt. eigenvalues --    1.55837   1.56709   1.57370   1.57595   1.58159
 Alpha virt. eigenvalues --    1.59286   1.59561   1.59854   1.60365   1.60769
 Alpha virt. eigenvalues --    1.61428   1.61641   1.62441   1.62599   1.63432
 Alpha virt. eigenvalues --    1.63820   1.64047   1.64440   1.64748   1.65078
 Alpha virt. eigenvalues --    1.65557   1.65894   1.66699   1.66988   1.67297
 Alpha virt. eigenvalues --    1.67569   1.68459   1.69447   1.69660   1.70113
 Alpha virt. eigenvalues --    1.70856   1.71185   1.71914   1.72493   1.72694
 Alpha virt. eigenvalues --    1.72952   1.73579   1.74252   1.74485   1.75330
 Alpha virt. eigenvalues --    1.76387   1.76900   1.77404   1.78446   1.78979
 Alpha virt. eigenvalues --    1.80430   1.80895   1.81361   1.82137   1.82876
 Alpha virt. eigenvalues --    1.83699   1.84845   1.84981   1.85576   1.86092
 Alpha virt. eigenvalues --    1.87817   1.89212   1.89618   1.89856   1.92494
 Alpha virt. eigenvalues --    1.93124   1.93266   1.93420   1.93963   1.95602
 Alpha virt. eigenvalues --    1.97521   1.98105   1.99521   2.00302   2.00747
 Alpha virt. eigenvalues --    2.02213   2.03269   2.03863   2.04984   2.05415
 Alpha virt. eigenvalues --    2.05993   2.06598   2.07867   2.08789   2.09297
 Alpha virt. eigenvalues --    2.10326   2.11942   2.12535   2.14195   2.14596
 Alpha virt. eigenvalues --    2.16876   2.17594   2.18389   2.20825   2.21982
 Alpha virt. eigenvalues --    2.22262   2.23645   2.25009   2.26060   2.27063
 Alpha virt. eigenvalues --    2.27761   2.28543   2.29121   2.31373   2.32424
 Alpha virt. eigenvalues --    2.33362   2.34583   2.35727   2.36906   2.38836
 Alpha virt. eigenvalues --    2.39766   2.43612   2.46661   2.48634   2.49570
 Alpha virt. eigenvalues --    2.51102   2.51643   2.52487   2.52860   2.53650
 Alpha virt. eigenvalues --    2.54789   2.55108   2.56201   2.57215   2.57787
 Alpha virt. eigenvalues --    2.58682   2.58924   2.59368   2.59575   2.60420
 Alpha virt. eigenvalues --    2.62172   2.63102   2.63586   2.65927   2.66269
 Alpha virt. eigenvalues --    2.66798   2.66881   2.67571   2.69498   2.70267
 Alpha virt. eigenvalues --    2.70597   2.70990   2.72489   2.72677   2.74126
 Alpha virt. eigenvalues --    2.74379   2.75066   2.78406   2.79174   2.81373
 Alpha virt. eigenvalues --    2.85028   2.86077   2.86953   2.88867   2.90311
 Alpha virt. eigenvalues --    2.91414   2.92584   2.92952   2.93986   2.94803
 Alpha virt. eigenvalues --    2.95684   2.97252   2.97956   2.98010   2.98951
 Alpha virt. eigenvalues --    2.99971   3.01263   3.01906   3.02427   3.02846
 Alpha virt. eigenvalues --    3.03485   3.03770   3.04644   3.04758   3.05729
 Alpha virt. eigenvalues --    3.07768   3.09317   3.10759   3.11916   3.13310
 Alpha virt. eigenvalues --    3.13656   3.14980   3.15712   3.17372   3.18249
 Alpha virt. eigenvalues --    3.19454   3.20004   3.20803   3.21501   3.22151
 Alpha virt. eigenvalues --    3.23225   3.23721   3.24513   3.25263   3.26189
 Alpha virt. eigenvalues --    3.26802   3.27492   3.28080   3.29122   3.30035
 Alpha virt. eigenvalues --    3.31204   3.32151   3.32550   3.33409   3.34763
 Alpha virt. eigenvalues --    3.35649   3.36049   3.37262   3.37929   3.39042
 Alpha virt. eigenvalues --    3.39607   3.40453   3.40705   3.42299   3.43677
 Alpha virt. eigenvalues --    3.45741   3.46816   3.47875   3.52101   3.52275
 Alpha virt. eigenvalues --    3.52589   3.53720   3.57790   3.61228   3.64398
 Alpha virt. eigenvalues --    3.75797   3.77181   3.78471   3.83559   3.85531
 Alpha virt. eigenvalues --    3.91202   3.93331   3.94761   3.98383   4.02522
 Alpha virt. eigenvalues --    4.02655   4.05425   4.06945   4.08978   4.10361
 Alpha virt. eigenvalues --    4.11703   4.14761   4.17169   4.18064   4.20325
 Alpha virt. eigenvalues --    4.22658   4.24951   4.27580   4.29683   4.33289
 Alpha virt. eigenvalues --    4.44815   4.54777   5.14071   5.15923   5.17318
 Alpha virt. eigenvalues --    5.20164   5.25276   5.30045   5.31228   5.33508
 Alpha virt. eigenvalues --    5.40888   5.44200   5.55802   5.72362   5.72783
 Alpha virt. eigenvalues --    5.79716   5.83669  23.44745  23.49758  23.51892
 Alpha virt. eigenvalues --   23.53453  23.62661  23.64328  23.65475  23.67356
 Alpha virt. eigenvalues --   23.67893  23.70738  23.72251  23.73508  23.75864
 Alpha virt. eigenvalues --   23.78545  23.79300  23.79648  23.83848  23.85060
 Alpha virt. eigenvalues --   23.85961  23.88523  23.88943  23.91164  23.96214
 Alpha virt. eigenvalues --   24.15955  24.20884  24.22897  49.97069  50.00298
 Alpha virt. eigenvalues --   50.02233  50.03875  50.06043
          Condensed to atoms (all electrons):
 Mulliken atomic charges:
              1
     1  C   -0.723196
     2  C    1.027500
     3  C   -0.091098
     4  C    0.311448
     5  C    1.111424
     6  C   -1.353735
     7  C   -1.037772
     8  C    0.323973
     9  C    0.866508
    10  C   -1.138007
    11  C   -0.301454
    12  O   -0.175453
    13  C    0.407451
    14  C   -0.335026
    15  C   -1.103124
    16  O   -0.159040
    17  C   -0.331170
    18  C    0.779846
    19  O    0.209354
    20  C   -1.427345
    21  O   -0.074485
    22  C   -0.452367
    23  C   -0.211250
    24  O    0.040811
    25  C    0.713585
    26  C   -1.094016
    27  C   -0.996723
    28  C   -0.822754
    29  C   -0.599873
    30  H    0.241298
    31  H    0.265399
    32  C   -1.185605
    33  H    0.207481
    34  H    0.262844
    35  H    0.264328
    36  H    0.236577
    37  H    0.217853
    38  H    0.263085
    39  H    0.234376
    40  H    0.267373
    41  H    0.276436
    42  H    0.292313
    43  H    0.262543
    44  H    0.287754
    45  H    0.302213
    46  H    0.256744
    47  H    0.243135
    48  H    0.282651
    49  H    0.266098
    50  H    0.260388
    51  H    0.228945
    52  H    0.214622
    53  H    0.249660
    54  H    0.311470
    55  H    0.265541
    56  H    0.273479
    57  H    0.270044
    58  H    0.261019
    59  H    0.262242
    60  H    0.249502
    61  H    0.250208
    62  C   -0.953806
    63  H    0.260816
    64  H    0.246045
    65  H    0.240920
 Sum of Mulliken atomic charges =   0.00000
 Mulliken charges with hydrogens summed into heavy atoms:
              1
     1  C   -0.515715
     2  C    1.027500
     3  C    0.174302
     4  C    0.311448
     5  C    1.111424
     6  C   -0.826563
     7  C   -1.037772
     8  C    0.323973
     9  C    0.866508
    10  C   -1.138007
    11  C   -0.301454
    12  O   -0.175453
    13  C    0.644028
    14  C    0.145912
    15  C   -0.324940
    16  O   -0.159040
    17  C   -0.089872
    18  C    0.779846
    19  O    0.209354
    20  C   -0.872489
    21  O    0.213268
    22  C    0.106590
    23  C    0.031885
    24  O    0.040811
    25  C    0.713585
    26  C   -0.284878
    27  C   -0.553156
    28  C    0.003917
    29  C    0.204668
    32  C   -0.423654
    62  C   -0.206025
 Sum of Mulliken charges with hydrogens summed into heavy atoms =   0.00000
 Electronic spatial extent (au):  <R**2>=          11630.9222
 Charge=              0.0000 electrons
 Dipole moment (field-independent basis, Debye):
    X=              4.9827    Y=              2.8479    Z=             -0.6132  Tot=              5.7718
 Quadrupole moment (field-independent basis, Debye-Ang):
   XX=           -192.4875   YY=           -179.6614   ZZ=           -188.8206
   XY=              2.0665   XZ=              8.4936   YZ=             -0.0561
 Traceless Quadrupole moment (field-independent basis, Debye-Ang):
   XX=             -5.4977   YY=              7.3284   ZZ=             -1.8307
   XY=              2.0665   XZ=              8.4936   YZ=             -0.0561
 Octapole moment (field-independent basis, Debye-Ang**2):
  XXX=             44.9783  YYY=             69.6653  ZZZ=              3.5935  XYY=              5.0443
  XXY=            -21.6084  XXZ=            -16.3440  XZZ=             16.9590  YZZ=             -7.0660
  YYZ=            -34.6816  XYZ=             17.9351
 Hexadecapole moment (field-independent basis, Debye-Ang**3):
 XXXX=          -8440.0073 YYYY=          -4889.2713 ZZZZ=          -2647.5469 XXXY=             28.6470
 XXXZ=            114.7542 YYYX=            -51.8041 YYYZ=             11.1887 ZZZX=              7.7793
 ZZZY=             -7.4902 XXYY=          -2155.3391 XXZZ=          -1880.7623 YYZZ=          -1236.3519
 XXYZ=              9.4025 YYXZ=            -31.7208 ZZXY=            -34.7292
 N-N= 3.502999523729D+03 E-N=-1.023910211964D+04  KE= 1.381925162512D+03
 1\1\GINC-B0801\FOpt\RB3LYP\6-311+G(d)\C26H34O5\CAOFEI\13-Apr-2021\0\\#
  opt b3lyp/6-311+g(d) geom=connectivity\\Title Card Required\\0,1\C,2.
 4120692574,0.1363616484,2.5731697155\C,3.060300131,0.84035445,1.641845
 3783\C,2.4051643372,1.098200612,0.3057609153\C,1.4015952085,0.00653863
 02,-0.1924689187\C,0.8541180945,-0.9782157597,0.8918729123\C,1.0401496
 419,-0.4351573772,2.3396567873\C,0.3022142639,0.8118982144,-0.94894523
 37\C,-0.9864429856,0.9469288649,-0.1512443031\C,-1.5392483854,-0.08702
 69687,0.5375112751\C,-0.6748600191,-1.2612191213,0.7575275755\C,-2.938
 0192691,-0.0025272239,1.0807749846\O,-3.337640926,1.0364102348,1.57101
 82794\C,-3.859691303,-1.2235988685,0.9823580116\C,-5.1974920933,-0.822
 9669828,0.3301251285\C,-4.0801503331,-1.8049267903,2.3909129141\O,-1.0
 991240775,-2.3777271865,1.0068300198\C,0.7432610241,2.2860898336,-1.02
 38608891\C,-0.595139648,3.0548324668,-1.0639304576\O,-1.5140586655,2.1
 529687311,-0.3105007471\C,1.6164599389,2.4309619841,0.2351011056\O,-0.
 0273242121,0.2389756428,-2.2015118346\C,1.6769929687,-2.2716190642,0.6
 647219819\C,2.6350758063,-1.9633206342,-0.4994492292\O,2.0337857081,-0
 .8329930093,-1.168656908\C,2.8573603214,-3.0910145503,-1.478363666\C,1
 .7042204095,-3.4964968595,-2.358923201\C,4.0403078088,-3.7076303075,-1
 .5139350386\C,-1.147691499,3.1957844499,-2.4813571487\C,-0.6223327165,
 4.3883036179,-0.3288867015\H,1.328042415,2.4663577735,-1.9282763212\H,
 3.1797592888,1.1379569484,-0.4694734017\C,4.4222568095,1.4408066153,1.
 8620957633\H,2.86778867,-0.0237005454,3.5477367694\H,0.2795438188,0.32
 63886048,2.5515569818\H,0.8376332281,-1.2525819983,3.0366610699\H,-3.3
 730661445,-1.984670135,0.3696082687\H,-5.8657782553,-1.6904472871,0.38
 28495781\H,-5.6613599885,-0.0343417532,0.9304102785\H,-4.7489237261,-2
 .6689258621,2.3407354441\H,-4.5328469442,-1.0595563638,3.050047055\H,-
 3.1411920717,-2.1400555344,2.8366846973\H,0.9983850494,2.536424577,1.1
 316908901\H,2.2757112383,3.3006847531,0.1985485506\H,0.6472986488,-0.4
 385117972,-2.3768108458\H,1.0013007263,-3.0948793636,0.4349241935\H,2.
 2408148825,-2.5590069128,1.5530739019\H,3.6050303535,-1.6410539197,-0.
 1048530723\H,0.7844204169,-3.6529269796,-1.7875662813\H,1.486662599,-2
 .7219697624,-3.1008661918\H,1.9283748438,-4.4180029441,-2.8990509411\H
 ,4.2214973665,-4.5605091754,-2.1603992623\H,4.8711526322,-3.3876961198
 ,-0.8920956916\H,-0.5428076608,3.9088045441,-3.0489150562\H,-1.1390893
 681,2.2417943253,-3.0080809803\H,-2.1726570994,3.5720962192,-2.4480524
 358\H,-1.626482283,4.8157237363,-0.3622794796\H,-0.3367909078,4.286636
 0539,0.7183411692\H,0.0623647963,5.0934254119,-0.8082850784\H,5.147001
 5912,1.05967809,1.13290541\H,4.4053781011,2.5303019009,1.7414011048\H,
 4.8028663962,1.2229073996,2.8622357113\C,-5.0744535457,-0.3646250221,-
 1.1255328636\H,-4.4698026171,0.5424286534,-1.2148246769\H,-6.05787027,
 -0.1420695941,-1.5498485762\H,-4.6125547768,-1.1349972134,-1.751461389
 1\\Version=EM64L-G09RevB.01\State=1-A\HF=-1387.6511188\RMSD=5.528e-09\
 RMSF=4.549e-06\Dipole=2.1063973,0.7301818,-0.4319006\Quadrupole=-2.359
 6538,4.4333781,-2.0737244,3.361882,6.101558,-1.7517431\PG=C01 [X(C26H3
 4O5)]\\@


 We make a living by what we get,
 we make a life by what we give.
                   -- Sir Winston Churchill
 There are more things in heaven and earth, Horatio,
 than are dreamt of in your philosophy.
                   -- Hamlet, Act I, Scene 5
 The chemist is a guest at the physicist's table and
 frequently dines well.
                   -- Richard Bersohn
 Job cpu time:  1 days 18 hours  6 minutes 34.2 seconds.
 File lengths (MBytes):  RWF=    372 Int=      0 D2E=      0 Chk=     38 Scr=      1
 Normal termination of Gaussian 09 at Tue Apr 13 19:40:36 2021.
