 Entering Gaussian System, Link 0=g09
 Initial command:
 /public/software/g09/g09/l1.exe /tmp/Gau-20225.inp -scrdir=/tmp/
 Entering Link 1 = /public/software/g09/g09/l1.exe PID=     20226.
  
 Copyright (c) 1988,1990,1992,1993,1995,1998,2003,2009,2010,
            Gaussian, Inc.  All Rights Reserved.
  
 This is part of the Gaussian(R) 09 program.  It is based on
 the Gaussian(R) 03 system (copyright 2003, Gaussian, Inc.),
 the Gaussian(R) 98 system (copyright 1998, Gaussian, Inc.),
 the Gaussian(R) 94 system (copyright 1995, Gaussian, Inc.),
 the Gaussian 92(TM) system (copyright 1992, Gaussian, Inc.),
 the Gaussian 90(TM) system (copyright 1990, Gaussian, Inc.),
 the Gaussian 88(TM) system (copyright 1988, Gaussian, Inc.),
 the Gaussian 86(TM) system (copyright 1986, Carnegie Mellon
 University), and the Gaussian 82(TM) system (copyright 1983,
 Carnegie Mellon University). Gaussian is a federally registered
 trademark of Gaussian, Inc.
  
 This software contains proprietary and confidential information,
 including trade secrets, belonging to Gaussian, Inc.
  
 This software is provided under written license and may be
 used, copied, transmitted, or stored only in accord with that
 written license.
  
 The following legend is applicable only to US Government
 contracts under FAR:
  
                    RESTRICTED RIGHTS LEGEND
  
 Use, reproduction and disclosure by the US Government is
 subject to restrictions as set forth in subparagraphs (a)
 and (c) of the Commercial Computer Software - Restricted
 Rights clause in FAR 52.227-19.
  
 Gaussian, Inc.
 340 Quinnipiac St., Bldg. 40, Wallingford CT 06492
  
  
 ---------------------------------------------------------------
 Warning -- This program may not be used in any manner that
 competes with the business of Gaussian, Inc. or will provide
 assistance to any competitor of Gaussian, Inc.  The licensee
 of this program is prohibited from giving any competitor of
 Gaussian, Inc. access to this program.  By using this program,
 the user acknowledges that Gaussian, Inc. is engaged in the
 business of creating and licensing software in the field of
 computational chemistry and represents and warrants to the
 licensee that it is not a competitor of Gaussian, Inc. and that
 it will not use this program in any manner prohibited above.
 ---------------------------------------------------------------
  

 Cite this work as:
 Gaussian 09, Revision B.01,
 M. J. Frisch, G. W. Trucks, H. B. Schlegel, G. E. Scuseria, 
 M. A. Robb, J. R. Cheeseman, G. Scalmani, V. Barone, B. Mennucci, 
 G. A. Petersson, H. Nakatsuji, M. Caricato, X. Li, H. P. Hratchian, 
 A. F. Izmaylov, J. Bloino, G. Zheng, J. L. Sonnenberg, M. Hada, 
 M. Ehara, K. Toyota, R. Fukuda, J. Hasegawa, M. Ishida, T. Nakajima, 
 Y. Honda, O. Kitao, H. Nakai, T. Vreven, J. A. Montgomery, Jr., 
 J. E. Peralta, F. Ogliaro, M. Bearpark, J. J. Heyd, E. Brothers, 
 K. N. Kudin, V. N. Staroverov, T. Keith, R. Kobayashi, J. Normand, 
 K. Raghavachari, A. Rendell, J. C. Burant, S. S. Iyengar, J. Tomasi, 
 M. Cossi, N. Rega, J. M. Millam, M. Klene, J. E. Knox, J. B. Cross, 
 V. Bakken, C. Adamo, J. Jaramillo, R. Gomperts, R. E. Stratmann, 
 O. Yazyev, A. J. Austin, R. Cammi, C. Pomelli, J. W. Ochterski, 
 R. L. Martin, K. Morokuma, V. G. Zakrzewski, G. A. Voth, 
 P. Salvador, J. J. Dannenberg, S. Dapprich, A. D. Daniels, 
 O. Farkas, J. B. Foresman, J. V. Ortiz, J. Cioslowski, 
 and D. J. Fox, Gaussian, Inc., Wallingford CT, 2010.
 
 ******************************************
 Gaussian 09:  EM64L-G09RevB.01 12-Aug-2010
                13-Apr-2021 
 ******************************************
 %mem=600MW
 %nprocshared=10
 Will use up to   10 processors via shared memory.
 ----------------------------------------
 # opt b3lyp/6-311+g(d) geom=connectivity
 ----------------------------------------
 1/14=-1,18=20,19=15,26=3,38=1,57=2/1,3;
 2/9=110,12=2,17=6,18=5,40=1/2;
 3/5=4,6=6,7=11,11=2,16=1,25=1,30=1,71=1,74=-5/1,2,3;
 4//1;
 5/5=2,38=5/2;
 6/7=2,8=2,9=2,10=2,28=1/1;
 7//1,2,3,16;
 1/14=-1,18=20,19=15/3(2);
 2/9=110/2;
 99//99;
 2/9=110/2;
 3/5=4,6=6,7=11,11=2,16=1,25=1,30=1,71=1,74=-5/1,2,3;
 4/5=5,16=3/1;
 5/5=2,38=5/2;
 7//1,2,3,16;
 1/14=-1,18=20,19=15/3(-5);
 2/9=110/2;
 6/7=2,8=2,9=2,10=2,19=2,28=1/1;
 99/9=1/99;
 -------------------
 Title Card Required
 -------------------
 Symbolic Z-matrix:
 Charge =  0 Multiplicity = 1
 C                    -1.91487   1.25268  -2.68748 
 C                    -2.32341   2.11905  -1.75241 
 C                    -1.80561   1.98995  -0.33744 
 C                    -1.47658   0.53793   0.14579 
 C                    -1.29923  -0.52619  -0.97704 
 C                    -0.99626   0.10179  -2.37137 
 C                    -0.22829   0.72654   1.08775 
 C                     1.06865   0.25643   0.45843 
 C                     1.16693  -0.86215  -0.29815 
 C                    -0.11777  -1.50038  -0.69903 
 C                     2.43595  -1.40147  -0.8911 
 O                     2.44342  -1.78699  -2.04946 
 C                     3.66675  -1.53201   0.00833 
 C                     4.97597  -1.46417  -0.79305 
 C                     3.53116  -2.87134   0.76892 
 O                    -0.21563  -2.6913   -0.93192 
 C                     0.04813   2.23944   1.22746 
 C                     1.57502   2.30229   1.46409 
 O                     2.07458   1.09822   0.74841 
 C                    -0.50546   2.80212  -0.09205 
 O                    -0.38527   0.04876   2.31962 
 C                    -2.65261  -1.26646  -1.00671 
 C                    -3.33205  -0.97366   0.351 
 O                    -2.53112   0.04589   0.98337 
 C                    -3.50565  -2.20353   1.22511 
 C                    -4.76257  -2.98635   0.93386 
 C                    -2.61345  -2.59758   2.13639 
 C                     1.93802   2.14077   2.9423 
 C                     2.29993   3.49176   0.84243 
 H                    -0.49676   2.65084   2.08269 
 H                    -2.56381   2.35808   0.3665 
 C                    -3.24288   3.27532  -2.04561 
 H                    -2.2484    1.36776  -3.71767 
 H                     0.05436   0.42052  -2.41576 
 H                    -1.0915   -0.68889  -3.12372 
 H                     3.6472   -0.72026   0.74421 
 H                     4.95068  -2.23556  -1.57116 
 H                     5.8038   -1.71859  -0.11746 
 H                     3.55223  -3.71414   0.06926 
 H                     2.59294  -2.92309   1.33173 
 H                     4.36023  -2.98873   1.47585 
 H                    -0.6916    3.87999  -0.05559 
 H                     0.1937    2.62326  -0.9175 
 H                    -1.35182  -0.09356   2.39575 
 H                    -2.47627  -2.33315  -1.16333 
 H                    -3.26934  -0.88859  -1.82603 
 H                    -4.32524  -0.53364   0.18403 
 H                    -5.66125  -2.38214   1.12079 
 H                    -4.80521  -3.29491  -0.12009 
 H                    -4.82194  -3.88877   1.54871 
 H                    -2.77167  -3.50375   2.71499 
 H                    -1.68969  -2.06246   2.32242 
 H                     1.65511   3.04167   3.49876 
 H                     1.41793   1.28516   3.37926 
 H                     3.01818   1.99721   3.04939 
 H                     3.37834   3.40453   1.00882 
 H                     2.12602   3.55688  -0.23459 
 H                     1.95744   4.42265   1.30747 
 H                    -4.16468   3.20972  -1.45091 
 H                    -2.77554   4.23632  -1.78924 
 H                    -3.5222    3.3097   -3.10346 
 C                     5.23849  -0.09663  -1.43311 
 H                     5.2545    0.70021  -0.67885 
 H                     4.46319   0.14867  -2.16647 
 H                     6.20339  -0.08448  -1.95286 
 

 GradGradGradGradGradGradGradGradGradGradGradGradGradGradGradGradGradGrad
 Berny optimization.
 Initialization pass.
                           ----------------------------
                           !    Initial Parameters    !
                           ! (Angstroms and Degrees)  !
 --------------------------                            --------------------------
 ! Name  Definition              Value          Derivative Info.                !
 --------------------------------------------------------------------------------
 ! R1    R(1,2)                  1.3386         estimate D2E/DX2                !
 ! R2    R(1,6)                  1.5061         estimate D2E/DX2                !
 ! R3    R(1,33)                 1.0889         estimate D2E/DX2                !
 ! R4    R(2,3)                  1.5123         estimate D2E/DX2                !
 ! R5    R(2,32)                 1.5061         estimate D2E/DX2                !
 ! R6    R(3,4)                  1.5653         estimate D2E/DX2                !
 ! R7    R(3,20)                 1.5525         estimate D2E/DX2                !
 ! R8    R(3,31)                 1.0981         estimate D2E/DX2                !
 ! R9    R(4,5)                  1.5571         estimate D2E/DX2                !
 ! R10   R(4,7)                  1.5751         estimate D2E/DX2                !
 ! R11   R(4,24)                 1.4338         estimate D2E/DX2                !
 ! R12   R(5,6)                  1.5589         estimate D2E/DX2                !
 ! R13   R(5,10)                 1.5563         estimate D2E/DX2                !
 ! R14   R(5,22)                 1.5429         estimate D2E/DX2                !
 ! R15   R(6,34)                 1.0988         estimate D2E/DX2                !
 ! R16   R(6,35)                 1.0956         estimate D2E/DX2                !
 ! R17   R(7,8)                  1.5163         estimate D2E/DX2                !
 ! R18   R(7,17)                 1.5443         estimate D2E/DX2                !
 ! R19   R(7,21)                 1.4148         estimate D2E/DX2                !
 ! R20   R(8,9)                  1.354          estimate D2E/DX2                !
 ! R21   R(8,19)                 1.3434         estimate D2E/DX2                !
 ! R22   R(9,10)                 1.4895         estimate D2E/DX2                !
 ! R23   R(9,11)                 1.501          estimate D2E/DX2                !
 ! R24   R(10,16)                1.2174         estimate D2E/DX2                !
 ! R25   R(11,12)                1.2209         estimate D2E/DX2                !
 ! R26   R(11,13)                1.53           estimate D2E/DX2                !
 ! R27   R(13,14)                1.5365         estimate D2E/DX2                !
 ! R28   R(13,15)                1.5462         estimate D2E/DX2                !
 ! R29   R(13,36)                1.0958         estimate D2E/DX2                !
 ! R30   R(14,37)                1.096          estimate D2E/DX2                !
 ! R31   R(14,38)                1.0984         estimate D2E/DX2                !
 ! R32   R(14,62)                1.5326         estimate D2E/DX2                !
 ! R33   R(15,39)                1.0956         estimate D2E/DX2                !
 ! R34   R(15,40)                1.0953         estimate D2E/DX2                !
 ! R35   R(15,41)                1.0959         estimate D2E/DX2                !
 ! R36   R(17,18)                1.5464         estimate D2E/DX2                !
 ! R37   R(17,20)                1.5376         estimate D2E/DX2                !
 ! R38   R(17,30)                1.0943         estimate D2E/DX2                !
 ! R39   R(18,19)                1.4871         estimate D2E/DX2                !
 ! R40   R(18,28)                1.5307         estimate D2E/DX2                !
 ! R41   R(18,29)                1.5254         estimate D2E/DX2                !
 ! R42   R(20,42)                1.0944         estimate D2E/DX2                !
 ! R43   R(20,43)                1.0964         estimate D2E/DX2                !
 ! R44   R(21,44)                0.9799         estimate D2E/DX2                !
 ! R45   R(22,23)                1.5462         estimate D2E/DX2                !
 ! R46   R(22,45)                1.0925         estimate D2E/DX2                !
 ! R47   R(22,46)                1.0929         estimate D2E/DX2                !
 ! R48   R(23,24)                1.4425         estimate D2E/DX2                !
 ! R49   R(23,25)                1.5188         estimate D2E/DX2                !
 ! R50   R(23,47)                1.099          estimate D2E/DX2                !
 ! R51   R(24,44)                1.8453         estimate D2E/DX2                !
 ! R52   R(25,26)                1.5091         estimate D2E/DX2                !
 ! R53   R(25,27)                1.3348         estimate D2E/DX2                !
 ! R54   R(26,48)                1.0989         estimate D2E/DX2                !
 ! R55   R(26,49)                1.099          estimate D2E/DX2                !
 ! R56   R(26,50)                1.0936         estimate D2E/DX2                !
 ! R57   R(27,51)                1.0867         estimate D2E/DX2                !
 ! R58   R(27,52)                1.0836         estimate D2E/DX2                !
 ! R59   R(28,53)                1.096          estimate D2E/DX2                !
 ! R60   R(28,54)                1.0925         estimate D2E/DX2                !
 ! R61   R(28,55)                1.0949         estimate D2E/DX2                !
 ! R62   R(29,56)                1.0947         estimate D2E/DX2                !
 ! R63   R(29,57)                1.0929         estimate D2E/DX2                !
 ! R64   R(29,58)                1.0955         estimate D2E/DX2                !
 ! R65   R(32,59)                1.0989         estimate D2E/DX2                !
 ! R66   R(32,60)                1.0989         estimate D2E/DX2                !
 ! R67   R(32,61)                1.0946         estimate D2E/DX2                !
 ! R68   R(62,63)                1.0973         estimate D2E/DX2                !
 ! R69   R(62,64)                1.095          estimate D2E/DX2                !
 ! R70   R(62,65)                1.096          estimate D2E/DX2                !
 ! A1    A(2,1,6)              122.2838         estimate D2E/DX2                !
 ! A2    A(2,1,33)             119.9327         estimate D2E/DX2                !
 ! A3    A(6,1,33)             117.7834         estimate D2E/DX2                !
 ! A4    A(1,2,3)              119.5938         estimate D2E/DX2                !
 ! A5    A(1,2,32)             123.1767         estimate D2E/DX2                !
 ! A6    A(3,2,32)             117.1759         estimate D2E/DX2                !
 ! A7    A(2,3,4)              116.1053         estimate D2E/DX2                !
 ! A8    A(2,3,20)             112.9535         estimate D2E/DX2                !
 ! A9    A(2,3,31)             109.5582         estimate D2E/DX2                !
 ! A10   A(4,3,20)             105.0969         estimate D2E/DX2                !
 ! A11   A(4,3,31)             104.9636         estimate D2E/DX2                !
 ! A12   A(20,3,31)            107.5487         estimate D2E/DX2                !
 ! A13   A(3,4,5)              115.8024         estimate D2E/DX2                !
 ! A14   A(3,4,7)              103.8937         estimate D2E/DX2                !
 ! A15   A(3,4,24)             110.1261         estimate D2E/DX2                !
 ! A16   A(5,4,7)              115.0114         estimate D2E/DX2                !
 ! A17   A(5,4,24)             105.6944         estimate D2E/DX2                !
 ! A18   A(7,4,24)             105.9395         estimate D2E/DX2                !
 ! A19   A(4,5,6)              113.0671         estimate D2E/DX2                !
 ! A20   A(4,5,10)             112.6701         estimate D2E/DX2                !
 ! A21   A(4,5,22)             103.9955         estimate D2E/DX2                !
 ! A22   A(6,5,10)             105.3308         estimate D2E/DX2                !
 ! A23   A(6,5,22)             110.276          estimate D2E/DX2                !
 ! A24   A(10,5,22)            111.6534         estimate D2E/DX2                !
 ! A25   A(1,6,5)              112.1486         estimate D2E/DX2                !
 ! A26   A(1,6,34)             110.6738         estimate D2E/DX2                !
 ! A27   A(1,6,35)             110.753          estimate D2E/DX2                !
 ! A28   A(5,6,34)             109.8038         estimate D2E/DX2                !
 ! A29   A(5,6,35)             107.8542         estimate D2E/DX2                !
 ! A30   A(34,6,35)            105.3502         estimate D2E/DX2                !
 ! A31   A(4,7,8)              113.1119         estimate D2E/DX2                !
 ! A32   A(4,7,17)             108.2564         estimate D2E/DX2                !
 ! A33   A(4,7,21)             112.0494         estimate D2E/DX2                !
 ! A34   A(8,7,17)             100.8472         estimate D2E/DX2                !
 ! A35   A(8,7,21)             107.9242         estimate D2E/DX2                !
 ! A36   A(17,7,21)            114.2318         estimate D2E/DX2                !
 ! A37   A(7,8,9)              123.3766         estimate D2E/DX2                !
 ! A38   A(7,8,19)             110.8928         estimate D2E/DX2                !
 ! A39   A(9,8,19)             125.729          estimate D2E/DX2                !
 ! A40   A(8,9,10)             116.2176         estimate D2E/DX2                !
 ! A41   A(8,9,11)             125.3773         estimate D2E/DX2                !
 ! A42   A(10,9,11)            117.9664         estimate D2E/DX2                !
 ! A43   A(5,10,9)             115.7613         estimate D2E/DX2                !
 ! A44   A(5,10,16)            121.1403         estimate D2E/DX2                !
 ! A45   A(9,10,16)            122.6831         estimate D2E/DX2                !
 ! A46   A(9,11,12)            119.5687         estimate D2E/DX2                !
 ! A47   A(9,11,13)            118.5915         estimate D2E/DX2                !
 ! A48   A(12,11,13)           121.7294         estimate D2E/DX2                !
 ! A49   A(11,13,14)           112.0292         estimate D2E/DX2                !
 ! A50   A(11,13,15)           107.0104         estimate D2E/DX2                !
 ! A51   A(11,13,36)           108.4947         estimate D2E/DX2                !
 ! A52   A(14,13,15)           111.6865         estimate D2E/DX2                !
 ! A53   A(14,13,36)           109.4348         estimate D2E/DX2                !
 ! A54   A(15,13,36)           108.0444         estimate D2E/DX2                !
 ! A55   A(13,14,37)           108.6359         estimate D2E/DX2                !
 ! A56   A(13,14,38)           108.1297         estimate D2E/DX2                !
 ! A57   A(13,14,62)           113.777          estimate D2E/DX2                !
 ! A58   A(37,14,38)           106.9206         estimate D2E/DX2                !
 ! A59   A(37,14,62)           109.6025         estimate D2E/DX2                !
 ! A60   A(38,14,62)           109.5402         estimate D2E/DX2                !
 ! A61   A(13,15,39)           110.5196         estimate D2E/DX2                !
 ! A62   A(13,15,40)           111.6423         estimate D2E/DX2                !
 ! A63   A(13,15,41)           110.1077         estimate D2E/DX2                !
 ! A64   A(39,15,40)           107.955          estimate D2E/DX2                !
 ! A65   A(39,15,41)           108.3618         estimate D2E/DX2                !
 ! A66   A(40,15,41)           108.1504         estimate D2E/DX2                !
 ! A67   A(7,17,18)            103.3209         estimate D2E/DX2                !
 ! A68   A(7,17,20)            102.4992         estimate D2E/DX2                !
 ! A69   A(7,17,30)            110.4799         estimate D2E/DX2                !
 ! A70   A(18,17,20)           118.1599         estimate D2E/DX2                !
 ! A71   A(18,17,30)           110.9024         estimate D2E/DX2                !
 ! A72   A(20,17,30)           110.7209         estimate D2E/DX2                !
 ! A73   A(17,18,19)           103.0111         estimate D2E/DX2                !
 ! A74   A(17,18,28)           112.1877         estimate D2E/DX2                !
 ! A75   A(17,18,29)           116.0129         estimate D2E/DX2                !
 ! A76   A(19,18,28)           107.4366         estimate D2E/DX2                !
 ! A77   A(19,18,29)           105.9976         estimate D2E/DX2                !
 ! A78   A(28,18,29)           111.294          estimate D2E/DX2                !
 ! A79   A(8,19,18)            111.082          estimate D2E/DX2                !
 ! A80   A(3,20,17)            104.2243         estimate D2E/DX2                !
 ! A81   A(3,20,42)            112.2131         estimate D2E/DX2                !
 ! A82   A(3,20,43)            109.2494         estimate D2E/DX2                !
 ! A83   A(17,20,42)           113.145          estimate D2E/DX2                !
 ! A84   A(17,20,43)           110.9033         estimate D2E/DX2                !
 ! A85   A(42,20,43)           107.1091         estimate D2E/DX2                !
 ! A86   A(7,21,44)            104.2804         estimate D2E/DX2                !
 ! A87   A(5,22,23)            106.1234         estimate D2E/DX2                !
 ! A88   A(5,22,45)            109.2472         estimate D2E/DX2                !
 ! A89   A(5,22,46)            110.0914         estimate D2E/DX2                !
 ! A90   A(23,22,45)           112.4403         estimate D2E/DX2                !
 ! A91   A(23,22,46)           110.1721         estimate D2E/DX2                !
 ! A92   A(45,22,46)           108.7361         estimate D2E/DX2                !
 ! A93   A(22,23,24)           105.95           estimate D2E/DX2                !
 ! A94   A(22,23,25)           113.7184         estimate D2E/DX2                !
 ! A95   A(22,23,47)           109.847          estimate D2E/DX2                !
 ! A96   A(24,23,25)           112.5499         estimate D2E/DX2                !
 ! A97   A(24,23,47)           106.582          estimate D2E/DX2                !
 ! A98   A(25,23,47)           107.9593         estimate D2E/DX2                !
 ! A99   A(4,24,23)            113.2554         estimate D2E/DX2                !
 ! A100  A(23,25,26)           113.8391         estimate D2E/DX2                !
 ! A101  A(23,25,27)           123.7494         estimate D2E/DX2                !
 ! A102  A(26,25,27)           122.3657         estimate D2E/DX2                !
 ! A103  A(25,26,48)           111.2891         estimate D2E/DX2                !
 ! A104  A(25,26,49)           111.2857         estimate D2E/DX2                !
 ! A105  A(25,26,50)           111.3925         estimate D2E/DX2                !
 ! A106  A(48,26,49)           106.6053         estimate D2E/DX2                !
 ! A107  A(48,26,50)           108.2812         estimate D2E/DX2                !
 ! A108  A(49,26,50)           107.7815         estimate D2E/DX2                !
 ! A109  A(25,27,51)           120.8199         estimate D2E/DX2                !
 ! A110  A(25,27,52)           122.7659         estimate D2E/DX2                !
 ! A111  A(51,27,52)           116.3899         estimate D2E/DX2                !
 ! A112  A(18,28,53)           110.0204         estimate D2E/DX2                !
 ! A113  A(18,28,54)           110.855          estimate D2E/DX2                !
 ! A114  A(18,28,55)           110.0135         estimate D2E/DX2                !
 ! A115  A(53,28,54)           108.5299         estimate D2E/DX2                !
 ! A116  A(53,28,55)           108.2256         estimate D2E/DX2                !
 ! A117  A(54,28,55)           109.1383         estimate D2E/DX2                !
 ! A118  A(18,29,56)           110.1261         estimate D2E/DX2                !
 ! A119  A(18,29,57)           111.8668         estimate D2E/DX2                !
 ! A120  A(18,29,58)           109.9404         estimate D2E/DX2                !
 ! A121  A(56,29,57)           108.1378         estimate D2E/DX2                !
 ! A122  A(56,29,58)           108.1309         estimate D2E/DX2                !
 ! A123  A(57,29,58)           108.5394         estimate D2E/DX2                !
 ! A124  A(2,32,59)            111.1557         estimate D2E/DX2                !
 ! A125  A(2,32,60)            111.4893         estimate D2E/DX2                !
 ! A126  A(2,32,61)            111.5935         estimate D2E/DX2                !
 ! A127  A(59,32,60)           106.4198         estimate D2E/DX2                !
 ! A128  A(59,32,61)           108.1074         estimate D2E/DX2                !
 ! A129  A(60,32,61)           107.8485         estimate D2E/DX2                !
 ! A130  A(14,62,63)           111.3094         estimate D2E/DX2                !
 ! A131  A(14,62,64)           110.9964         estimate D2E/DX2                !
 ! A132  A(14,62,65)           111.0227         estimate D2E/DX2                !
 ! A133  A(63,62,64)           107.9388         estimate D2E/DX2                !
 ! A134  A(63,62,65)           107.7618         estimate D2E/DX2                !
 ! A135  A(64,62,65)           107.6518         estimate D2E/DX2                !
 ! D1    D(6,1,2,3)              2.8304         estimate D2E/DX2                !
 ! D2    D(6,1,2,32)          -179.9119         estimate D2E/DX2                !
 ! D3    D(33,1,2,3)          -177.2078         estimate D2E/DX2                !
 ! D4    D(33,1,2,32)            0.0499         estimate D2E/DX2                !
 ! D5    D(2,1,6,5)             37.0743         estimate D2E/DX2                !
 ! D6    D(2,1,6,34)           -85.9208         estimate D2E/DX2                !
 ! D7    D(2,1,6,35)           157.6204         estimate D2E/DX2                !
 ! D8    D(33,1,6,5)          -142.8884         estimate D2E/DX2                !
 ! D9    D(33,1,6,34)           94.1166         estimate D2E/DX2                !
 ! D10   D(33,1,6,35)          -22.3423         estimate D2E/DX2                !
 ! D11   D(1,2,3,4)            -31.4421         estimate D2E/DX2                !
 ! D12   D(1,2,3,20)            90.0585         estimate D2E/DX2                !
 ! D13   D(1,2,3,31)          -150.0769         estimate D2E/DX2                !
 ! D14   D(32,2,3,4)           151.1379         estimate D2E/DX2                !
 ! D15   D(32,2,3,20)          -87.3615         estimate D2E/DX2                !
 ! D16   D(32,2,3,31)           32.503          estimate D2E/DX2                !
 ! D17   D(1,2,32,59)          120.6461         estimate D2E/DX2                !
 ! D18   D(1,2,32,60)         -120.7927         estimate D2E/DX2                !
 ! D19   D(1,2,32,61)           -0.1232         estimate D2E/DX2                !
 ! D20   D(3,2,32,59)          -62.0344         estimate D2E/DX2                !
 ! D21   D(3,2,32,60)           56.5269         estimate D2E/DX2                !
 ! D22   D(3,2,32,61)          177.1964         estimate D2E/DX2                !
 ! D23   D(2,3,4,5)             17.9972         estimate D2E/DX2                !
 ! D24   D(2,3,4,7)            145.1084         estimate D2E/DX2                !
 ! D25   D(2,3,4,24)          -101.8161         estimate D2E/DX2                !
 ! D26   D(20,3,4,5)          -107.594          estimate D2E/DX2                !
 ! D27   D(20,3,4,7)            19.5172         estimate D2E/DX2                !
 ! D28   D(20,3,4,24)          132.5927         estimate D2E/DX2                !
 ! D29   D(31,3,4,5)           139.1179         estimate D2E/DX2                !
 ! D30   D(31,3,4,7)           -93.771          estimate D2E/DX2                !
 ! D31   D(31,3,4,24)           19.3046         estimate D2E/DX2                !
 ! D32   D(2,3,20,17)         -164.8707         estimate D2E/DX2                !
 ! D33   D(2,3,20,42)           72.3426         estimate D2E/DX2                !
 ! D34   D(2,3,20,43)          -46.2902         estimate D2E/DX2                !
 ! D35   D(4,3,20,17)          -37.3398         estimate D2E/DX2                !
 ! D36   D(4,3,20,42)         -160.1265         estimate D2E/DX2                !
 ! D37   D(4,3,20,43)           81.2407         estimate D2E/DX2                !
 ! D38   D(31,3,20,17)          74.1168         estimate D2E/DX2                !
 ! D39   D(31,3,20,42)         -48.6698         estimate D2E/DX2                !
 ! D40   D(31,3,20,43)        -167.3026         estimate D2E/DX2                !
 ! D41   D(3,4,5,6)             19.7723         estimate D2E/DX2                !
 ! D42   D(3,4,5,10)           139.0674         estimate D2E/DX2                !
 ! D43   D(3,4,5,22)           -99.8529         estimate D2E/DX2                !
 ! D44   D(7,4,5,6)           -101.5515         estimate D2E/DX2                !
 ! D45   D(7,4,5,10)            17.7436         estimate D2E/DX2                !
 ! D46   D(7,4,5,22)           138.8233         estimate D2E/DX2                !
 ! D47   D(24,4,5,6)           141.9697         estimate D2E/DX2                !
 ! D48   D(24,4,5,10)          -98.7352         estimate D2E/DX2                !
 ! D49   D(24,4,5,22)           22.3445         estimate D2E/DX2                !
 ! D50   D(3,4,7,8)           -105.9281         estimate D2E/DX2                !
 ! D51   D(3,4,7,17)             4.9415         estimate D2E/DX2                !
 ! D52   D(3,4,7,21)           131.804          estimate D2E/DX2                !
 ! D53   D(5,4,7,8)             21.6752         estimate D2E/DX2                !
 ! D54   D(5,4,7,17)           132.5448         estimate D2E/DX2                !
 ! D55   D(5,4,7,21)          -100.5927         estimate D2E/DX2                !
 ! D56   D(24,4,7,8)           138.0142         estimate D2E/DX2                !
 ! D57   D(24,4,7,17)         -111.1162         estimate D2E/DX2                !
 ! D58   D(24,4,7,21)           15.7463         estimate D2E/DX2                !
 ! D59   D(3,4,24,23)          108.0809         estimate D2E/DX2                !
 ! D60   D(5,4,24,23)          -17.6865         estimate D2E/DX2                !
 ! D61   D(7,4,24,23)         -140.1649         estimate D2E/DX2                !
 ! D62   D(4,5,6,1)            -46.3631         estimate D2E/DX2                !
 ! D63   D(4,5,6,34)            77.1214         estimate D2E/DX2                !
 ! D64   D(4,5,6,35)          -168.5743         estimate D2E/DX2                !
 ! D65   D(10,5,6,1)          -169.8072         estimate D2E/DX2                !
 ! D66   D(10,5,6,34)          -46.3227         estimate D2E/DX2                !
 ! D67   D(10,5,6,35)           67.9816         estimate D2E/DX2                !
 ! D68   D(22,5,6,1)            69.5848         estimate D2E/DX2                !
 ! D69   D(22,5,6,34)         -166.9307         estimate D2E/DX2                !
 ! D70   D(22,5,6,35)          -52.6263         estimate D2E/DX2                !
 ! D71   D(4,5,10,9)           -47.989          estimate D2E/DX2                !
 ! D72   D(4,5,10,16)          139.2157         estimate D2E/DX2                !
 ! D73   D(6,5,10,9)            75.7074         estimate D2E/DX2                !
 ! D74   D(6,5,10,16)          -97.0879         estimate D2E/DX2                !
 ! D75   D(22,5,10,9)         -164.5931         estimate D2E/DX2                !
 ! D76   D(22,5,10,16)          22.6116         estimate D2E/DX2                !
 ! D77   D(4,5,22,23)          -19.2883         estimate D2E/DX2                !
 ! D78   D(4,5,22,45)         -140.742          estimate D2E/DX2                !
 ! D79   D(4,5,22,46)           99.9182         estimate D2E/DX2                !
 ! D80   D(6,5,22,23)         -140.7918         estimate D2E/DX2                !
 ! D81   D(6,5,22,45)           97.7545         estimate D2E/DX2                !
 ! D82   D(6,5,22,46)          -21.5853         estimate D2E/DX2                !
 ! D83   D(10,5,22,23)         102.4693         estimate D2E/DX2                !
 ! D84   D(10,5,22,45)         -18.9844         estimate D2E/DX2                !
 ! D85   D(10,5,22,46)        -138.3242         estimate D2E/DX2                !
 ! D86   D(4,7,8,9)            -39.6335         estimate D2E/DX2                !
 ! D87   D(4,7,8,19)           139.9312         estimate D2E/DX2                !
 ! D88   D(17,7,8,9)          -155.011          estimate D2E/DX2                !
 ! D89   D(17,7,8,19)           24.5537         estimate D2E/DX2                !
 ! D90   D(21,7,8,9)            84.9101         estimate D2E/DX2                !
 ! D91   D(21,7,8,19)          -95.5252         estimate D2E/DX2                !
 ! D92   D(4,7,17,18)         -150.8013         estimate D2E/DX2                !
 ! D93   D(4,7,17,20)          -27.4861         estimate D2E/DX2                !
 ! D94   D(4,7,17,30)           90.5256         estimate D2E/DX2                !
 ! D95   D(8,7,17,18)          -31.8503         estimate D2E/DX2                !
 ! D96   D(8,7,17,20)           91.4649         estimate D2E/DX2                !
 ! D97   D(8,7,17,30)         -150.5233         estimate D2E/DX2                !
 ! D98   D(21,7,17,18)          83.6095         estimate D2E/DX2                !
 ! D99   D(21,7,17,20)        -153.0753         estimate D2E/DX2                !
 ! D100  D(21,7,17,30)         -35.0636         estimate D2E/DX2                !
 ! D101  D(4,7,21,44)          -19.7844         estimate D2E/DX2                !
 ! D102  D(8,7,21,44)         -144.9623         estimate D2E/DX2                !
 ! D103  D(17,7,21,44)         103.7849         estimate D2E/DX2                !
 ! D104  D(7,8,9,10)            10.6569         estimate D2E/DX2                !
 ! D105  D(7,8,9,11)          -177.132          estimate D2E/DX2                !
 ! D106  D(19,8,9,10)         -168.8422         estimate D2E/DX2                !
 ! D107  D(19,8,9,11)            3.369          estimate D2E/DX2                !
 ! D108  D(7,8,19,18)           -6.3451         estimate D2E/DX2                !
 ! D109  D(9,8,19,18)          173.2072         estimate D2E/DX2                !
 ! D110  D(8,9,10,5)            34.6811         estimate D2E/DX2                !
 ! D111  D(8,9,10,16)         -152.6461         estimate D2E/DX2                !
 ! D112  D(11,9,10,5)         -138.1318         estimate D2E/DX2                !
 ! D113  D(11,9,10,16)          34.541          estimate D2E/DX2                !
 ! D114  D(8,9,11,12)         -135.4988         estimate D2E/DX2                !
 ! D115  D(8,9,11,13)           48.2547         estimate D2E/DX2                !
 ! D116  D(10,9,11,12)          36.5889         estimate D2E/DX2                !
 ! D117  D(10,9,11,13)        -139.6575         estimate D2E/DX2                !
 ! D118  D(9,11,13,14)        -153.9214         estimate D2E/DX2                !
 ! D119  D(9,11,13,15)          83.3506         estimate D2E/DX2                !
 ! D120  D(9,11,13,36)         -33.0022         estimate D2E/DX2                !
 ! D121  D(12,11,13,14)         29.9171         estimate D2E/DX2                !
 ! D122  D(12,11,13,15)        -92.811          estimate D2E/DX2                !
 ! D123  D(12,11,13,36)        150.8362         estimate D2E/DX2                !
 ! D124  D(11,13,14,37)        -55.6412         estimate D2E/DX2                !
 ! D125  D(11,13,14,38)       -171.3384         estimate D2E/DX2                !
 ! D126  D(11,13,14,62)         66.7347         estimate D2E/DX2                !
 ! D127  D(15,13,14,37)         64.3939         estimate D2E/DX2                !
 ! D128  D(15,13,14,38)        -51.3033         estimate D2E/DX2                !
 ! D129  D(15,13,14,62)       -173.2302         estimate D2E/DX2                !
 ! D130  D(36,13,14,37)       -176.0151         estimate D2E/DX2                !
 ! D131  D(36,13,14,38)         68.2878         estimate D2E/DX2                !
 ! D132  D(36,13,14,62)        -53.6392         estimate D2E/DX2                !
 ! D133  D(11,13,15,39)         63.6957         estimate D2E/DX2                !
 ! D134  D(11,13,15,40)        -56.478          estimate D2E/DX2                !
 ! D135  D(11,13,15,41)       -176.6205         estimate D2E/DX2                !
 ! D136  D(14,13,15,39)        -59.2453         estimate D2E/DX2                !
 ! D137  D(14,13,15,40)       -179.419          estimate D2E/DX2                !
 ! D138  D(14,13,15,41)         60.4385         estimate D2E/DX2                !
 ! D139  D(36,13,15,39)       -179.6534         estimate D2E/DX2                !
 ! D140  D(36,13,15,40)         60.1729         estimate D2E/DX2                !
 ! D141  D(36,13,15,41)        -59.9696         estimate D2E/DX2                !
 ! D142  D(13,14,62,63)         57.3053         estimate D2E/DX2                !
 ! D143  D(13,14,62,64)        -62.9479         estimate D2E/DX2                !
 ! D144  D(13,14,62,65)        177.3522         estimate D2E/DX2                !
 ! D145  D(37,14,62,63)        179.1472         estimate D2E/DX2                !
 ! D146  D(37,14,62,64)         58.894          estimate D2E/DX2                !
 ! D147  D(37,14,62,65)        -60.8059         estimate D2E/DX2                !
 ! D148  D(38,14,62,63)        -63.8375         estimate D2E/DX2                !
 ! D149  D(38,14,62,64)        175.9092         estimate D2E/DX2                !
 ! D150  D(38,14,62,65)         56.2094         estimate D2E/DX2                !
 ! D151  D(7,17,18,19)          29.0923         estimate D2E/DX2                !
 ! D152  D(7,17,18,28)         -86.1458         estimate D2E/DX2                !
 ! D153  D(7,17,18,29)         144.4018         estimate D2E/DX2                !
 ! D154  D(20,17,18,19)        -83.1804         estimate D2E/DX2                !
 ! D155  D(20,17,18,28)        161.5815         estimate D2E/DX2                !
 ! D156  D(20,17,18,29)         32.1291         estimate D2E/DX2                !
 ! D157  D(30,17,18,19)        147.4718         estimate D2E/DX2                !
 ! D158  D(30,17,18,28)         32.2337         estimate D2E/DX2                !
 ! D159  D(30,17,18,29)        -97.2187         estimate D2E/DX2                !
 ! D160  D(7,17,20,3)           39.5327         estimate D2E/DX2                !
 ! D161  D(7,17,20,42)         161.7077         estimate D2E/DX2                !
 ! D162  D(7,17,20,43)         -77.9115         estimate D2E/DX2                !
 ! D163  D(18,17,20,3)         152.2601         estimate D2E/DX2                !
 ! D164  D(18,17,20,42)        -85.5649         estimate D2E/DX2                !
 ! D165  D(18,17,20,43)         34.8159         estimate D2E/DX2                !
 ! D166  D(30,17,20,3)         -78.3081         estimate D2E/DX2                !
 ! D167  D(30,17,20,42)         43.8669         estimate D2E/DX2                !
 ! D168  D(30,17,20,43)        164.2477         estimate D2E/DX2                !
 ! D169  D(17,18,19,8)         -14.8228         estimate D2E/DX2                !
 ! D170  D(28,18,19,8)         103.7866         estimate D2E/DX2                !
 ! D171  D(29,18,19,8)        -137.1336         estimate D2E/DX2                !
 ! D172  D(17,18,28,53)        -71.7082         estimate D2E/DX2                !
 ! D173  D(17,18,28,54)         48.3424         estimate D2E/DX2                !
 ! D174  D(17,18,28,55)        169.1491         estimate D2E/DX2                !
 ! D175  D(19,18,28,53)        175.7753         estimate D2E/DX2                !
 ! D176  D(19,18,28,54)        -64.1741         estimate D2E/DX2                !
 ! D177  D(19,18,28,55)         56.6326         estimate D2E/DX2                !
 ! D178  D(29,18,28,53)         60.1518         estimate D2E/DX2                !
 ! D179  D(29,18,28,54)       -179.7976         estimate D2E/DX2                !
 ! D180  D(29,18,28,55)        -58.9909         estimate D2E/DX2                !
 ! D181  D(17,18,29,56)       -176.0837         estimate D2E/DX2                !
 ! D182  D(17,18,29,57)        -55.7972         estimate D2E/DX2                !
 ! D183  D(17,18,29,58)         64.8702         estimate D2E/DX2                !
 ! D184  D(19,18,29,56)        -62.4728         estimate D2E/DX2                !
 ! D185  D(19,18,29,57)         57.8137         estimate D2E/DX2                !
 ! D186  D(19,18,29,58)        178.481          estimate D2E/DX2                !
 ! D187  D(28,18,29,56)         54.0342         estimate D2E/DX2                !
 ! D188  D(28,18,29,57)        174.3207         estimate D2E/DX2                !
 ! D189  D(28,18,29,58)        -65.0119         estimate D2E/DX2                !
 ! D190  D(5,22,23,24)           9.5482         estimate D2E/DX2                !
 ! D191  D(5,22,23,25)        -114.5911         estimate D2E/DX2                !
 ! D192  D(5,22,23,47)         124.3018         estimate D2E/DX2                !
 ! D193  D(45,22,23,24)        128.9309         estimate D2E/DX2                !
 ! D194  D(45,22,23,25)          4.7916         estimate D2E/DX2                !
 ! D195  D(45,22,23,47)       -116.3155         estimate D2E/DX2                !
 ! D196  D(46,22,23,24)       -109.6053         estimate D2E/DX2                !
 ! D197  D(46,22,23,25)        126.2554         estimate D2E/DX2                !
 ! D198  D(46,22,23,47)          5.1482         estimate D2E/DX2                !
 ! D199  D(22,23,24,4)           5.2527         estimate D2E/DX2                !
 ! D200  D(25,23,24,4)         130.1183         estimate D2E/DX2                !
 ! D201  D(47,23,24,4)        -111.7176         estimate D2E/DX2                !
 ! D202  D(22,23,25,26)        -85.5978         estimate D2E/DX2                !
 ! D203  D(22,23,25,27)         91.9863         estimate D2E/DX2                !
 ! D204  D(24,23,25,26)        153.9093         estimate D2E/DX2                !
 ! D205  D(24,23,25,27)        -28.5066         estimate D2E/DX2                !
 ! D206  D(47,23,25,26)         36.5588         estimate D2E/DX2                !
 ! D207  D(47,23,25,27)       -145.8571         estimate D2E/DX2                !
 ! D208  D(23,25,26,48)        -61.9633         estimate D2E/DX2                !
 ! D209  D(23,25,26,49)         56.7858         estimate D2E/DX2                !
 ! D210  D(23,25,26,50)        177.0918         estimate D2E/DX2                !
 ! D211  D(27,25,26,48)        120.4149         estimate D2E/DX2                !
 ! D212  D(27,25,26,49)       -120.836          estimate D2E/DX2                !
 ! D213  D(27,25,26,50)         -0.53           estimate D2E/DX2                !
 ! D214  D(23,25,27,51)       -178.0788         estimate D2E/DX2                !
 ! D215  D(23,25,27,52)          0.064          estimate D2E/DX2                !
 ! D216  D(26,25,27,51)         -0.6951         estimate D2E/DX2                !
 ! D217  D(26,25,27,52)        177.4477         estimate D2E/DX2                !
 --------------------------------------------------------------------------------
 Trust Radius=3.00D-01 FncErr=1.00D-07 GrdErr=1.00D-06
 Number of steps in this run=    390 maximum allowed number of steps=    390.
 GradGradGradGradGradGradGradGradGradGradGradGradGradGradGradGradGradGrad

 Stoichiometry    C26H34O5
 Framework group  C1[X(C26H34O5)]
 Deg. of freedom   189
 Full point group                 C1      NOp   1
 Largest Abelian subgroup         C1      NOp   1
 Largest concise Abelian subgroup C1      NOp   1
                         Standard orientation:                         
 ---------------------------------------------------------------------
 Center     Atomic      Atomic             Coordinates (Angstroms)
 Number     Number       Type             X           Y           Z
 ---------------------------------------------------------------------
      1          6           0       -1.914870    1.252681   -2.687475
      2          6           0       -2.323409    2.119047   -1.752411
      3          6           0       -1.805608    1.989946   -0.337443
      4          6           0       -1.476582    0.537927    0.145789
      5          6           0       -1.299228   -0.526189   -0.977043
      6          6           0       -0.996262    0.101789   -2.371367
      7          6           0       -0.228291    0.726542    1.087748
      8          6           0        1.068651    0.256427    0.458433
      9          6           0        1.166930   -0.862148   -0.298153
     10          6           0       -0.117771   -1.500383   -0.699026
     11          6           0        2.435953   -1.401470   -0.891103
     12          8           0        2.443424   -1.786994   -2.049463
     13          6           0        3.666748   -1.532011    0.008325
     14          6           0        4.975971   -1.464168   -0.793048
     15          6           0        3.531161   -2.871339    0.768920
     16          8           0       -0.215630   -2.691298   -0.931915
     17          6           0        0.048131    2.239438    1.227464
     18          6           0        1.575017    2.302293    1.464085
     19          8           0        2.074577    1.098222    0.748412
     20          6           0       -0.505458    2.802119   -0.092049
     21          8           0       -0.385272    0.048757    2.319624
     22          6           0       -2.652613   -1.266460   -1.006713
     23          6           0       -3.332054   -0.973655    0.350998
     24          8           0       -2.531118    0.045892    0.983371
     25          6           0       -3.505651   -2.203527    1.225105
     26          6           0       -4.762574   -2.986350    0.933861
     27          6           0       -2.613448   -2.597581    2.136387
     28          6           0        1.938020    2.140773    2.942302
     29          6           0        2.299926    3.491764    0.842431
     30          1           0       -0.496758    2.650840    2.082686
     31          1           0       -2.563808    2.358077    0.366500
     32          6           0       -3.242878    3.275324   -2.045609
     33          1           0       -2.248402    1.367755   -3.717673
     34          1           0        0.054358    0.420515   -2.415758
     35          1           0       -1.091500   -0.688891   -3.123724
     36          1           0        3.647198   -0.720263    0.744211
     37          1           0        4.950681   -2.235557   -1.571161
     38          1           0        5.803800   -1.718592   -0.117461
     39          1           0        3.552225   -3.714144    0.069264
     40          1           0        2.592942   -2.923092    1.331731
     41          1           0        4.360231   -2.988734    1.475852
     42          1           0       -0.691602    3.879986   -0.055590
     43          1           0        0.193699    2.623263   -0.917497
     44          1           0       -1.351817   -0.093563    2.395752
     45          1           0       -2.476273   -2.333148   -1.163330
     46          1           0       -3.269340   -0.888589   -1.826034
     47          1           0       -4.325236   -0.533643    0.184025
     48          1           0       -5.661253   -2.382136    1.120795
     49          1           0       -4.805205   -3.294912   -0.120086
     50          1           0       -4.821936   -3.888772    1.548710
     51          1           0       -2.771669   -3.503747    2.714994
     52          1           0       -1.689690   -2.062461    2.322420
     53          1           0        1.655113    3.041667    3.498764
     54          1           0        1.417930    1.285162    3.379257
     55          1           0        3.018181    1.997213    3.049385
     56          1           0        3.378343    3.404525    1.008824
     57          1           0        2.126019    3.556875   -0.234586
     58          1           0        1.957438    4.422650    1.307468
     59          1           0       -4.164679    3.209717   -1.450911
     60          1           0       -2.775541    4.236323   -1.789236
     61          1           0       -3.522199    3.309703   -3.103461
     62          6           0        5.238493   -0.096631   -1.433105
     63          1           0        5.254502    0.700208   -0.678847
     64          1           0        4.463185    0.148669   -2.166472
     65          1           0        6.203387   -0.084482   -1.952857
 ---------------------------------------------------------------------
 Rotational constants (GHZ):      0.2029600      0.1325474      0.1122454
 Standard basis: 6-311+G(d) (5D, 7F)
 There are   784 symmetry adapted basis functions of A   symmetry.
 Integral buffers will be    131072 words long.
 Raffenetti 2 integral format.
 Two-electron integral symmetry is turned on.
   784 basis functions,  1286 primitive gaussians,   815 cartesian basis functions
   115 alpha electrons      115 beta electrons
       nuclear repulsion energy      3517.6374544685 Hartrees.
 NAtoms=   65 NActive=   65 NUniq=   65 SFac= 1.00D+00 NAtFMM=   50 NAOKFM=T Big=T
 One-electron integrals computed using PRISM.
 NBasis=   784 RedAO= T  NBF=   784
 NBsUse=   778 1.00D-06 NBFU=   778
 Harris functional with IExCor=  402 diagonalized for initial guess.
 ExpMin= 4.38D-02 ExpMax= 8.59D+03 ExpMxC= 1.30D+03 IAcc=2 IRadAn=         0 AccDes= 0.00D+00
 HarFok:  IExCor=  402 AccDes= 0.00D+00 IRadAn=         0 IDoV= 1
 ScaDFX=  1.000000  1.000000  1.000000  1.000000
 FoFCou: FMM=F IPFlag=           0 FMFlag=      100000 FMFlg1=        2001
         NFxFlg=           0 DoJE=T BraDBF=F KetDBF=T FulRan=T
         Omega=  0.000000  0.000000  1.000000  0.000000  0.000000 ICntrl=     500 IOpCl=  0
         NMat0=    1 NMatS0=    1 NMatT0=    0 NMatD0=    1 NMtDS0=    0 NMtDT0=    0
         I1Cent=           4 NGrid=           0.
 Petite list used in FoFCou.
 Initial guess orbital symmetries:
       Occupied  (A) (A) (A) (A) (A) (A) (A) (A) (A) (A) (A) (A)
                 (A) (A) (A) (A) (A) (A) (A) (A) (A) (A) (A) (A)
                 (A) (A) (A) (A) (A) (A) (A) (A) (A) (A) (A) (A)
                 (A) (A) (A) (A) (A) (A) (A) (A) (A) (A) (A) (A)
                 (A) (A) (A) (A) (A) (A) (A) (A) (A) (A) (A) (A)
                 (A) (A) (A) (A) (A) (A) (A) (A) (A) (A) (A) (A)
                 (A) (A) (A) (A) (A) (A) (A) (A) (A) (A) (A) (A)
                 (A) (A) (A) (A) (A) (A) (A) (A) (A) (A) (A) (A)
                 (A) (A) (A) (A) (A) (A) (A) (A) (A) (A) (A) (A)
                 (A) (A) (A) (A) (A) (A) (A)
       Virtual   (A) (A) (A) (A) (A) (A) (A) (A) (A) (A) (A) (A)
                 (A) (A) (A) (A) (A) (A) (A) (A) (A) (A) (A) (A)
                 (A) (A) (A) (A) (A) (A) (A) (A) (A) (A) (A) (A)
                 (A) (A) (A) (A) (A) (A) (A) (A) (A) (A) (A) (A)
                 (A) (A) (A) (A) (A) (A) (A) (A) (A) (A) (A) (A)
                 (A) (A) (A) (A) (A) (A) (A) (A) (A) (A) (A) (A)
                 (A) (A) (A) (A) (A) (A) (A) (A) (A) (A) (A) (A)
                 (A) (A) (A) (A) (A) (A) (A) (A) (A) (A) (A) (A)
                 (A) (A) (A) (A) (A) (A) (A) (A) (A) (A) (A) (A)
                 (A) (A) (A) (A) (A) (A) (A) (A) (A) (A) (A) (A)
                 (A) (A) (A) (A) (A) (A) (A) (A) (A) (A) (A) (A)
                 (A) (A) (A) (A) (A) (A) (A) (A) (A) (A) (A) (A)
                 (A) (A) (A) (A) (A) (A) (A) (A) (A) (A) (A) (A)
                 (A) (A) (A) (A) (A) (A) (A) (A) (A) (A) (A) (A)
                 (A) (A) (A) (A) (A) (A) (A) (A) (A) (A) (A) (A)
                 (A) (A) (A) (A) (A) (A) (A) (A) (A) (A) (A) (A)
                 (A) (A) (A) (A) (A) (A) (A) (A) (A) (A) (A) (A)
                 (A) (A) (A) (A) (A) (A) (A) (A) (A) (A) (A) (A)
                 (A) (A) (A) (A) (A) (A) (A) (A) (A) (A) (A) (A)
                 (A) (A) (A) (A) (A) (A) (A) (A) (A) (A) (A) (A)
                 (A) (A) (A) (A) (A) (A) (A) (A) (A) (A) (A) (A)
                 (A) (A) (A) (A) (A) (A) (A) (A) (A) (A) (A) (A)
                 (A) (A) (A) (A) (A) (A) (A) (A) (A) (A) (A) (A)
                 (A) (A) (A) (A) (A) (A) (A) (A) (A) (A) (A) (A)
                 (A) (A) (A) (A) (A) (A) (A) (A) (A) (A) (A) (A)
                 (A) (A) (A) (A) (A) (A) (A) (A) (A) (A) (A) (A)
                 (A) (A) (A) (A) (A) (A) (A) (A) (A) (A) (A) (A)
                 (A) (A) (A) (A) (A) (A) (A) (A) (A) (A) (A) (A)
                 (A) (A) (A) (A) (A) (A) (A) (A) (A) (A) (A) (A)
                 (A) (A) (A) (A) (A) (A) (A) (A) (A) (A) (A) (A)
                 (A) (A) (A) (A) (A) (A) (A) (A) (A) (A) (A) (A)
                 (A) (A) (A) (A) (A) (A) (A) (A) (A) (A) (A) (A)
                 (A) (A) (A) (A) (A) (A) (A) (A) (A) (A) (A) (A)
                 (A) (A) (A) (A) (A) (A) (A) (A) (A) (A) (A) (A)
                 (A) (A) (A) (A) (A) (A) (A) (A) (A) (A) (A) (A)
                 (A) (A) (A) (A) (A) (A) (A) (A) (A) (A) (A) (A)
                 (A) (A) (A) (A) (A) (A) (A) (A) (A) (A) (A) (A)
                 (A) (A) (A) (A) (A) (A) (A) (A) (A) (A) (A) (A)
                 (A) (A) (A) (A) (A) (A) (A) (A) (A) (A) (A) (A)
                 (A) (A) (A) (A) (A) (A) (A) (A) (A) (A) (A) (A)
                 (A) (A) (A) (A) (A) (A) (A) (A) (A) (A) (A) (A)
                 (A) (A) (A) (A) (A) (A) (A) (A) (A) (A) (A) (A)
                 (A) (A) (A) (A) (A) (A) (A) (A) (A) (A) (A) (A)
                 (A) (A) (A) (A) (A) (A) (A) (A) (A) (A) (A) (A)
                 (A) (A) (A) (A) (A) (A) (A) (A) (A) (A) (A) (A)
                 (A) (A) (A) (A) (A) (A) (A) (A) (A) (A) (A) (A)
                 (A) (A) (A) (A) (A) (A) (A) (A) (A) (A) (A) (A)
                 (A) (A) (A) (A) (A) (A) (A) (A) (A) (A) (A) (A)
                 (A) (A) (A) (A) (A) (A) (A) (A) (A) (A) (A) (A)
                 (A) (A) (A) (A) (A) (A) (A) (A) (A) (A) (A) (A)
                 (A) (A) (A) (A) (A) (A) (A) (A) (A) (A) (A) (A)
                 (A) (A) (A) (A) (A) (A) (A) (A) (A) (A) (A) (A)
                 (A) (A) (A) (A) (A) (A) (A) (A) (A) (A) (A) (A)
                 (A) (A) (A) (A) (A) (A) (A) (A) (A) (A) (A) (A)
                 (A) (A) (A) (A) (A) (A) (A) (A) (A) (A) (A) (A)
                 (A) (A) (A)
 The electronic state of the initial guess is 1-A.
 Requested convergence on RMS density matrix=1.00D-08 within 128 cycles.
 Requested convergence on MAX density matrix=1.00D-06.
 Requested convergence on             energy=1.00D-06.
 No special actions if energy rises.
 SCF Done:  E(RB3LYP) =  -1387.64688798     A.U. after   18 cycles
             Convg  =    0.4316D-08             -V/T =  2.0043

 **********************************************************************

            Population analysis using the SCF density.

 **********************************************************************

 Orbital symmetries:
       Occupied  (A) (A) (A) (A) (A) (A) (A) (A) (A) (A) (A) (A)
                 (A) (A) (A) (A) (A) (A) (A) (A) (A) (A) (A) (A)
                 (A) (A) (A) (A) (A) (A) (A) (A) (A) (A) (A) (A)
                 (A) (A) (A) (A) (A) (A) (A) (A) (A) (A) (A) (A)
                 (A) (A) (A) (A) (A) (A) (A) (A) (A) (A) (A) (A)
                 (A) (A) (A) (A) (A) (A) (A) (A) (A) (A) (A) (A)
                 (A) (A) (A) (A) (A) (A) (A) (A) (A) (A) (A) (A)
                 (A) (A) (A) (A) (A) (A) (A) (A) (A) (A) (A) (A)
                 (A) (A) (A) (A) (A) (A) (A) (A) (A) (A) (A) (A)
                 (A) (A) (A) (A) (A) (A) (A)
       Virtual   (A) (A) (A) (A) (A) (A) (A) (A) (A) (A) (A) (A)
                 (A) (A) (A) (A) (A) (A) (A) (A) (A) (A) (A) (A)
                 (A) (A) (A) (A) (A) (A) (A) (A) (A) (A) (A) (A)
                 (A) (A) (A) (A) (A) (A) (A) (A) (A) (A) (A) (A)
                 (A) (A) (A) (A) (A) (A) (A) (A) (A) (A) (A) (A)
                 (A) (A) (A) (A) (A) (A) (A) (A) (A) (A) (A) (A)
                 (A) (A) (A) (A) (A) (A) (A) (A) (A) (A) (A) (A)
                 (A) (A) (A) (A) (A) (A) (A) (A) (A) (A) (A) (A)
                 (A) (A) (A) (A) (A) (A) (A) (A) (A) (A) (A) (A)
                 (A) (A) (A) (A) (A) (A) (A) (A) (A) (A) (A) (A)
                 (A) (A) (A) (A) (A) (A) (A) (A) (A) (A) (A) (A)
                 (A) (A) (A) (A) (A) (A) (A) (A) (A) (A) (A) (A)
                 (A) (A) (A) (A) (A) (A) (A) (A) (A) (A) (A) (A)
                 (A) (A) (A) (A) (A) (A) (A) (A) (A) (A) (A) (A)
                 (A) (A) (A) (A) (A) (A) (A) (A) (A) (A) (A) (A)
                 (A) (A) (A) (A) (A) (A) (A) (A) (A) (A) (A) (A)
                 (A) (A) (A) (A) (A) (A) (A) (A) (A) (A) (A) (A)
                 (A) (A) (A) (A) (A) (A) (A) (A) (A) (A) (A) (A)
                 (A) (A) (A) (A) (A) (A) (A) (A) (A) (A) (A) (A)
                 (A) (A) (A) (A) (A) (A) (A) (A) (A) (A) (A) (A)
                 (A) (A) (A) (A) (A) (A) (A) (A) (A) (A) (A) (A)
                 (A) (A) (A) (A) (A) (A) (A) (A) (A) (A) (A) (A)
                 (A) (A) (A) (A) (A) (A) (A) (A) (A) (A) (A) (A)
                 (A) (A) (A) (A) (A) (A) (A) (A) (A) (A) (A) (A)
                 (A) (A) (A) (A) (A) (A) (A) (A) (A) (A) (A) (A)
                 (A) (A) (A) (A) (A) (A) (A) (A) (A) (A) (A) (A)
                 (A) (A) (A) (A) (A) (A) (A) (A) (A) (A) (A) (A)
                 (A) (A) (A) (A) (A) (A) (A) (A) (A) (A) (A) (A)
                 (A) (A) (A) (A) (A) (A) (A) (A) (A) (A) (A) (A)
                 (A) (A) (A) (A) (A) (A) (A) (A) (A) (A) (A) (A)
                 (A) (A) (A) (A) (A) (A) (A) (A) (A) (A) (A) (A)
                 (A) (A) (A) (A) (A) (A) (A) (A) (A) (A) (A) (A)
                 (A) (A) (A) (A) (A) (A) (A) (A) (A) (A) (A) (A)
                 (A) (A) (A) (A) (A) (A) (A) (A) (A) (A) (A) (A)
                 (A) (A) (A) (A) (A) (A) (A) (A) (A) (A) (A) (A)
                 (A) (A) (A) (A) (A) (A) (A) (A) (A) (A) (A) (A)
                 (A) (A) (A) (A) (A) (A) (A) (A) (A) (A) (A) (A)
                 (A) (A) (A) (A) (A) (A) (A) (A) (A) (A) (A) (A)
                 (A) (A) (A) (A) (A) (A) (A) (A) (A) (A) (A) (A)
                 (A) (A) (A) (A) (A) (A) (A) (A) (A) (A) (A) (A)
                 (A) (A) (A) (A) (A) (A) (A) (A) (A) (A) (A) (A)
                 (A) (A) (A) (A) (A) (A) (A) (A) (A) (A) (A) (A)
                 (A) (A) (A) (A) (A) (A) (A) (A) (A) (A) (A) (A)
                 (A) (A) (A) (A) (A) (A) (A) (A) (A) (A) (A) (A)
                 (A) (A) (A) (A) (A) (A) (A) (A) (A) (A) (A) (A)
                 (A) (A) (A) (A) (A) (A) (A) (A) (A) (A) (A) (A)
                 (A) (A) (A) (A) (A) (A) (A) (A) (A) (A) (A) (A)
                 (A) (A) (A) (A) (A) (A) (A) (A) (A) (A) (A) (A)
                 (A) (A) (A) (A) (A) (A) (A) (A) (A) (A) (A) (A)
                 (A) (A) (A) (A) (A) (A) (A) (A) (A) (A) (A) (A)
                 (A) (A) (A) (A) (A) (A) (A) (A) (A) (A) (A) (A)
                 (A) (A) (A) (A) (A) (A) (A) (A) (A) (A) (A) (A)
                 (A) (A) (A) (A) (A) (A) (A) (A) (A) (A) (A) (A)
                 (A) (A) (A) (A) (A) (A) (A) (A) (A) (A) (A) (A)
                 (A) (A) (A) (A) (A) (A) (A) (A) (A) (A) (A) (A)
                 (A) (A) (A)
 The electronic state is 1-A.
 Alpha  occ. eigenvalues --  -19.17951 -19.14970 -19.13535 -19.11100 -19.10534
 Alpha  occ. eigenvalues --  -10.26431 -10.26385 -10.26180 -10.25829 -10.25707
 Alpha  occ. eigenvalues --  -10.25644 -10.23972 -10.20825 -10.19917 -10.19766
 Alpha  occ. eigenvalues --  -10.19369 -10.19026 -10.18667 -10.18629 -10.18373
 Alpha  occ. eigenvalues --  -10.18189 -10.17915 -10.17728 -10.17670 -10.17354
 Alpha  occ. eigenvalues --  -10.17283 -10.17240 -10.16052 -10.15747 -10.15701
 Alpha  occ. eigenvalues --  -10.14854  -1.10283  -1.07429  -1.04630  -1.03603
 Alpha  occ. eigenvalues --   -1.03377  -0.88061  -0.84877  -0.83055  -0.82168
 Alpha  occ. eigenvalues --   -0.80829  -0.80246  -0.77799  -0.74814  -0.74055
 Alpha  occ. eigenvalues --   -0.73195  -0.72364  -0.71081  -0.69501  -0.69087
 Alpha  occ. eigenvalues --   -0.65771  -0.64990  -0.64104  -0.62739  -0.61744
 Alpha  occ. eigenvalues --   -0.60072  -0.59818  -0.57677  -0.55811  -0.54606
 Alpha  occ. eigenvalues --   -0.54084  -0.52876  -0.51848  -0.50780  -0.50123
 Alpha  occ. eigenvalues --   -0.49338  -0.48437  -0.48082  -0.47496  -0.47020
 Alpha  occ. eigenvalues --   -0.45909  -0.45468  -0.45198  -0.44219  -0.43967
 Alpha  occ. eigenvalues --   -0.43479  -0.43184  -0.42794  -0.42387  -0.42096
 Alpha  occ. eigenvalues --   -0.41832  -0.41779  -0.41422  -0.40961  -0.40824
 Alpha  occ. eigenvalues --   -0.40363  -0.40184  -0.39796  -0.39556  -0.38993
 Alpha  occ. eigenvalues --   -0.38609  -0.38508  -0.38254  -0.37253  -0.37031
 Alpha  occ. eigenvalues --   -0.36712  -0.36378  -0.36285  -0.35762  -0.35511
 Alpha  occ. eigenvalues --   -0.35023  -0.34635  -0.34088  -0.33511  -0.33189
 Alpha  occ. eigenvalues --   -0.32732  -0.32456  -0.31869  -0.29062  -0.28664
 Alpha  occ. eigenvalues --   -0.26062  -0.25527  -0.25420  -0.24696  -0.24041
 Alpha virt. eigenvalues --   -0.05819  -0.03390  -0.01506  -0.00797  -0.00517
 Alpha virt. eigenvalues --    0.00028   0.00341   0.00563   0.01479   0.01816
 Alpha virt. eigenvalues --    0.02100   0.02274   0.02608   0.03171   0.03599
 Alpha virt. eigenvalues --    0.03633   0.04096   0.04224   0.04609   0.04711
 Alpha virt. eigenvalues --    0.04948   0.05505   0.05664   0.05855   0.06361
 Alpha virt. eigenvalues --    0.06440   0.06525   0.07113   0.07233   0.07355
 Alpha virt. eigenvalues --    0.07854   0.08109   0.08339   0.08516   0.08648
 Alpha virt. eigenvalues --    0.08805   0.09103   0.09179   0.09540   0.09612
 Alpha virt. eigenvalues --    0.10116   0.10635   0.10774   0.11030   0.11325
 Alpha virt. eigenvalues --    0.11705   0.11771   0.12107   0.12136   0.12348
 Alpha virt. eigenvalues --    0.12632   0.12790   0.13087   0.13224   0.13548
 Alpha virt. eigenvalues --    0.13774   0.13884   0.14323   0.14518   0.14661
 Alpha virt. eigenvalues --    0.14796   0.15223   0.15433   0.15725   0.16056
 Alpha virt. eigenvalues --    0.16281   0.16536   0.16641   0.16900   0.17172
 Alpha virt. eigenvalues --    0.17418   0.17571   0.17713   0.17883   0.18147
 Alpha virt. eigenvalues --    0.18483   0.18496   0.18609   0.19074   0.19145
 Alpha virt. eigenvalues --    0.19418   0.19516   0.19653   0.20032   0.20091
 Alpha virt. eigenvalues --    0.20244   0.20410   0.20594   0.20797   0.21062
 Alpha virt. eigenvalues --    0.21240   0.21341   0.21690   0.21941   0.22014
 Alpha virt. eigenvalues --    0.22169   0.22385   0.22537   0.22845   0.22944
 Alpha virt. eigenvalues --    0.23134   0.23256   0.23405   0.23562   0.23961
 Alpha virt. eigenvalues --    0.24038   0.24194   0.24298   0.24610   0.24883
 Alpha virt. eigenvalues --    0.25171   0.25293   0.25499   0.25947   0.26078
 Alpha virt. eigenvalues --    0.26190   0.26497   0.26580   0.26925   0.26984
 Alpha virt. eigenvalues --    0.27250   0.27603   0.27750   0.27929   0.28112
 Alpha virt. eigenvalues --    0.28149   0.28425   0.28639   0.28896   0.28932
 Alpha virt. eigenvalues --    0.29422   0.30006   0.30116   0.30233   0.30519
 Alpha virt. eigenvalues --    0.30922   0.31001   0.31442   0.31878   0.32264
 Alpha virt. eigenvalues --    0.32561   0.32806   0.33006   0.33085   0.33343
 Alpha virt. eigenvalues --    0.33709   0.34001   0.34415   0.34530   0.35187
 Alpha virt. eigenvalues --    0.35359   0.35564   0.36056   0.36476   0.36708
 Alpha virt. eigenvalues --    0.36874   0.37363   0.37550   0.37883   0.38008
 Alpha virt. eigenvalues --    0.38750   0.39136   0.39619   0.39793   0.40110
 Alpha virt. eigenvalues --    0.40368   0.40915   0.41199   0.41550   0.41786
 Alpha virt. eigenvalues --    0.42507   0.43357   0.43542   0.43690   0.44070
 Alpha virt. eigenvalues --    0.44281   0.44710   0.44958   0.45337   0.45486
 Alpha virt. eigenvalues --    0.46163   0.46329   0.47010   0.47557   0.47793
 Alpha virt. eigenvalues --    0.48294   0.48557   0.48685   0.48873   0.49266
 Alpha virt. eigenvalues --    0.49736   0.50574   0.50747   0.51384   0.51864
 Alpha virt. eigenvalues --    0.52034   0.52375   0.53329   0.53547   0.54142
 Alpha virt. eigenvalues --    0.54322   0.54803   0.55225   0.55405   0.55973
 Alpha virt. eigenvalues --    0.56109   0.56481   0.56629   0.57569   0.57736
 Alpha virt. eigenvalues --    0.57916   0.58246   0.58562   0.59471   0.59601
 Alpha virt. eigenvalues --    0.59728   0.60221   0.60701   0.61174   0.61510
 Alpha virt. eigenvalues --    0.61934   0.62881   0.63045   0.63874   0.64193
 Alpha virt. eigenvalues --    0.64569   0.64815   0.64885   0.65619   0.65737
 Alpha virt. eigenvalues --    0.66058   0.66524   0.66906   0.67239   0.67435
 Alpha virt. eigenvalues --    0.67787   0.68204   0.68682   0.68935   0.69151
 Alpha virt. eigenvalues --    0.69425   0.69820   0.69887   0.70236   0.70423
 Alpha virt. eigenvalues --    0.70641   0.70871   0.70966   0.71497   0.71665
 Alpha virt. eigenvalues --    0.71998   0.72455   0.72549   0.72884   0.73324
 Alpha virt. eigenvalues --    0.73439   0.73660   0.74055   0.74341   0.74607
 Alpha virt. eigenvalues --    0.75248   0.75314   0.75662   0.76189   0.76633
 Alpha virt. eigenvalues --    0.77133   0.77674   0.77937   0.78345   0.78778
 Alpha virt. eigenvalues --    0.78860   0.79210   0.79696   0.80018   0.80190
 Alpha virt. eigenvalues --    0.80699   0.81114   0.81328   0.82237   0.82314
 Alpha virt. eigenvalues --    0.83073   0.83398   0.83585   0.84285   0.84830
 Alpha virt. eigenvalues --    0.85182   0.86275   0.86766   0.87563   0.88416
 Alpha virt. eigenvalues --    0.88463   0.89461   0.90207   0.91434   0.92055
 Alpha virt. eigenvalues --    0.92600   0.93605   0.94487   0.95972   0.96818
 Alpha virt. eigenvalues --    0.97622   0.98075   0.99089   0.99742   1.00289
 Alpha virt. eigenvalues --    1.00891   1.01228   1.02670   1.03806   1.04620
 Alpha virt. eigenvalues --    1.05745   1.05866   1.07008   1.07309   1.08676
 Alpha virt. eigenvalues --    1.10215   1.11178   1.12103   1.13603   1.13813
 Alpha virt. eigenvalues --    1.14608   1.15036   1.16269   1.17757   1.18494
 Alpha virt. eigenvalues --    1.19461   1.20090   1.20721   1.22739   1.23931
 Alpha virt. eigenvalues --    1.24517   1.25075   1.25729   1.26841   1.27877
 Alpha virt. eigenvalues --    1.28572   1.28878   1.29963   1.31197   1.31895
 Alpha virt. eigenvalues --    1.33505   1.33612   1.34573   1.35122   1.35312
 Alpha virt. eigenvalues --    1.36274   1.36509   1.37197   1.38060   1.38625
 Alpha virt. eigenvalues --    1.40388   1.40870   1.41630   1.42938   1.43702
 Alpha virt. eigenvalues --    1.44158   1.45093   1.45961   1.46706   1.47365
 Alpha virt. eigenvalues --    1.48891   1.49457   1.50751   1.51816   1.52665
 Alpha virt. eigenvalues --    1.53450   1.54051   1.54597   1.54935   1.55912
 Alpha virt. eigenvalues --    1.56675   1.57101   1.57571   1.58141   1.58519
 Alpha virt. eigenvalues --    1.59295   1.59464   1.60004   1.60657   1.60836
 Alpha virt. eigenvalues --    1.61642   1.61895   1.62076   1.62828   1.62932
 Alpha virt. eigenvalues --    1.63221   1.63245   1.64093   1.64274   1.64596
 Alpha virt. eigenvalues --    1.64918   1.65984   1.66068   1.66544   1.66926
 Alpha virt. eigenvalues --    1.67620   1.67759   1.68556   1.68941   1.69582
 Alpha virt. eigenvalues --    1.70212   1.70604   1.70967   1.71269   1.72120
 Alpha virt. eigenvalues --    1.72678   1.72975   1.73629   1.74777   1.75319
 Alpha virt. eigenvalues --    1.75570   1.76355   1.77453   1.78047   1.79031
 Alpha virt. eigenvalues --    1.79516   1.80472   1.81852   1.82330   1.82892
 Alpha virt. eigenvalues --    1.83615   1.84380   1.85223   1.85404   1.86579
 Alpha virt. eigenvalues --    1.87547   1.88921   1.89801   1.90990   1.91237
 Alpha virt. eigenvalues --    1.91898   1.93584   1.94583   1.95212   1.95613
 Alpha virt. eigenvalues --    1.97214   1.98151   1.98928   1.99465   2.00809
 Alpha virt. eigenvalues --    2.01313   2.01821   2.03153   2.03190   2.05038
 Alpha virt. eigenvalues --    2.05690   2.06099   2.06932   2.08355   2.09459
 Alpha virt. eigenvalues --    2.11988   2.12555   2.14060   2.14672   2.15378
 Alpha virt. eigenvalues --    2.17075   2.18101   2.19441   2.20237   2.21918
 Alpha virt. eigenvalues --    2.22923   2.23022   2.23763   2.25081   2.26270
 Alpha virt. eigenvalues --    2.26767   2.27677   2.29289   2.31715   2.31775
 Alpha virt. eigenvalues --    2.33143   2.33762   2.35119   2.36024   2.38011
 Alpha virt. eigenvalues --    2.40474   2.43526   2.47599   2.48097   2.50822
 Alpha virt. eigenvalues --    2.51186   2.52120   2.52655   2.52924   2.54166
 Alpha virt. eigenvalues --    2.54688   2.55200   2.55762   2.56375   2.57209
 Alpha virt. eigenvalues --    2.57364   2.57930   2.58351   2.59370   2.60246
 Alpha virt. eigenvalues --    2.61227   2.62825   2.63890   2.64049   2.65530
 Alpha virt. eigenvalues --    2.66262   2.67173   2.68701   2.69126   2.69984
 Alpha virt. eigenvalues --    2.70418   2.71584   2.72313   2.72604   2.73690
 Alpha virt. eigenvalues --    2.74626   2.75626   2.80324   2.80959   2.81218
 Alpha virt. eigenvalues --    2.86066   2.86365   2.87574   2.90052   2.90790
 Alpha virt. eigenvalues --    2.91265   2.93005   2.94050   2.94334   2.95423
 Alpha virt. eigenvalues --    2.95608   2.96976   2.97587   2.98189   2.98870
 Alpha virt. eigenvalues --    2.99803   3.00351   3.00892   3.02948   3.03409
 Alpha virt. eigenvalues --    3.03606   3.04116   3.05044   3.05994   3.06754
 Alpha virt. eigenvalues --    3.07485   3.09178   3.10152   3.11003   3.13068
 Alpha virt. eigenvalues --    3.13707   3.13800   3.15451   3.16153   3.16829
 Alpha virt. eigenvalues --    3.17699   3.18825   3.19764   3.20631   3.21418
 Alpha virt. eigenvalues --    3.22242   3.23839   3.24288   3.25105   3.25697
 Alpha virt. eigenvalues --    3.26556   3.27460   3.27642   3.28796   3.29588
 Alpha virt. eigenvalues --    3.30847   3.30999   3.31662   3.33762   3.33984
 Alpha virt. eigenvalues --    3.34155   3.35296   3.36109   3.37406   3.38281
 Alpha virt. eigenvalues --    3.38838   3.39134   3.40217   3.41251   3.42470
 Alpha virt. eigenvalues --    3.45212   3.45754   3.47306   3.50634   3.52279
 Alpha virt. eigenvalues --    3.53672   3.53952   3.58699   3.61011   3.65471
 Alpha virt. eigenvalues --    3.75450   3.76435   3.78339   3.80616   3.85362
 Alpha virt. eigenvalues --    3.89820   3.92101   3.94408   3.97772   4.01269
 Alpha virt. eigenvalues --    4.02067   4.05816   4.06359   4.07908   4.09680
 Alpha virt. eigenvalues --    4.11955   4.15541   4.16810   4.17894   4.20511
 Alpha virt. eigenvalues --    4.21920   4.24217   4.27287   4.28873   4.32795
 Alpha virt. eigenvalues --    4.44561   4.54483   5.14697   5.16487   5.17793
 Alpha virt. eigenvalues --    5.22284   5.25557   5.28707   5.31324   5.33002
 Alpha virt. eigenvalues --    5.41732   5.43900   5.56348   5.72363   5.73021
 Alpha virt. eigenvalues --    5.78599   5.82405  23.47357  23.48472  23.50793
 Alpha virt. eigenvalues --   23.53103  23.62002  23.62136  23.64748  23.66958
 Alpha virt. eigenvalues --   23.67073  23.69823  23.72549  23.74013  23.76109
 Alpha virt. eigenvalues --   23.78294  23.79002  23.79385  23.82077  23.85303
 Alpha virt. eigenvalues --   23.86137  23.88449  23.89725  23.91166  23.95324
 Alpha virt. eigenvalues --   24.18153  24.21517  24.21694  49.98245  49.99708
 Alpha virt. eigenvalues --   50.01735  50.03217  50.06507
          Condensed to atoms (all electrons):
 Mulliken atomic charges:
              1
     1  C   -0.767562
     2  C    0.936095
     3  C   -0.190950
     4  C    0.155421
     5  C    1.213073
     6  C   -0.862850
     7  C   -0.751145
     8  C    0.054349
     9  C    0.467093
    10  C   -0.467941
    11  C   -0.730222
    12  O   -0.172080
    13  C    0.339832
    14  C   -0.293000
    15  C   -1.094298
    16  O   -0.171455
    17  C   -0.715226
    18  C    0.897651
    19  O    0.194570
    20  C   -1.255280
    21  O   -0.052074
    22  C   -0.690624
    23  C    0.118871
    24  O   -0.068527
    25  C    0.515951
    26  C   -1.136253
    27  C   -0.765331
    28  C   -0.711982
    29  C   -0.624856
    30  H    0.244695
    31  H    0.256683
    32  C   -1.136890
    33  H    0.208917
    34  H    0.275318
    35  H    0.264907
    36  H    0.234373
    37  H    0.259593
    38  H    0.217478
    39  H    0.275864
    40  H    0.276552
    41  H    0.253051
    42  H    0.259804
    43  H    0.285773
    44  H    0.280155
    45  H    0.285835
    46  H    0.254071
    47  H    0.211401
    48  H    0.258364
    49  H    0.255180
    50  H    0.257659
    51  H    0.219946
    52  H    0.251558
    53  H    0.247455
    54  H    0.316877
    55  H    0.262321
    56  H    0.271495
    57  H    0.264423
    58  H    0.263784
    59  H    0.260373
    60  H    0.245454
    61  H    0.251724
    62  C   -0.930905
    63  H    0.226763
    64  H    0.254989
    65  H    0.243711
 Sum of Mulliken atomic charges =   0.00000
 Mulliken charges with hydrogens summed into heavy atoms:
              1
     1  C   -0.558645
     2  C    0.936095
     3  C    0.065733
     4  C    0.155421
     5  C    1.213073
     6  C   -0.322626
     7  C   -0.751145
     8  C    0.054349
     9  C    0.467093
    10  C   -0.467941
    11  C   -0.730222
    12  O   -0.172080
    13  C    0.574204
    14  C    0.184071
    15  C   -0.288831
    16  O   -0.171455
    17  C   -0.470531
    18  C    0.897651
    19  O    0.194570
    20  C   -0.709702
    21  O    0.228081
    22  C   -0.150718
    23  C    0.330272
    24  O   -0.068527
    25  C    0.515951
    26  C   -0.365050
    27  C   -0.293827
    28  C    0.114671
    29  C    0.174846
    32  C   -0.379340
    62  C   -0.205442
 Sum of Mulliken charges with hydrogens summed into heavy atoms =   0.00000
 Electronic spatial extent (au):  <R**2>=          11418.6045
 Charge=              0.0000 electrons
 Dipole moment (field-independent basis, Debye):
    X=             -2.6397    Y=              5.8004    Z=              1.7242  Tot=              6.6020
 Quadrupole moment (field-independent basis, Debye-Ang):
   XX=           -179.2589   YY=           -186.5686   ZZ=           -193.6200
   XY=              5.6248   XZ=             11.2519   YZ=             -4.6754
 Traceless Quadrupole moment (field-independent basis, Debye-Ang):
   XX=              7.2236   YY=             -0.0861   ZZ=             -7.1375
   XY=              5.6248   XZ=             11.2519   YZ=             -4.6754
 Octapole moment (field-independent basis, Debye-Ang**2):
  XXX=            -22.8843  YYY=             51.8137  ZZZ=              2.0996  XYY=            -14.1003
  XXY=            -14.6206  XXZ=             13.6732  XZZ=            -15.5226  YZZ=             18.6017
  YYZ=             40.6649  XYZ=             -0.0668
 Hexadecapole moment (field-independent basis, Debye-Ang**3):
 XXXX=          -8242.7351 YYYY=          -4640.1408 ZZZZ=          -2704.5316 XXXY=             41.6837
 XXXZ=             59.0138 YYYX=             49.2884 YYYZ=             -3.4175 ZZZX=             75.1901
 ZZZY=              6.0916 XXYY=          -2100.0052 XXZZ=          -1880.8452 YYZZ=          -1215.5906
 XXYZ=            -24.7154 YYXZ=             14.6682 ZZXY=             38.4755
 N-N= 3.517637454468D+03 E-N=-1.026821145482D+04  KE= 1.381708251354D+03
 Calling FoFJK, ICntrl=      2127 FMM=T ISym2X=0 I1Cent= 0 IOpClX= 0 NMat=1 NMatS=1 NMatT=0.
 ***** Axes restored to original set *****
 -------------------------------------------------------------------
 Center     Atomic                   Forces (Hartrees/Bohr)
 Number     Number              X              Y              Z
 -------------------------------------------------------------------
      1        6          -0.000664362    0.001615516    0.002139083
      2        6           0.000780196   -0.001358220   -0.001826998
      3        6           0.000201859    0.000332630    0.000127699
      4        6           0.000329440    0.001000312   -0.000288816
      5        6          -0.000334964   -0.000445856   -0.000118447
      6        6           0.000300646   -0.000249534    0.000023808
      7        6           0.002029256    0.001147033   -0.001409763
      8        6           0.002410793   -0.001939357   -0.000919242
      9        6          -0.001103006    0.002032243    0.000436680
     10        6           0.000189496   -0.007074547   -0.001885267
     11        6           0.000334425   -0.002744150   -0.006379317
     12        8           0.000045833    0.003071850    0.008005149
     13        6           0.000253301    0.000227592   -0.000173649
     14        6          -0.000125659   -0.000134076    0.000013574
     15        6          -0.000399905   -0.000192105   -0.000287801
     16        8           0.000649614    0.008480456    0.002035551
     17        6          -0.000274959    0.000230978    0.000241143
     18        6           0.000104930    0.001551623    0.000827789
     19        8          -0.002370907   -0.002494548   -0.001131232
     20        6           0.000335999    0.000064691   -0.000420579
     21        8          -0.005979935    0.000613666   -0.000874850
     22        6          -0.000035568   -0.000078203   -0.000022408
     23        6          -0.001571834   -0.001579985   -0.000740764
     24        8          -0.000221811   -0.000227625   -0.000902249
     25        6           0.000881219   -0.000594374    0.001735788
     26        6          -0.000138861   -0.000088236   -0.000427081
     27        6          -0.001919801    0.000641514   -0.001403723
     28        6          -0.000355254    0.000116532   -0.000321736
     29        6          -0.000473135   -0.000261552    0.000156045
     30        1           0.000687288   -0.000631205   -0.000906039
     31        1           0.000785048   -0.000332560   -0.001065954
     32        6          -0.000123622    0.000322142    0.000125528
     33        1           0.000239124   -0.000158940    0.000860674
     34        1          -0.001631610   -0.000305818   -0.000351007
     35        1           0.000423247    0.001219402    0.000883780
     36        1          -0.000072800   -0.001006837   -0.000976607
     37        1           0.000758283    0.000747944    0.001226621
     38        1          -0.000994854    0.000015932   -0.000925034
     39        1           0.000008284    0.000950678    0.001436200
     40        1           0.001576004   -0.000368550   -0.000524446
     41        1          -0.001308648    0.000123966   -0.000937824
     42        1           0.000369091   -0.001516861   -0.000098449
     43        1          -0.001108105    0.000547456    0.001052618
     44        1           0.005063621   -0.000362452    0.001778025
     45        1          -0.000995582    0.001672698   -0.000012674
     46        1           0.000724486   -0.000869329    0.001111357
     47        1           0.001585949   -0.000387029    0.000482190
     48        1           0.001373432   -0.000994724   -0.000163299
     49        1          -0.000084993    0.000326595    0.001562165
     50        1          -0.000134614    0.001323977   -0.001025606
     51        1           0.000279585    0.000852700   -0.000504241
     52        1          -0.001028491   -0.001348081    0.000260811
     53        1           0.000481416   -0.001364900   -0.000504708
     54        1           0.001248358    0.001490747   -0.000077241
     55        1          -0.001556440    0.000277210    0.000195715
     56        1          -0.001595493    0.000457836   -0.000287943
     57        1           0.000509873    0.000246649    0.001632054
     58        1           0.000660987   -0.001061361   -0.000830742
     59        1           0.001302022    0.000129053   -0.000981570
     60        1          -0.000805726   -0.001333504   -0.000488499
     61        1           0.000286156    0.000147425    0.001654082
     62        6          -0.000226076    0.000023214    0.000099877
     63        1           0.000265463   -0.000912397   -0.001295789
[...]
                 (A) (A) (A) (A) (A) (A) (A) (A) (A) (A) (A) (A)
                 (A) (A) (A) (A) (A) (A) (A) (A) (A) (A) (A) (A)
                 (A) (A) (A) (A) (A) (A) (A) (A) (A) (A) (A) (A)
                 (A) (A) (A)
 The electronic state is 1-A.
 Alpha  occ. eigenvalues --  -19.17836 -19.15119 -19.13544 -19.11052 -19.10692
 Alpha  occ. eigenvalues --  -10.26306 -10.26222 -10.26133 -10.25822 -10.25728
 Alpha  occ. eigenvalues --  -10.25727 -10.24006 -10.20796 -10.19912 -10.19768
 Alpha  occ. eigenvalues --  -10.19360 -10.19150 -10.18986 -10.18519 -10.18187
 Alpha  occ. eigenvalues --  -10.18080 -10.17866 -10.17726 -10.17675 -10.17506
 Alpha  occ. eigenvalues --  -10.17261 -10.17231 -10.16515 -10.15645 -10.15620
 Alpha  occ. eigenvalues --  -10.14742  -1.10243  -1.07732  -1.04916  -1.03815
 Alpha  occ. eigenvalues --   -1.03784  -0.88111  -0.84907  -0.83225  -0.82400
 Alpha  occ. eigenvalues --   -0.81083  -0.80332  -0.77872  -0.74897  -0.74155
 Alpha  occ. eigenvalues --   -0.73278  -0.72424  -0.71135  -0.69899  -0.69327
 Alpha  occ. eigenvalues --   -0.65707  -0.64995  -0.64348  -0.62748  -0.61887
 Alpha  occ. eigenvalues --   -0.60107  -0.59917  -0.57930  -0.56206  -0.54394
 Alpha  occ. eigenvalues --   -0.54256  -0.52959  -0.51994  -0.50968  -0.50458
 Alpha  occ. eigenvalues --   -0.49496  -0.48686  -0.48070  -0.47577  -0.47069
 Alpha  occ. eigenvalues --   -0.46036  -0.45378  -0.45163  -0.44446  -0.44117
 Alpha  occ. eigenvalues --   -0.43505  -0.43320  -0.43103  -0.42783  -0.42454
 Alpha  occ. eigenvalues --   -0.41901  -0.41796  -0.41434  -0.41045  -0.40965
 Alpha  occ. eigenvalues --   -0.40438  -0.40273  -0.39998  -0.39589  -0.39266
 Alpha  occ. eigenvalues --   -0.38690  -0.38590  -0.38309  -0.37339  -0.36936
 Alpha  occ. eigenvalues --   -0.36808  -0.36537  -0.36218  -0.35764  -0.35587
 Alpha  occ. eigenvalues --   -0.34971  -0.34676  -0.34130  -0.33533  -0.33374
 Alpha  occ. eigenvalues --   -0.32661  -0.32448  -0.31926  -0.29539  -0.28857
 Alpha  occ. eigenvalues --   -0.26155  -0.25909  -0.25497  -0.24664  -0.24100
 Alpha virt. eigenvalues --   -0.05542  -0.03185  -0.01588  -0.00821  -0.00739
 Alpha virt. eigenvalues --    0.00194   0.00342   0.00548   0.01449   0.01784
 Alpha virt. eigenvalues --    0.02015   0.02216   0.02657   0.03363   0.03567
 Alpha virt. eigenvalues --    0.03694   0.03824   0.04261   0.04633   0.04786
 Alpha virt. eigenvalues --    0.04931   0.05412   0.05585   0.05919   0.06057
 Alpha virt. eigenvalues --    0.06480   0.06701   0.07113   0.07191   0.07260
 Alpha virt. eigenvalues --    0.07641   0.07824   0.08389   0.08482   0.08721
 Alpha virt. eigenvalues --    0.08859   0.09049   0.09136   0.09295   0.09536
 Alpha virt. eigenvalues --    0.09819   0.10363   0.10664   0.10789   0.10903
 Alpha virt. eigenvalues --    0.11222   0.11689   0.11778   0.12083   0.12358
 Alpha virt. eigenvalues --    0.12647   0.12860   0.13073   0.13259   0.13561
 Alpha virt. eigenvalues --    0.13705   0.13964   0.14181   0.14345   0.14445
 Alpha virt. eigenvalues --    0.14688   0.14850   0.15376   0.15626   0.15884
 Alpha virt. eigenvalues --    0.16019   0.16296   0.16448   0.16802   0.16955
 Alpha virt. eigenvalues --    0.17367   0.17590   0.17844   0.18029   0.18218
 Alpha virt. eigenvalues --    0.18429   0.18617   0.18683   0.18958   0.19131
 Alpha virt. eigenvalues --    0.19301   0.19486   0.19732   0.19883   0.20025
 Alpha virt. eigenvalues --    0.20359   0.20500   0.20658   0.20921   0.20973
 Alpha virt. eigenvalues --    0.21239   0.21335   0.21604   0.21917   0.22015
 Alpha virt. eigenvalues --    0.22147   0.22181   0.22429   0.22718   0.22896
 Alpha virt. eigenvalues --    0.23263   0.23317   0.23512   0.23583   0.24024
 Alpha virt. eigenvalues --    0.24110   0.24262   0.24299   0.24653   0.24856
 Alpha virt. eigenvalues --    0.25044   0.25210   0.25535   0.25612   0.25891
 Alpha virt. eigenvalues --    0.26120   0.26469   0.26536   0.26869   0.27134
 Alpha virt. eigenvalues --    0.27177   0.27586   0.27936   0.28114   0.28209
 Alpha virt. eigenvalues --    0.28428   0.28825   0.28969   0.29116   0.29566
 Alpha virt. eigenvalues --    0.29654   0.29869   0.30127   0.30302   0.30657
 Alpha virt. eigenvalues --    0.30924   0.31017   0.31794   0.31857   0.32113
 Alpha virt. eigenvalues --    0.32472   0.32907   0.33104   0.33496   0.33638
 Alpha virt. eigenvalues --    0.33900   0.34387   0.34564   0.34918   0.35214
 Alpha virt. eigenvalues --    0.35645   0.35697   0.36106   0.36362   0.36480
 Alpha virt. eigenvalues --    0.36998   0.37409   0.37758   0.37929   0.38106
 Alpha virt. eigenvalues --    0.38349   0.38858   0.39048   0.39438   0.39986
 Alpha virt. eigenvalues --    0.40037   0.40565   0.41113   0.41219   0.41670
 Alpha virt. eigenvalues --    0.42183   0.42997   0.43171   0.43705   0.43948
 Alpha virt. eigenvalues --    0.44109   0.44330   0.44613   0.45207   0.45474
 Alpha virt. eigenvalues --    0.45618   0.46073   0.46495   0.46804   0.47223
 Alpha virt. eigenvalues --    0.47343   0.47718   0.48446   0.48734   0.49177
 Alpha virt. eigenvalues --    0.49902   0.50476   0.50746   0.50946   0.50967
 Alpha virt. eigenvalues --    0.51833   0.52019   0.52380   0.53543   0.53907
 Alpha virt. eigenvalues --    0.54141   0.54680   0.55176   0.55411   0.55628
 Alpha virt. eigenvalues --    0.55936   0.56443   0.56632   0.57229   0.57466
 Alpha virt. eigenvalues --    0.57891   0.58387   0.58851   0.59212   0.59520
 Alpha virt. eigenvalues --    0.59776   0.59956   0.60399   0.60882   0.61420
 Alpha virt. eigenvalues --    0.61862   0.62196   0.62484   0.62785   0.63074
 Alpha virt. eigenvalues --    0.64169   0.64631   0.64744   0.65178   0.65785
 Alpha virt. eigenvalues --    0.66021   0.66877   0.67092   0.67217   0.67547
 Alpha virt. eigenvalues --    0.67770   0.68114   0.68411   0.68807   0.68904
 Alpha virt. eigenvalues --    0.69430   0.69524   0.69765   0.70038   0.70496
 Alpha virt. eigenvalues --    0.70776   0.70993   0.71178   0.71555   0.71664
 Alpha virt. eigenvalues --    0.72150   0.72364   0.72454   0.72942   0.73198
 Alpha virt. eigenvalues --    0.73261   0.73607   0.73988   0.74302   0.74681
 Alpha virt. eigenvalues --    0.75277   0.75629   0.75725   0.76052   0.76909
 Alpha virt. eigenvalues --    0.77765   0.77971   0.78130   0.78399   0.78984
 Alpha virt. eigenvalues --    0.79102   0.79572   0.80010   0.80473   0.80722
 Alpha virt. eigenvalues --    0.81056   0.81167   0.81990   0.82336   0.82512
 Alpha virt. eigenvalues --    0.83068   0.83582   0.83818   0.84451   0.84860
 Alpha virt. eigenvalues --    0.85833   0.86038   0.86933   0.87189   0.88576
 Alpha virt. eigenvalues --    0.89824   0.90144   0.90677   0.91220   0.91857
 Alpha virt. eigenvalues --    0.92612   0.93459   0.94162   0.94801   0.95863
 Alpha virt. eigenvalues --    0.96616   0.97717   0.97988   0.98780   0.99401
 Alpha virt. eigenvalues --    1.00703   1.00985   1.02085   1.03762   1.04790
 Alpha virt. eigenvalues --    1.05356   1.06117   1.06855   1.07490   1.10271
 Alpha virt. eigenvalues --    1.10965   1.11322   1.12733   1.13949   1.14775
 Alpha virt. eigenvalues --    1.15256   1.15477   1.16284   1.17019   1.17589
 Alpha virt. eigenvalues --    1.19293   1.19650   1.21096   1.22510   1.22852
 Alpha virt. eigenvalues --    1.23594   1.23935   1.24777   1.25875   1.27778
 Alpha virt. eigenvalues --    1.28507   1.29069   1.29692   1.30050   1.31360
 Alpha virt. eigenvalues --    1.31720   1.32539   1.33726   1.34400   1.34897
 Alpha virt. eigenvalues --    1.35444   1.36638   1.36878   1.37501   1.38803
 Alpha virt. eigenvalues --    1.39029   1.40084   1.40530   1.41197   1.42790
 Alpha virt. eigenvalues --    1.44124   1.45148   1.45852   1.47543   1.47907
 Alpha virt. eigenvalues --    1.48406   1.48845   1.50385   1.51332   1.52017
 Alpha virt. eigenvalues --    1.53296   1.53445   1.54256   1.55059   1.55629
 Alpha virt. eigenvalues --    1.56014   1.56440   1.56689   1.57513   1.58123
 Alpha virt. eigenvalues --    1.58506   1.58833   1.60053   1.60090   1.60433
 Alpha virt. eigenvalues --    1.60660   1.61167   1.61398   1.62014   1.62277
 Alpha virt. eigenvalues --    1.62809   1.63154   1.63170   1.64107   1.64437
 Alpha virt. eigenvalues --    1.65019   1.65437   1.65823   1.66386   1.67211
 Alpha virt. eigenvalues --    1.67706   1.67817   1.68598   1.69382   1.69656
 Alpha virt. eigenvalues --    1.70526   1.70766   1.70988   1.71793   1.72239
 Alpha virt. eigenvalues --    1.72784   1.73248   1.73678   1.74979   1.75380
 Alpha virt. eigenvalues --    1.75888   1.76422   1.77923   1.78637   1.79173
 Alpha virt. eigenvalues --    1.79293   1.80944   1.81283   1.82482   1.83272
 Alpha virt. eigenvalues --    1.83449   1.84133   1.84900   1.86254   1.87247
 Alpha virt. eigenvalues --    1.88010   1.88464   1.89455   1.90234   1.90965
 Alpha virt. eigenvalues --    1.92550   1.92743   1.93458   1.93961   1.95092
 Alpha virt. eigenvalues --    1.95889   1.98014   1.98336   1.99735   2.00363
 Alpha virt. eigenvalues --    2.00519   2.01910   2.03093   2.04344   2.05087
 Alpha virt. eigenvalues --    2.05838   2.07563   2.08348   2.08750   2.09142
 Alpha virt. eigenvalues --    2.11807   2.12901   2.13270   2.14685   2.15741
 Alpha virt. eigenvalues --    2.17352   2.17449   2.20508   2.20650   2.21544
 Alpha virt. eigenvalues --    2.22168   2.22735   2.24224   2.24987   2.26775
 Alpha virt. eigenvalues --    2.27006   2.27603   2.29674   2.30895   2.32046
 Alpha virt. eigenvalues --    2.34050   2.34734   2.35682   2.37697   2.39047
 Alpha virt. eigenvalues --    2.40301   2.43690   2.47063   2.48731   2.50841
 Alpha virt. eigenvalues --    2.51365   2.51909   2.52801   2.53325   2.54121
 Alpha virt. eigenvalues --    2.54813   2.54940   2.55417   2.56406   2.57587
 Alpha virt. eigenvalues --    2.57800   2.57914   2.58420   2.60234   2.60941
 Alpha virt. eigenvalues --    2.61067   2.63190   2.63913   2.64315   2.65610
 Alpha virt. eigenvalues --    2.65852   2.66946   2.68080   2.69308   2.69779
 Alpha virt. eigenvalues --    2.70903   2.71572   2.71980   2.72705   2.73093
 Alpha virt. eigenvalues --    2.74611   2.75142   2.78427   2.78878   2.80684
 Alpha virt. eigenvalues --    2.85701   2.86411   2.87346   2.89280   2.90412
 Alpha virt. eigenvalues --    2.91293   2.92700   2.93250   2.94229   2.94796
 Alpha virt. eigenvalues --    2.96333   2.96587   2.97048   2.98195   2.99300
 Alpha virt. eigenvalues --    2.99542   3.00627   3.01975   3.02529   3.03116
 Alpha virt. eigenvalues --    3.03679   3.04416   3.05078   3.05315   3.06852
 Alpha virt. eigenvalues --    3.07310   3.09313   3.10409   3.11314   3.12213
 Alpha virt. eigenvalues --    3.12972   3.14070   3.15378   3.15805   3.17159
 Alpha virt. eigenvalues --    3.18612   3.19144   3.20430   3.21176   3.22258
 Alpha virt. eigenvalues --    3.23009   3.24342   3.24770   3.25116   3.25478
 Alpha virt. eigenvalues --    3.26368   3.27336   3.28655   3.29827   3.30595
 Alpha virt. eigenvalues --    3.31411   3.31791   3.32565   3.32640   3.33823
 Alpha virt. eigenvalues --    3.35145   3.35841   3.36335   3.37767   3.38741
 Alpha virt. eigenvalues --    3.39257   3.39849   3.40390   3.41693   3.43242
 Alpha virt. eigenvalues --    3.46033   3.46938   3.47864   3.50982   3.52293
 Alpha virt. eigenvalues --    3.53314   3.53644   3.59103   3.61396   3.65798
 Alpha virt. eigenvalues --    3.75476   3.76729   3.78356   3.80998   3.86416
 Alpha virt. eigenvalues --    3.89896   3.93236   3.94751   3.98685   4.01900
 Alpha virt. eigenvalues --    4.02493   4.06177   4.06374   4.07821   4.09684
 Alpha virt. eigenvalues --    4.11681   4.16243   4.17360   4.18283   4.20957
 Alpha virt. eigenvalues --    4.22458   4.24248   4.26566   4.28544   4.32736
 Alpha virt. eigenvalues --    4.45207   4.55557   5.14349   5.15245   5.16110
 Alpha virt. eigenvalues --    5.20202   5.23065   5.28284   5.32246   5.32498
 Alpha virt. eigenvalues --    5.41554   5.44531   5.56737   5.71892   5.73380
 Alpha virt. eigenvalues --    5.78455   5.82375  23.46005  23.50077  23.50880
 Alpha virt. eigenvalues --   23.53847  23.62301  23.62616  23.65412  23.66624
 Alpha virt. eigenvalues --   23.67378  23.70402  23.72481  23.74361  23.76669
 Alpha virt. eigenvalues --   23.78521  23.79297  23.80099  23.84004  23.84954
 Alpha virt. eigenvalues --   23.85558  23.88908  23.89347  23.91425  23.95560
 Alpha virt. eigenvalues --   24.20258  24.21694  24.23077  49.97784  49.99934
 Alpha virt. eigenvalues --   50.01782  50.03046  50.06843
          Condensed to atoms (all electrons):
 Mulliken atomic charges:
              1
     1  C   -0.690569
     2  C    0.994737
     3  C    0.032740
     4  C    0.357400
     5  C    1.312076
     6  C   -1.252706
     7  C   -0.879976
     8  C    0.099597
     9  C    0.567605
    10  C   -0.649503
    11  C   -0.672354
    12  O   -0.174672
    13  C    0.324678
    14  C   -0.248305
    15  C   -1.102924
    16  O   -0.158205
    17  C   -0.428837
    18  C    0.855975
    19  O    0.198983
    20  C   -1.678940
    21  O   -0.059406
    22  C   -0.697403
    23  C   -0.373233
    24  O    0.014761
    25  C    0.951439
    26  C   -1.151478
    27  C   -0.780765
    28  C   -0.690705
    29  C   -0.625567
    30  H    0.236764
    31  H    0.261527
    32  C   -1.202531
    33  H    0.207878
    34  H    0.276466
    35  H    0.264756
    36  H    0.234377
    37  H    0.258339
    38  H    0.217702
    39  H    0.275678
    40  H    0.281203
    41  H    0.255652
    42  H    0.263903
    43  H    0.294318
    44  H    0.281449
    45  H    0.296246
    46  H    0.259427
    47  H    0.255984
    48  H    0.253136
    49  H    0.265837
    50  H    0.259955
    51  H    0.220808
    52  H    0.229096
    53  H    0.248554
    54  H    0.314268
    55  H    0.263373
    56  H    0.272130
    57  H    0.265722
    58  H    0.264022
    59  H    0.258830
    60  H    0.247268
    61  H    0.250725
    62  C   -0.956252
    63  H    0.227967
    64  H    0.257187
    65  H    0.243791
 Sum of Mulliken atomic charges =   0.00000
 Mulliken charges with hydrogens summed into heavy atoms:
              1
     1  C   -0.482691
     2  C    0.994737
     3  C    0.294267
     4  C    0.357400
     5  C    1.312076
     6  C   -0.711485
     7  C   -0.879976
     8  C    0.099597
     9  C    0.567605
    10  C   -0.649503
    11  C   -0.672354
    12  O   -0.174672
    13  C    0.559054
    14  C    0.227736
    15  C   -0.290391
    16  O   -0.158205
    17  C   -0.192072
    18  C    0.855975
    19  O    0.198983
    20  C   -1.120718
    21  O    0.222043
    22  C   -0.141730
    23  C   -0.117249
    24  O    0.014761
    25  C    0.951439
    26  C   -0.372549
    27  C   -0.330860
    28  C    0.135489
    29  C    0.176307
    32  C   -0.445708
    62  C   -0.227307
 Sum of Mulliken charges with hydrogens summed into heavy atoms =   0.00000
 Electronic spatial extent (au):  <R**2>=          11835.4995
 Charge=              0.0000 electrons
 Dipole moment (field-independent basis, Debye):
    X=              3.0104    Y=              5.7952    Z=             -0.8080  Tot=              6.5803
 Quadrupole moment (field-independent basis, Debye-Ang):
   XX=           -180.1831   YY=           -188.6179   ZZ=           -191.6302
   XY=             -8.6583   XZ=             11.2789   YZ=              4.1974
 Traceless Quadrupole moment (field-independent basis, Debye-Ang):
   XX=              6.6273   YY=             -1.8075   ZZ=             -4.8198
   XY=             -8.6583   XZ=             11.2789   YZ=              4.1974
 Octapole moment (field-independent basis, Debye-Ang**2):
  XXX=             20.6053  YYY=             70.9136  ZZZ=             -4.8391  XYY=             11.6007
  XXY=            -20.3282  XXZ=            -18.3338  XZZ=             21.9631  YZZ=              9.3560
  YYZ=            -26.9775  XYZ=             -2.0476
 Hexadecapole moment (field-independent basis, Debye-Ang**3):
 XXXX=          -9326.5032 YYYY=          -4243.7211 ZZZZ=          -2616.2849 XXXY=           -109.0659
 XXXZ=             73.2711 YYYX=            -46.8110 YYYZ=            -25.5460 ZZZX=             25.9072
 ZZZY=             -5.4425 XXYY=          -2208.9901 XXZZ=          -2015.3494 YYZZ=          -1153.3511
 XXYZ=             61.1197 YYXZ=             36.7795 ZZXY=            -51.7894
 N-N= 3.494986054412D+03 E-N=-1.022289802092D+04  KE= 1.381923538301D+03
 1\1\GINC-B0604\FOpt\RB3LYP\6-311+G(d)\C26H34O5\CAOFEI\13-Apr-2021\0\\#
  opt b3lyp/6-311+g(d) geom=connectivity\\Title Card Required\\0,1\C,-2
 .0485414862,1.0068162559,-2.540001015\C,-2.3842494129,1.8862933741,-1.
 5930473981\C,-1.7685721628,1.7851299552,-0.2184512682\C,-1.3400140212,
 0.3540987064,0.2440418255\C,-1.1725592017,-0.7261412159,-0.8794478749\
 C,-1.0642734648,-0.105202487,-2.3035189857\C,-0.0660277264,0.598403342
 1,1.1159230482\C,1.225972858,0.2461443833,0.3992063405\C,1.3647086029,
 -0.829738237,-0.4030032694\C,0.1223019048,-1.5728639352,-0.7285019977\
 C,2.6502436411,-1.2582571783,-1.0567579868\O,2.6608819118,-1.522038787
 5,-2.2420793788\C,3.8862256318,-1.4248778275,-0.1737483577\C,5.1957427
 268,-1.2986252737,-0.9639720345\C,3.7708139062,-2.8004043798,0.5203471
 317\O,0.1194829116,-2.7588185482,-0.985823401\C,0.1146478565,2.1208535
 579,1.2847285148\C,1.6393387636,2.2840632533,1.4643325176\O,2.18510552
 31,1.1389872258,0.6814445324\C,-0.5148551782,2.6697725914,-0.007835450
 9\O,-0.094431076,-0.1250473281,2.3331746017\C,-2.4327566916,-1.6143006
 288,-0.7294899648\C,-3.2819648321,-0.9386876668,0.3605967895\O,-2.3362
 225237,-0.1811368515,1.1289982329\C,-4.0890832954,-1.8722317046,1.2280
 803914\C,-5.1068520682,-2.6926021984,0.4769519404\C,-3.9343306678,-1.9
 517089597,2.5491968921\C,2.0779430328,2.1039048841,2.9170244957\C,2.24
 95810497,3.5414807917,0.8594205074\H,-0.4263459602,2.4772615117,2.1638
 964816\H,-2.5106130378,2.1021587379,0.5244150105\C,-3.3437249614,3.021
 7384407,-1.8273154282\H,-2.4726216032,1.0981497797,-3.5376559261\H,-0.
 0438364083,0.2606195932,-2.4727605447\H,-1.2012546074,-0.9078693203,-3
 .0322824848\H,3.8542007545,-0.6541058901,0.6028306005\H,5.1837329403,-
 2.0196447147,-1.7867554153\H,6.0192271851,-1.5948445483,-0.3033413219\
 H,3.8139604024,-3.6105108508,-0.2122843346\H,2.8352536811,-2.901085943
 2,1.0756254919\H,4.5963269698,-2.9330906043,1.2249535189\H,-0.76358440
 18,3.7310602501,0.0571134927\H,0.1639373388,2.5512842832,-0.8577060878
 \H,-0.9881737438,-0.4993849862,2.4102384474\H,-2.1322792929,-2.6187745
 182,-0.4285875109\H,-2.9828212313,-1.7035481795,-1.6671481788\H,-3.979
 0816439,-0.2280133935,-0.10878141\H,-5.786901655,-2.0543723958,-0.0994
 232261\H,-4.6299832926,-3.3705638904,-0.2388379816\H,-5.709248941,-3.2
 953580595,1.1584565577\H,-4.5369170428,-2.6308671804,3.1439664346\H,-3
 .2145021273,-1.3440548835,3.0833250299\H,1.7504707551,2.9584946252,3.5
 160258986\H,1.6527595161,1.198671244,3.3497004072\H,3.1675120688,2.047
 4701413,2.9761768583\H,3.3349942692,3.5307252771,0.9809115789\H,2.0302
 20101,3.6338957192,-0.20457829\H,1.8634596642,4.4281454814,1.369682069
 4\H,-4.2045224651,2.9605721125,-1.1508383146\H,-2.8711324097,3.9930622
 914,-1.6401236751\H,-3.7195094892,3.0274029422,-2.8526797811\C,5.46463
 74569,0.1051897677,-1.5124958835\H,5.4936970081,0.8499445797,-0.710305
 4162\H,4.6948095701,0.4099799627,-2.2253436915\H,6.4262071216,0.144156
 5042,-2.0325763535\\Version=EM64L-G09RevB.01\State=1-A\HF=-1387.650653
 9\RMSD=5.959e-09\RMSF=2.450e-06\Dipole=-1.219877,2.1540036,0.7579066\Q
 uadrupole=5.5448621,-0.0410673,-5.5037948,4.9932281,8.8948344,-2.52725
 95\PG=C01 [X(C26H34O5)]\\@


 PATIENCE IS THE ABILITY TO IDLE YOUR MOTOR WHEN
 YOU FEEL LIKE STRIPPING YOUR GEARS.
 Job cpu time:  1 days 22 hours 30 minutes 12.6 seconds.
 File lengths (MBytes):  RWF=    372 Int=      0 D2E=      0 Chk=     38 Scr=      1
 Normal termination of Gaussian 09 at Tue Apr 13 23:16:43 2021.
