 Entering Gaussian System, Link 0=g09
 Initial command:
 /public/software/g09/g09/l1.exe /tmp/Gau-27991.inp -scrdir=/tmp/
 Entering Link 1 = /public/software/g09/g09/l1.exe PID=     27992.
  
 Copyright (c) 1988,1990,1992,1993,1995,1998,2003,2009,2010,
            Gaussian, Inc.  All Rights Reserved.
  
 This is part of the Gaussian(R) 09 program.  It is based on
 the Gaussian(R) 03 system (copyright 2003, Gaussian, Inc.),
 the Gaussian(R) 98 system (copyright 1998, Gaussian, Inc.),
 the Gaussian(R) 94 system (copyright 1995, Gaussian, Inc.),
 the Gaussian 92(TM) system (copyright 1992, Gaussian, Inc.),
 the Gaussian 90(TM) system (copyright 1990, Gaussian, Inc.),
 the Gaussian 88(TM) system (copyright 1988, Gaussian, Inc.),
 the Gaussian 86(TM) system (copyright 1986, Carnegie Mellon
 University), and the Gaussian 82(TM) system (copyright 1983,
 Carnegie Mellon University). Gaussian is a federally registered
 trademark of Gaussian, Inc.
  
 This software contains proprietary and confidential information,
 including trade secrets, belonging to Gaussian, Inc.
  
 This software is provided under written license and may be
 used, copied, transmitted, or stored only in accord with that
 written license.
  
 The following legend is applicable only to US Government
 contracts under FAR:
  
                    RESTRICTED RIGHTS LEGEND
  
 Use, reproduction and disclosure by the US Government is
 subject to restrictions as set forth in subparagraphs (a)
 and (c) of the Commercial Computer Software - Restricted
 Rights clause in FAR 52.227-19.
  
 Gaussian, Inc.
 340 Quinnipiac St., Bldg. 40, Wallingford CT 06492
  
  
 ---------------------------------------------------------------
 Warning -- This program may not be used in any manner that
 competes with the business of Gaussian, Inc. or will provide
 assistance to any competitor of Gaussian, Inc.  The licensee
 of this program is prohibited from giving any competitor of
 Gaussian, Inc. access to this program.  By using this program,
 the user acknowledges that Gaussian, Inc. is engaged in the
 business of creating and licensing software in the field of
 computational chemistry and represents and warrants to the
 licensee that it is not a competitor of Gaussian, Inc. and that
 it will not use this program in any manner prohibited above.
 ---------------------------------------------------------------
  

 Cite this work as:
 Gaussian 09, Revision B.01,
 M. J. Frisch, G. W. Trucks, H. B. Schlegel, G. E. Scuseria, 
 M. A. Robb, J. R. Cheeseman, G. Scalmani, V. Barone, B. Mennucci, 
 G. A. Petersson, H. Nakatsuji, M. Caricato, X. Li, H. P. Hratchian, 
 A. F. Izmaylov, J. Bloino, G. Zheng, J. L. Sonnenberg, M. Hada, 
 M. Ehara, K. Toyota, R. Fukuda, J. Hasegawa, M. Ishida, T. Nakajima, 
 Y. Honda, O. Kitao, H. Nakai, T. Vreven, J. A. Montgomery, Jr., 
 J. E. Peralta, F. Ogliaro, M. Bearpark, J. J. Heyd, E. Brothers, 
 K. N. Kudin, V. N. Staroverov, T. Keith, R. Kobayashi, J. Normand, 
 K. Raghavachari, A. Rendell, J. C. Burant, S. S. Iyengar, J. Tomasi, 
 M. Cossi, N. Rega, J. M. Millam, M. Klene, J. E. Knox, J. B. Cross, 
 V. Bakken, C. Adamo, J. Jaramillo, R. Gomperts, R. E. Stratmann, 
 O. Yazyev, A. J. Austin, R. Cammi, C. Pomelli, J. W. Ochterski, 
 R. L. Martin, K. Morokuma, V. G. Zakrzewski, G. A. Voth, 
 P. Salvador, J. J. Dannenberg, S. Dapprich, A. D. Daniels, 
 O. Farkas, J. B. Foresman, J. V. Ortiz, J. Cioslowski, 
 and D. J. Fox, Gaussian, Inc., Wallingford CT, 2010.
 
 ******************************************
 Gaussian 09:  EM64L-G09RevB.01 12-Aug-2010
                13-Apr-2021 
 ******************************************
 %mem=600MW
 %nprocshared=10
 Will use up to   10 processors via shared memory.
 ----------------------------------------
 # opt b3lyp/6-311+g(d) geom=connectivity
 ----------------------------------------
 1/14=-1,18=20,19=15,26=3,38=1,57=2/1,3;
 2/9=110,12=2,17=6,18=5,40=1/2;
 3/5=4,6=6,7=11,11=2,16=1,25=1,30=1,71=1,74=-5/1,2,3;
 4//1;
 5/5=2,38=5/2;
 6/7=2,8=2,9=2,10=2,28=1/1;
 7//1,2,3,16;
 1/14=-1,18=20,19=15/3(2);
 2/9=110/2;
 99//99;
 2/9=110/2;
 3/5=4,6=6,7=11,11=2,16=1,25=1,30=1,71=1,74=-5/1,2,3;
 4/5=5,16=3/1;
 5/5=2,38=5/2;
 7//1,2,3,16;
 1/14=-1,18=20,19=15/3(-5);
 2/9=110/2;
 6/7=2,8=2,9=2,10=2,19=2,28=1/1;
 99/9=1/99;
 -------------------
 Title Card Required
 -------------------
 Symbolic Z-matrix:
 Charge =  0 Multiplicity = 1
 C                     2.21737   0.0325    2.84463 
 C                     3.03133   0.69551   2.01443 
 C                     2.59558   0.97282   0.59435 
 C                     1.61349  -0.06809  -0.03446 
 C                     0.85164  -1.00326   0.94712 
 C                     0.86727  -0.47926   2.41751 
 C                     0.66679   0.79267  -0.93773 
 C                    -0.70712   1.02353  -0.32013 
 C                    -1.43262   0.02415   0.27595 
 C                    -0.6646   -1.19308   0.60981 
 C                    -2.89203   0.21316   0.57253 
 O                    -3.36809   1.34094   0.5759 
 C                    -3.78851  -0.9949    0.87838 
 C                    -5.21547  -0.76185   0.3511 
 C                    -3.7911   -1.22236   2.40559 
 O                    -1.1726   -2.29142   0.81265 
 C                     1.21166   2.23655  -0.96804 
 C                    -0.05886   3.08342  -1.19068 
 O                    -1.11435   2.26658  -0.52863 
 C                     1.91112   2.35152   0.39947 
 O                     0.46346   0.19847  -2.20007 
 C                     1.62089  -2.33571   0.84536 
 C                     2.32734  -2.32828  -0.51391 
 O                     2.36779  -0.92222  -0.91188 
 C                     1.75921  -3.14122  -1.66655 
 C                     2.65184  -3.17571  -2.88638 
 C                     0.58755  -3.78227  -1.62876 
 C                    -0.43594   3.19929  -2.66921 
 C                    -0.09408   4.44301  -0.50127 
 H                     1.92533   2.36506  -1.78721 
 H                     3.47569   0.95048  -0.06165 
 C                     4.37675   1.22647   2.43453 
 H                     2.51879  -0.14023   3.87675 
 H                     0.54106  -1.29859   3.06833 
 H                     0.11295   0.31151   2.5336 
 H                    -3.36164  -1.88389   0.40826 
 H                    -5.84742  -1.58107   0.72028 
 H                    -5.60779   0.16539   0.78331 
 H                    -4.17555  -0.33753   2.92629 
 H                    -4.43315  -2.07414   2.65736 
 H                    -2.78739  -1.4415    2.78289 
 H                     1.17848   2.51314   1.19917 
 H                     2.62599   3.17873   0.44667 
 H                     1.17552  -0.47158  -2.26822 
 H                     0.94242  -3.17701   0.9861 
 H                     2.37679  -2.37267   1.63471 
 H                     3.37873  -2.62182  -0.3925 
 H                     3.61358  -3.65476  -2.65416 
 H                     2.88878  -2.16402  -3.2397 
 H                     2.18739  -3.72584  -3.70978 
 H                     0.23805  -4.34378  -2.49214 
 H                    -0.07126  -3.76377  -0.76761 
 H                    -1.44049   3.62311  -2.76534 
 H                    -0.41198   2.22146  -3.1556 
 H                     0.26922   3.86236  -3.18336 
 H                     0.07949   4.35976   0.57435 
 H                     0.6736    5.0969   -0.92947 
 H                    -1.06993   4.91469  -0.65229 
 H                     5.18175   0.78932   1.82761 
 H                     4.43966   2.31491   2.29762 
 H                     4.58566   1.00792   3.48656 
 C                    -5.30975  -0.69628  -1.17707 
 H                    -4.73925   0.15114  -1.57201 
 H                    -6.34989  -0.57466  -1.50121 
 H                    -4.92151  -1.61188  -1.64092 
 

 GradGradGradGradGradGradGradGradGradGradGradGradGradGradGradGradGradGrad
 Berny optimization.
 Initialization pass.
                           ----------------------------
                           !    Initial Parameters    !
                           ! (Angstroms and Degrees)  !
 --------------------------                            --------------------------
 ! Name  Definition              Value          Derivative Info.                !
 --------------------------------------------------------------------------------
 ! R1    R(1,2)                  1.3384         estimate D2E/DX2                !
 ! R2    R(1,6)                  1.5057         estimate D2E/DX2                !
 ! R3    R(1,33)                 1.089          estimate D2E/DX2                !
 ! R4    R(2,3)                  1.5111         estimate D2E/DX2                !
 ! R5    R(2,32)                 1.5062         estimate D2E/DX2                !
 ! R6    R(3,4)                  1.5631         estimate D2E/DX2                !
 ! R7    R(3,20)                 1.5515         estimate D2E/DX2                !
 ! R8    R(3,31)                 1.0979         estimate D2E/DX2                !
 ! R9    R(4,5)                  1.5551         estimate D2E/DX2                !
 ! R10   R(4,7)                  1.5662         estimate D2E/DX2                !
 ! R11   R(4,24)                 1.4382         estimate D2E/DX2                !
 ! R12   R(5,6)                  1.561          estimate D2E/DX2                !
 ! R13   R(5,10)                 1.5649         estimate D2E/DX2                !
 ! R14   R(5,22)                 1.5419         estimate D2E/DX2                !
 ! R15   R(6,34)                 1.096          estimate D2E/DX2                !
 ! R16   R(6,35)                 1.099          estimate D2E/DX2                !
 ! R17   R(7,8)                  1.5239         estimate D2E/DX2                !
 ! R18   R(7,17)                 1.5436         estimate D2E/DX2                !
 ! R19   R(7,21)                 1.4099         estimate D2E/DX2                !
 ! R20   R(8,9)                  1.3713         estimate D2E/DX2                !
 ! R21   R(8,19)                 1.3246         estimate D2E/DX2                !
 ! R22   R(9,10)                 1.4775         estimate D2E/DX2                !
 ! R23   R(9,11)                 1.5012         estimate D2E/DX2                !
 ! R24   R(10,16)                1.227          estimate D2E/DX2                !
 ! R25   R(11,12)                1.2241         estimate D2E/DX2                !
 ! R26   R(11,13)                1.5351         estimate D2E/DX2                !
 ! R27   R(13,14)                1.539          estimate D2E/DX2                !
 ! R28   R(13,15)                1.5441         estimate D2E/DX2                !
 ! R29   R(13,36)                1.0925         estimate D2E/DX2                !
 ! R30   R(14,37)                1.0985         estimate D2E/DX2                !
 ! R31   R(14,38)                1.0957         estimate D2E/DX2                !
 ! R32   R(14,62)                1.5325         estimate D2E/DX2                !
 ! R33   R(15,39)                1.0963         estimate D2E/DX2                !
 ! R34   R(15,40)                1.096          estimate D2E/DX2                !
 ! R35   R(15,41)                1.0944         estimate D2E/DX2                !
 ! R36   R(17,18)                1.543          estimate D2E/DX2                !
 ! R37   R(17,20)                1.5403         estimate D2E/DX2                !
 ! R38   R(17,30)                1.094          estimate D2E/DX2                !
 ! R39   R(18,19)                1.4898         estimate D2E/DX2                !
 ! R40   R(18,28)                1.5303         estimate D2E/DX2                !
 ! R41   R(18,29)                1.5248         estimate D2E/DX2                !
 ! R42   R(20,42)                1.0965         estimate D2E/DX2                !
 ! R43   R(20,43)                1.0943         estimate D2E/DX2                !
 ! R44   R(21,44)                0.9801         estimate D2E/DX2                !
 ! R45   R(22,23)                1.5319         estimate D2E/DX2                !
 ! R46   R(22,45)                1.0899         estimate D2E/DX2                !
 ! R47   R(22,46)                1.0935         estimate D2E/DX2                !
 ! R48   R(23,24)                1.4619         estimate D2E/DX2                !
 ! R49   R(23,25)                1.5206         estimate D2E/DX2                !
 ! R50   R(23,47)                1.0983         estimate D2E/DX2                !
 ! R51   R(24,44)                1.8613         estimate D2E/DX2                !
 ! R52   R(25,26)                1.5119         estimate D2E/DX2                !
 ! R53   R(25,27)                1.3361         estimate D2E/DX2                !
 ! R54   R(26,48)                1.0993         estimate D2E/DX2                !
 ! R55   R(26,49)                1.0975         estimate D2E/DX2                !
 ! R56   R(26,50)                1.0938         estimate D2E/DX2                !
 ! R57   R(27,51)                1.0876         estimate D2E/DX2                !
 ! R58   R(27,52)                1.0844         estimate D2E/DX2                !
 ! R59   R(28,53)                1.0945         estimate D2E/DX2                !
 ! R60   R(28,54)                1.0924         estimate D2E/DX2                !
 ! R61   R(28,55)                1.096          estimate D2E/DX2                !
 ! R62   R(29,56)                1.0927         estimate D2E/DX2                !
 ! R63   R(29,57)                1.0956         estimate D2E/DX2                !
 ! R64   R(29,58)                1.0943         estimate D2E/DX2                !
 ! R65   R(32,59)                1.0989         estimate D2E/DX2                !
 ! R66   R(32,60)                1.0988         estimate D2E/DX2                !
 ! R67   R(32,61)                1.0946         estimate D2E/DX2                !
 ! R68   R(62,63)                1.0952         estimate D2E/DX2                !
 ! R69   R(62,64)                1.0962         estimate D2E/DX2                !
 ! R70   R(62,65)                1.0974         estimate D2E/DX2                !
 ! A1    A(2,1,6)              122.5284         estimate D2E/DX2                !
 ! A2    A(2,1,33)             119.8764         estimate D2E/DX2                !
 ! A3    A(6,1,33)             117.5886         estimate D2E/DX2                !
 ! A4    A(1,2,3)              119.8989         estimate D2E/DX2                !
 ! A5    A(1,2,32)             123.0154         estimate D2E/DX2                !
 ! A6    A(3,2,32)             117.0656         estimate D2E/DX2                !
 ! A7    A(2,3,4)              115.9134         estimate D2E/DX2                !
 ! A8    A(2,3,20)             114.0993         estimate D2E/DX2                !
 ! A9    A(2,3,31)             109.0635         estimate D2E/DX2                !
 ! A10   A(4,3,20)             105.3096         estimate D2E/DX2                !
 ! A11   A(4,3,31)             104.4618         estimate D2E/DX2                !
 ! A12   A(20,3,31)            107.2578         estimate D2E/DX2                !
 ! A13   A(3,4,5)              117.0214         estimate D2E/DX2                !
 ! A14   A(3,4,7)              104.2285         estimate D2E/DX2                !
 ! A15   A(3,4,24)             108.1422         estimate D2E/DX2                !
 ! A16   A(5,4,7)              113.4776         estimate D2E/DX2                !
 ! A17   A(5,4,24)             106.552          estimate D2E/DX2                !
 ! A18   A(7,4,24)             106.9516         estimate D2E/DX2                !
 ! A19   A(4,5,6)              112.8158         estimate D2E/DX2                !
 ! A20   A(4,5,10)             114.3026         estimate D2E/DX2                !
 ! A21   A(4,5,22)             103.5087         estimate D2E/DX2                !
 ! A22   A(6,5,10)             104.6823         estimate D2E/DX2                !
 ! A23   A(6,5,22)             110.3184         estimate D2E/DX2                !
 ! A24   A(10,5,22)            111.367          estimate D2E/DX2                !
 ! A25   A(1,6,5)              112.9712         estimate D2E/DX2                !
 ! A26   A(1,6,34)             110.6411         estimate D2E/DX2                !
 ! A27   A(1,6,35)             109.9329         estimate D2E/DX2                !
 ! A28   A(5,6,34)             107.7826         estimate D2E/DX2                !
 ! A29   A(5,6,35)             109.5209         estimate D2E/DX2                !
 ! A30   A(34,6,35)            105.7162         estimate D2E/DX2                !
 ! A31   A(4,7,8)              113.2332         estimate D2E/DX2                !
 ! A32   A(4,7,17)             108.1828         estimate D2E/DX2                !
 ! A33   A(4,7,21)             111.8332         estimate D2E/DX2                !
 ! A34   A(8,7,17)             100.6317         estimate D2E/DX2                !
 ! A35   A(8,7,21)             107.2575         estimate D2E/DX2                !
 ! A36   A(17,7,21)            115.3119         estimate D2E/DX2                !
 ! A37   A(7,8,9)              122.8708         estimate D2E/DX2                !
 ! A38   A(7,8,19)             110.8275         estimate D2E/DX2                !
 ! A39   A(9,8,19)             126.1357         estimate D2E/DX2                !
 ! A40   A(8,9,10)             115.0633         estimate D2E/DX2                !
 ! A41   A(8,9,11)             120.5612         estimate D2E/DX2                !
 ! A42   A(10,9,11)            124.3636         estimate D2E/DX2                !
 ! A43   A(5,10,9)             116.9004         estimate D2E/DX2                !
 ! A44   A(5,10,16)            118.3008         estimate D2E/DX2                !
 ! A45   A(9,10,16)            124.0278         estimate D2E/DX2                !
 ! A46   A(9,11,12)            119.6445         estimate D2E/DX2                !
 ! A47   A(9,11,13)            120.5306         estimate D2E/DX2                !
 ! A48   A(12,11,13)           119.8241         estimate D2E/DX2                !
 ! A49   A(11,13,14)           110.7341         estimate D2E/DX2                !
 ! A50   A(11,13,15)           108.2983         estimate D2E/DX2                !
 ! A51   A(11,13,36)           109.0531         estimate D2E/DX2                !
 ! A52   A(14,13,15)           111.0771         estimate D2E/DX2                !
 ! A53   A(14,13,36)           109.7596         estimate D2E/DX2                !
 ! A54   A(15,13,36)           107.843          estimate D2E/DX2                !
 ! A55   A(13,14,37)           107.7776         estimate D2E/DX2                !
 ! A56   A(13,14,38)           108.9654         estimate D2E/DX2                !
 ! A57   A(13,14,62)           113.9017         estimate D2E/DX2                !
 ! A58   A(37,14,38)           107.0106         estimate D2E/DX2                !
 ! A59   A(37,14,62)           109.3682         estimate D2E/DX2                !
 ! A60   A(38,14,62)           109.5798         estimate D2E/DX2                !
 ! A61   A(13,15,39)           110.5778         estimate D2E/DX2                !
 ! A62   A(13,15,40)           110.041          estimate D2E/DX2                !
 ! A63   A(13,15,41)           111.6503         estimate D2E/DX2                !
 ! A64   A(39,15,40)           108.2234         estimate D2E/DX2                !
 ! A65   A(39,15,41)           108.6309         estimate D2E/DX2                !
 ! A66   A(40,15,41)           107.6049         estimate D2E/DX2                !
 ! A67   A(7,17,18)            103.0365         estimate D2E/DX2                !
 ! A68   A(7,17,20)            102.2794         estimate D2E/DX2                !
 ! A69   A(7,17,30)            110.7843         estimate D2E/DX2                !
 ! A70   A(18,17,20)           117.4543         estimate D2E/DX2                !
 ! A71   A(18,17,30)           111.3844         estimate D2E/DX2                !
 ! A72   A(20,17,30)           111.0862         estimate D2E/DX2                !
 ! A73   A(17,18,19)           102.6098         estimate D2E/DX2                !
 ! A74   A(17,18,28)           112.5734         estimate D2E/DX2                !
 ! A75   A(17,18,29)           116.3049         estimate D2E/DX2                !
 ! A76   A(19,18,28)           107.2354         estimate D2E/DX2                !
 ! A77   A(19,18,29)           105.7591         estimate D2E/DX2                !
 ! A78   A(28,18,29)           111.3237         estimate D2E/DX2                !
 ! A79   A(8,19,18)            111.5103         estimate D2E/DX2                !
 ! A80   A(3,20,17)            104.2123         estimate D2E/DX2                !
 ! A81   A(3,20,42)            109.5189         estimate D2E/DX2                !
 ! A82   A(3,20,43)            112.2161         estimate D2E/DX2                !
 ! A83   A(17,20,42)           110.7981         estimate D2E/DX2                !
 ! A84   A(17,20,43)           113.039          estimate D2E/DX2                !
 ! A85   A(42,20,43)           107.0734         estimate D2E/DX2                !
 ! A86   A(7,21,44)            104.2165         estimate D2E/DX2                !
 ! A87   A(5,22,23)            106.5249         estimate D2E/DX2                !
 ! A88   A(5,22,45)            110.3623         estimate D2E/DX2                !
 ! A89   A(5,22,46)            109.0517         estimate D2E/DX2                !
 ! A90   A(23,22,45)           113.9154         estimate D2E/DX2                !
 ! A91   A(23,22,46)           108.7762         estimate D2E/DX2                !
 ! A92   A(45,22,46)           108.1199         estimate D2E/DX2                !
 ! A93   A(22,23,24)           105.0095         estimate D2E/DX2                !
 ! A94   A(22,23,25)           119.8478         estimate D2E/DX2                !
 ! A95   A(22,23,47)           110.0027         estimate D2E/DX2                !
 ! A96   A(24,23,25)           108.5537         estimate D2E/DX2                !
 ! A97   A(24,23,47)           105.1096         estimate D2E/DX2                !
 ! A98   A(25,23,47)           107.3719         estimate D2E/DX2                !
 ! A99   A(4,24,23)            112.9937         estimate D2E/DX2                !
 ! A100  A(23,25,26)           113.777          estimate D2E/DX2                !
 ! A101  A(23,25,27)           124.2432         estimate D2E/DX2                !
 ! A102  A(26,25,27)           121.9784         estimate D2E/DX2                !
 ! A103  A(25,26,48)           110.857          estimate D2E/DX2                !
 ! A104  A(25,26,49)           111.4796         estimate D2E/DX2                !
 ! A105  A(25,26,50)           111.6011         estimate D2E/DX2                !
 ! A106  A(48,26,49)           106.3107         estimate D2E/DX2                !
 ! A107  A(48,26,50)           108.1403         estimate D2E/DX2                !
 ! A108  A(49,26,50)           108.238          estimate D2E/DX2                !
 ! A109  A(25,27,51)           120.468          estimate D2E/DX2                !
 ! A110  A(25,27,52)           123.1632         estimate D2E/DX2                !
 ! A111  A(51,27,52)           116.3586         estimate D2E/DX2                !
 ! A112  A(18,28,53)           109.898          estimate D2E/DX2                !
 ! A113  A(18,28,54)           110.9173         estimate D2E/DX2                !
 ! A114  A(18,28,55)           109.9084         estimate D2E/DX2                !
 ! A115  A(53,28,54)           109.1253         estimate D2E/DX2                !
 ! A116  A(53,28,55)           108.3629         estimate D2E/DX2                !
 ! A117  A(54,28,55)           108.5753         estimate D2E/DX2                !
 ! A118  A(18,29,56)           111.9285         estimate D2E/DX2                !
 ! A119  A(18,29,57)           109.8333         estimate D2E/DX2                !
 ! A120  A(18,29,58)           110.0306         estimate D2E/DX2                !
 ! A121  A(56,29,57)           108.5966         estimate D2E/DX2                !
 ! A122  A(56,29,58)           108.0792         estimate D2E/DX2                !
 ! A123  A(57,29,58)           108.28           estimate D2E/DX2                !
 ! A124  A(2,32,59)            111.1061         estimate D2E/DX2                !
 ! A125  A(2,32,60)            111.4431         estimate D2E/DX2                !
 ! A126  A(2,32,61)            111.602          estimate D2E/DX2                !
 ! A127  A(59,32,60)           106.4585         estimate D2E/DX2                !
 ! A128  A(59,32,61)           108.1555         estimate D2E/DX2                !
 ! A129  A(60,32,61)           107.8544         estimate D2E/DX2                !
 ! A130  A(14,62,63)           111.1399         estimate D2E/DX2                !
 ! A131  A(14,62,64)           110.9759         estimate D2E/DX2                !
 ! A132  A(14,62,65)           111.3481         estimate D2E/DX2                !
 ! A133  A(63,62,64)           107.564          estimate D2E/DX2                !
 ! A134  A(63,62,65)           107.9906         estimate D2E/DX2                !
 ! A135  A(64,62,65)           107.6535         estimate D2E/DX2                !
 ! D1    D(6,1,2,3)              0.9301         estimate D2E/DX2                !
 ! D2    D(6,1,2,32)           179.2487         estimate D2E/DX2                !
 ! D3    D(33,1,2,3)          -178.1097         estimate D2E/DX2                !
 ! D4    D(33,1,2,32)            0.2089         estimate D2E/DX2                !
 ! D5    D(2,1,6,5)             36.7794         estimate D2E/DX2                !
 ! D6    D(2,1,6,34)           157.7193         estimate D2E/DX2                !
 ! D7    D(2,1,6,35)           -85.889          estimate D2E/DX2                !
 ! D8    D(33,1,6,5)          -144.16           estimate D2E/DX2                !
 ! D9    D(33,1,6,34)          -23.2201         estimate D2E/DX2                !
 ! D10   D(33,1,6,35)           93.1716         estimate D2E/DX2                !
 ! D11   D(1,2,3,4)            -29.2568         estimate D2E/DX2                !
 ! D12   D(1,2,3,20)            93.3526         estimate D2E/DX2                !
 ! D13   D(1,2,3,31)          -146.7511         estimate D2E/DX2                !
 ! D14   D(32,2,3,4)           152.3265         estimate D2E/DX2                !
 ! D15   D(32,2,3,20)          -85.0641         estimate D2E/DX2                !
 ! D16   D(32,2,3,31)           34.8322         estimate D2E/DX2                !
 ! D17   D(1,2,32,59)          120.3136         estimate D2E/DX2                !
 ! D18   D(1,2,32,60)         -121.1393         estimate D2E/DX2                !
 ! D19   D(1,2,32,61)           -0.4885         estimate D2E/DX2                !
 ! D20   D(3,2,32,59)          -61.3233         estimate D2E/DX2                !
 ! D21   D(3,2,32,60)           57.2238         estimate D2E/DX2                !
 ! D22   D(3,2,32,61)          177.8746         estimate D2E/DX2                !
 ! D23   D(2,3,4,5)             18.2867         estimate D2E/DX2                !
 ! D24   D(2,3,4,7)            144.4921         estimate D2E/DX2                !
 ! D25   D(2,3,4,24)          -101.9539         estimate D2E/DX2                !
 ! D26   D(20,3,4,5)          -108.8464         estimate D2E/DX2                !
 ! D27   D(20,3,4,7)            17.3589         estimate D2E/DX2                !
 ! D28   D(20,3,4,24)          130.9129         estimate D2E/DX2                !
 ! D29   D(31,3,4,5)           138.3077         estimate D2E/DX2                !
 ! D30   D(31,3,4,7)           -95.487          estimate D2E/DX2                !
 ! D31   D(31,3,4,24)           18.067          estimate D2E/DX2                !
 ! D32   D(2,3,20,17)         -164.1711         estimate D2E/DX2                !
 ! D33   D(2,3,20,42)          -45.5901         estimate D2E/DX2                !
 ! D34   D(2,3,20,43)           73.1774         estimate D2E/DX2                !
 ! D35   D(4,3,20,17)          -35.9423         estimate D2E/DX2                !
 ! D36   D(4,3,20,42)           82.6387         estimate D2E/DX2                !
 ! D37   D(4,3,20,43)         -158.5938         estimate D2E/DX2                !
 ! D38   D(31,3,20,17)          74.923          estimate D2E/DX2                !
 ! D39   D(31,3,20,42)        -166.496          estimate D2E/DX2                !
 ! D40   D(31,3,20,43)         -47.7285         estimate D2E/DX2                !
 ! D41   D(3,4,5,6)             17.0839         estimate D2E/DX2                !
 ! D42   D(3,4,5,10)           136.535          estimate D2E/DX2                !
 ! D43   D(3,4,5,22)          -102.1578         estimate D2E/DX2                !
 ! D44   D(7,4,5,6)           -104.4046         estimate D2E/DX2                !
 ! D45   D(7,4,5,10)            15.0465         estimate D2E/DX2                !
 ! D46   D(7,4,5,22)           136.3537         estimate D2E/DX2                !
 ! D47   D(24,4,5,6)           138.1626         estimate D2E/DX2                !
 ! D48   D(24,4,5,10)         -102.3863         estimate D2E/DX2                !
 ! D49   D(24,4,5,22)           18.9208         estimate D2E/DX2                !
 ! D50   D(3,4,7,8)           -103.3438         estimate D2E/DX2                !
 ! D51   D(3,4,7,17)             7.286          estimate D2E/DX2                !
 ! D52   D(3,4,7,21)           135.3384         estimate D2E/DX2                !
 ! D53   D(5,4,7,8)             25.0558         estimate D2E/DX2                !
 ! D54   D(5,4,7,17)           135.6856         estimate D2E/DX2                !
 ! D55   D(5,4,7,21)           -96.2621         estimate D2E/DX2                !
 ! D56   D(24,4,7,8)           142.2557         estimate D2E/DX2                !
 ! D57   D(24,4,7,17)         -107.1145         estimate D2E/DX2                !
 ! D58   D(24,4,7,21)           20.9379         estimate D2E/DX2                !
 ! D59   D(3,4,24,23)          119.1973         estimate D2E/DX2                !
 ! D60   D(5,4,24,23)           -7.3967         estimate D2E/DX2                !
 ! D61   D(7,4,24,23)         -129.0703         estimate D2E/DX2                !
 ! D62   D(4,5,6,1)            -43.4664         estimate D2E/DX2                !
 ! D63   D(4,5,6,34)          -166.0165         estimate D2E/DX2                !
 ! D64   D(4,5,6,35)            79.4315         estimate D2E/DX2                !
 ! D65   D(10,5,6,1)          -168.3415         estimate D2E/DX2                !
 ! D66   D(10,5,6,34)           69.1084         estimate D2E/DX2                !
 ! D67   D(10,5,6,35)          -45.4436         estimate D2E/DX2                !
 ! D68   D(22,5,6,1)            71.748          estimate D2E/DX2                !
 ! D69   D(22,5,6,34)          -50.8022         estimate D2E/DX2                !
 ! D70   D(22,5,6,35)         -165.3542         estimate D2E/DX2                !
 ! D71   D(4,5,10,9)           -45.5084         estimate D2E/DX2                !
 ! D72   D(4,5,10,16)          144.1378         estimate D2E/DX2                !
 ! D73   D(6,5,10,9)            78.4199         estimate D2E/DX2                !
 ! D74   D(6,5,10,16)          -91.934          estimate D2E/DX2                !
 ! D75   D(22,5,10,9)         -162.3735         estimate D2E/DX2                !
 ! D76   D(22,5,10,16)          27.2726         estimate D2E/DX2                !
 ! D77   D(4,5,22,23)          -23.4274         estimate D2E/DX2                !
 ! D78   D(4,5,22,45)         -147.5629         estimate D2E/DX2                !
 ! D79   D(4,5,22,46)           93.8084         estimate D2E/DX2                !
 ! D80   D(6,5,22,23)         -144.3726         estimate D2E/DX2                !
 ! D81   D(6,5,22,45)           91.4919         estimate D2E/DX2                !
 ! D82   D(6,5,22,46)          -27.1368         estimate D2E/DX2                !
 ! D83   D(10,5,22,23)          99.8365         estimate D2E/DX2                !
 ! D84   D(10,5,22,45)         -24.2991         estimate D2E/DX2                !
 ! D85   D(10,5,22,46)        -142.9277         estimate D2E/DX2                !
 ! D86   D(4,7,8,9)            -45.0217         estimate D2E/DX2                !
 ! D87   D(4,7,8,19)           139.4006         estimate D2E/DX2                !
 ! D88   D(17,7,8,9)          -160.2422         estimate D2E/DX2                !
 ! D89   D(17,7,8,19)           24.18           estimate D2E/DX2                !
 ! D90   D(21,7,8,9)            78.8382         estimate D2E/DX2                !
 ! D91   D(21,7,8,19)          -96.7395         estimate D2E/DX2                !
 ! D92   D(4,7,17,18)         -151.3354         estimate D2E/DX2                !
 ! D93   D(4,7,17,20)          -29.0109         estimate D2E/DX2                !
 ! D94   D(4,7,17,30)           89.4421         estimate D2E/DX2                !
 ! D95   D(8,7,17,18)          -32.3808         estimate D2E/DX2                !
 ! D96   D(8,7,17,20)           89.9437         estimate D2E/DX2                !
 ! D97   D(8,7,17,30)         -151.6034         estimate D2E/DX2                !
 ! D98   D(21,7,17,18)          82.6234         estimate D2E/DX2                !
 ! D99   D(21,7,17,20)        -155.0521         estimate D2E/DX2                !
 ! D100  D(21,7,17,30)         -36.5991         estimate D2E/DX2                !
 ! D101  D(4,7,21,44)          -15.7445         estimate D2E/DX2                !
 ! D102  D(8,7,21,44)         -140.4564         estimate D2E/DX2                !
 ! D103  D(17,7,21,44)         108.4046         estimate D2E/DX2                !
 ! D104  D(7,8,9,10)            15.8755         estimate D2E/DX2                !
 ! D105  D(7,8,9,11)          -165.3295         estimate D2E/DX2                !
 ! D106  D(19,8,9,10)         -169.2441         estimate D2E/DX2                !
 ! D107  D(19,8,9,11)            9.5509         estimate D2E/DX2                !
 ! D108  D(7,8,19,18)           -5.0922         estimate D2E/DX2                !
 ! D109  D(9,8,19,18)          179.5072         estimate D2E/DX2                !
 ! D110  D(8,9,10,5)            30.0854         estimate D2E/DX2                !
 ! D111  D(8,9,10,16)         -160.1688         estimate D2E/DX2                !
 ! D112  D(11,9,10,5)         -148.6576         estimate D2E/DX2                !
 ! D113  D(11,9,10,16)          21.0882         estimate D2E/DX2                !
 ! D114  D(8,9,11,12)          -16.9262         estimate D2E/DX2                !
 ! D115  D(8,9,11,13)          163.3985         estimate D2E/DX2                !
 ! D116  D(10,9,11,12)         161.7515         estimate D2E/DX2                !
 ! D117  D(10,9,11,13)         -17.9238         estimate D2E/DX2                !
 ! D118  D(9,11,13,14)        -146.6509         estimate D2E/DX2                !
 ! D119  D(9,11,13,15)          91.3309         estimate D2E/DX2                !
 ! D120  D(9,11,13,36)         -25.7753         estimate D2E/DX2                !
 ! D121  D(12,11,13,14)         33.6745         estimate D2E/DX2                !
 ! D122  D(12,11,13,15)        -88.3438         estimate D2E/DX2                !
 ! D123  D(12,11,13,36)        154.55           estimate D2E/DX2                !
 ! D124  D(11,13,14,37)       -171.8853         estimate D2E/DX2                !
 ! D125  D(11,13,14,38)        -56.0975         estimate D2E/DX2                !
 ! D126  D(11,13,14,62)         66.5788         estimate D2E/DX2                !
 ! D127  D(15,13,14,37)        -51.5092         estimate D2E/DX2                !
 ! D128  D(15,13,14,38)         64.2786         estimate D2E/DX2                !
 ! D129  D(15,13,14,62)       -173.0451         estimate D2E/DX2                !
 ! D130  D(36,13,14,37)         67.6588         estimate D2E/DX2                !
 ! D131  D(36,13,14,38)       -176.5533         estimate D2E/DX2                !
 ! D132  D(36,13,14,62)        -53.877          estimate D2E/DX2                !
 ! D133  D(11,13,15,39)         59.8769         estimate D2E/DX2                !
 ! D134  D(11,13,15,40)        179.383          estimate D2E/DX2                !
 ! D135  D(11,13,15,41)        -61.1988         estimate D2E/DX2                !
 ! D136  D(14,13,15,39)        -61.931          estimate D2E/DX2                !
 ! D137  D(14,13,15,40)         57.5752         estimate D2E/DX2                !
 ! D138  D(14,13,15,41)        176.9933         estimate D2E/DX2                !
 ! D139  D(36,13,15,39)        177.7588         estimate D2E/DX2                !
 ! D140  D(36,13,15,40)        -62.7351         estimate D2E/DX2                !
 ! D141  D(36,13,15,41)         56.6831         estimate D2E/DX2                !
 ! D142  D(13,14,62,63)        -62.9055         estimate D2E/DX2                !
 ! D143  D(13,14,62,64)        177.4412         estimate D2E/DX2                !
 ! D144  D(13,14,62,65)         57.5369         estimate D2E/DX2                !
 ! D145  D(37,14,62,63)        176.4449         estimate D2E/DX2                !
 ! D146  D(37,14,62,64)         56.7916         estimate D2E/DX2                !
 ! D147  D(37,14,62,65)        -63.1127         estimate D2E/DX2                !
 ! D148  D(38,14,62,63)         59.4337         estimate D2E/DX2                !
 ! D149  D(38,14,62,64)        -60.2196         estimate D2E/DX2                !
 ! D150  D(38,14,62,65)        179.8761         estimate D2E/DX2                !
 ! D151  D(7,17,18,19)          30.2918         estimate D2E/DX2                !
 ! D152  D(7,17,18,28)         -84.6571         estimate D2E/DX2                !
 ! D153  D(7,17,18,29)         145.1922         estimate D2E/DX2                !
 ! D154  D(20,17,18,19)        -81.1963         estimate D2E/DX2                !
 ! D155  D(20,17,18,28)        163.8547         estimate D2E/DX2                !
 ! D156  D(20,17,18,29)         33.704          estimate D2E/DX2                !
 ! D157  D(30,17,18,19)        149.0972         estimate D2E/DX2                !
 ! D158  D(30,17,18,28)         34.1482         estimate D2E/DX2                !
 ! D159  D(30,17,18,29)        -96.0025         estimate D2E/DX2                !
 ! D160  D(7,17,20,3)           39.5683         estimate D2E/DX2                !
 ! D161  D(7,17,20,42)         -78.1348         estimate D2E/DX2                !
 ! D162  D(7,17,20,43)         161.6789         estimate D2E/DX2                !
 ! D163  D(18,17,20,3)         151.4837         estimate D2E/DX2                !
 ! D164  D(18,17,20,42)         33.7806         estimate D2E/DX2                !
 ! D165  D(18,17,20,43)        -86.4057         estimate D2E/DX2                !
 ! D166  D(30,17,20,3)         -78.6706         estimate D2E/DX2                !
 ! D167  D(30,17,20,42)        163.6263         estimate D2E/DX2                !
 ! D168  D(30,17,20,43)         43.44           estimate D2E/DX2                !
 ! D169  D(17,18,19,8)         -16.4027         estimate D2E/DX2                !
 ! D170  D(28,18,19,8)         102.3643         estimate D2E/DX2                !
 ! D171  D(29,18,19,8)        -138.7443         estimate D2E/DX2                !
 ! D172  D(17,18,28,53)        168.3068         estimate D2E/DX2                !
 ! D173  D(17,18,28,54)         47.5522         estimate D2E/DX2                !
 ! D174  D(17,18,28,55)        -72.5221         estimate D2E/DX2                !
 ! D175  D(19,18,28,53)         56.1895         estimate D2E/DX2                !
 ! D176  D(19,18,28,54)        -64.5652         estimate D2E/DX2                !
 ! D177  D(19,18,28,55)        175.3605         estimate D2E/DX2                !
 ! D178  D(29,18,28,53)        -59.0475         estimate D2E/DX2                !
 ! D179  D(29,18,28,54)       -179.8021         estimate D2E/DX2                !
 ! D180  D(29,18,28,55)         60.1236         estimate D2E/DX2                !
 ! D181  D(17,18,29,56)        -54.7345         estimate D2E/DX2                !
 ! D182  D(17,18,29,57)         65.9728         estimate D2E/DX2                !
 ! D183  D(17,18,29,58)       -174.9228         estimate D2E/DX2                !
 ! D184  D(19,18,29,56)         58.3782         estimate D2E/DX2                !
 ! D185  D(19,18,29,57)        179.0855         estimate D2E/DX2                !
 ! D186  D(19,18,29,58)        -61.8101         estimate D2E/DX2                !
 ! D187  D(28,18,29,56)        174.524          estimate D2E/DX2                !
 ! D188  D(28,18,29,57)        -64.7687         estimate D2E/DX2                !
 ! D189  D(28,18,29,58)         54.3357         estimate D2E/DX2                !
 ! D190  D(5,22,23,24)          19.4656         estimate D2E/DX2                !
 ! D191  D(5,22,23,25)        -102.7881         estimate D2E/DX2                !
 ! D192  D(5,22,23,47)         132.0971         estimate D2E/DX2                !
 ! D193  D(45,22,23,24)        141.3768         estimate D2E/DX2                !
 ! D194  D(45,22,23,25)         19.123          estimate D2E/DX2                !
 ! D195  D(45,22,23,47)       -105.9918         estimate D2E/DX2                !
 ! D196  D(46,22,23,24)        -97.9528         estimate D2E/DX2                !
 ! D197  D(46,22,23,25)        139.7934         estimate D2E/DX2                !
 ! D198  D(46,22,23,47)         14.6787         estimate D2E/DX2                !
 ! D199  D(22,23,24,4)          -7.5235         estimate D2E/DX2                !
 ! D200  D(25,23,24,4)         121.7869         estimate D2E/DX2                !
 ! D201  D(47,23,24,4)        -123.5777         estimate D2E/DX2                !
 ! D202  D(22,23,25,26)       -172.739          estimate D2E/DX2                !
 ! D203  D(22,23,25,27)          6.8491         estimate D2E/DX2                !
 ! D204  D(24,23,25,26)         66.7603         estimate D2E/DX2                !
 ! D205  D(24,23,25,27)       -113.6516         estimate D2E/DX2                !
 ! D206  D(47,23,25,26)        -46.3873         estimate D2E/DX2                !
 ! D207  D(47,23,25,27)        133.2008         estimate D2E/DX2                !
 ! D208  D(23,25,26,48)         62.2951         estimate D2E/DX2                !
 ! D209  D(23,25,26,49)        -55.9272         estimate D2E/DX2                !
 ! D210  D(23,25,26,50)       -177.0942         estimate D2E/DX2                !
 ! D211  D(27,25,26,48)       -117.3034         estimate D2E/DX2                !
 ! D212  D(27,25,26,49)        124.4742         estimate D2E/DX2                !
 ! D213  D(27,25,26,50)          3.3072         estimate D2E/DX2                !
 ! D214  D(23,25,27,51)        179.7627         estimate D2E/DX2                !
 ! D215  D(23,25,27,52)          0.9707         estimate D2E/DX2                !
 ! D216  D(26,25,27,51)         -0.6817         estimate D2E/DX2                !
 ! D217  D(26,25,27,52)       -179.4737         estimate D2E/DX2                !
 --------------------------------------------------------------------------------
 Trust Radius=3.00D-01 FncErr=1.00D-07 GrdErr=1.00D-06
 Number of steps in this run=    390 maximum allowed number of steps=    390.
 GradGradGradGradGradGradGradGradGradGradGradGradGradGradGradGradGradGrad

 Stoichiometry    C26H34O5
 Framework group  C1[X(C26H34O5)]
 Deg. of freedom   189
 Full point group                 C1      NOp   1
 Largest Abelian subgroup         C1      NOp   1
 Largest concise Abelian subgroup C1      NOp   1
                         Standard orientation:                         
 ---------------------------------------------------------------------
 Center     Atomic      Atomic             Coordinates (Angstroms)
 Number     Number       Type             X           Y           Z
 ---------------------------------------------------------------------
      1          6           0        2.217373    0.032499    2.844634
      2          6           0        3.031326    0.695513    2.014432
      3          6           0        2.595581    0.972821    0.594346
      4          6           0        1.613488   -0.068090   -0.034458
      5          6           0        0.851639   -1.003262    0.947124
      6          6           0        0.867274   -0.479264    2.417512
      7          6           0        0.666793    0.792671   -0.937727
      8          6           0       -0.707115    1.023529   -0.320132
      9          6           0       -1.432619    0.024147    0.275953
     10          6           0       -0.664596   -1.193080    0.609810
     11          6           0       -2.892025    0.213163    0.572530
     12          8           0       -3.368093    1.340944    0.575899
     13          6           0       -3.788506   -0.994902    0.878382
     14          6           0       -5.215466   -0.761851    0.351102
     15          6           0       -3.791095   -1.222358    2.405588
     16          8           0       -1.172601   -2.291417    0.812645
     17          6           0        1.211656    2.236551   -0.968039
     18          6           0       -0.058862    3.083416   -1.190678
     19          8           0       -1.114349    2.266575   -0.528629
     20          6           0        1.911118    2.351518    0.399470
     21          8           0        0.463457    0.198470   -2.200074
     22          6           0        1.620888   -2.335713    0.845364
     23          6           0        2.327344   -2.328281   -0.513913
     24          8           0        2.367792   -0.922218   -0.911877
     25          6           0        1.759211   -3.141218   -1.666551
     26          6           0        2.651837   -3.175706   -2.886377
     27          6           0        0.587554   -3.782272   -1.628760
     28          6           0       -0.435944    3.199292   -2.669207
     29          6           0       -0.094081    4.443014   -0.501269
     30          1           0        1.925326    2.365058   -1.787206
     31          1           0        3.475687    0.950477   -0.061652
     32          6           0        4.376754    1.226474    2.434529
     33          1           0        2.518788   -0.140227    3.876754
     34          1           0        0.541058   -1.298587    3.068331
     35          1           0        0.112948    0.311513    2.533601
     36          1           0       -3.361635   -1.883892    0.408260
     37          1           0       -5.847418   -1.581065    0.720277
     38          1           0       -5.607789    0.165394    0.783313
     39          1           0       -4.175546   -0.337529    2.926294
     40          1           0       -4.433154   -2.074140    2.657364
     41          1           0       -2.787388   -1.441495    2.782892
     42          1           0        1.178476    2.513136    1.199174
     43          1           0        2.625986    3.178725    0.446668
     44          1           0        1.175520   -0.471577   -2.268222
     45          1           0        0.942422   -3.177012    0.986099
     46          1           0        2.376788   -2.372668    1.634708
     47          1           0        3.378727   -2.621817   -0.392497
     48          1           0        3.613584   -3.654762   -2.654160
     49          1           0        2.888781   -2.164022   -3.239695
     50          1           0        2.187392   -3.725836   -3.709777
     51          1           0        0.238054   -4.343782   -2.492142
     52          1           0       -0.071256   -3.763765   -0.767605
     53          1           0       -1.440489    3.623110   -2.765341
     54          1           0       -0.411984    2.221461   -3.155600
     55          1           0        0.269223    3.862362   -3.183358
     56          1           0        0.079492    4.359756    0.574350
     57          1           0        0.673600    5.096897   -0.929465
     58          1           0       -1.069928    4.914692   -0.652289
     59          1           0        5.181748    0.789319    1.827609
     60          1           0        4.439656    2.314914    2.297624
     61          1           0        4.585655    1.007921    3.486558
     62          6           0       -5.309747   -0.696275   -1.177069
     63          1           0       -4.739250    0.151138   -1.572012
     64          1           0       -6.349892   -0.574662   -1.501214
     65          1           0       -4.921512   -1.611879   -1.640916
 ---------------------------------------------------------------------
 Rotational constants (GHZ):      0.1863100      0.1390171      0.1158507
 Standard basis: 6-311+G(d) (5D, 7F)
 There are   784 symmetry adapted basis functions of A   symmetry.
 Integral buffers will be    131072 words long.
 Raffenetti 2 integral format.
 Two-electron integral symmetry is turned on.
   784 basis functions,  1286 primitive gaussians,   815 cartesian basis functions
   115 alpha electrons      115 beta electrons
       nuclear repulsion energy      3520.9675953219 Hartrees.
 NAtoms=   65 NActive=   65 NUniq=   65 SFac= 1.00D+00 NAtFMM=   50 NAOKFM=T Big=T
 One-electron integrals computed using PRISM.
 NBasis=   784 RedAO= T  NBF=   784
 NBsUse=   778 1.00D-06 NBFU=   778
 Harris functional with IExCor=  402 diagonalized for initial guess.
 ExpMin= 4.38D-02 ExpMax= 8.59D+03 ExpMxC= 1.30D+03 IAcc=2 IRadAn=         0 AccDes= 0.00D+00
 HarFok:  IExCor=  402 AccDes= 0.00D+00 IRadAn=         0 IDoV= 1
 ScaDFX=  1.000000  1.000000  1.000000  1.000000
 FoFCou: FMM=F IPFlag=           0 FMFlag=      100000 FMFlg1=        2001
         NFxFlg=           0 DoJE=T BraDBF=F KetDBF=T FulRan=T
         Omega=  0.000000  0.000000  1.000000  0.000000  0.000000 ICntrl=     500 IOpCl=  0
         NMat0=    1 NMatS0=    1 NMatT0=    0 NMatD0=    1 NMtDS0=    0 NMtDT0=    0
         I1Cent=           4 NGrid=           0.
 Petite list used in FoFCou.
 Initial guess orbital symmetries:
       Occupied  (A) (A) (A) (A) (A) (A) (A) (A) (A) (A) (A) (A)
                 (A) (A) (A) (A) (A) (A) (A) (A) (A) (A) (A) (A)
                 (A) (A) (A) (A) (A) (A) (A) (A) (A) (A) (A) (A)
                 (A) (A) (A) (A) (A) (A) (A) (A) (A) (A) (A) (A)
                 (A) (A) (A) (A) (A) (A) (A) (A) (A) (A) (A) (A)
                 (A) (A) (A) (A) (A) (A) (A) (A) (A) (A) (A) (A)
                 (A) (A) (A) (A) (A) (A) (A) (A) (A) (A) (A) (A)
                 (A) (A) (A) (A) (A) (A) (A) (A) (A) (A) (A) (A)
                 (A) (A) (A) (A) (A) (A) (A) (A) (A) (A) (A) (A)
                 (A) (A) (A) (A) (A) (A) (A)
       Virtual   (A) (A) (A) (A) (A) (A) (A) (A) (A) (A) (A) (A)
                 (A) (A) (A) (A) (A) (A) (A) (A) (A) (A) (A) (A)
                 (A) (A) (A) (A) (A) (A) (A) (A) (A) (A) (A) (A)
                 (A) (A) (A) (A) (A) (A) (A) (A) (A) (A) (A) (A)
                 (A) (A) (A) (A) (A) (A) (A) (A) (A) (A) (A) (A)
                 (A) (A) (A) (A) (A) (A) (A) (A) (A) (A) (A) (A)
                 (A) (A) (A) (A) (A) (A) (A) (A) (A) (A) (A) (A)
                 (A) (A) (A) (A) (A) (A) (A) (A) (A) (A) (A) (A)
                 (A) (A) (A) (A) (A) (A) (A) (A) (A) (A) (A) (A)
                 (A) (A) (A) (A) (A) (A) (A) (A) (A) (A) (A) (A)
                 (A) (A) (A) (A) (A) (A) (A) (A) (A) (A) (A) (A)
                 (A) (A) (A) (A) (A) (A) (A) (A) (A) (A) (A) (A)
                 (A) (A) (A) (A) (A) (A) (A) (A) (A) (A) (A) (A)
                 (A) (A) (A) (A) (A) (A) (A) (A) (A) (A) (A) (A)
                 (A) (A) (A) (A) (A) (A) (A) (A) (A) (A) (A) (A)
                 (A) (A) (A) (A) (A) (A) (A) (A) (A) (A) (A) (A)
                 (A) (A) (A) (A) (A) (A) (A) (A) (A) (A) (A) (A)
                 (A) (A) (A) (A) (A) (A) (A) (A) (A) (A) (A) (A)
                 (A) (A) (A) (A) (A) (A) (A) (A) (A) (A) (A) (A)
                 (A) (A) (A) (A) (A) (A) (A) (A) (A) (A) (A) (A)
                 (A) (A) (A) (A) (A) (A) (A) (A) (A) (A) (A) (A)
                 (A) (A) (A) (A) (A) (A) (A) (A) (A) (A) (A) (A)
                 (A) (A) (A) (A) (A) (A) (A) (A) (A) (A) (A) (A)
                 (A) (A) (A) (A) (A) (A) (A) (A) (A) (A) (A) (A)
                 (A) (A) (A) (A) (A) (A) (A) (A) (A) (A) (A) (A)
                 (A) (A) (A) (A) (A) (A) (A) (A) (A) (A) (A) (A)
                 (A) (A) (A) (A) (A) (A) (A) (A) (A) (A) (A) (A)
                 (A) (A) (A) (A) (A) (A) (A) (A) (A) (A) (A) (A)
                 (A) (A) (A) (A) (A) (A) (A) (A) (A) (A) (A) (A)
                 (A) (A) (A) (A) (A) (A) (A) (A) (A) (A) (A) (A)
                 (A) (A) (A) (A) (A) (A) (A) (A) (A) (A) (A) (A)
                 (A) (A) (A) (A) (A) (A) (A) (A) (A) (A) (A) (A)
                 (A) (A) (A) (A) (A) (A) (A) (A) (A) (A) (A) (A)
                 (A) (A) (A) (A) (A) (A) (A) (A) (A) (A) (A) (A)
                 (A) (A) (A) (A) (A) (A) (A) (A) (A) (A) (A) (A)
                 (A) (A) (A) (A) (A) (A) (A) (A) (A) (A) (A) (A)
                 (A) (A) (A) (A) (A) (A) (A) (A) (A) (A) (A) (A)
                 (A) (A) (A) (A) (A) (A) (A) (A) (A) (A) (A) (A)
                 (A) (A) (A) (A) (A) (A) (A) (A) (A) (A) (A) (A)
                 (A) (A) (A) (A) (A) (A) (A) (A) (A) (A) (A) (A)
                 (A) (A) (A) (A) (A) (A) (A) (A) (A) (A) (A) (A)
                 (A) (A) (A) (A) (A) (A) (A) (A) (A) (A) (A) (A)
                 (A) (A) (A) (A) (A) (A) (A) (A) (A) (A) (A) (A)
                 (A) (A) (A) (A) (A) (A) (A) (A) (A) (A) (A) (A)
                 (A) (A) (A) (A) (A) (A) (A) (A) (A) (A) (A) (A)
                 (A) (A) (A) (A) (A) (A) (A) (A) (A) (A) (A) (A)
                 (A) (A) (A) (A) (A) (A) (A) (A) (A) (A) (A) (A)
                 (A) (A) (A) (A) (A) (A) (A) (A) (A) (A) (A) (A)
                 (A) (A) (A) (A) (A) (A) (A) (A) (A) (A) (A) (A)
                 (A) (A) (A) (A) (A) (A) (A) (A) (A) (A) (A) (A)
                 (A) (A) (A) (A) (A) (A) (A) (A) (A) (A) (A) (A)
                 (A) (A) (A) (A) (A) (A) (A) (A) (A) (A) (A) (A)
                 (A) (A) (A) (A) (A) (A) (A) (A) (A) (A) (A) (A)
                 (A) (A) (A) (A) (A) (A) (A) (A) (A) (A) (A) (A)
                 (A) (A) (A) (A) (A) (A) (A) (A) (A) (A) (A) (A)
                 (A) (A) (A)
 The electronic state of the initial guess is 1-A.
 Requested convergence on RMS density matrix=1.00D-08 within 128 cycles.
 Requested convergence on MAX density matrix=1.00D-06.
 Requested convergence on             energy=1.00D-06.
 No special actions if energy rises.
 SCF Done:  E(RB3LYP) =  -1387.64709004     A.U. after   17 cycles
             Convg  =    0.6384D-08             -V/T =  2.0043

 **********************************************************************

            Population analysis using the SCF density.

 **********************************************************************

 Orbital symmetries:
       Occupied  (A) (A) (A) (A) (A) (A) (A) (A) (A) (A) (A) (A)
                 (A) (A) (A) (A) (A) (A) (A) (A) (A) (A) (A) (A)
                 (A) (A) (A) (A) (A) (A) (A) (A) (A) (A) (A) (A)
                 (A) (A) (A) (A) (A) (A) (A) (A) (A) (A) (A) (A)
                 (A) (A) (A) (A) (A) (A) (A) (A) (A) (A) (A) (A)
                 (A) (A) (A) (A) (A) (A) (A) (A) (A) (A) (A) (A)
                 (A) (A) (A) (A) (A) (A) (A) (A) (A) (A) (A) (A)
                 (A) (A) (A) (A) (A) (A) (A) (A) (A) (A) (A) (A)
                 (A) (A) (A) (A) (A) (A) (A) (A) (A) (A) (A) (A)
                 (A) (A) (A) (A) (A) (A) (A)
       Virtual   (A) (A) (A) (A) (A) (A) (A) (A) (A) (A) (A) (A)
                 (A) (A) (A) (A) (A) (A) (A) (A) (A) (A) (A) (A)
                 (A) (A) (A) (A) (A) (A) (A) (A) (A) (A) (A) (A)
                 (A) (A) (A) (A) (A) (A) (A) (A) (A) (A) (A) (A)
                 (A) (A) (A) (A) (A) (A) (A) (A) (A) (A) (A) (A)
                 (A) (A) (A) (A) (A) (A) (A) (A) (A) (A) (A) (A)
                 (A) (A) (A) (A) (A) (A) (A) (A) (A) (A) (A) (A)
                 (A) (A) (A) (A) (A) (A) (A) (A) (A) (A) (A) (A)
                 (A) (A) (A) (A) (A) (A) (A) (A) (A) (A) (A) (A)
                 (A) (A) (A) (A) (A) (A) (A) (A) (A) (A) (A) (A)
                 (A) (A) (A) (A) (A) (A) (A) (A) (A) (A) (A) (A)
                 (A) (A) (A) (A) (A) (A) (A) (A) (A) (A) (A) (A)
                 (A) (A) (A) (A) (A) (A) (A) (A) (A) (A) (A) (A)
                 (A) (A) (A) (A) (A) (A) (A) (A) (A) (A) (A) (A)
                 (A) (A) (A) (A) (A) (A) (A) (A) (A) (A) (A) (A)
                 (A) (A) (A) (A) (A) (A) (A) (A) (A) (A) (A) (A)
                 (A) (A) (A) (A) (A) (A) (A) (A) (A) (A) (A) (A)
                 (A) (A) (A) (A) (A) (A) (A) (A) (A) (A) (A) (A)
                 (A) (A) (A) (A) (A) (A) (A) (A) (A) (A) (A) (A)
                 (A) (A) (A) (A) (A) (A) (A) (A) (A) (A) (A) (A)
                 (A) (A) (A) (A) (A) (A) (A) (A) (A) (A) (A) (A)
                 (A) (A) (A) (A) (A) (A) (A) (A) (A) (A) (A) (A)
                 (A) (A) (A) (A) (A) (A) (A) (A) (A) (A) (A) (A)
                 (A) (A) (A) (A) (A) (A) (A) (A) (A) (A) (A) (A)
                 (A) (A) (A) (A) (A) (A) (A) (A) (A) (A) (A) (A)
                 (A) (A) (A) (A) (A) (A) (A) (A) (A) (A) (A) (A)
                 (A) (A) (A) (A) (A) (A) (A) (A) (A) (A) (A) (A)
                 (A) (A) (A) (A) (A) (A) (A) (A) (A) (A) (A) (A)
                 (A) (A) (A) (A) (A) (A) (A) (A) (A) (A) (A) (A)
                 (A) (A) (A) (A) (A) (A) (A) (A) (A) (A) (A) (A)
                 (A) (A) (A) (A) (A) (A) (A) (A) (A) (A) (A) (A)
                 (A) (A) (A) (A) (A) (A) (A) (A) (A) (A) (A) (A)
                 (A) (A) (A) (A) (A) (A) (A) (A) (A) (A) (A) (A)
                 (A) (A) (A) (A) (A) (A) (A) (A) (A) (A) (A) (A)
                 (A) (A) (A) (A) (A) (A) (A) (A) (A) (A) (A) (A)
                 (A) (A) (A) (A) (A) (A) (A) (A) (A) (A) (A) (A)
                 (A) (A) (A) (A) (A) (A) (A) (A) (A) (A) (A) (A)
                 (A) (A) (A) (A) (A) (A) (A) (A) (A) (A) (A) (A)
                 (A) (A) (A) (A) (A) (A) (A) (A) (A) (A) (A) (A)
                 (A) (A) (A) (A) (A) (A) (A) (A) (A) (A) (A) (A)
                 (A) (A) (A) (A) (A) (A) (A) (A) (A) (A) (A) (A)
                 (A) (A) (A) (A) (A) (A) (A) (A) (A) (A) (A) (A)
                 (A) (A) (A) (A) (A) (A) (A) (A) (A) (A) (A) (A)
                 (A) (A) (A) (A) (A) (A) (A) (A) (A) (A) (A) (A)
                 (A) (A) (A) (A) (A) (A) (A) (A) (A) (A) (A) (A)
                 (A) (A) (A) (A) (A) (A) (A) (A) (A) (A) (A) (A)
                 (A) (A) (A) (A) (A) (A) (A) (A) (A) (A) (A) (A)
                 (A) (A) (A) (A) (A) (A) (A) (A) (A) (A) (A) (A)
                 (A) (A) (A) (A) (A) (A) (A) (A) (A) (A) (A) (A)
                 (A) (A) (A) (A) (A) (A) (A) (A) (A) (A) (A) (A)
                 (A) (A) (A) (A) (A) (A) (A) (A) (A) (A) (A) (A)
                 (A) (A) (A) (A) (A) (A) (A) (A) (A) (A) (A) (A)
                 (A) (A) (A) (A) (A) (A) (A) (A) (A) (A) (A) (A)
                 (A) (A) (A) (A) (A) (A) (A) (A) (A) (A) (A) (A)
                 (A) (A) (A) (A) (A) (A) (A) (A) (A) (A) (A) (A)
                 (A) (A) (A)
 The electronic state is 1-A.
 Alpha  occ. eigenvalues --  -19.18156 -19.14981 -19.13416 -19.11163 -19.09398
 Alpha  occ. eigenvalues --  -10.26991 -10.26808 -10.25834 -10.25770 -10.25485
 Alpha  occ. eigenvalues --  -10.25061 -10.24059 -10.21084 -10.19783 -10.19745
 Alpha  occ. eigenvalues --  -10.19314 -10.19175 -10.19097 -10.18847 -10.18476
 Alpha  occ. eigenvalues --  -10.17967 -10.17911 -10.17818 -10.17746 -10.17220
 Alpha  occ. eigenvalues --  -10.16958 -10.16557 -10.16196 -10.15208 -10.14965
 Alpha  occ. eigenvalues --  -10.14168  -1.10747  -1.07218  -1.04520  -1.03479
 Alpha  occ. eigenvalues --   -1.02697  -0.88060  -0.84760  -0.82971  -0.82213
 Alpha  occ. eigenvalues --   -0.80884  -0.79473  -0.77735  -0.75037  -0.74089
 Alpha  occ. eigenvalues --   -0.73038  -0.71814  -0.70747  -0.69595  -0.69001
 Alpha  occ. eigenvalues --   -0.65910  -0.64857  -0.64031  -0.62429  -0.61719
 Alpha  occ. eigenvalues --   -0.60183  -0.59434  -0.57672  -0.55206  -0.54501
 Alpha  occ. eigenvalues --   -0.53740  -0.52856  -0.51937  -0.51008  -0.50183
 Alpha  occ. eigenvalues --   -0.48699  -0.48528  -0.48112  -0.47487  -0.47076
 Alpha  occ. eigenvalues --   -0.46035  -0.45457  -0.45090  -0.44274  -0.43336
 Alpha  occ. eigenvalues --   -0.43240  -0.42835  -0.42796  -0.42519  -0.42012
 Alpha  occ. eigenvalues --   -0.41620  -0.41542  -0.41084  -0.40832  -0.40682
 Alpha  occ. eigenvalues --   -0.40277  -0.39998  -0.39728  -0.39305  -0.39055
 Alpha  occ. eigenvalues --   -0.38476  -0.38137  -0.37795  -0.37610  -0.37216
 Alpha  occ. eigenvalues --   -0.36680  -0.36195  -0.35660  -0.35430  -0.35240
 Alpha  occ. eigenvalues --   -0.34773  -0.34412  -0.33876  -0.33522  -0.32704
 Alpha  occ. eigenvalues --   -0.32564  -0.31887  -0.31407  -0.28785  -0.28694
 Alpha  occ. eigenvalues --   -0.26489  -0.25798  -0.25466  -0.24702  -0.23401
 Alpha virt. eigenvalues --   -0.06470  -0.02871  -0.01589  -0.01101  -0.00670
 Alpha virt. eigenvalues --    0.00186   0.00408   0.00671   0.01626   0.01919
 Alpha virt. eigenvalues --    0.02180   0.02210   0.02818   0.03323   0.03596
 Alpha virt. eigenvalues --    0.03933   0.04149   0.04332   0.04665   0.04816
 Alpha virt. eigenvalues --    0.05193   0.05449   0.05756   0.06103   0.06395
 Alpha virt. eigenvalues --    0.06703   0.06973   0.07230   0.07335   0.07439
 Alpha virt. eigenvalues --    0.07660   0.07941   0.08262   0.08316   0.08500
 Alpha virt. eigenvalues --    0.08759   0.09226   0.09423   0.09778   0.09959
 Alpha virt. eigenvalues --    0.10193   0.10519   0.10710   0.11031   0.11240
 Alpha virt. eigenvalues --    0.11543   0.11830   0.11980   0.12374   0.12615
 Alpha virt. eigenvalues --    0.12782   0.12827   0.13111   0.13327   0.13490
 Alpha virt. eigenvalues --    0.13801   0.14022   0.14313   0.14465   0.14786
 Alpha virt. eigenvalues --    0.14895   0.15224   0.15605   0.15864   0.16162
 Alpha virt. eigenvalues --    0.16557   0.16688   0.16831   0.17007   0.17249
 Alpha virt. eigenvalues --    0.17347   0.17566   0.17739   0.17940   0.17960
 Alpha virt. eigenvalues --    0.18189   0.18525   0.18990   0.19120   0.19386
 Alpha virt. eigenvalues --    0.19464   0.19530   0.19900   0.20000   0.20183
 Alpha virt. eigenvalues --    0.20233   0.20418   0.20735   0.20863   0.21049
 Alpha virt. eigenvalues --    0.21074   0.21517   0.21620   0.21632   0.21833
 Alpha virt. eigenvalues --    0.22353   0.22500   0.22604   0.22896   0.22993
 Alpha virt. eigenvalues --    0.23242   0.23434   0.23553   0.23720   0.24017
 Alpha virt. eigenvalues --    0.24221   0.24378   0.24502   0.24844   0.25108
 Alpha virt. eigenvalues --    0.25374   0.25487   0.25616   0.25922   0.26087
 Alpha virt. eigenvalues --    0.26108   0.26524   0.26660   0.26813   0.27108
 Alpha virt. eigenvalues --    0.27381   0.27541   0.27698   0.27975   0.28233
 Alpha virt. eigenvalues --    0.28328   0.28875   0.28991   0.29050   0.29476
 Alpha virt. eigenvalues --    0.29517   0.29956   0.30102   0.30653   0.30744
 Alpha virt. eigenvalues --    0.31186   0.31552   0.31682   0.31975   0.32360
 Alpha virt. eigenvalues --    0.32461   0.32816   0.32973   0.33142   0.33392
 Alpha virt. eigenvalues --    0.33626   0.33692   0.34317   0.34550   0.34950
 Alpha virt. eigenvalues --    0.35271   0.35515   0.35962   0.36089   0.36425
 Alpha virt. eigenvalues --    0.36818   0.37343   0.37467   0.37824   0.38186
 Alpha virt. eigenvalues --    0.38449   0.38677   0.38963   0.39225   0.40022
 Alpha virt. eigenvalues --    0.40478   0.40753   0.41121   0.41474   0.41857
 Alpha virt. eigenvalues --    0.42326   0.42882   0.43255   0.43483   0.43890
 Alpha virt. eigenvalues --    0.44480   0.44726   0.45064   0.45429   0.45639
 Alpha virt. eigenvalues --    0.46141   0.46639   0.46964   0.47253   0.47328
 Alpha virt. eigenvalues --    0.47911   0.48415   0.48960   0.49568   0.49916
 Alpha virt. eigenvalues --    0.50631   0.50874   0.51197   0.51602   0.51742
 Alpha virt. eigenvalues --    0.52261   0.52706   0.52960   0.53298   0.54107
 Alpha virt. eigenvalues --    0.54352   0.54827   0.55303   0.55589   0.56014
 Alpha virt. eigenvalues --    0.56890   0.56944   0.57338   0.57923   0.58157
 Alpha virt. eigenvalues --    0.58337   0.58644   0.58845   0.59285   0.59417
 Alpha virt. eigenvalues --    0.60280   0.60510   0.60817   0.61022   0.61739
 Alpha virt. eigenvalues --    0.62239   0.62662   0.63192   0.63381   0.63693
 Alpha virt. eigenvalues --    0.63836   0.64731   0.64962   0.65369   0.65723
 Alpha virt. eigenvalues --    0.65981   0.66192   0.66872   0.67334   0.67431
 Alpha virt. eigenvalues --    0.67770   0.68037   0.68229   0.68596   0.69138
 Alpha virt. eigenvalues --    0.69508   0.69654   0.69992   0.70230   0.70571
 Alpha virt. eigenvalues --    0.70742   0.71040   0.71313   0.71826   0.72031
 Alpha virt. eigenvalues --    0.72288   0.72676   0.72936   0.73178   0.73528
 Alpha virt. eigenvalues --    0.73858   0.74247   0.74517   0.74604   0.75017
 Alpha virt. eigenvalues --    0.75443   0.75633   0.76100   0.76633   0.76674
 Alpha virt. eigenvalues --    0.77254   0.77671   0.78111   0.78612   0.78926
 Alpha virt. eigenvalues --    0.79263   0.79368   0.80158   0.80502   0.80971
 Alpha virt. eigenvalues --    0.81156   0.81382   0.81692   0.81965   0.82795
 Alpha virt. eigenvalues --    0.82822   0.83229   0.83688   0.84242   0.84955
 Alpha virt. eigenvalues --    0.85642   0.86130   0.86575   0.87745   0.88191
 Alpha virt. eigenvalues --    0.88875   0.89156   0.89944   0.91350   0.93364
 Alpha virt. eigenvalues --    0.93583   0.94265   0.94921   0.96057   0.96185
 Alpha virt. eigenvalues --    0.96979   0.97956   0.98729   0.99179   0.99355
 Alpha virt. eigenvalues --    1.00232   1.01765   1.03309   1.03454   1.04474
 Alpha virt. eigenvalues --    1.05465   1.05693   1.06889   1.08149   1.08852
 Alpha virt. eigenvalues --    1.10374   1.11684   1.12310   1.13224   1.13948
 Alpha virt. eigenvalues --    1.14798   1.15578   1.16391   1.16664   1.18327
 Alpha virt. eigenvalues --    1.20388   1.20745   1.21808   1.22430   1.22481
 Alpha virt. eigenvalues --    1.23752   1.24724   1.25617   1.25956   1.26465
 Alpha virt. eigenvalues --    1.27318   1.28533   1.29018   1.30484   1.31507
 Alpha virt. eigenvalues --    1.32333   1.32523   1.34293   1.35299   1.36118
 Alpha virt. eigenvalues --    1.37019   1.37051   1.38028   1.38928   1.39506
 Alpha virt. eigenvalues --    1.40433   1.41246   1.41618   1.42473   1.43991
 Alpha virt. eigenvalues --    1.44438   1.45050   1.45206   1.47154   1.47747
 Alpha virt. eigenvalues --    1.48988   1.50382   1.51443   1.51768   1.52316
 Alpha virt. eigenvalues --    1.52651   1.53939   1.54291   1.54817   1.55156
 Alpha virt. eigenvalues --    1.56241   1.56904   1.57546   1.58119   1.58330
 Alpha virt. eigenvalues --    1.59230   1.59362   1.60023   1.60217   1.60657
 Alpha virt. eigenvalues --    1.61526   1.61656   1.62190   1.62366   1.63192
 Alpha virt. eigenvalues --    1.63403   1.63675   1.64238   1.64577   1.64852
 Alpha virt. eigenvalues --    1.65436   1.65575   1.65812   1.66279   1.67219
 Alpha virt. eigenvalues --    1.67629   1.68275   1.68480   1.68714   1.69431
 Alpha virt. eigenvalues --    1.70367   1.70988   1.71394   1.72123   1.72326
 Alpha virt. eigenvalues --    1.72741   1.73326   1.73903   1.74304   1.75006
 Alpha virt. eigenvalues --    1.76678   1.77062   1.77336   1.78103   1.78870
 Alpha virt. eigenvalues --    1.79837   1.80507   1.81727   1.82593   1.83742
 Alpha virt. eigenvalues --    1.84575   1.84731   1.85360   1.85586   1.86569
 Alpha virt. eigenvalues --    1.87354   1.87651   1.88576   1.90347   1.91338
 Alpha virt. eigenvalues --    1.92111   1.92403   1.94502   1.95479   1.95943
 Alpha virt. eigenvalues --    1.96828   1.97691   1.98290   1.99606   2.01405
 Alpha virt. eigenvalues --    2.01703   2.02861   2.03217   2.03365   2.04351
 Alpha virt. eigenvalues --    2.05365   2.06181   2.07651   2.08879   2.09215
 Alpha virt. eigenvalues --    2.09940   2.12086   2.12376   2.14249   2.15181
 Alpha virt. eigenvalues --    2.16511   2.17108   2.18074   2.18854   2.20797
 Alpha virt. eigenvalues --    2.21659   2.22656   2.23825   2.24786   2.25621
 Alpha virt. eigenvalues --    2.26343   2.28284   2.29637   2.30950   2.33096
 Alpha virt. eigenvalues --    2.34055   2.35626   2.35934   2.37463   2.38065
 Alpha virt. eigenvalues --    2.39763   2.43459   2.47513   2.47970   2.50727
 Alpha virt. eigenvalues --    2.52094   2.52501   2.52964   2.54223   2.54786
 Alpha virt. eigenvalues --    2.54925   2.55736   2.56666   2.57134   2.57480
 Alpha virt. eigenvalues --    2.58169   2.58829   2.59065   2.59449   2.61177
 Alpha virt. eigenvalues --    2.62073   2.63056   2.63521   2.64497   2.65859
 Alpha virt. eigenvalues --    2.66726   2.67433   2.68305   2.68864   2.69967
 Alpha virt. eigenvalues --    2.70777   2.71334   2.71651   2.72906   2.73826
 Alpha virt. eigenvalues --    2.75332   2.75714   2.79698   2.80695   2.83044
 Alpha virt. eigenvalues --    2.85689   2.86330   2.87042   2.88418   2.89876
 Alpha virt. eigenvalues --    2.90635   2.92146   2.92434   2.93189   2.94843
 Alpha virt. eigenvalues --    2.95896   2.96479   2.97141   2.97642   2.98246
 Alpha virt. eigenvalues --    3.00272   3.00748   3.01945   3.02816   3.02903
 Alpha virt. eigenvalues --    3.04003   3.04985   3.05149   3.05565   3.07548
 Alpha virt. eigenvalues --    3.08219   3.09587   3.11582   3.11685   3.12624
 Alpha virt. eigenvalues --    3.13738   3.14611   3.15067   3.16334   3.17010
 Alpha virt. eigenvalues --    3.17668   3.18485   3.19582   3.20795   3.21391
 Alpha virt. eigenvalues --    3.23191   3.23400   3.24165   3.24497   3.26094
 Alpha virt. eigenvalues --    3.26178   3.26782   3.27995   3.28618   3.29490
 Alpha virt. eigenvalues --    3.29571   3.30856   3.31336   3.31584   3.33202
 Alpha virt. eigenvalues --    3.34360   3.36189   3.36378   3.37486   3.38207
 Alpha virt. eigenvalues --    3.39219   3.39280   3.40468   3.41134   3.41825
 Alpha virt. eigenvalues --    3.44770   3.46030   3.47271   3.51763   3.52377
 Alpha virt. eigenvalues --    3.52767   3.54071   3.57763   3.60311   3.65682
 Alpha virt. eigenvalues --    3.74180   3.76426   3.77835   3.78717   3.85512
 Alpha virt. eigenvalues --    3.89931   3.92260   3.94544   3.96960   4.01158
 Alpha virt. eigenvalues --    4.02439   4.05118   4.06152   4.08076   4.09811
 Alpha virt. eigenvalues --    4.11632   4.15792   4.17898   4.18785   4.23160
 Alpha virt. eigenvalues --    4.24228   4.25701   4.26623   4.32145   4.36748
 Alpha virt. eigenvalues --    4.44797   4.54848   5.14111   5.15771   5.18477
 Alpha virt. eigenvalues --    5.21045   5.26182   5.27483   5.31829   5.34569
 Alpha virt. eigenvalues --    5.41800   5.44074   5.57204   5.70886   5.73221
 Alpha virt. eigenvalues --    5.81603   5.83759  23.47250  23.48046  23.52170
 Alpha virt. eigenvalues --   23.52650  23.62903  23.63691  23.65090  23.67123
 Alpha virt. eigenvalues --   23.67463  23.69963  23.72261  23.74147  23.75650
 Alpha virt. eigenvalues --   23.78798  23.79769  23.80843  23.82213  23.85149
 Alpha virt. eigenvalues --   23.86040  23.88649  23.90272  23.90957  23.95297
 Alpha virt. eigenvalues --   24.12104  24.21071  24.21618  49.98710  50.00211
 Alpha virt. eigenvalues --   50.02706  50.04501  50.06084
          Condensed to atoms (all electrons):
 Mulliken atomic charges:
              1
     1  C   -0.628897
     2  C    0.946693
     3  C    0.007109
     4  C   -0.092192
     5  C    1.355983
     6  C   -1.271307
     7  C   -1.425026
     8  C    0.175652
     9  C    0.599692
    10  C   -0.940185
    11  C   -0.214275
    12  O   -0.207823
    13  C    0.419909
    14  C   -0.105406
    15  C   -1.100039
    16  O   -0.196444
    17  C   -0.561907
    18  C    0.927566
    19  O    0.229848
    20  C   -1.176286
    21  O   -0.019206
    22  C   -0.796314
    23  C    0.199742
    24  O   -0.037666
    25  C    0.875867
    26  C   -1.075589
    27  C   -1.023083
    28  C   -0.714650
    29  C   -0.593831
    30  H    0.239835
    31  H    0.260149
    32  C   -1.179421
    33  H    0.209093
    34  H    0.259304
    35  H    0.261399
    36  H    0.252123
    37  H    0.209276
    38  H    0.259745
    39  H    0.266031
    40  H    0.240130
    41  H    0.278095
    42  H    0.289477
    43  H    0.260194
    44  H    0.264227
    45  H    0.276078
    46  H    0.259728
    47  H    0.211577
    48  H    0.259961
    49  H    0.252414
    50  H    0.250986
    51  H    0.214810
    52  H    0.253801
    53  H    0.262009
    54  H    0.310076
    55  H    0.244661
    56  H    0.263443
    57  H    0.257880
    58  H    0.272523
    59  H    0.262220
    60  H    0.245939
    61  H    0.251747
    62  C   -1.013432
    63  H    0.262244
    64  H    0.239809
    65  H    0.233931
 Sum of Mulliken atomic charges =   0.00000
 Mulliken charges with hydrogens summed into heavy atoms:
              1
     1  C   -0.419804
     2  C    0.946693
     3  C    0.267259
     4  C   -0.092192
     5  C    1.355983
     6  C   -0.750603
     7  C   -1.425026
     8  C    0.175652
     9  C    0.599692
    10  C   -0.940185
    11  C   -0.214275
    12  O   -0.207823
    13  C    0.672032
    14  C    0.363615
    15  C   -0.315783
    16  O   -0.196444
    17  C   -0.322072
    18  C    0.927566
    19  O    0.229848
    20  C   -0.626615
    21  O    0.245020
    22  C   -0.260508
    23  C    0.411319
    24  O   -0.037666
    25  C    0.875867
    26  C   -0.312227
    27  C   -0.554472
    28  C    0.102096
    29  C    0.200016
    32  C   -0.419516
    62  C   -0.277448
 Sum of Mulliken charges with hydrogens summed into heavy atoms =   0.00000
 Electronic spatial extent (au):  <R**2>=          11322.6663
 Charge=              0.0000 electrons
 Dipole moment (field-independent basis, Debye):
    X=              6.0299    Y=              1.3622    Z=              0.1774  Tot=              6.1844
 Quadrupole moment (field-independent basis, Debye-Ang):
   XX=           -192.6497   YY=           -182.3869   ZZ=           -185.0587
   XY=              6.9147   XZ=              2.6247   YZ=             -1.8497
 Traceless Quadrupole moment (field-independent basis, Debye-Ang):
   XX=             -5.9513   YY=              4.3115   ZZ=              1.6398
   XY=              6.9147   XZ=              2.6247   YZ=             -1.8497
 Octapole moment (field-independent basis, Debye-Ang**2):
  XXX=             49.2235  YYY=             55.9422  ZZZ=              0.1212  XYY=             29.7694
  XXY=            -22.5718  XXZ=             -2.4717  XZZ=             13.2622  YZZ=             -3.8900
  YYZ=            -37.3573  XYZ=              6.3560
 Hexadecapole moment (field-independent basis, Debye-Ang**3):
 XXXX=          -7658.2802 YYYY=          -4923.5413 ZZZZ=          -3007.7016 XXXY=             79.1495
 XXXZ=             12.6595 YYYX=              7.1809 YYYZ=            -27.1135 ZZZX=             -4.5899
 ZZZY=              0.4160 XXYY=          -2102.2858 XXZZ=          -1765.8170 YYZZ=          -1279.9132
 XXYZ=            -20.0607 YYXZ=             -3.0768 ZZXY=            -26.3545
 N-N= 3.520967595322D+03 E-N=-1.027516004031D+04  KE= 1.381707831056D+03
 Calling FoFJK, ICntrl=      2127 FMM=T ISym2X=0 I1Cent= 0 IOpClX= 0 NMat=1 NMatS=1 NMatT=0.
 ***** Axes restored to original set *****
 -------------------------------------------------------------------
 Center     Atomic                   Forces (Hartrees/Bohr)
 Number     Number              X              Y              Z
 -------------------------------------------------------------------
      1        6           0.001340239    0.001318275   -0.001887888
      2        6          -0.001381271   -0.001026548    0.001565336
      3        6           0.000003553    0.000436487   -0.000141057
      4        6           0.000296945    0.001085956    0.000723569
      5        6          -0.000005763   -0.000239301    0.000114558
      6        6          -0.000431201    0.000098785   -0.000158389
      7        6          -0.001006836    0.002062899    0.002688790
      8        6          -0.003097523    0.001355982   -0.000214227
      9        6           0.001368125    0.001357080   -0.000535806
     10        6          -0.003765422   -0.006581015    0.002445390
     11        6          -0.002586035    0.005834759   -0.000238330
     12        8           0.003304901   -0.007250205    0.000726298
     13        6          -0.000228334    0.000116221   -0.000287797
     14        6           0.000018954    0.000122904    0.000127094
     15        6           0.000187305    0.000319095    0.000085987
     16        8           0.003569745    0.008160644   -0.001831062
     17        6           0.000185476   -0.000135201   -0.000459369
     18        6           0.000553982    0.001354400   -0.000781913
     19        8           0.001535175   -0.004546966    0.000932783
     20        6          -0.000262299    0.000115673    0.000440929
     21        8           0.005262034   -0.003139724   -0.000118769
     22        6           0.000038876    0.000005708   -0.000261077
     23        6           0.000438247   -0.002305015    0.000548336
     24        8          -0.000265092   -0.000198019    0.000804971
     25        6          -0.001503956   -0.001825311   -0.000414541
     26        6           0.000154438    0.000310178   -0.000141363
     27        6           0.001985832    0.001142643    0.000179809
     28        6           0.000350934   -0.000068189    0.000325573
     29        6           0.000258632   -0.000448578   -0.000145679
     30        1          -0.000920330   -0.000170280    0.000862061
     31        1          -0.000923963    0.000064126    0.001021613
     32        6           0.000285533    0.000237747   -0.000113180
     33        1          -0.000207287    0.000053524   -0.000860467
     34        1           0.000380498    0.001336139   -0.000713902
     35        1           0.001065215   -0.001185385    0.000347900
     36        1          -0.000724883    0.001058045    0.000482966
     37        1           0.000695678    0.001150499   -0.000239091
     38        1          -0.000199813   -0.001570872   -0.000328494
     39        1           0.000435102   -0.001517405   -0.000414546
     40        1           0.001079998    0.001193915   -0.000164451
     41        1          -0.001667980    0.000243155   -0.000049530
     42        1           0.001272975   -0.000026579   -0.000989555
     43        1          -0.001134844   -0.001112732   -0.000059796
     44        1          -0.004208710    0.002532380   -0.002482753
     45        1           0.001596445    0.000965059   -0.000162725
     46        1          -0.001091291   -0.000399245   -0.001018400
     47        1          -0.001404178    0.000602969   -0.000109585
     48        1          -0.001490178    0.000674223   -0.000424877
     49        1          -0.000185159   -0.001671549    0.000230157
     50        1           0.000881720    0.000843886    0.001096176
     51        1           0.000236086    0.000463318    0.000872517
     52        1           0.000878531   -0.000321669   -0.000946003
     53        1           0.001497652   -0.000601715   -0.000175944
     54        1          -0.000349989    0.001946685    0.000145441
     55        1          -0.001092110   -0.000971298    0.000444411
     56        1          -0.000331480    0.000517964   -0.001602567
     57        1          -0.001084748   -0.000616485    0.000770273
     58        1           0.001587408   -0.000472639    0.000307355
     59        1          -0.001149139    0.000615174    0.000995094
     60        1           0.000025383   -0.001604565    0.000334093
     61        1          -0.000101658    0.000445272   -0.001620820
     62        6           0.000313430   -0.000015754    0.000074954
     63        1          -0.001117254   -0.001283986   -0.000079947
[...]
                 (A) (A) (A) (A) (A) (A) (A) (A) (A) (A) (A) (A)
                 (A) (A) (A) (A) (A) (A) (A) (A) (A) (A) (A) (A)
                 (A) (A) (A)
 The electronic state is 1-A.
 Alpha  occ. eigenvalues --  -19.17802 -19.14759 -19.13294 -19.10967 -19.10290
 Alpha  occ. eigenvalues --  -10.26563 -10.26550 -10.25822 -10.25660 -10.25404
 Alpha  occ. eigenvalues --  -10.25364 -10.23947 -10.20930 -10.19636 -10.19551
 Alpha  occ. eigenvalues --  -10.19121 -10.18921 -10.18850 -10.18777 -10.18174
 Alpha  occ. eigenvalues --  -10.17749 -10.17694 -10.17651 -10.17604 -10.17167
 Alpha  occ. eigenvalues --  -10.16930 -10.16571 -10.16505 -10.15618 -10.14695
 Alpha  occ. eigenvalues --  -10.14660  -1.10451  -1.06911  -1.04634  -1.03660
 Alpha  occ. eigenvalues --   -1.03338  -0.88035  -0.84751  -0.83029  -0.82252
 Alpha  occ. eigenvalues --   -0.80887  -0.79841  -0.77783  -0.75039  -0.74017
 Alpha  occ. eigenvalues --   -0.73008  -0.72093  -0.70822  -0.69683  -0.69003
 Alpha  occ. eigenvalues --   -0.65991  -0.64854  -0.64134  -0.62450  -0.61698
 Alpha  occ. eigenvalues --   -0.60119  -0.59665  -0.57683  -0.55285  -0.54575
 Alpha  occ. eigenvalues --   -0.53640  -0.53058  -0.51789  -0.50955  -0.50155
 Alpha  occ. eigenvalues --   -0.49029  -0.48483  -0.48248  -0.47502  -0.46931
 Alpha  occ. eigenvalues --   -0.45985  -0.45414  -0.45130  -0.44185  -0.43376
 Alpha  occ. eigenvalues --   -0.43299  -0.43223  -0.42827  -0.42616  -0.42012
 Alpha  occ. eigenvalues --   -0.41685  -0.41457  -0.41079  -0.40828  -0.40761
 Alpha  occ. eigenvalues --   -0.40644  -0.39947  -0.39797  -0.39294  -0.39008
 Alpha  occ. eigenvalues --   -0.38437  -0.38245  -0.38094  -0.37598  -0.37125
 Alpha  occ. eigenvalues --   -0.36508  -0.36229  -0.35646  -0.35608  -0.35207
 Alpha  occ. eigenvalues --   -0.34722  -0.34381  -0.33969  -0.33448  -0.33391
 Alpha  occ. eigenvalues --   -0.32458  -0.32145  -0.31522  -0.28728  -0.28543
 Alpha  occ. eigenvalues --   -0.26581  -0.25869  -0.25422  -0.24580  -0.23762
 Alpha virt. eigenvalues --   -0.06035  -0.02631  -0.01549  -0.01062  -0.00550
 Alpha virt. eigenvalues --    0.00262   0.00399   0.00728   0.01842   0.01878
 Alpha virt. eigenvalues --    0.02013   0.02191   0.02837   0.03336   0.03673
 Alpha virt. eigenvalues --    0.03759   0.04093   0.04381   0.04568   0.04910
 Alpha virt. eigenvalues --    0.05171   0.05451   0.05633   0.06002   0.06267
 Alpha virt. eigenvalues --    0.06665   0.06988   0.07182   0.07351   0.07444
 Alpha virt. eigenvalues --    0.07703   0.08033   0.08258   0.08418   0.08527
 Alpha virt. eigenvalues --    0.08822   0.09178   0.09447   0.09765   0.09908
 Alpha virt. eigenvalues --    0.10290   0.10564   0.10735   0.11095   0.11254
 Alpha virt. eigenvalues --    0.11646   0.11967   0.12181   0.12529   0.12634
 Alpha virt. eigenvalues --    0.12799   0.12910   0.13163   0.13393   0.13502
 Alpha virt. eigenvalues --    0.13958   0.14116   0.14392   0.14643   0.14749
 Alpha virt. eigenvalues --    0.14954   0.15373   0.15530   0.15644   0.16199
 Alpha virt. eigenvalues --    0.16444   0.16621   0.16868   0.17066   0.17355
 Alpha virt. eigenvalues --    0.17628   0.17732   0.17905   0.17981   0.18131
 Alpha virt. eigenvalues --    0.18253   0.18447   0.19004   0.19068   0.19168
 Alpha virt. eigenvalues --    0.19484   0.19734   0.19832   0.19973   0.20197
 Alpha virt. eigenvalues --    0.20295   0.20481   0.20791   0.20961   0.21086
 Alpha virt. eigenvalues --    0.21226   0.21452   0.21633   0.21868   0.22144
 Alpha virt. eigenvalues --    0.22193   0.22507   0.22669   0.22865   0.22957
 Alpha virt. eigenvalues --    0.23171   0.23237   0.23587   0.23759   0.23971
 Alpha virt. eigenvalues --    0.24485   0.24652   0.24745   0.25029   0.25100
 Alpha virt. eigenvalues --    0.25166   0.25566   0.25762   0.25920   0.26190
 Alpha virt. eigenvalues --    0.26245   0.26440   0.26678   0.26896   0.27046
 Alpha virt. eigenvalues --    0.27319   0.27754   0.27937   0.28039   0.28310
 Alpha virt. eigenvalues --    0.28717   0.28816   0.28966   0.29266   0.29395
 Alpha virt. eigenvalues --    0.29764   0.29931   0.30252   0.30583   0.30837
 Alpha virt. eigenvalues --    0.31346   0.31631   0.31969   0.32013   0.32075
 Alpha virt. eigenvalues --    0.32616   0.32774   0.33049   0.33366   0.33593
 Alpha virt. eigenvalues --    0.33903   0.34298   0.34493   0.34746   0.34897
 Alpha virt. eigenvalues --    0.35541   0.35825   0.36005   0.36236   0.36589
 Alpha virt. eigenvalues --    0.36977   0.37116   0.37632   0.37858   0.38201
 Alpha virt. eigenvalues --    0.38513   0.38719   0.38945   0.39704   0.40307
 Alpha virt. eigenvalues --    0.40803   0.41413   0.41618   0.41732   0.42240
 Alpha virt. eigenvalues --    0.42330   0.43007   0.43199   0.43511   0.43885
 Alpha virt. eigenvalues --    0.44458   0.44861   0.45069   0.45726   0.45950
 Alpha virt. eigenvalues --    0.46144   0.46774   0.46840   0.47193   0.47637
 Alpha virt. eigenvalues --    0.47885   0.48474   0.48991   0.49286   0.49531
 Alpha virt. eigenvalues --    0.49814   0.50544   0.51172   0.51238   0.51725
 Alpha virt. eigenvalues --    0.52016   0.52381   0.52765   0.53125   0.53387
 Alpha virt. eigenvalues --    0.54259   0.54444   0.55242   0.55982   0.56226
 Alpha virt. eigenvalues --    0.56344   0.56654   0.56997   0.57634   0.57954
 Alpha virt. eigenvalues --    0.58492   0.58571   0.59009   0.59275   0.59557
 Alpha virt. eigenvalues --    0.60277   0.60950   0.61047   0.61375   0.61683
 Alpha virt. eigenvalues --    0.62264   0.62655   0.63153   0.63364   0.63707
 Alpha virt. eigenvalues --    0.64241   0.64442   0.65065   0.65492   0.65822
 Alpha virt. eigenvalues --    0.66273   0.66453   0.67266   0.67496   0.67836
 Alpha virt. eigenvalues --    0.68096   0.68312   0.68812   0.68844   0.69334
 Alpha virt. eigenvalues --    0.69494   0.70070   0.70127   0.70715   0.70868
 Alpha virt. eigenvalues --    0.71214   0.71303   0.71498   0.71818   0.72088
 Alpha virt. eigenvalues --    0.72429   0.72584   0.73240   0.73556   0.73918
 Alpha virt. eigenvalues --    0.74026   0.74641   0.74862   0.75103   0.75384
 Alpha virt. eigenvalues --    0.75552   0.75862   0.76073   0.76565   0.76869
 Alpha virt. eigenvalues --    0.77569   0.78070   0.78232   0.78383   0.78930
 Alpha virt. eigenvalues --    0.79212   0.79438   0.79917   0.80562   0.80890
 Alpha virt. eigenvalues --    0.81225   0.81711   0.82125   0.82699   0.82771
 Alpha virt. eigenvalues --    0.83009   0.83816   0.84090   0.84617   0.85188
 Alpha virt. eigenvalues --    0.85697   0.86122   0.86785   0.87194   0.87956
 Alpha virt. eigenvalues --    0.88432   0.90095   0.90311   0.91299   0.92479
 Alpha virt. eigenvalues --    0.93090   0.93735   0.94604   0.95338   0.96046
 Alpha virt. eigenvalues --    0.96453   0.97172   0.98237   0.98498   0.99855
 Alpha virt. eigenvalues --    1.00706   1.01803   1.02961   1.03718   1.04809
 Alpha virt. eigenvalues --    1.05353   1.05855   1.07484   1.07837   1.08686
 Alpha virt. eigenvalues --    1.10642   1.12240   1.13513   1.13953   1.14677
 Alpha virt. eigenvalues --    1.15155   1.16429   1.16709   1.17739   1.19266
 Alpha virt. eigenvalues --    1.19744   1.21169   1.21904   1.22447   1.23062
 Alpha virt. eigenvalues --    1.23319   1.25301   1.25977   1.26923   1.28043
 Alpha virt. eigenvalues --    1.28890   1.29111   1.29553   1.30426   1.32462
 Alpha virt. eigenvalues --    1.32633   1.32956   1.34952   1.35839   1.36580
 Alpha virt. eigenvalues --    1.37320   1.37367   1.38433   1.39476   1.39645
 Alpha virt. eigenvalues --    1.40278   1.40496   1.41121   1.42610   1.43338
 Alpha virt. eigenvalues --    1.43572   1.44720   1.45008   1.46891   1.47834
 Alpha virt. eigenvalues --    1.49306   1.49488   1.51142   1.51672   1.52068
 Alpha virt. eigenvalues --    1.53333   1.53778   1.54043   1.54756   1.55493
 Alpha virt. eigenvalues --    1.56023   1.57617   1.58231   1.58472   1.58783
 Alpha virt. eigenvalues --    1.59004   1.59738   1.60473   1.60712   1.61632
 Alpha virt. eigenvalues --    1.61769   1.61937   1.62797   1.63051   1.63722
 Alpha virt. eigenvalues --    1.63800   1.64169   1.64242   1.65241   1.65394
 Alpha virt. eigenvalues --    1.65541   1.65965   1.66374   1.66910   1.67285
 Alpha virt. eigenvalues --    1.67573   1.68364   1.68644   1.69505   1.69962
 Alpha virt. eigenvalues --    1.70450   1.70771   1.71093   1.72032   1.72588
 Alpha virt. eigenvalues --    1.73040   1.73237   1.74040   1.74678   1.75236
 Alpha virt. eigenvalues --    1.76937   1.77218   1.77900   1.78874   1.79167
 Alpha virt. eigenvalues --    1.80096   1.81321   1.82077   1.83110   1.83908
 Alpha virt. eigenvalues --    1.84299   1.84787   1.85588   1.86059   1.87014
 Alpha virt. eigenvalues --    1.87569   1.88125   1.89625   1.90463   1.91760
 Alpha virt. eigenvalues --    1.92487   1.93373   1.95096   1.95668   1.96358
 Alpha virt. eigenvalues --    1.97590   1.98030   1.99159   1.99779   2.00975
 Alpha virt. eigenvalues --    2.02445   2.02996   2.03523   2.04540   2.05307
 Alpha virt. eigenvalues --    2.05952   2.06225   2.06769   2.08327   2.09220
 Alpha virt. eigenvalues --    2.09768   2.11312   2.12724   2.13913   2.15136
 Alpha virt. eigenvalues --    2.16892   2.17324   2.18379   2.19684   2.21256
 Alpha virt. eigenvalues --    2.22294   2.23357   2.24461   2.25218   2.26606
 Alpha virt. eigenvalues --    2.26975   2.28724   2.30358   2.31603   2.33139
 Alpha virt. eigenvalues --    2.34352   2.35103   2.36211   2.37939   2.38295
 Alpha virt. eigenvalues --    2.40363   2.43685   2.47328   2.48369   2.49877
 Alpha virt. eigenvalues --    2.51284   2.52429   2.52669   2.52954   2.54562
 Alpha virt. eigenvalues --    2.55124   2.55641   2.56566   2.57064   2.58225
 Alpha virt. eigenvalues --    2.58493   2.59201   2.59610   2.60454   2.60911
 Alpha virt. eigenvalues --    2.62574   2.63389   2.63893   2.64857   2.66552
 Alpha virt. eigenvalues --    2.66708   2.67656   2.68144   2.68946   2.70032
 Alpha virt. eigenvalues --    2.70638   2.70722   2.72152   2.72318   2.73910
 Alpha virt. eigenvalues --    2.75344   2.76330   2.80711   2.81055   2.83195
 Alpha virt. eigenvalues --    2.85472   2.86407   2.87152   2.88824   2.91060
 Alpha virt. eigenvalues --    2.91144   2.91708   2.93492   2.93827   2.95068
 Alpha virt. eigenvalues --    2.95662   2.96922   2.97288   2.98168   2.98938
 Alpha virt. eigenvalues --    3.00095   3.00870   3.02364   3.02982   3.03828
 Alpha virt. eigenvalues --    3.03979   3.04895   3.05299   3.05509   3.06802
 Alpha virt. eigenvalues --    3.08776   3.09861   3.11368   3.12833   3.14218
 Alpha virt. eigenvalues --    3.14376   3.15159   3.15503   3.16788   3.16890
 Alpha virt. eigenvalues --    3.18185   3.18648   3.20083   3.22073   3.22131
 Alpha virt. eigenvalues --    3.22427   3.23346   3.24503   3.25082   3.26567
 Alpha virt. eigenvalues --    3.26975   3.27550   3.28674   3.29365   3.29600
 Alpha virt. eigenvalues --    3.30706   3.31337   3.31920   3.33203   3.34301
 Alpha virt. eigenvalues --    3.35134   3.36624   3.37106   3.37644   3.38974
 Alpha virt. eigenvalues --    3.39472   3.40472   3.40921   3.42353   3.42479
 Alpha virt. eigenvalues --    3.45330   3.46850   3.47673   3.52290   3.52571
 Alpha virt. eigenvalues --    3.53417   3.54588   3.58197   3.60677   3.64436
 Alpha virt. eigenvalues --    3.75655   3.77592   3.78626   3.79057   3.85494
 Alpha virt. eigenvalues --    3.91256   3.93000   3.95709   3.98173   4.01831
 Alpha virt. eigenvalues --    4.03023   4.05544   4.06697   4.09470   4.10780
 Alpha virt. eigenvalues --    4.12005   4.14767   4.17625   4.18342   4.22495
 Alpha virt. eigenvalues --    4.24003   4.25905   4.27055   4.29188   4.32546
 Alpha virt. eigenvalues --    4.44844   4.55854   5.14232   5.17051   5.18699
 Alpha virt. eigenvalues --    5.21300   5.26653   5.30036   5.33031   5.34301
 Alpha virt. eigenvalues --    5.40976   5.41655   5.56826   5.71156   5.73090
 Alpha virt. eigenvalues --    5.79609   5.84778  23.47063  23.48175  23.51701
 Alpha virt. eigenvalues --   23.53158  23.62720  23.64566  23.65409  23.67592
 Alpha virt. eigenvalues --   23.67809  23.70430  23.72601  23.73574  23.76075
 Alpha virt. eigenvalues --   23.78706  23.79049  23.81288  23.83125  23.85852
 Alpha virt. eigenvalues --   23.87085  23.88293  23.90004  23.91408  23.96630
 Alpha virt. eigenvalues --   24.16366  24.22040  24.23153  49.98897  50.00401
 Alpha virt. eigenvalues --   50.03035  50.03999  50.06898
          Condensed to atoms (all electrons):
 Mulliken atomic charges:
              1
     1  C   -0.617650
     2  C    1.095501
     3  C   -0.132787
     4  C   -0.286690
     5  C    1.038394
     6  C   -1.143343
     7  C   -1.363986
     8  C    0.305780
     9  C    0.913643
    10  C   -0.943297
    11  C   -0.200287
    12  O   -0.169994
    13  C    0.381911
    14  C   -0.338488
    15  C   -1.076123
    16  O   -0.197097
    17  C   -0.258953
    18  C    0.639783
    19  O    0.199633
    20  C   -1.244581
    21  O   -0.009237
    22  C   -0.406954
    23  C   -0.028817
    24  O   -0.026355
    25  C    0.917775
    26  C   -1.070173
    27  C   -1.046142
    28  C   -0.856437
    29  C   -0.592264
    30  H    0.239792
    31  H    0.260405
    32  C   -1.157227
    33  H    0.208042
    34  H    0.259577
    35  H    0.263582
    36  H    0.240351
    37  H    0.218472
    38  H    0.263146
    39  H    0.267947
    40  H    0.232266
    41  H    0.273443
    42  H    0.289788
    43  H    0.259922
    44  H    0.253455
    45  H    0.270128
    46  H    0.255754
    47  H    0.214838
    48  H    0.262093
    49  H    0.252872
    50  H    0.251432
    51  H    0.214886
    52  H    0.246438
    53  H    0.265469
    54  H    0.312832
    55  H    0.250876
    56  H    0.270506
    57  H    0.261537
    58  H    0.273364
    59  H    0.261745
    60  H    0.245551
    61  H    0.251760
    62  C   -0.972605
    63  H    0.263892
    64  H    0.246284
    65  H    0.244624
 Sum of Mulliken atomic charges =   0.00000
 Mulliken charges with hydrogens summed into heavy atoms:
              1
     1  C   -0.409607
     2  C    1.095501
     3  C    0.127617
     4  C   -0.286690
     5  C    1.038394
     6  C   -0.620183
     7  C   -1.363986
     8  C    0.305780
     9  C    0.913643
    10  C   -0.943297
    11  C   -0.200287
    12  O   -0.169994
    13  C    0.622262
    14  C    0.143130
    15  C   -0.302467
    16  O   -0.197097
    17  C   -0.019161
    18  C    0.639783
    19  O    0.199633
    20  C   -0.694872
    21  O    0.244218
    22  C    0.118927
    23  C    0.186022
    24  O   -0.026355
    25  C    0.917775
    26  C   -0.303777
    27  C   -0.584818
    28  C   -0.027259
    29  C    0.213144
    32  C   -0.398171
    62  C   -0.217806
 Sum of Mulliken charges with hydrogens summed into heavy atoms =   0.00000
 Electronic spatial extent (au):  <R**2>=          11117.8921
 Charge=              0.0000 electrons
 Dipole moment (field-independent basis, Debye):
    X=             -5.3633    Y=              1.5478    Z=              1.4099  Tot=              5.7575
 Quadrupole moment (field-independent basis, Debye-Ang):
   XX=           -189.0462   YY=           -181.3489   ZZ=           -188.5467
   XY=             -5.6356   XZ=              7.2978   YZ=              2.0380
 Traceless Quadrupole moment (field-independent basis, Debye-Ang):
   XX=             -2.7322   YY=              4.9650   ZZ=             -2.2328
   XY=             -5.6356   XZ=              7.2978   YZ=              2.0380
 Octapole moment (field-independent basis, Debye-Ang**2):
  XXX=            -30.5008  YYY=             55.1508  ZZZ=              2.0402  XYY=            -19.5261
  XXY=            -19.1640  XXZ=             16.1767  XZZ=            -22.9076  YZZ=             -7.0773
  YYZ=             41.1688  XYZ=              9.4635
 Hexadecapole moment (field-independent basis, Debye-Ang**3):
 XXXX=          -7360.0799 YYYY=          -4920.6647 ZZZZ=          -2919.0970 XXXY=            -63.0141
 XXXZ=             65.3036 YYYX=             -0.3989 YYYZ=              9.4401 ZZZX=              1.9897
 ZZZY=             -0.8558 XXYY=          -2050.8813 XXZZ=          -1741.9505 YYZZ=          -1285.8551
 XXYZ=             29.3171 YYXZ=             10.1383 ZZXY=             16.2868
 N-N= 3.531381576486D+03 E-N=-1.029613545069D+04  KE= 1.381919327121D+03
 1\1\GINC-B0600\FOpt\RB3LYP\6-311+G(d)\C26H34O5\CAOFEI\13-Apr-2021\0\\#
  opt b3lyp/6-311+g(d) geom=connectivity\\Title Card Required\\0,1\C,2.
 4798867452,0.1400752194,2.7889807063\C,3.1952654809,0.7809197065,1.861
 5241126\C,2.605398926,1.0135168308,0.4919693544\C,1.597534024,-0.06968
 24825,-0.0111106246\C,0.9508685888,-0.9772609004,1.0776762817\C,1.0996
 722727,-0.3912265709,2.515648292\C,0.5631993066,0.747821121,-0.8581840
 798\C,-0.7650423354,0.9525898109,-0.1498246444\C,-1.3909762483,-0.0295
 954554,0.5508535889\C,-0.5843902794,-1.2043458218,0.9097173563\C,-2.82
 0033762,0.1161421102,0.9963171028\O,-3.2092373982,1.1674620857,1.46644
 10679\C,-3.7838183855,-1.0606982497,0.8062416382\C,-4.987076262,-0.615
 4274152,-0.0505851969\C,-4.2399641569,-1.5753008519,2.1821502525\O,-1.
 0683631925,-2.266551801,1.2717747987\C,1.056612563,2.2046520456,-0.955
 5995002\C,-0.2499801435,3.0133764529,-1.1073060507\O,-1.2476915234,2.1
 637575644,-0.3929049256\C,1.8596699992,2.3641046973,0.3463544182\O,0.2
 901561766,0.1417834685,-2.1057768899\C,1.7347681076,-2.2986481481,0.95
 81817004\C,2.3024736582,-2.343121599,-0.4602912571\O,2.2866223561,-0.9
 522400895,-0.9140324676\C,1.6344971757,-3.2120605646,-1.5126343919\C,2
 .3749131717,-3.2600237368,-2.8276341981\C,0.5080264052,-3.8964256714,-
 1.3108426602\C,-0.7015504556,3.1278079882,-2.5620010018\C,-0.279570505
 9,4.3673364206,-0.4115881958\H,1.7007296923,2.3342885616,-1.8279487703
 \H,3.4115884633,1.0051818103,-0.2503357853\C,4.5732748239,1.3276279861
 ,2.1170915183\H,2.8885722557,-0.0049742055,3.7865377848\H,0.841026589,
 -1.1799987571,3.2272873256\H,0.355598812,0.3994130363,2.6707033373\H,-
 3.2570570762,-1.8672448899,0.2924071943\H,-5.7020102777,-1.4462449072,
 -0.0750112143\H,-5.4910381863,0.2145754417,0.454532439\H,-4.7334712712
 ,-0.7808648841,2.7477314687\H,-4.9480761857,-2.4000999258,2.0603840473
 \H,-3.3950274223,-1.9455378562,2.766529482\H,1.196031185,2.5109525419,
 1.2038682953\H,2.5454241043,3.2137323559,0.3249582729\H,0.9840754035,-
 0.5291095045,-2.2302911364\H,1.0993464232,-3.1451301125,1.2075741856\H
 ,2.5644614615,-2.2889316647,1.6672759204\H,3.3628390354,-2.6190029555,
 -0.4329394377\H,3.3714805766,-3.6991108964,-2.6979470074\H,2.533335732
 8,-2.2588430857,-3.2411075499\H,1.8387316896,-3.853457609,-3.570190529
 7\H,0.0808361026,-4.5045686144,-2.1029124951\H,-0.0392005586,-3.875941
 5091,-0.3767501087\H,-1.712810367,3.5381680373,-2.6095532347\H,-0.6894
 867361,2.1570178915,-3.0569212374\H,-0.0356189475,3.8020818726,-3.1082
 382807\H,-0.0665040061,4.2845313081,0.6542800185\H,0.4602019158,5.0349
 603423,-0.8619795229\H,-1.2635371584,4.8276486311,-0.522842525\H,5.308
 5173244,0.8787621718,1.4389358522\H,4.6150417452,2.4100309002,1.948059
 8547\H,4.8993082045,1.1380863472,3.1420878233\C,-4.6273086725,-0.21278
 05551,-1.4832679214\H,-3.9733589723,0.6637240081,-1.5071079478\H,-5.52
 55033975,0.0371239036,-2.0555687755\H,-4.1146266141,-1.0229553785,-2.0
 115609262\\Version=EM64L-G09RevB.01\State=1-A\HF=-1387.6483254\RMSD=7.
 291e-09\RMSF=7.160e-06\Dipole=2.1331066,0.5542963,-0.5230168\Quadrupol
 e=-2.0389694,3.4568534,-1.417884,4.4166734,5.323682,-1.6238544\PG=C01 
 [X(C26H34O5)]\\@


 YOU KNOW YOU'RE A TEACHER WHEN YOU SAY 2, WRITE 3, AND MEAN 4.
 -- RONALD ANSTROM, HIGH SCHOOL TEACHER, UNDERWOOD, N.D. 1974
 Job cpu time:  1 days 20 hours 33 minutes 10.5 seconds.
 File lengths (MBytes):  RWF=    372 Int=      0 D2E=      0 Chk=     38 Scr=      1
 Normal termination of Gaussian 09 at Tue Apr 13 18:13:50 2021.
