 Entering Gaussian System, Link 0=g09
 Initial command:
 /public/software/g09/g09/l1.exe /tmp/Gau-19018.inp -scrdir=/tmp/
 Entering Link 1 = /public/software/g09/g09/l1.exe PID=     19019.
  
 Copyright (c) 1988,1990,1992,1993,1995,1998,2003,2009,2010,
            Gaussian, Inc.  All Rights Reserved.
  
 This is part of the Gaussian(R) 09 program.  It is based on
 the Gaussian(R) 03 system (copyright 2003, Gaussian, Inc.),
 the Gaussian(R) 98 system (copyright 1998, Gaussian, Inc.),
 the Gaussian(R) 94 system (copyright 1995, Gaussian, Inc.),
 the Gaussian 92(TM) system (copyright 1992, Gaussian, Inc.),
 the Gaussian 90(TM) system (copyright 1990, Gaussian, Inc.),
 the Gaussian 88(TM) system (copyright 1988, Gaussian, Inc.),
 the Gaussian 86(TM) system (copyright 1986, Carnegie Mellon
 University), and the Gaussian 82(TM) system (copyright 1983,
 Carnegie Mellon University). Gaussian is a federally registered
 trademark of Gaussian, Inc.
  
 This software contains proprietary and confidential information,
 including trade secrets, belonging to Gaussian, Inc.
  
 This software is provided under written license and may be
 used, copied, transmitted, or stored only in accord with that
 written license.
  
 The following legend is applicable only to US Government
 contracts under FAR:
  
                    RESTRICTED RIGHTS LEGEND
  
 Use, reproduction and disclosure by the US Government is
 subject to restrictions as set forth in subparagraphs (a)
 and (c) of the Commercial Computer Software - Restricted
 Rights clause in FAR 52.227-19.
  
 Gaussian, Inc.
 340 Quinnipiac St., Bldg. 40, Wallingford CT 06492
  
  
 ---------------------------------------------------------------
 Warning -- This program may not be used in any manner that
 competes with the business of Gaussian, Inc. or will provide
 assistance to any competitor of Gaussian, Inc.  The licensee
 of this program is prohibited from giving any competitor of
 Gaussian, Inc. access to this program.  By using this program,
 the user acknowledges that Gaussian, Inc. is engaged in the
 business of creating and licensing software in the field of
 computational chemistry and represents and warrants to the
 licensee that it is not a competitor of Gaussian, Inc. and that
 it will not use this program in any manner prohibited above.
 ---------------------------------------------------------------
  

 Cite this work as:
 Gaussian 09, Revision B.01,
 M. J. Frisch, G. W. Trucks, H. B. Schlegel, G. E. Scuseria, 
 M. A. Robb, J. R. Cheeseman, G. Scalmani, V. Barone, B. Mennucci, 
 G. A. Petersson, H. Nakatsuji, M. Caricato, X. Li, H. P. Hratchian, 
 A. F. Izmaylov, J. Bloino, G. Zheng, J. L. Sonnenberg, M. Hada, 
 M. Ehara, K. Toyota, R. Fukuda, J. Hasegawa, M. Ishida, T. Nakajima, 
 Y. Honda, O. Kitao, H. Nakai, T. Vreven, J. A. Montgomery, Jr., 
 J. E. Peralta, F. Ogliaro, M. Bearpark, J. J. Heyd, E. Brothers, 
 K. N. Kudin, V. N. Staroverov, T. Keith, R. Kobayashi, J. Normand, 
 K. Raghavachari, A. Rendell, J. C. Burant, S. S. Iyengar, J. Tomasi, 
 M. Cossi, N. Rega, J. M. Millam, M. Klene, J. E. Knox, J. B. Cross, 
 V. Bakken, C. Adamo, J. Jaramillo, R. Gomperts, R. E. Stratmann, 
 O. Yazyev, A. J. Austin, R. Cammi, C. Pomelli, J. W. Ochterski, 
 R. L. Martin, K. Morokuma, V. G. Zakrzewski, G. A. Voth, 
 P. Salvador, J. J. Dannenberg, S. Dapprich, A. D. Daniels, 
 O. Farkas, J. B. Foresman, J. V. Ortiz, J. Cioslowski, 
 and D. J. Fox, Gaussian, Inc., Wallingford CT, 2010.
 
 ******************************************
 Gaussian 09:  EM64L-G09RevB.01 12-Aug-2010
                 2-Feb-2021 
 ******************************************
 %mem=600MW
 %nprocshared=10
 Will use up to   10 processors via shared memory.
 --------------------------------------
 # opt b3lyp/6-31g(d) geom=connectivity
 --------------------------------------
 1/14=-1,18=20,19=15,26=3,38=1,57=2/1,3;
 2/9=110,12=2,17=6,18=5,40=1/2;
 3/5=1,6=6,7=1,11=2,16=1,25=1,30=1,71=1,74=-5/1,2,3;
 4//1;
 5/5=2,38=5/2;
 6/7=2,8=2,9=2,10=2,28=1/1;
 7//1,2,3,16;
 1/14=-1,18=20,19=15/3(2);
 2/9=110/2;
 99//99;
 2/9=110/2;
 3/5=1,6=6,7=1,11=2,16=1,25=1,30=1,71=1,74=-5/1,2,3;
 4/5=5,16=3/1;
 5/5=2,38=5/2;
 7//1,2,3,16;
 1/14=-1,18=20,19=15/3(-5);
 2/9=110/2;
 6/7=2,8=2,9=2,10=2,19=2,28=1/1;
 99/9=1/99;
 -------------------
 Title Card Required
 -------------------
 Symbolic Z-matrix:
 Charge =  0 Multiplicity = 1
 C                     3.84651  -3.61721  -0.09948 
 C                     3.3586   -2.44815   0.49081 
 C                     2.15301  -1.87117   0.08394 
 C                     1.378    -2.45034  -0.9297 
 C                     1.83829  -3.63893  -1.51101 
 C                     3.06036  -4.2146   -1.0974 
 C                     0.10812  -1.85702  -1.38422 
 C                    -0.59227  -2.51773  -2.31945 
 O                    -0.15372  -3.72292  -2.89899 
 C                     1.03049  -4.30018  -2.56012 
 C                    -0.37276  -0.54034  -0.81213 
 C                    -1.5702    0.11629  -1.53666 
 C                    -2.56248  -0.97099  -1.98858 
 C                    -1.91764  -2.05415  -2.84893 
 C                     5.14727  -4.23208   0.33804 
 O                     3.53561  -5.38265  -1.64591 
 O                     4.01299  -1.7923    1.49608 
 O                     1.42527  -5.33638  -3.08857 
 O                    -2.34151   0.95543  -0.64271 
 C                    -1.66938   2.07027  -0.01862 
 C                    -2.61613   3.28471  -0.09454 
 C                    -2.03837   4.48979   0.66818 
 C                    -1.48873   4.14555   2.01088 
 C                    -1.19855   2.88551   2.3804 
 C                    -1.38008   1.71265   1.45327 
 O                    -2.83118   3.71421  -1.44959 
 O                    -3.06649   5.46189   0.8492 
 C                    -0.66576   2.54612   3.73176 
 O                    -0.49683   3.65117   4.49767 
 O                    -0.41402   1.39894   4.07168 
 C                     0.006     3.38175   5.80643 
 C                    -1.17389   0.93361  -2.78283 
 O                    -0.06887   0.5092   -3.41947 
 O                    -1.79244   1.89566  -3.21756 
 H                     1.83814  -0.96396   0.59327 
 H                     0.45389   0.18094  -0.7942 
 H                    -0.6536   -0.73245   0.23099 
 H                    -3.40321  -0.52343  -2.53518 
 H                    -3.01231  -1.43618  -1.09966 
 H                    -2.60681  -2.90516  -2.91048 
 H                    -1.77955  -1.68789  -3.87323 
 H                     5.49589  -5.01752  -0.33883 
 H                     5.93717  -3.47369   0.36243 
 H                     5.03572  -4.67007   1.33504 
 H                     2.90496  -5.70224  -2.32978 
 H                     4.76399  -2.32548   1.80185 
 H                    -0.73959   2.30634  -0.55078 
 H                    -3.6078    3.01679   0.29171 
 H                    -1.25214   4.97411   0.07649 
 H                    -1.33486   4.98364   2.68658 
 H                    -0.47353   1.09714   1.47988 
 H                    -2.18898   1.07894   1.84082 
 H                    -2.82888   2.91838  -2.02279 
 H                    -3.4708    5.56686  -0.03443 
 H                     0.09599   4.33347   6.33736 
 H                    -0.68754   2.74083   6.35986 
 H                     0.99769   2.92216   5.74889 
 H                     0.02692   1.11284  -4.1877 
 

 GradGradGradGradGradGradGradGradGradGradGradGradGradGradGradGradGradGrad
 Berny optimization.
 Initialization pass.
                           ----------------------------
                           !    Initial Parameters    !
                           ! (Angstroms and Degrees)  !
 --------------------------                            --------------------------
 ! Name  Definition              Value          Derivative Info.                !
 --------------------------------------------------------------------------------
 ! R1    R(1,2)                  1.3976         estimate D2E/DX2                !
 ! R2    R(1,6)                  1.4038         estimate D2E/DX2                !
 ! R3    R(1,15)                 1.5038         estimate D2E/DX2                !
 ! R4    R(2,3)                  1.3971         estimate D2E/DX2                !
 ! R5    R(2,17)                 1.3671         estimate D2E/DX2                !
 ! R6    R(3,4)                  1.4013         estimate D2E/DX2                !
 ! R7    R(3,35)                 1.087          estimate D2E/DX2                !
 ! R8    R(4,5)                  1.4009         estimate D2E/DX2                !
 ! R9    R(4,7)                  1.4735         estimate D2E/DX2                !
 ! R10   R(5,6)                  1.4128         estimate D2E/DX2                !
 ! R11   R(5,10)                 1.48           estimate D2E/DX2                !
 ! R12   R(6,16)                 1.3752         estimate D2E/DX2                !
 ! R13   R(7,8)                  1.3423         estimate D2E/DX2                !
 ! R14   R(7,11)                 1.514          estimate D2E/DX2                !
 ! R15   R(8,9)                  1.4074         estimate D2E/DX2                !
 ! R16   R(8,14)                 1.5006         estimate D2E/DX2                !
 ! R17   R(9,10)                 1.3603         estimate D2E/DX2                !
 ! R18   R(10,18)                1.2283         estimate D2E/DX2                !
 ! R19   R(11,12)                1.546          estimate D2E/DX2                !
 ! R20   R(11,36)                1.0972         estimate D2E/DX2                !
 ! R21   R(11,37)                1.0972         estimate D2E/DX2                !
 ! R22   R(12,13)                1.5398         estimate D2E/DX2                !
 ! R23   R(12,19)                1.4485         estimate D2E/DX2                !
 ! R24   R(12,32)                1.5421         estimate D2E/DX2                !
 ! R25   R(13,14)                1.5262         estimate D2E/DX2                !
 ! R26   R(13,38)                1.0981         estimate D2E/DX2                !
 ! R27   R(13,39)                1.0995         estimate D2E/DX2                !
 ! R28   R(14,40)                1.0968         estimate D2E/DX2                !
 ! R29   R(14,41)                1.0965         estimate D2E/DX2                !
 ! R30   R(15,42)                1.0939         estimate D2E/DX2                !
 ! R31   R(15,43)                1.0953         estimate D2E/DX2                !
 ! R32   R(15,44)                1.0947         estimate D2E/DX2                !
 ! R33   R(16,45)                0.9836         estimate D2E/DX2                !
 ! R34   R(17,46)                0.9705         estimate D2E/DX2                !
 ! R35   R(18,45)                1.7027         estimate D2E/DX2                !
 ! R36   R(19,20)                1.4436         estimate D2E/DX2                !
 ! R37   R(20,21)                1.5417         estimate D2E/DX2                !
 ! R38   R(20,25)                1.5421         estimate D2E/DX2                !
 ! R39   R(20,47)                1.097          estimate D2E/DX2                !
 ! R40   R(21,22)                1.5388         estimate D2E/DX2                !
 ! R41   R(21,26)                1.4377         estimate D2E/DX2                !
 ! R42   R(21,48)                1.0974         estimate D2E/DX2                !
 ! R43   R(22,23)                1.4911         estimate D2E/DX2                !
 ! R44   R(22,27)                1.4265         estimate D2E/DX2                !
 ! R45   R(22,49)                1.0967         estimate D2E/DX2                !
 ! R46   R(23,24)                1.3448         estimate D2E/DX2                !
 ! R47   R(23,50)                1.0875         estimate D2E/DX2                !
 ! R48   R(24,25)                1.506          estimate D2E/DX2                !
 ! R49   R(24,28)                1.4917         estimate D2E/DX2                !
 ! R50   R(25,51)                1.0961         estimate D2E/DX2                !
 ! R51   R(25,52)                1.0982         estimate D2E/DX2                !
 ! R52   R(26,53)                0.9808         estimate D2E/DX2                !
 ! R53   R(27,54)                0.9774         estimate D2E/DX2                !
 ! R54   R(28,29)                1.3551         estimate D2E/DX2                !
 ! R55   R(28,30)                1.2227         estimate D2E/DX2                !
 ! R56   R(29,31)                1.4277         estimate D2E/DX2                !
 ! R57   R(31,55)                1.0935         estimate D2E/DX2                !
 ! R58   R(31,56)                1.0946         estimate D2E/DX2                !
 ! R59   R(31,57)                1.0945         estimate D2E/DX2                !
 ! R60   R(32,33)                1.3441         estimate D2E/DX2                !
 ! R61   R(32,34)                1.2236         estimate D2E/DX2                !
 ! R62   R(33,58)                0.9817         estimate D2E/DX2                !
 ! R63   R(34,53)                1.8835         estimate D2E/DX2                !
 ! A1    A(2,1,6)              117.4322         estimate D2E/DX2                !
 ! A2    A(2,1,15)             121.4068         estimate D2E/DX2                !
 ! A3    A(6,1,15)             121.1453         estimate D2E/DX2                !
 ! A4    A(1,2,3)              121.5819         estimate D2E/DX2                !
 ! A5    A(1,2,17)             123.009          estimate D2E/DX2                !
 ! A6    A(3,2,17)             115.409          estimate D2E/DX2                !
 ! A7    A(2,3,4)              121.1467         estimate D2E/DX2                !
 ! A8    A(2,3,35)             117.2694         estimate D2E/DX2                !
 ! A9    A(4,3,35)             121.5803         estimate D2E/DX2                !
 ! A10   A(3,4,5)              117.9774         estimate D2E/DX2                !
 ! A11   A(3,4,7)              122.2327         estimate D2E/DX2                !
 ! A12   A(5,4,7)              119.7881         estimate D2E/DX2                !
 ! A13   A(4,5,6)              120.5607         estimate D2E/DX2                !
 ! A14   A(4,5,10)             119.5959         estimate D2E/DX2                !
 ! A15   A(6,5,10)             119.8418         estimate D2E/DX2                !
 ! A16   A(1,6,5)              121.2735         estimate D2E/DX2                !
 ! A17   A(1,6,16)             116.8372         estimate D2E/DX2                !
 ! A18   A(5,6,16)             121.8891         estimate D2E/DX2                !
 ! A19   A(4,7,8)              117.8009         estimate D2E/DX2                !
 ! A20   A(4,7,11)             120.4874         estimate D2E/DX2                !
 ! A21   A(8,7,11)             121.7105         estimate D2E/DX2                !
 ! A22   A(7,8,9)              123.0823         estimate D2E/DX2                !
 ! A23   A(7,8,14)             123.6849         estimate D2E/DX2                !
 ! A24   A(9,8,14)             113.2325         estimate D2E/DX2                !
 ! A25   A(8,9,10)             122.1462         estimate D2E/DX2                !
 ! A26   A(5,10,9)             117.5257         estimate D2E/DX2                !
 ! A27   A(5,10,18)            120.4268         estimate D2E/DX2                !
 ! A28   A(9,10,18)            122.0457         estimate D2E/DX2                !
 ! A29   A(7,11,12)            115.9962         estimate D2E/DX2                !
 ! A30   A(7,11,36)            109.79           estimate D2E/DX2                !
 ! A31   A(7,11,37)            106.7545         estimate D2E/DX2                !
 ! A32   A(12,11,36)           108.1801         estimate D2E/DX2                !
 ! A33   A(12,11,37)           108.7637         estimate D2E/DX2                !
 ! A34   A(36,11,37)           107.0013         estimate D2E/DX2                !
 ! A35   A(11,12,13)           109.6805         estimate D2E/DX2                !
 ! A36   A(11,12,19)           111.6701         estimate D2E/DX2                !
 ! A37   A(11,12,32)           113.8776         estimate D2E/DX2                !
 ! A38   A(13,12,19)           104.3026         estimate D2E/DX2                !
 ! A39   A(13,12,32)           107.6194         estimate D2E/DX2                !
 ! A40   A(19,12,32)           109.1794         estimate D2E/DX2                !
 ! A41   A(12,13,14)           113.223          estimate D2E/DX2                !
 ! A42   A(12,13,38)           110.5886         estimate D2E/DX2                !
 ! A43   A(12,13,39)           108.9724         estimate D2E/DX2                !
 ! A44   A(14,13,38)           109.3984         estimate D2E/DX2                !
 ! A45   A(14,13,39)           109.1681         estimate D2E/DX2                !
 ! A46   A(38,13,39)           105.1669         estimate D2E/DX2                !
 ! A47   A(8,14,13)            113.1734         estimate D2E/DX2                !
 ! A48   A(8,14,40)            109.5766         estimate D2E/DX2                !
 ! A49   A(8,14,41)            108.7565         estimate D2E/DX2                !
 ! A50   A(13,14,40)           108.4711         estimate D2E/DX2                !
 ! A51   A(13,14,41)           110.0437         estimate D2E/DX2                !
 ! A52   A(40,14,41)           106.6115         estimate D2E/DX2                !
 ! A53   A(1,15,42)            112.9061         estimate D2E/DX2                !
 ! A54   A(1,15,43)            110.3145         estimate D2E/DX2                !
 ! A55   A(1,15,44)            109.9035         estimate D2E/DX2                !
 ! A56   A(42,15,43)           106.3255         estimate D2E/DX2                !
 ! A57   A(42,15,44)           107.9838         estimate D2E/DX2                !
 ! A58   A(43,15,44)           109.2836         estimate D2E/DX2                !
 ! A59   A(6,16,45)            109.3731         estimate D2E/DX2                !
 ! A60   A(2,17,46)            109.7881         estimate D2E/DX2                !
 ! A61   A(12,19,20)           117.7912         estimate D2E/DX2                !
 ! A62   A(19,20,21)           107.5244         estimate D2E/DX2                !
 ! A63   A(19,20,25)           108.7162         estimate D2E/DX2                !
 ! A64   A(19,20,47)           110.5532         estimate D2E/DX2                !
 ! A65   A(21,20,25)           110.1748         estimate D2E/DX2                !
 ! A66   A(21,20,47)           109.0911         estimate D2E/DX2                !
 ! A67   A(25,20,47)           110.7266         estimate D2E/DX2                !
 ! A68   A(20,21,22)           111.2181         estimate D2E/DX2                !
 ! A69   A(20,21,26)           111.9377         estimate D2E/DX2                !
 ! A70   A(20,21,48)           110.1973         estimate D2E/DX2                !
 ! A71   A(22,21,26)           106.8211         estimate D2E/DX2                !
 ! A72   A(22,21,48)           110.8559         estimate D2E/DX2                !
 ! A73   A(26,21,48)           105.6348         estimate D2E/DX2                !
 ! A74   A(21,22,23)           113.8246         estimate D2E/DX2                !
 ! A75   A(21,22,27)           109.0257         estimate D2E/DX2                !
 ! A76   A(21,22,49)           110.3404         estimate D2E/DX2                !
 ! A77   A(23,22,27)           107.9827         estimate D2E/DX2                !
 ! A78   A(23,22,49)           108.8744         estimate D2E/DX2                !
 ! A79   A(27,22,49)           106.5118         estimate D2E/DX2                !
 ! A80   A(22,23,24)           122.907          estimate D2E/DX2                !
 ! A81   A(22,23,50)           115.7042         estimate D2E/DX2                !
 ! A82   A(24,23,50)           121.3886         estimate D2E/DX2                !
 ! A83   A(23,24,25)           122.3124         estimate D2E/DX2                !
 ! A84   A(23,24,28)           122.6272         estimate D2E/DX2                !
 ! A85   A(25,24,28)           115.0592         estimate D2E/DX2                !
 ! A86   A(20,25,24)           115.4419         estimate D2E/DX2                !
 ! A87   A(20,25,51)           107.9732         estimate D2E/DX2                !
 ! A88   A(20,25,52)           109.418          estimate D2E/DX2                !
 ! A89   A(24,25,51)           108.8257         estimate D2E/DX2                !
 ! A90   A(24,25,52)           108.718          estimate D2E/DX2                !
 ! A91   A(51,25,52)           106.0565         estimate D2E/DX2                !
 ! A92   A(21,26,53)           107.9438         estimate D2E/DX2                !
 ! A93   A(22,27,54)           104.8688         estimate D2E/DX2                !
 ! A94   A(24,28,29)           111.7784         estimate D2E/DX2                !
 ! A95   A(24,28,30)           122.6059         estimate D2E/DX2                !
 ! A96   A(29,28,30)           125.6139         estimate D2E/DX2                !
 ! A97   A(28,29,31)           114.0885         estimate D2E/DX2                !
 ! A98   A(29,31,55)           108.0494         estimate D2E/DX2                !
 ! A99   A(29,31,56)           110.5384         estimate D2E/DX2                !
 ! A100  A(29,31,57)           110.4965         estimate D2E/DX2                !
 ! A101  A(55,31,56)           108.4379         estimate D2E/DX2                !
 ! A102  A(55,31,57)           108.446          estimate D2E/DX2                !
 ! A103  A(56,31,57)           110.7818         estimate D2E/DX2                !
 ! A104  A(12,32,33)           115.2587         estimate D2E/DX2                !
 ! A105  A(12,32,34)           125.0244         estimate D2E/DX2                !
 ! A106  A(33,32,34)           119.7095         estimate D2E/DX2                !
 ! A107  A(32,33,58)           104.8761         estimate D2E/DX2                !
 ! D1    D(6,1,2,3)             -1.6545         estimate D2E/DX2                !
 ! D2    D(6,1,2,17)           178.262          estimate D2E/DX2                !
 ! D3    D(15,1,2,3)           179.7686         estimate D2E/DX2                !
 ! D4    D(15,1,2,17)           -0.3149         estimate D2E/DX2                !
 ! D5    D(2,1,6,5)              1.4538         estimate D2E/DX2                !
 ! D6    D(2,1,6,16)          -178.3931         estimate D2E/DX2                !
 ! D7    D(15,1,6,5)          -179.9654         estimate D2E/DX2                !
 ! D8    D(15,1,6,16)            0.1878         estimate D2E/DX2                !
 ! D9    D(2,1,15,42)         -168.5003         estimate D2E/DX2                !
 ! D10   D(2,1,15,43)          -49.6958         estimate D2E/DX2                !
 ! D11   D(2,1,15,44)           70.8718         estimate D2E/DX2                !
 ! D12   D(6,1,15,42)           12.9755         estimate D2E/DX2                !
 ! D13   D(6,1,15,43)          131.78           estimate D2E/DX2                !
 ! D14   D(6,1,15,44)         -107.6524         estimate D2E/DX2                !
 ! D15   D(1,2,3,4)              0.4721         estimate D2E/DX2                !
 ! D16   D(1,2,3,35)           179.7947         estimate D2E/DX2                !
 ! D17   D(17,2,3,4)          -179.4504         estimate D2E/DX2                !
 ! D18   D(17,2,3,35)           -0.1278         estimate D2E/DX2                !
 ! D19   D(1,2,17,46)           -8.1489         estimate D2E/DX2                !
 ! D20   D(3,2,17,46)          171.7723         estimate D2E/DX2                !
 ! D21   D(2,3,4,5)              0.9456         estimate D2E/DX2                !
 ! D22   D(2,3,4,7)           -179.5434         estimate D2E/DX2                !
 ! D23   D(35,3,4,5)          -178.3476         estimate D2E/DX2                !
 ! D24   D(35,3,4,7)             1.1634         estimate D2E/DX2                !
 ! D25   D(3,4,5,6)             -1.1331         estimate D2E/DX2                !
 ! D26   D(3,4,5,10)           178.4169         estimate D2E/DX2                !
 ! D27   D(7,4,5,6)            179.3435         estimate D2E/DX2                !
 ! D28   D(7,4,5,10)            -1.1065         estimate D2E/DX2                !
 ! D29   D(3,4,7,8)           -177.0853         estimate D2E/DX2                !
 ! D30   D(3,4,7,11)             3.3066         estimate D2E/DX2                !
 ! D31   D(5,4,7,8)              2.4171         estimate D2E/DX2                !
 ! D32   D(5,4,7,11)          -177.191          estimate D2E/DX2                !
 ! D33   D(4,5,6,1)             -0.0722         estimate D2E/DX2                !
 ! D34   D(4,5,6,16)           179.7668         estimate D2E/DX2                !
 ! D35   D(10,5,6,1)          -179.6211         estimate D2E/DX2                !
 ! D36   D(10,5,6,16)            0.218          estimate D2E/DX2                !
 ! D37   D(4,5,10,9)            -1.1358         estimate D2E/DX2                !
 ! D38   D(4,5,10,18)          179.3458         estimate D2E/DX2                !
 ! D39   D(6,5,10,9)           178.4175         estimate D2E/DX2                !
 ! D40   D(6,5,10,18)           -1.1009         estimate D2E/DX2                !
 ! D41   D(1,6,16,45)         -179.8467         estimate D2E/DX2                !
 ! D42   D(5,6,16,45)            0.3074         estimate D2E/DX2                !
 ! D43   D(4,7,8,9)             -1.5128         estimate D2E/DX2                !
 ! D44   D(4,7,8,14)           178.2637         estimate D2E/DX2                !
 ! D45   D(11,7,8,9)           178.0903         estimate D2E/DX2                !
 ! D46   D(11,7,8,14)           -2.1333         estimate D2E/DX2                !
 ! D47   D(4,7,11,12)          169.1639         estimate D2E/DX2                !
 ! D48   D(4,7,11,36)           46.1814         estimate D2E/DX2                !
 ! D49   D(4,7,11,37)          -69.4671         estimate D2E/DX2                !
 ! D50   D(8,7,11,12)          -10.4286         estimate D2E/DX2                !
 ! D51   D(8,7,11,36)         -133.4112         estimate D2E/DX2                !
 ! D52   D(8,7,11,37)          110.9404         estimate D2E/DX2                !
 ! D53   D(7,8,9,10)            -0.8172         estimate D2E/DX2                !
 ! D54   D(14,8,9,10)          179.3852         estimate D2E/DX2                !
 ! D55   D(7,8,14,13)          -14.7056         estimate D2E/DX2                !
 ! D56   D(7,8,14,40)         -135.9038         estimate D2E/DX2                !
 ! D57   D(7,8,14,41)          107.9157         estimate D2E/DX2                !
 ! D58   D(9,8,14,13)          165.0905         estimate D2E/DX2                !
 ! D59   D(9,8,14,40)           43.8924         estimate D2E/DX2                !
 ! D60   D(9,8,14,41)          -72.2882         estimate D2E/DX2                !
 ! D61   D(8,9,10,5)             2.1399         estimate D2E/DX2                !
 ! D62   D(8,9,10,18)         -178.35           estimate D2E/DX2                !
 ! D63   D(7,11,12,13)          37.8886         estimate D2E/DX2                !
 ! D64   D(7,11,12,19)         153.0037         estimate D2E/DX2                !
 ! D65   D(7,11,12,32)         -82.7679         estimate D2E/DX2                !
 ! D66   D(36,11,12,13)        161.7111         estimate D2E/DX2                !
 ! D67   D(36,11,12,19)        -83.1738         estimate D2E/DX2                !
 ! D68   D(36,11,12,32)         41.0546         estimate D2E/DX2                !
 ! D69   D(37,11,12,13)        -82.4021         estimate D2E/DX2                !
 ! D70   D(37,11,12,19)         32.713          estimate D2E/DX2                !
 ! D71   D(37,11,12,32)        156.9414         estimate D2E/DX2                !
 ! D72   D(11,12,13,14)        -54.9195         estimate D2E/DX2                !
 ! D73   D(11,12,13,38)       -178.0987         estimate D2E/DX2                !
 ! D74   D(11,12,13,39)         66.7707         estimate D2E/DX2                !
 ! D75   D(19,12,13,14)       -174.6486         estimate D2E/DX2                !
 ! D76   D(19,12,13,38)         62.1722         estimate D2E/DX2                !
 ! D77   D(19,12,13,39)        -52.9584         estimate D2E/DX2                !
 ! D78   D(32,12,13,14)         69.4584         estimate D2E/DX2                !
 ! D79   D(32,12,13,38)        -53.7209         estimate D2E/DX2                !
 ! D80   D(32,12,13,39)       -168.8514         estimate D2E/DX2                !
 ! D81   D(11,12,19,20)         60.2955         estimate D2E/DX2                !
 ! D82   D(13,12,19,20)        178.6729         estimate D2E/DX2                !
 ! D83   D(32,12,19,20)        -66.5296         estimate D2E/DX2                !
 ! D84   D(11,12,32,33)         29.2333         estimate D2E/DX2                !
 ! D85   D(11,12,32,34)       -151.7648         estimate D2E/DX2                !
 ! D86   D(13,12,32,33)        -92.5705         estimate D2E/DX2                !
 ! D87   D(13,12,32,34)         86.4314         estimate D2E/DX2                !
 ! D88   D(19,12,32,33)        154.7917         estimate D2E/DX2                !
 ! D89   D(19,12,32,34)        -26.2064         estimate D2E/DX2                !
 ! D90   D(12,13,14,8)          43.8021         estimate D2E/DX2                !
 ! D91   D(12,13,14,40)        165.6221         estimate D2E/DX2                !
 ! D92   D(12,13,14,41)        -78.1011         estimate D2E/DX2                !
 ! D93   D(38,13,14,8)         167.6355         estimate D2E/DX2                !
 ! D94   D(38,13,14,40)        -70.5446         estimate D2E/DX2                !
 ! D95   D(38,13,14,41)         45.7323         estimate D2E/DX2                !
 ! D96   D(39,13,14,8)         -77.7783         estimate D2E/DX2                !
 ! D97   D(39,13,14,40)         44.0417         estimate D2E/DX2                !
 ! D98   D(39,13,14,41)        160.3185         estimate D2E/DX2                !
 ! D99   D(12,19,20,21)        136.5592         estimate D2E/DX2                !
 ! D100  D(12,19,20,25)       -104.1761         estimate D2E/DX2                !
 ! D101  D(12,19,20,47)         17.5663         estimate D2E/DX2                !
 ! D102  D(19,20,21,22)        174.529          estimate D2E/DX2                !
 ! D103  D(19,20,21,26)        -66.0627         estimate D2E/DX2                !
 ! D104  D(19,20,21,48)         51.1789         estimate D2E/DX2                !
 ! D105  D(25,20,21,22)         56.2012         estimate D2E/DX2                !
 ! D106  D(25,20,21,26)        175.6094         estimate D2E/DX2                !
 ! D107  D(25,20,21,48)        -67.149          estimate D2E/DX2                !
 ! D108  D(47,20,21,22)        -65.545          estimate D2E/DX2                !
 ! D109  D(47,20,21,26)         53.8632         estimate D2E/DX2                !
 ! D110  D(47,20,21,48)        171.1049         estimate D2E/DX2                !
 ! D111  D(19,20,25,24)       -156.7479         estimate D2E/DX2                !
 ! D112  D(19,20,25,51)         81.2462         estimate D2E/DX2                !
 ! D113  D(19,20,25,52)        -33.7569         estimate D2E/DX2                !
 ! D114  D(21,20,25,24)        -39.1548         estimate D2E/DX2                !
 ! D115  D(21,20,25,51)       -161.1607         estimate D2E/DX2                !
 ! D116  D(21,20,25,52)         83.8362         estimate D2E/DX2                !
 ! D117  D(47,20,25,24)         81.6155         estimate D2E/DX2                !
 ! D118  D(47,20,25,51)        -40.3904         estimate D2E/DX2                !
 ! D119  D(47,20,25,52)       -155.3935         estimate D2E/DX2                !
 ! D120  D(20,21,22,23)        -45.4033         estimate D2E/DX2                !
 ! D121  D(20,21,22,27)       -166.0174         estimate D2E/DX2                !
 ! D122  D(20,21,22,49)         77.3376         estimate D2E/DX2                !
 ! D123  D(26,21,22,23)       -167.8186         estimate D2E/DX2                !
 ! D124  D(26,21,22,27)         71.5672         estimate D2E/DX2                !
 ! D125  D(26,21,22,49)        -45.0777         estimate D2E/DX2                !
 ! D126  D(48,21,22,23)         77.5695         estimate D2E/DX2                !
 ! D127  D(48,21,22,27)        -43.0447         estimate D2E/DX2                !
 ! D128  D(48,21,22,49)       -159.6896         estimate D2E/DX2                !
 ! D129  D(20,21,26,53)         34.5384         estimate D2E/DX2                !
 ! D130  D(22,21,26,53)        156.5016         estimate D2E/DX2                !
 ! D131  D(48,21,26,53)        -85.4102         estimate D2E/DX2                !
 ! D132  D(21,22,23,24)         16.5923         estimate D2E/DX2                !
 ! D133  D(21,22,23,50)       -163.2898         estimate D2E/DX2                !
 ! D134  D(27,22,23,24)        137.7896         estimate D2E/DX2                !
 ! D135  D(27,22,23,50)        -42.0925         estimate D2E/DX2                !
 ! D136  D(49,22,23,24)       -106.9484         estimate D2E/DX2                !
 ! D137  D(49,22,23,50)         73.1695         estimate D2E/DX2                !
 ! D138  D(21,22,27,54)        -48.7056         estimate D2E/DX2                !
 ! D139  D(23,22,27,54)       -172.841          estimate D2E/DX2                !
 ! D140  D(49,22,27,54)         70.3539         estimate D2E/DX2                !
 ! D141  D(22,23,24,25)          1.2491         estimate D2E/DX2                !
 ! D142  D(22,23,24,28)       -179.1709         estimate D2E/DX2                !
 ! D143  D(50,23,24,25)       -178.8753         estimate D2E/DX2                !
 ! D144  D(50,23,24,28)          0.7046         estimate D2E/DX2                !
 ! D145  D(23,24,25,20)         10.7957         estimate D2E/DX2                !
 ! D146  D(23,24,25,51)        132.3439         estimate D2E/DX2                !
 ! D147  D(23,24,25,52)       -112.5654         estimate D2E/DX2                !
 ! D148  D(28,24,25,20)       -168.8137         estimate D2E/DX2                !
 ! D149  D(28,24,25,51)        -47.2656         estimate D2E/DX2                !
 ! D150  D(28,24,25,52)         67.8252         estimate D2E/DX2                !
 ! D151  D(23,24,28,29)         -1.1722         estimate D2E/DX2                !
 ! D152  D(23,24,28,30)        179.2881         estimate D2E/DX2                !
 ! D153  D(25,24,28,29)        178.4359         estimate D2E/DX2                !
 ! D154  D(25,24,28,30)         -1.1038         estimate D2E/DX2                !
 ! D155  D(24,28,29,31)        179.709          estimate D2E/DX2                !
 ! D156  D(30,28,29,31)         -0.7679         estimate D2E/DX2                !
 ! D157  D(28,29,31,55)       -179.5522         estimate D2E/DX2                !
 ! D158  D(28,29,31,56)        -61.0421         estimate D2E/DX2                !
 ! D159  D(28,29,31,57)         61.9519         estimate D2E/DX2                !
 ! D160  D(12,32,33,58)        178.5952         estimate D2E/DX2                !
 ! D161  D(34,32,33,58)         -0.4637         estimate D2E/DX2                !
 --------------------------------------------------------------------------------
 Trust Radius=3.00D-01 FncErr=1.00D-07 GrdErr=1.00D-06
 Number of steps in this run=    341 maximum allowed number of steps=    348.
 GradGradGradGradGradGradGradGradGradGradGradGradGradGradGradGradGradGrad

 Stoichiometry    C23H24O11
 Framework group  C1[X(C23H24O11)]
 Deg. of freedom   168
 Full point group                 C1      NOp   1
 Largest Abelian subgroup         C1      NOp   1
 Largest concise Abelian subgroup C1      NOp   1
                         Standard orientation:                         
 ---------------------------------------------------------------------
 Center     Atomic      Atomic             Coordinates (Angstroms)
 Number     Number       Type             X           Y           Z
 ---------------------------------------------------------------------
      1          6           0       -4.547246    2.422079    0.616468
      2          6           0       -3.160651    2.583631    0.683265
      3          6           0       -2.286427    1.540855    0.366649
      4          6           0       -2.768130    0.289854   -0.041389
      5          6           0       -4.155122    0.120714   -0.142349
      6          6           0       -5.033340    1.178358    0.183312
      7          6           0       -1.868253   -0.829291   -0.371471
      8          6           0       -2.422939   -1.970234   -0.809981
      9          8           0       -3.813107   -2.149651   -0.936157
     10          6           0       -4.701815   -1.174876   -0.603861
     11          6           0       -0.370166   -0.684440   -0.207402
     12          6           0        0.454001   -1.986604   -0.330281
     13          6           0       -0.148856   -2.880047   -1.429983
     14          6           0       -1.630780   -3.177466   -1.218593
     15          6           0       -5.484708    3.545667    0.963106
     16          8           0       -6.398691    1.043872    0.089624
     17          8           0       -2.564561    3.756126    1.055927
     18          8           0       -5.915668   -1.343825   -0.686607
     19          8           0        1.804682   -1.724036   -0.782986
     20          6           0        2.635178   -0.872442    0.035055
     21          6           0        4.031782   -1.520968    0.111580
     22          6           0        5.027620   -0.612742    0.853999
     23          6           0        4.969394    0.816319    0.432269
     24          6           0        3.934939    1.334127   -0.253450
     25          6           0        2.728893    0.515091   -0.631278
     26          8           0        4.004593   -2.773087    0.817520
     27          8           0        6.352549   -1.087072    0.620873
     28          6           0        3.891345    2.760523   -0.687890
     29          8           0        4.990759    3.442620   -0.285013
     30          8           0        2.956387    3.227744   -1.322310
     31          6           0        5.003097    4.814238   -0.680970
     32          6           0        0.507274   -2.816503    0.968343
     33          8           0       -0.563378   -2.694006    1.771581
     34          8           0        1.422593   -3.563121    1.287550
     35          1           0       -1.221159    1.744608    0.439297
     36          1           0       -0.145355   -0.227427    0.764457
     37          1           0       -0.034166    0.020008   -0.978593
     38          1           0        0.405427   -3.824909   -1.506912
     39          1           0       -0.014790   -2.387768   -2.403953
     40          1           0       -2.039376   -3.586998   -2.150406
     41          1           0       -1.752899   -3.954482   -0.454563
     42          1           0       -6.524254    3.218766    1.058425
     43          1           0       -5.210607    3.985628    1.927989
     44          1           0       -5.443000    4.318170    0.188644
     45          1           0       -6.616686    0.135758   -0.219142
     46          1           0       -3.233258    4.455460    1.130479
     47          1           0        2.222051   -0.789619    1.047927
     48          1           0        4.395402   -1.757603   -0.896467
     49          1           0        4.861954   -0.670194    1.936624
     50          1           0        5.824941    1.426168    0.712937
     51          1           0        1.824314    1.076865   -0.371427
     52          1           0        2.710482    0.397807   -1.723070
     53          1           0        3.149279   -3.211519    0.622289
     54          1           0        6.310376   -2.047034    0.799742
     55          1           0        5.929752    5.264397   -0.314339
     56          1           0        4.985042    4.899124   -1.772080
     57          1           0        4.158375    5.349264   -0.235792
     58          1           0       -0.381667   -3.294035    2.527020
 ---------------------------------------------------------------------
 Rotational constants (GHZ):      0.1680295      0.0697254      0.0527108
 Standard basis: 6-31G(d) (6D, 7F)
 There are   558 symmetry adapted basis functions of A   symmetry.
 Integral buffers will be    131072 words long.
 Raffenetti 2 integral format.
 Two-electron integral symmetry is turned on.
   558 basis functions,  1048 primitive gaussians,   558 cartesian basis functions
   125 alpha electrons      125 beta electrons
       nuclear repulsion energy      3673.2803471765 Hartrees.
 NAtoms=   58 NActive=   58 NUniq=   58 SFac= 1.00D+00 NAtFMM=   50 NAOKFM=T Big=T
 One-electron integrals computed using PRISM.
 NBasis=   558 RedAO= T  NBF=   558
 NBsUse=   558 1.00D-06 NBFU=   558
 Harris functional with IExCor=  402 diagonalized for initial guess.
 ExpMin= 1.61D-01 ExpMax= 5.48D+03 ExpMxC= 8.25D+02 IAcc=1 IRadAn=         1 AccDes= 0.00D+00
 HarFok:  IExCor=  402 AccDes= 0.00D+00 IRadAn=         1 IDoV= 1
 ScaDFX=  1.000000  1.000000  1.000000  1.000000
 FoFCou: FMM=F IPFlag=           0 FMFlag=      100000 FMFlg1=        2001
         NFxFlg=           0 DoJE=T BraDBF=F KetDBF=T FulRan=T
         Omega=  0.000000  0.000000  1.000000  0.000000  0.000000 ICntrl=     500 IOpCl=  0
         NMat0=    1 NMatS0=    1 NMatT0=    0 NMatD0=    1 NMtDS0=    0 NMtDT0=    0
         I1Cent=           4 NGrid=           0.
 Petite list used in FoFCou.
 Initial guess orbital symmetries:
       Occupied  (A) (A) (A) (A) (A) (A) (A) (A) (A) (A) (A) (A)
                 (A) (A) (A) (A) (A) (A) (A) (A) (A) (A) (A) (A)
                 (A) (A) (A) (A) (A) (A) (A) (A) (A) (A) (A) (A)
                 (A) (A) (A) (A) (A) (A) (A) (A) (A) (A) (A) (A)
                 (A) (A) (A) (A) (A) (A) (A) (A) (A) (A) (A) (A)
                 (A) (A) (A) (A) (A) (A) (A) (A) (A) (A) (A) (A)
                 (A) (A) (A) (A) (A) (A) (A) (A) (A) (A) (A) (A)
                 (A) (A) (A) (A) (A) (A) (A) (A) (A) (A) (A) (A)
                 (A) (A) (A) (A) (A) (A) (A) (A) (A) (A) (A) (A)
                 (A) (A) (A) (A) (A) (A) (A) (A) (A) (A) (A) (A)
                 (A) (A) (A) (A) (A)
       Virtual   (A) (A) (A) (A) (A) (A) (A) (A) (A) (A) (A) (A)
                 (A) (A) (A) (A) (A) (A) (A) (A) (A) (A) (A) (A)
                 (A) (A) (A) (A) (A) (A) (A) (A) (A) (A) (A) (A)
                 (A) (A) (A) (A) (A) (A) (A) (A) (A) (A) (A) (A)
                 (A) (A) (A) (A) (A) (A) (A) (A) (A) (A) (A) (A)
                 (A) (A) (A) (A) (A) (A) (A) (A) (A) (A) (A) (A)
                 (A) (A) (A) (A) (A) (A) (A) (A) (A) (A) (A) (A)
                 (A) (A) (A) (A) (A) (A) (A) (A) (A) (A) (A) (A)
                 (A) (A) (A) (A) (A) (A) (A) (A) (A) (A) (A) (A)
                 (A) (A) (A) (A) (A) (A) (A) (A) (A) (A) (A) (A)
                 (A) (A) (A) (A) (A) (A) (A) (A) (A) (A) (A) (A)
                 (A) (A) (A) (A) (A) (A) (A) (A) (A) (A) (A) (A)
                 (A) (A) (A) (A) (A) (A) (A) (A) (A) (A) (A) (A)
                 (A) (A) (A) (A) (A) (A) (A) (A) (A) (A) (A) (A)
                 (A) (A) (A) (A) (A) (A) (A) (A) (A) (A) (A) (A)
                 (A) (A) (A) (A) (A) (A) (A) (A) (A) (A) (A) (A)
                 (A) (A) (A) (A) (A) (A) (A) (A) (A) (A) (A) (A)
                 (A) (A) (A) (A) (A) (A) (A) (A) (A) (A) (A) (A)
                 (A) (A) (A) (A) (A) (A) (A) (A) (A) (A) (A) (A)
                 (A) (A) (A) (A) (A) (A) (A) (A) (A) (A) (A) (A)
                 (A) (A) (A) (A) (A) (A) (A) (A) (A) (A) (A) (A)
                 (A) (A) (A) (A) (A) (A) (A) (A) (A) (A) (A) (A)
                 (A) (A) (A) (A) (A) (A) (A) (A) (A) (A) (A) (A)
                 (A) (A) (A) (A) (A) (A) (A) (A) (A) (A) (A) (A)
                 (A) (A) (A) (A) (A) (A) (A) (A) (A) (A) (A) (A)
                 (A) (A) (A) (A) (A) (A) (A) (A) (A) (A) (A) (A)
                 (A) (A) (A) (A) (A) (A) (A) (A) (A) (A) (A) (A)
                 (A) (A) (A) (A) (A) (A) (A) (A) (A) (A) (A) (A)
                 (A) (A) (A) (A) (A) (A) (A) (A) (A) (A) (A) (A)
                 (A) (A) (A) (A) (A) (A) (A) (A) (A) (A) (A) (A)
                 (A) (A) (A) (A) (A) (A) (A) (A) (A) (A) (A) (A)
                 (A) (A) (A) (A) (A) (A) (A) (A) (A) (A) (A) (A)
                 (A) (A) (A) (A) (A) (A) (A) (A) (A) (A) (A) (A)
                 (A) (A) (A) (A) (A) (A) (A) (A) (A) (A) (A) (A)
                 (A) (A) (A) (A) (A) (A) (A) (A) (A) (A) (A) (A)
                 (A) (A) (A) (A) (A) (A) (A) (A) (A) (A) (A) (A)
                 (A)
 The electronic state of the initial guess is 1-A.
 Requested convergence on RMS density matrix=1.00D-08 within 128 cycles.
 Requested convergence on MAX density matrix=1.00D-06.
 Requested convergence on             energy=1.00D-06.
 No special actions if energy rises.
 Integral accuracy reduced to 1.0D-05 until final iterations.
 Initial convergence to 1.0D-05 achieved.  Increase integral accuracy.
 SCF Done:  E(RB3LYP) =  -1718.35836896     A.U. after   15 cycles
             Convg  =    0.4169D-08             -V/T =  2.0091

 **********************************************************************

            Population analysis using the SCF density.

 **********************************************************************

 Orbital symmetries:
       Occupied  (A) (A) (A) (A) (A) (A) (A) (A) (A) (A) (A) (A)
                 (A) (A) (A) (A) (A) (A) (A) (A) (A) (A) (A) (A)
                 (A) (A) (A) (A) (A) (A) (A) (A) (A) (A) (A) (A)
                 (A) (A) (A) (A) (A) (A) (A) (A) (A) (A) (A) (A)
                 (A) (A) (A) (A) (A) (A) (A) (A) (A) (A) (A) (A)
                 (A) (A) (A) (A) (A) (A) (A) (A) (A) (A) (A) (A)
                 (A) (A) (A) (A) (A) (A) (A) (A) (A) (A) (A) (A)
                 (A) (A) (A) (A) (A) (A) (A) (A) (A) (A) (A) (A)
                 (A) (A) (A) (A) (A) (A) (A) (A) (A) (A) (A) (A)
                 (A) (A) (A) (A) (A) (A) (A) (A) (A) (A) (A) (A)
                 (A) (A) (A) (A) (A)
       Virtual   (A) (A) (A) (A) (A) (A) (A) (A) (A) (A) (A) (A)
                 (A) (A) (A) (A) (A) (A) (A) (A) (A) (A) (A) (A)
                 (A) (A) (A) (A) (A) (A) (A) (A) (A) (A) (A) (A)
                 (A) (A) (A) (A) (A) (A) (A) (A) (A) (A) (A) (A)
                 (A) (A) (A) (A) (A) (A) (A) (A) (A) (A) (A) (A)
                 (A) (A) (A) (A) (A) (A) (A) (A) (A) (A) (A) (A)
                 (A) (A) (A) (A) (A) (A) (A) (A) (A) (A) (A) (A)
                 (A) (A) (A) (A) (A) (A) (A) (A) (A) (A) (A) (A)
                 (A) (A) (A) (A) (A) (A) (A) (A) (A) (A) (A) (A)
                 (A) (A) (A) (A) (A) (A) (A) (A) (A) (A) (A) (A)
                 (A) (A) (A) (A) (A) (A) (A) (A) (A) (A) (A) (A)
                 (A) (A) (A) (A) (A) (A) (A) (A) (A) (A) (A) (A)
                 (A) (A) (A) (A) (A) (A) (A) (A) (A) (A) (A) (A)
                 (A) (A) (A) (A) (A) (A) (A) (A) (A) (A) (A) (A)
                 (A) (A) (A) (A) (A) (A) (A) (A) (A) (A) (A) (A)
                 (A) (A) (A) (A) (A) (A) (A) (A) (A) (A) (A) (A)
                 (A) (A) (A) (A) (A) (A) (A) (A) (A) (A) (A) (A)
                 (A) (A) (A) (A) (A) (A) (A) (A) (A) (A) (A) (A)
                 (A) (A) (A) (A) (A) (A) (A) (A) (A) (A) (A) (A)
                 (A) (A) (A) (A) (A) (A) (A) (A) (A) (A) (A) (A)
                 (A) (A) (A) (A) (A) (A) (A) (A) (A) (A) (A) (A)
                 (A) (A) (A) (A) (A) (A) (A) (A) (A) (A) (A) (A)
                 (A) (A) (A) (A) (A) (A) (A) (A) (A) (A) (A) (A)
                 (A) (A) (A) (A) (A) (A) (A) (A) (A) (A) (A) (A)
                 (A) (A) (A) (A) (A) (A) (A) (A) (A) (A) (A) (A)
                 (A) (A) (A) (A) (A) (A) (A) (A) (A) (A) (A) (A)
                 (A) (A) (A) (A) (A) (A) (A) (A) (A) (A) (A) (A)
                 (A) (A) (A) (A) (A) (A) (A) (A) (A) (A) (A) (A)
                 (A) (A) (A) (A) (A) (A) (A) (A) (A) (A) (A) (A)
                 (A) (A) (A) (A) (A) (A) (A) (A) (A) (A) (A) (A)
                 (A) (A) (A) (A) (A) (A) (A) (A) (A) (A) (A) (A)
                 (A) (A) (A) (A) (A) (A) (A) (A) (A) (A) (A) (A)
                 (A) (A) (A) (A) (A) (A) (A) (A) (A) (A) (A) (A)
                 (A) (A) (A) (A) (A) (A) (A) (A) (A) (A) (A) (A)
                 (A) (A) (A) (A) (A) (A) (A) (A) (A) (A) (A) (A)
                 (A) (A) (A) (A) (A) (A) (A) (A) (A) (A) (A) (A)
                 (A)
 The electronic state is 1-A.
 Alpha  occ. eigenvalues --  -19.23205 -19.22683 -19.19734 -19.19428 -19.17692
 Alpha  occ. eigenvalues --  -19.17521 -19.16630 -19.14525 -19.13958 -19.13803
 Alpha  occ. eigenvalues --  -19.12771 -10.35373 -10.33334 -10.31854 -10.29259
 Alpha  occ. eigenvalues --  -10.27521 -10.26798 -10.26651 -10.25501 -10.24255
 Alpha  occ. eigenvalues --  -10.24021 -10.23476 -10.22345 -10.22204 -10.22066
 Alpha  occ. eigenvalues --  -10.21958 -10.21859 -10.21062 -10.20679 -10.20431
 Alpha  occ. eigenvalues --  -10.20406 -10.19720 -10.19669 -10.19174  -1.14354
 Alpha  occ. eigenvalues --   -1.12222  -1.10328  -1.07413  -1.05829  -1.05417
 Alpha  occ. eigenvalues --   -1.03952  -1.02740  -1.02039  -1.01603  -0.99255
 Alpha  occ. eigenvalues --   -0.88210  -0.86376  -0.84187  -0.81141  -0.79114
 Alpha  occ. eigenvalues --   -0.77472  -0.75949  -0.75654  -0.74159  -0.71728
 Alpha  occ. eigenvalues --   -0.70955  -0.69595  -0.66639  -0.65842  -0.64920
 Alpha  occ. eigenvalues --   -0.63471  -0.62053  -0.61417  -0.59469  -0.58192
 Alpha  occ. eigenvalues --   -0.57168  -0.55081  -0.54694  -0.54475  -0.53378
 Alpha  occ. eigenvalues --   -0.52750  -0.51189  -0.50911  -0.50488  -0.49992
 Alpha  occ. eigenvalues --   -0.49184  -0.48580  -0.48266  -0.47892  -0.47579
 Alpha  occ. eigenvalues --   -0.47072  -0.46175  -0.45714  -0.45555  -0.44970
 Alpha  occ. eigenvalues --   -0.44574  -0.44181  -0.43957  -0.43029  -0.42890
 Alpha  occ. eigenvalues --   -0.42514  -0.42100  -0.41931  -0.41133  -0.40850
 Alpha  occ. eigenvalues --   -0.40287  -0.39856  -0.39784  -0.39699  -0.39117
 Alpha  occ. eigenvalues --   -0.38797  -0.37984  -0.37691  -0.37393  -0.37322
 Alpha  occ. eigenvalues --   -0.35847  -0.35696  -0.35220  -0.35093  -0.34629
 Alpha  occ. eigenvalues --   -0.34033  -0.33691  -0.33318  -0.32625  -0.30554
 Alpha  occ. eigenvalues --   -0.30349  -0.28956  -0.28204  -0.27658  -0.27364
 Alpha  occ. eigenvalues --   -0.26790  -0.25770  -0.25206  -0.23515  -0.22044
 Alpha virt. eigenvalues --   -0.04419  -0.04325  -0.03553  -0.02902   0.03515
 Alpha virt. eigenvalues --    0.04504   0.05433   0.06105   0.06674   0.07423
 Alpha virt. eigenvalues --    0.07722   0.08943   0.10159   0.10687   0.11077
 Alpha virt. eigenvalues --    0.11668   0.11987   0.12311   0.12500   0.13078
 Alpha virt. eigenvalues --    0.13440   0.14026   0.14368   0.15022   0.15397
 Alpha virt. eigenvalues --    0.15461   0.15879   0.16711   0.17069   0.17191
 Alpha virt. eigenvalues --    0.17640   0.18020   0.18160   0.18337   0.19120
 Alpha virt. eigenvalues --    0.19340   0.20009   0.20352   0.20736   0.21001
 Alpha virt. eigenvalues --    0.22135   0.22463   0.23360   0.23571   0.23915
 Alpha virt. eigenvalues --    0.24803   0.25313   0.26593   0.26790   0.27545
 Alpha virt. eigenvalues --    0.28020   0.28837   0.29993   0.31954   0.32319
 Alpha virt. eigenvalues --    0.33389   0.33798   0.34709   0.36196   0.37850
 Alpha virt. eigenvalues --    0.38668   0.39944   0.40997   0.41749   0.43080
 Alpha virt. eigenvalues --    0.43770   0.45254   0.46868   0.47021   0.49183
 Alpha virt. eigenvalues --    0.50483   0.50541   0.50989   0.51469   0.52055
 Alpha virt. eigenvalues --    0.52157   0.52539   0.52892   0.53672   0.54360
 Alpha virt. eigenvalues --    0.55039   0.55543   0.55812   0.56026   0.56525
 Alpha virt. eigenvalues --    0.57341   0.57540   0.58013   0.58247   0.58724
 Alpha virt. eigenvalues --    0.59405   0.59473   0.60085   0.61224   0.61692
 Alpha virt. eigenvalues --    0.62259   0.62380   0.62926   0.64093   0.64150
 Alpha virt. eigenvalues --    0.64542   0.64911   0.65139   0.66021   0.66393
 Alpha virt. eigenvalues --    0.67444   0.67697   0.68973   0.69652   0.70270
 Alpha virt. eigenvalues --    0.70871   0.71513   0.72210   0.72480   0.72644
 Alpha virt. eigenvalues --    0.73241   0.74008   0.74718   0.74959   0.75468
 Alpha virt. eigenvalues --    0.75991   0.76492   0.76846   0.77777   0.78517
 Alpha virt. eigenvalues --    0.78960   0.80057   0.81421   0.81745   0.82522
 Alpha virt. eigenvalues --    0.82890   0.83173   0.83667   0.83939   0.84581
 Alpha virt. eigenvalues --    0.85057   0.85406   0.86099   0.86500   0.86865
 Alpha virt. eigenvalues --    0.87224   0.88571   0.88906   0.89380   0.90139
 Alpha virt. eigenvalues --    0.90336   0.90820   0.91102   0.91985   0.92616
 Alpha virt. eigenvalues --    0.92952   0.93176   0.93548   0.94182   0.94986
 Alpha virt. eigenvalues --    0.95509   0.96122   0.96331   0.97081   0.97439
 Alpha virt. eigenvalues --    0.98159   0.98418   0.98846   0.99591   0.99792
 Alpha virt. eigenvalues --    1.00552   1.01065   1.01517   1.03443   1.03664
 Alpha virt. eigenvalues --    1.03902   1.04885   1.05875   1.06161   1.07005
 Alpha virt. eigenvalues --    1.08171   1.09169   1.09748   1.10061   1.10749
 Alpha virt. eigenvalues --    1.12004   1.12678   1.14425   1.14844   1.15924
 Alpha virt. eigenvalues --    1.16246   1.17999   1.18331   1.19937   1.21056
 Alpha virt. eigenvalues --    1.22043   1.22871   1.23418   1.23874   1.24485
 Alpha virt. eigenvalues --    1.25059   1.26517   1.26871   1.28310   1.29737
 Alpha virt. eigenvalues --    1.30322   1.31039   1.31289   1.33159   1.34181
 Alpha virt. eigenvalues --    1.34734   1.35086   1.36306   1.36644   1.37531
 Alpha virt. eigenvalues --    1.38068   1.38179   1.38696   1.39823   1.40869
 Alpha virt. eigenvalues --    1.42029   1.42865   1.42907   1.43368   1.44090
 Alpha virt. eigenvalues --    1.44924   1.45685   1.46341   1.48676   1.49650
 Alpha virt. eigenvalues --    1.50602   1.53138   1.53774   1.54591   1.57258
 Alpha virt. eigenvalues --    1.59037   1.60834   1.61449   1.63086   1.63197
 Alpha virt. eigenvalues --    1.65217   1.65791   1.66668   1.67274   1.69064
 Alpha virt. eigenvalues --    1.69572   1.70238   1.70610   1.70737   1.71258
 Alpha virt. eigenvalues --    1.72091   1.73019   1.73150   1.73926   1.74509
 Alpha virt. eigenvalues --    1.74796   1.75267   1.75963   1.76888   1.77951
 Alpha virt. eigenvalues --    1.78251   1.78849   1.79874   1.80266   1.80402
 Alpha virt. eigenvalues --    1.80815   1.81223   1.82424   1.83218   1.83828
 Alpha virt. eigenvalues --    1.83971   1.85269   1.85746   1.86330   1.86933
 Alpha virt. eigenvalues --    1.87032   1.87372   1.87816   1.88185   1.89691
 Alpha virt. eigenvalues --    1.90255   1.91213   1.91563   1.92366   1.93432
 Alpha virt. eigenvalues --    1.93670   1.93984   1.94526   1.94853   1.95763
 Alpha virt. eigenvalues --    1.97332   1.97413   1.98326   1.98926   1.99389
 Alpha virt. eigenvalues --    2.00231   2.01667   2.02262   2.02807   2.03382
 Alpha virt. eigenvalues --    2.03966   2.04411   2.05486   2.05851   2.06141
 Alpha virt. eigenvalues --    2.07787   2.08614   2.09409   2.09992   2.11207
 Alpha virt. eigenvalues --    2.12246   2.13354   2.13790   2.14186   2.15857
 Alpha virt. eigenvalues --    2.18167   2.18969   2.21051   2.22247   2.23001
 Alpha virt. eigenvalues --    2.24454   2.25668   2.25982   2.26516   2.26934
 Alpha virt. eigenvalues --    2.27412   2.28412   2.28840   2.29536   2.30325
 Alpha virt. eigenvalues --    2.30610   2.32345   2.32415   2.32834   2.33703
 Alpha virt. eigenvalues --    2.34939   2.35078   2.36161   2.37226   2.38856
 Alpha virt. eigenvalues --    2.39450   2.41246   2.41806   2.42575   2.43113
 Alpha virt. eigenvalues --    2.43677   2.45120   2.45309   2.46897   2.47219
 Alpha virt. eigenvalues --    2.48832   2.49824   2.51835   2.52613   2.53354
 Alpha virt. eigenvalues --    2.53898   2.55180   2.55453   2.56140   2.58188
 Alpha virt. eigenvalues --    2.58550   2.59788   2.61552   2.63166   2.64218
 Alpha virt. eigenvalues --    2.65896   2.66390   2.67442   2.68461   2.69833
 Alpha virt. eigenvalues --    2.70104   2.70856   2.72419   2.74309   2.75303
 Alpha virt. eigenvalues --    2.76355   2.76978   2.77421   2.78103   2.80555
 Alpha virt. eigenvalues --    2.81736   2.84584   2.86125   2.87114   2.89534
 Alpha virt. eigenvalues --    2.91219   2.94215   2.95578   2.96054   2.97374
 Alpha virt. eigenvalues --    3.00017   3.01038   3.01860   3.04073   3.05409
 Alpha virt. eigenvalues --    3.07344   3.10854   3.12813   3.16131   3.18193
 Alpha virt. eigenvalues --    3.22441   3.23077   3.41162   3.49671   3.78844
 Alpha virt. eigenvalues --    3.86764   3.95958   3.96330   3.97771   3.98974
 Alpha virt. eigenvalues --    4.04768   4.07950   4.09016   4.14143   4.17015
 Alpha virt. eigenvalues --    4.20011   4.21571   4.22537   4.24070   4.25298
 Alpha virt. eigenvalues --    4.25773   4.32898   4.33614   4.34580   4.35766
 Alpha virt. eigenvalues --    4.39405   4.43415   4.49580   4.50542   4.53658
 Alpha virt. eigenvalues --    4.54104   4.57101   4.59198   4.63861   4.71962
 Alpha virt. eigenvalues --    4.73460   4.78982   4.87612
          Condensed to atoms (all electrons):
 Mulliken atomic charges:
              1
     1  C    0.115624
     2  C    0.294824
     3  C   -0.272215
     4  C    0.124679
     5  C   -0.065005
     6  C    0.230159
     7  C    0.087814
     8  C    0.284684
     9  O   -0.515467
    10  C    0.636396
    11  C   -0.387845
    12  C    0.261718
    13  C   -0.309378
    14  C   -0.362981
    15  C   -0.571599
    16  O   -0.671410
    17  O   -0.640688
    18  O   -0.535293
    19  O   -0.543110
    20  C    0.090771
    21  C    0.114409
    22  C    0.109135
    23  C   -0.145266
    24  C    0.046365
    25  C   -0.350805
    26  O   -0.696596
    27  O   -0.646255
    28  C    0.612020
    29  O   -0.459434
    30  O   -0.493112
    31  C   -0.220062
    32  C    0.595032
    33  O   -0.554238
    34  O   -0.483976
    35  H    0.142079
    36  H    0.171325
    37  H    0.196541
    38  H    0.173943
    39  H    0.177639
    40  H    0.181202
    41  H    0.175188
    42  H    0.206815
    43  H    0.154791
    44  H    0.166462
    45  H    0.450191
    46  H    0.419391
    47  H    0.134740
    48  H    0.140463
    49  H    0.143149
    50  H    0.175034
    51  H    0.165112
    52  H    0.177967
    53  H    0.433162
    54  H    0.408323
    55  H    0.165335
    56  H    0.170805
    57  H    0.169101
    58  H    0.422348
 Sum of Mulliken atomic charges =   0.00000
 Mulliken charges with hydrogens summed into heavy atoms:
              1
     1  C    0.115624
     2  C    0.294824
     3  C   -0.130136
     4  C    0.124679
     5  C   -0.065005
     6  C    0.230159
     7  C    0.087814
     8  C    0.284684
     9  O   -0.515467
    10  C    0.636396
    11  C   -0.019979
    12  C    0.261718
    13  C    0.042205
    14  C   -0.006590
    15  C   -0.043531
    16  O   -0.221219
    17  O   -0.221297
    18  O   -0.535293
    19  O   -0.543110
    20  C    0.225511
    21  C    0.254872
    22  C    0.252283
    23  C    0.029768
    24  C    0.046365
    25  C   -0.007726
    26  O   -0.263435
    27  O   -0.237933
    28  C    0.612020
    29  O   -0.459434
    30  O   -0.493112
    31  C    0.285179
    32  C    0.595032
    33  O   -0.131890
    34  O   -0.483976
 Sum of Mulliken charges with hydrogens summed into heavy atoms =   0.00000
 Electronic spatial extent (au):  <R**2>=          19316.1053
 Charge=              0.0000 electrons
 Dipole moment (field-independent basis, Debye):
    X=             -0.2100    Y=              1.7584    Z=              1.5725  Tot=              2.3683
 Quadrupole moment (field-independent basis, Debye-Ang):
   XX=           -229.8755   YY=           -173.2294   ZZ=           -188.9188
   XY=              1.5573   XZ=             -6.5288   YZ=              4.0900
 Traceless Quadrupole moment (field-independent basis, Debye-Ang):
   XX=            -32.5343   YY=             24.1119   ZZ=              8.4224
   XY=              1.5573   XZ=             -6.5288   YZ=              4.0900
 Octapole moment (field-independent basis, Debye-Ang**2):
  XXX=             99.8267  YYY=             90.4262  ZZZ=             20.6012  XYY=             -1.5005
  XXY=            164.6023  XXZ=             22.9387  XZZ=              3.3181  YZZ=            -28.0580
  YYZ=             21.4643  XYZ=              1.1240
 Hexadecapole moment (field-independent basis, Debye-Ang**3):
 XXXX=         -18576.4496 YYYY=          -5875.1893 ZZZZ=           -918.7499 XXXY=            -16.0838
 XXXZ=           -232.3219 YYYX=            165.2452 YYYZ=             33.6520 ZZZX=             10.8666
 ZZZY=            -80.2710 XXYY=          -3403.3114 XXZZ=          -2956.1306 YYZZ=          -1199.3327
 XXYZ=            -20.7509 YYXZ=           -160.9706 ZZXY=             18.3109
 N-N= 3.673280347177D+03 E-N=-1.135990925930D+04  KE= 1.702860279435D+03
 Calling FoFJK, ICntrl=      2127 FMM=T ISym2X=0 I1Cent= 0 IOpClX= 0 NMat=1 NMatS=1 NMatT=0.
 ***** Axes restored to original set *****
 -------------------------------------------------------------------
 Center     Atomic                   Forces (Hartrees/Bohr)
 Number     Number              X              Y              Z
 -------------------------------------------------------------------
      1        6           0.000351730   -0.006440387   -0.005585378
      2        6          -0.005150300    0.005115486    0.002146457
      3        6          -0.006852593    0.006848850   -0.001015075
      4        6           0.001199303    0.018554542    0.014397654
      5        6          -0.016961361   -0.010030600   -0.019162235
      6        6           0.009793914   -0.021691566   -0.009377891
      7        6           0.014237641   -0.007321338   -0.002758740
      8        6          -0.000798678   -0.008826759   -0.002881474
      9        8          -0.009216860    0.008392366    0.000100590
     10        6           0.030866904    0.005855291    0.024734046
     11        6           0.003785511   -0.000902767    0.000855099
     12        6          -0.012095832    0.000552354    0.010788913
     13        6          -0.008046854   -0.003543332    0.001127005
     14        6           0.002699566   -0.006495116   -0.007401886
     15        6           0.001557775    0.000987609   -0.001495987
     16        8           0.002518404    0.017232100    0.014629475
     17        8           0.000422055   -0.004050223   -0.002589891
     18        8          -0.021744367    0.000852553   -0.013632964
     19        8           0.011747227   -0.004795102   -0.015278759
     20        6          -0.011526908    0.004710981    0.012351085
     21        6           0.007098763   -0.002036321   -0.021736069
     22        6          -0.012182727    0.002465834   -0.003095109
     23        6           0.000026318   -0.004679023    0.005947096
     24        6           0.001567329    0.007104141   -0.003769150
     25        6           0.004364041   -0.005684103   -0.001558625
     26        8           0.004017580    0.000017800    0.007263704
     27        8          -0.006143683    0.003138462   -0.002481648
     28        6          -0.001366355   -0.002872377   -0.010487632
     29        8           0.001243530   -0.007057915    0.003213141
     30        8          -0.000707845    0.013605364    0.003764357
     31        6           0.003187572    0.002155410    0.009615905
     32        6          -0.002830085    0.015834198   -0.006544377
     33        8           0.001367098   -0.002826731    0.000502125
     34        8           0.000544326   -0.012230514    0.006951356
     35        1           0.000740712   -0.001861990   -0.001028537
     36        1           0.001592437   -0.003038400    0.001450166
     37        1          -0.002784082    0.004290735   -0.001090210
     38        1           0.003251244    0.002174187    0.000841154
     39        1           0.005258342    0.004006323    0.001794608
     40        1           0.001431471   -0.000769861   -0.001891162
     41        1          -0.000150952   -0.001606278   -0.002767576
     42        1          -0.004841050    0.000942985    0.000586184
     43        1           0.002481391    0.001018430    0.003114571
     44        1           0.003873315   -0.001818616    0.002947143
     45        1          -0.006183193    0.006055963   -0.000185433
     46        1           0.000118782    0.000154363   -0.001304377
     47        1          -0.000493937    0.001471784   -0.000277081
     48        1           0.003886064   -0.001971896    0.011962785
     49        1           0.005729054   -0.005905159   -0.005900887
     50        1          -0.000864125   -0.001844906    0.000223375
     51        1          -0.001558770   -0.001075131    0.004167571
     52        1           0.000112067   -0.000784671   -0.002878754
     53        1          -0.000097722    0.004595849    0.002175067
     54        1           0.002214789    0.000969076    0.004113880
     55        1          -0.002039928    0.001813205   -0.005073922
     56        1           0.002585319   -0.002512565   -0.001226542
     57        1          -0.002146293   -0.003113091    0.000562551
     58        1           0.000912929   -0.003129503    0.002150305
 -------------------------------------------------------------------
 Cartesian Forces:  Max     0.030866904 RMS     0.007330933

 GradGradGradGradGradGradGradGradGradGradGradGradGradGradGradGradGradGrad
 Berny optimization.
 Internal  Forces:  Max     0.027822976 RMS     0.004435788
 Search for a local minimum.
 Step number   1 out of a maximum of  341
 All quantities printed in internal units (Hartrees-Bohrs-Radians)
 Mixed Optimization -- RFO/linear search
 Second derivative matrix not updated -- first step.
 ITU=  0
     Eigenvalues ---    0.00241   0.00440   0.00473   0.00547   0.00584
     Eigenvalues ---    0.00716   0.00739   0.00875   0.01050   0.01175
     Eigenvalues ---    0.01189   0.01221   0.01292   0.01321   0.01326
     Eigenvalues ---    0.01342   0.01367   0.01368   0.01421   0.01512
     Eigenvalues ---    0.01645   0.01721   0.01779   0.01802   0.01907
     Eigenvalues ---    0.01981   0.02020   0.02034   0.02097   0.02107
     Eigenvalues ---    0.02124   0.02127   0.02286   0.02432   0.02742
     Eigenvalues ---    0.02956   0.03201   0.03300   0.03693   0.03972
     Eigenvalues ---    0.04260   0.04700   0.04814   0.04830   0.05175
     Eigenvalues ---    0.05185   0.05351   0.05668   0.05722   0.05801
     Eigenvalues ---    0.05938   0.06357   0.06915   0.07080   0.07210
     Eigenvalues ---    0.07313   0.08016   0.08230   0.08248   0.08477
     Eigenvalues ---    0.09437   0.09519   0.09818   0.09841   0.10111
     Eigenvalues ---    0.10201   0.10499   0.11502   0.11971   0.14546
     Eigenvalues ---    0.14632   0.15734   0.15999   0.16000   0.16000
     Eigenvalues ---    0.16000   0.16000   0.16000   0.16000   0.16000
     Eigenvalues ---    0.16000   0.16000   0.16000   0.16084   0.16713
     Eigenvalues ---    0.16725   0.18685   0.19436   0.20099   0.22055
     Eigenvalues ---    0.23096   0.23525   0.24379   0.24990   0.24991
     Eigenvalues ---    0.24995   0.24996   0.24999   0.24999   0.24999
     Eigenvalues ---    0.24999   0.25000   0.25000   0.25000   0.25000
     Eigenvalues ---    0.25000   0.25000   0.26902   0.27437   0.27475
     Eigenvalues ---    0.27567   0.27927   0.28293   0.28901   0.30570
     Eigenvalues ---    0.31126   0.31685   0.31981   0.32640   0.32679
     Eigenvalues ---    0.33261   0.33736   0.33879   0.33889   0.33967
     Eigenvalues ---    0.33990   0.33992   0.34014   0.34040   0.34046
     Eigenvalues ---    0.34067   0.34120   0.34207   0.34279   0.34291
     Eigenvalues ---    0.34295   0.34366   0.34411   0.34619   0.35103
     Eigenvalues ---    0.35161   0.37182   0.38373   0.39011   0.39836
     Eigenvalues ---    0.40837   0.41324   0.41503   0.43260   0.44384
     Eigenvalues ---    0.45206   0.45458   0.45943   0.49723   0.50218
     Eigenvalues ---    0.50270   0.50747   0.51055   0.51539   0.51894
     Eigenvalues ---    0.52735   0.53284   0.53895   0.53952   0.56305
     Eigenvalues ---    0.91563   0.93069   0.94208
 RFO step:  Lambda=-2.47822197D-02 EMin= 2.40754482D-03
 Linear search not attempted -- first point.
 Iteration  1 RMS(Cart)=  0.10099207 RMS(Int)=  0.00202101
 Iteration  2 RMS(Cart)=  0.00401245 RMS(Int)=  0.00035676
 Iteration  3 RMS(Cart)=  0.00000850 RMS(Int)=  0.00035673
 Iteration  4 RMS(Cart)=  0.00000002 RMS(Int)=  0.00035673
 Variable       Old X    -DE/DX   Delta X   Delta X   Delta X     New X
                                 (Linear)    (Quad)   (Total)
    R1        2.64103   0.00608   0.00000   0.01155   0.01185   2.65288
    R2        2.65286  -0.00148   0.00000  -0.00333  -0.00342   2.64944
    R3        2.84179   0.00370   0.00000   0.01073   0.01073   2.85251
    R4        2.64014   0.00170   0.00000   0.00275   0.00313   2.64327
    R5        2.58343  -0.00447   0.00000  -0.00828  -0.00828   2.57516
    R6        2.64800  -0.00523   0.00000  -0.01072  -0.01063   2.63738
    R7        2.05415  -0.00225   0.00000  -0.00598  -0.00598   2.04817
    R8        2.64734   0.01175   0.00000   0.02732   0.02669   2.67403
    R9        2.78452  -0.00974   0.00000  -0.02451  -0.02442   2.76010
   R10        2.66976   0.00125   0.00000   0.00482   0.00338   2.67313
   R11        2.79681  -0.01030   0.00000  -0.02557  -0.02681   2.77000
   R12        2.59866  -0.02782   0.00000  -0.05265  -0.05290   2.54577
   R13        2.53654   0.00363   0.00000   0.00656   0.00697   2.54352
   R14        2.86103  -0.00096   0.00000  -0.00209  -0.00207   2.85895
   R15        2.65953  -0.01998   0.00000  -0.04446  -0.04413   2.61541
   R16        2.83578  -0.00457   0.00000  -0.01187  -0.01190   2.82388
   R17        2.57059  -0.00244   0.00000  -0.00535  -0.00541   2.56518
   R18        2.32123  -0.00095   0.00000  -0.00119  -0.00107   2.32016
   R19        2.92143   0.00075   0.00000   0.00036   0.00040   2.92183
   R20        2.07346  -0.00077   0.00000  -0.00212  -0.00212   2.07134
   R21        2.07343  -0.00108   0.00000  -0.00295  -0.00295   2.07049
   R22        2.90982   0.00004   0.00000  -0.00011  -0.00013   2.90969
   R23        2.73732  -0.01246   0.00000  -0.03034  -0.03087   2.70645
   R24        2.91410  -0.00421   0.00000  -0.01361  -0.01378   2.90032
   R25        2.88407   0.00535   0.00000   0.01481   0.01481   2.89889
   R26        2.07518  -0.00202   0.00000  -0.00556  -0.00556   2.06962
   R27        2.07778  -0.00240   0.00000  -0.00662  -0.00662   2.07116
   R28        2.07263  -0.00020   0.00000  -0.00054  -0.00054   2.07209
   R29        2.07217   0.00203   0.00000   0.00556   0.00556   2.07772
   R30        2.06716  -0.00258   0.00000  -0.00702  -0.00702   2.06015
   R31        2.06983   0.00256   0.00000   0.00699   0.00699   2.07682
   R32        2.06862   0.00302   0.00000   0.00822   0.00822   2.07683
   R33        1.85879   0.00477   0.00000   0.00803   0.00904   1.86783
   R34        1.83389  -0.00040   0.00000  -0.00072  -0.00072   1.83317
   R35        3.21760   0.00332   0.00000   0.02734   0.02847   3.24606
   R36        2.72810   0.00287   0.00000   0.00695   0.00667   2.73477
   R37        2.91346  -0.00535   0.00000  -0.01511  -0.01568   2.89777
   R38        2.91412   0.00057   0.00000   0.00116   0.00113   2.91525
   R39        2.07306   0.00003   0.00000   0.00009   0.00009   2.07315
   R40        2.90782  -0.00693   0.00000  -0.02218  -0.02215   2.88567
   R41        2.71680  -0.00763   0.00000  -0.01803  -0.01786   2.69894
   R42        2.07386   0.00118   0.00000   0.00324   0.00324   2.07710
   R43        2.81782   0.00386   0.00000   0.01086   0.01093   2.82875
   R44        2.69561   0.00584   0.00000   0.01327   0.01327   2.70888
   R45        2.07252   0.00468   0.00000   0.01282   0.01282   2.08535
   R46        2.54126  -0.00415   0.00000  -0.00748  -0.00738   2.53388
   R47        2.05507  -0.00141   0.00000  -0.00374  -0.00374   2.05133
   R48        2.84598   0.00378   0.00000   0.01016   0.01020   2.85618
   R49        2.81895   0.00013   0.00000   0.00037   0.00037   2.81932
   R50        2.07128  -0.00059   0.00000  -0.00160  -0.00160   2.06968
   R51        2.07535  -0.00065   0.00000  -0.00178  -0.00178   2.07357
   R52        1.85338  -0.00391   0.00000  -0.00735  -0.00688   1.84650
   R53        1.84701  -0.00453   0.00000  -0.00833  -0.00833   1.83868
   R54        2.56076  -0.00275   0.00000  -0.00486  -0.00486   2.55589
   R55        2.31052  -0.01187   0.00000  -0.01227  -0.01227   2.29825
   R56        2.69792   0.00442   0.00000   0.01009   0.01009   2.70801
   R57        2.06642  -0.00105   0.00000  -0.00285  -0.00285   2.06357
   R58        2.06841  -0.00079   0.00000  -0.00214  -0.00214   2.06627
   R59        2.06836  -0.00067   0.00000  -0.00182  -0.00182   2.06654
   R60        2.53990   0.00250   0.00000   0.00426   0.00426   2.54416
   R61        2.31223  -0.01172   0.00000  -0.01219  -0.01193   2.30029
   R62        1.85515  -0.00352   0.00000  -0.00657  -0.00657   1.84858
   R63        3.55933   0.00134   0.00000   0.01675   0.01727   3.57661
    A1        2.04958  -0.00051   0.00000  -0.00141  -0.00185   2.04773
    A2        2.11895  -0.00075   0.00000  -0.00292  -0.00271   2.11624
    A3        2.11438   0.00128   0.00000   0.00447   0.00468   2.11907
    A4        2.12200   0.00418   0.00000   0.01479   0.01481   2.13681
    A5        2.14691  -0.00689   0.00000  -0.02486  -0.02489   2.12202
    A6        2.01427   0.00271   0.00000   0.01008   0.01004   2.02431
    A7        2.11441  -0.00588   0.00000  -0.02211  -0.02228   2.09213
    A8        2.04674   0.00285   0.00000   0.01055   0.01063   2.05737
    A9        2.12198   0.00303   0.00000   0.01156   0.01164   2.13362
   A10        2.05909   0.00582   0.00000   0.02230   0.02187   2.08096
   A11        2.13336   0.00382   0.00000   0.00777   0.00860   2.14197
   A12        2.09070  -0.00964   0.00000  -0.03007  -0.03048   2.06022
   A13        2.10418  -0.00385   0.00000  -0.01510  -0.01421   2.08997
   A14        2.08734   0.00298   0.00000   0.01188   0.01278   2.10013
   A15        2.09163   0.00087   0.00000   0.00321   0.00142   2.09306
   A16        2.11662   0.00025   0.00000   0.00170   0.00181   2.11844
   A17        2.03919   0.00487   0.00000   0.01321   0.01500   2.05419
   A18        2.12737  -0.00512   0.00000  -0.01489  -0.01681   2.11055
   A19        2.05601   0.00392   0.00000   0.01572   0.01565   2.07167
   A20        2.10290  -0.00160   0.00000  -0.00810  -0.00812   2.09478
   A21        2.12425  -0.00231   0.00000  -0.00754  -0.00752   2.11673
   A22        2.14819   0.00182   0.00000   0.00304   0.00323   2.15142
   A23        2.15871   0.00747   0.00000   0.03109   0.03098   2.18969
   A24        1.97628  -0.00930   0.00000  -0.03412  -0.03421   1.94207
   A25        2.13185   0.00054   0.00000  -0.00193  -0.00239   2.12947
   A26        2.05121   0.00038   0.00000   0.00149   0.00131   2.05252
   A27        2.10184   0.02582   0.00000   0.09647   0.09526   2.19710
   A28        2.13010  -0.02620   0.00000  -0.09798  -0.09660   2.03350
   A29        2.02451  -0.00223   0.00000  -0.01389  -0.01381   2.01070
   A30        1.91620  -0.00165   0.00000  -0.01411  -0.01404   1.90216
   A31        1.86322   0.00423   0.00000   0.03305   0.03292   1.89614
   A32        1.88810   0.00402   0.00000   0.02647   0.02647   1.91457
   A33        1.89828  -0.00369   0.00000  -0.02695  -0.02677   1.87151
   A34        1.86752  -0.00072   0.00000  -0.00477  -0.00455   1.86298
   A35        1.91429   0.00235   0.00000   0.01160   0.01134   1.92563
   A36        1.94901   0.00052   0.00000   0.01367   0.01397   1.96298
   A37        1.98754  -0.00081   0.00000  -0.00912  -0.00880   1.97874
   A38        1.82042  -0.00069   0.00000  -0.00535  -0.00535   1.81507
   A39        1.87831  -0.00170   0.00000  -0.00914  -0.00898   1.86933
   A40        1.90554   0.00027   0.00000  -0.00209  -0.00277   1.90277
   A41        1.97611   0.00124   0.00000   0.00327   0.00340   1.97951
   A42        1.93014  -0.00127   0.00000  -0.01694  -0.01698   1.91316
   A43        1.90193  -0.00491   0.00000  -0.03708  -0.03712   1.86481
   A44        1.90936  -0.00057   0.00000   0.00737   0.00725   1.91661
   A45        1.90534   0.00372   0.00000   0.02384   0.02375   1.92909
   A46        1.83551   0.00189   0.00000   0.02118   0.02055   1.85606
   A47        1.97525  -0.00643   0.00000  -0.02921  -0.02914   1.94611
   A48        1.91247   0.00114   0.00000  -0.00323  -0.00310   1.90937
   A49        1.89816   0.00128   0.00000   0.00703   0.00721   1.90537
   A50        1.89318   0.00326   0.00000   0.01682   0.01661   1.90979
   A51        1.92062   0.00315   0.00000   0.02100   0.02101   1.94164
   A52        1.86072  -0.00217   0.00000  -0.01162  -0.01183   1.84890
   A53        1.97058  -0.00682   0.00000  -0.03802  -0.03779   1.93279
   A54        1.92535   0.00304   0.00000   0.01871   0.01861   1.94397
   A55        1.91818   0.00604   0.00000   0.03152   0.03146   1.94964
   A56        1.85573   0.00240   0.00000   0.01508   0.01526   1.87099
   A57        1.88467  -0.00084   0.00000  -0.00870  -0.00845   1.87622
   A58        1.90736  -0.00411   0.00000  -0.02005  -0.02040   1.88696
   A59        1.90892  -0.01932   0.00000  -0.10071  -0.10163   1.80729
   A60        1.91616  -0.00134   0.00000  -0.00728  -0.00728   1.90889
   A61        2.05584   0.01391   0.00000   0.05077   0.05029   2.10614
   A62        1.87666  -0.00073   0.00000  -0.00660  -0.00719   1.86947
   A63        1.89746   0.00043   0.00000   0.00812   0.00837   1.90582
   A64        1.92952   0.00035   0.00000  -0.00106  -0.00109   1.92843
   A65        1.92291   0.00212   0.00000   0.01345   0.01367   1.93659
   A66        1.90400  -0.00207   0.00000  -0.01434  -0.01455   1.88945
   A67        1.93254  -0.00008   0.00000   0.00045   0.00061   1.93315
   A68        1.94112   0.00406   0.00000   0.01678   0.01685   1.95797
   A69        1.95368   0.00418   0.00000   0.02789   0.02760   1.98129
   A70        1.92331  -0.00420   0.00000  -0.03054  -0.03135   1.89195
   A71        1.86438  -0.00766   0.00000  -0.03759  -0.03740   1.82698
   A72        1.93480  -0.00208   0.00000  -0.03790  -0.03778   1.89702
   A73        1.84367   0.00567   0.00000   0.06289   0.06275   1.90642
   A74        1.98661  -0.00217   0.00000  -0.01004  -0.01030   1.97631
   A75        1.90286   0.00378   0.00000   0.01998   0.02006   1.92291
   A76        1.92580  -0.00461   0.00000  -0.04268  -0.04285   1.88295
   A77        1.88465  -0.00102   0.00000   0.00078   0.00095   1.88561
   A78        1.90022   0.00219   0.00000   0.00417   0.00325   1.90347
   A79        1.85898   0.00220   0.00000   0.03170   0.03196   1.89094
   A80        2.14513   0.00032   0.00000   0.00392   0.00390   2.14903
   A81        2.01942   0.00088   0.00000   0.00370   0.00370   2.02312
   A82        2.11863  -0.00121   0.00000  -0.00761  -0.00761   2.11102
   A83        2.13475   0.00222   0.00000   0.00901   0.00894   2.14369
   A84        2.14025  -0.00140   0.00000  -0.00558  -0.00556   2.13468
   A85        2.00816  -0.00081   0.00000  -0.00337  -0.00336   2.00481
   A86        2.01484  -0.00468   0.00000  -0.01823  -0.01841   1.99643
   A87        1.88449   0.00443   0.00000   0.03404   0.03422   1.91871
   A88        1.90970  -0.00094   0.00000  -0.01732  -0.01725   1.89245
   A89        1.89937   0.00015   0.00000  -0.00206  -0.00185   1.89752
   A90        1.89749   0.00289   0.00000   0.01493   0.01466   1.91215
[...]
     51          1           0        1.994003    1.183862   -0.617757
     52          1           0        2.934577    0.299363   -1.791316
     53          1           0        2.992638   -3.280596    0.541118
     54          1           0        6.017487   -2.289160    1.334908
     55          1           0        6.525084    4.897236   -0.384276
     56          1           0        5.586073    4.608775   -1.887097
     57          1           0        4.758743    5.215568   -0.433900
     58          1           0       -0.374436   -2.892712    2.595702
 ---------------------------------------------------------------------
 Rotational constants (GHZ):      0.1724067      0.0670714      0.0520107

 **********************************************************************

            Population analysis using the SCF density.

 **********************************************************************

 Orbital symmetries:
       Occupied  (A) (A) (A) (A) (A) (A) (A) (A) (A) (A) (A) (A)
                 (A) (A) (A) (A) (A) (A) (A) (A) (A) (A) (A) (A)
                 (A) (A) (A) (A) (A) (A) (A) (A) (A) (A) (A) (A)
                 (A) (A) (A) (A) (A) (A) (A) (A) (A) (A) (A) (A)
                 (A) (A) (A) (A) (A) (A) (A) (A) (A) (A) (A) (A)
                 (A) (A) (A) (A) (A) (A) (A) (A) (A) (A) (A) (A)
                 (A) (A) (A) (A) (A) (A) (A) (A) (A) (A) (A) (A)
                 (A) (A) (A) (A) (A) (A) (A) (A) (A) (A) (A) (A)
                 (A) (A) (A) (A) (A) (A) (A) (A) (A) (A) (A) (A)
                 (A) (A) (A) (A) (A) (A) (A) (A) (A) (A) (A) (A)
                 (A) (A) (A) (A) (A)
       Virtual   (A) (A) (A) (A) (A) (A) (A) (A) (A) (A) (A) (A)
                 (A) (A) (A) (A) (A) (A) (A) (A) (A) (A) (A) (A)
                 (A) (A) (A) (A) (A) (A) (A) (A) (A) (A) (A) (A)
                 (A) (A) (A) (A) (A) (A) (A) (A) (A) (A) (A) (A)
                 (A) (A) (A) (A) (A) (A) (A) (A) (A) (A) (A) (A)
                 (A) (A) (A) (A) (A) (A) (A) (A) (A) (A) (A) (A)
                 (A) (A) (A) (A) (A) (A) (A) (A) (A) (A) (A) (A)
                 (A) (A) (A) (A) (A) (A) (A) (A) (A) (A) (A) (A)
                 (A) (A) (A) (A) (A) (A) (A) (A) (A) (A) (A) (A)
                 (A) (A) (A) (A) (A) (A) (A) (A) (A) (A) (A) (A)
                 (A) (A) (A) (A) (A) (A) (A) (A) (A) (A) (A) (A)
                 (A) (A) (A) (A) (A) (A) (A) (A) (A) (A) (A) (A)
                 (A) (A) (A) (A) (A) (A) (A) (A) (A) (A) (A) (A)
                 (A) (A) (A) (A) (A) (A) (A) (A) (A) (A) (A) (A)
                 (A) (A) (A) (A) (A) (A) (A) (A) (A) (A) (A) (A)
                 (A) (A) (A) (A) (A) (A) (A) (A) (A) (A) (A) (A)
                 (A) (A) (A) (A) (A) (A) (A) (A) (A) (A) (A) (A)
                 (A) (A) (A) (A) (A) (A) (A) (A) (A) (A) (A) (A)
                 (A) (A) (A) (A) (A) (A) (A) (A) (A) (A) (A) (A)
                 (A) (A) (A) (A) (A) (A) (A) (A) (A) (A) (A) (A)
                 (A) (A) (A) (A) (A) (A) (A) (A) (A) (A) (A) (A)
                 (A) (A) (A) (A) (A) (A) (A) (A) (A) (A) (A) (A)
                 (A) (A) (A) (A) (A) (A) (A) (A) (A) (A) (A) (A)
                 (A) (A) (A) (A) (A) (A) (A) (A) (A) (A) (A) (A)
                 (A) (A) (A) (A) (A) (A) (A) (A) (A) (A) (A) (A)
                 (A) (A) (A) (A) (A) (A) (A) (A) (A) (A) (A) (A)
                 (A) (A) (A) (A) (A) (A) (A) (A) (A) (A) (A) (A)
                 (A) (A) (A) (A) (A) (A) (A) (A) (A) (A) (A) (A)
                 (A) (A) (A) (A) (A) (A) (A) (A) (A) (A) (A) (A)
                 (A) (A) (A) (A) (A) (A) (A) (A) (A) (A) (A) (A)
                 (A) (A) (A) (A) (A) (A) (A) (A) (A) (A) (A) (A)
                 (A) (A) (A) (A) (A) (A) (A) (A) (A) (A) (A) (A)
                 (A) (A) (A) (A) (A) (A) (A) (A) (A) (A) (A) (A)
                 (A) (A) (A) (A) (A) (A) (A) (A) (A) (A) (A) (A)
                 (A) (A) (A) (A) (A) (A) (A) (A) (A) (A) (A) (A)
                 (A) (A) (A) (A) (A) (A) (A) (A) (A) (A) (A) (A)
                 (A)
 The electronic state is 1-A.
 Alpha  occ. eigenvalues --  -19.22778 -19.22184 -19.19677 -19.19354 -19.17471
 Alpha  occ. eigenvalues --  -19.17412 -19.16900 -19.14387 -19.14324 -19.14300
 Alpha  occ. eigenvalues --  -19.13658 -10.34603 -10.32909 -10.31630 -10.28386
 Alpha  occ. eigenvalues --  -10.27230 -10.27123 -10.27020 -10.25523 -10.24424
 Alpha  occ. eigenvalues --  -10.24209 -10.23773 -10.22608 -10.21671 -10.21584
 Alpha  occ. eigenvalues --  -10.21505 -10.21262 -10.21115 -10.20811 -10.20648
 Alpha  occ. eigenvalues --  -10.20452 -10.19977 -10.19960 -10.19300  -1.13711
 Alpha  occ. eigenvalues --   -1.12597  -1.10253  -1.07949  -1.06776  -1.06179
 Alpha  occ. eigenvalues --   -1.04103  -1.03026  -1.02972  -1.01345  -1.00638
 Alpha  occ. eigenvalues --   -0.88028  -0.86209  -0.84488  -0.81043  -0.78907
 Alpha  occ. eigenvalues --   -0.77242  -0.76398  -0.75803  -0.74352  -0.71926
 Alpha  occ. eigenvalues --   -0.70973  -0.69101  -0.66652  -0.66310  -0.65209
 Alpha  occ. eigenvalues --   -0.63630  -0.62169  -0.61557  -0.59062  -0.58130
 Alpha  occ. eigenvalues --   -0.57404  -0.55373  -0.55122  -0.54614  -0.53552
 Alpha  occ. eigenvalues --   -0.52702  -0.51415  -0.51105  -0.50728  -0.49902
 Alpha  occ. eigenvalues --   -0.49358  -0.48373  -0.48256  -0.47861  -0.47616
 Alpha  occ. eigenvalues --   -0.46961  -0.46038  -0.45973  -0.45292  -0.44797
 Alpha  occ. eigenvalues --   -0.44430  -0.44083  -0.43801  -0.43297  -0.42779
 Alpha  occ. eigenvalues --   -0.42505  -0.42134  -0.41971  -0.41421  -0.40815
 Alpha  occ. eigenvalues --   -0.40525  -0.40146  -0.39874  -0.39797  -0.39361
 Alpha  occ. eigenvalues --   -0.39098  -0.38331  -0.37705  -0.37518  -0.37322
 Alpha  occ. eigenvalues --   -0.35904  -0.35590  -0.35368  -0.35026  -0.34858
 Alpha  occ. eigenvalues --   -0.34412  -0.33898  -0.33348  -0.32542  -0.30484
 Alpha  occ. eigenvalues --   -0.30299  -0.29025  -0.28571  -0.27870  -0.27390
 Alpha  occ. eigenvalues --   -0.26756  -0.26564  -0.25515  -0.23610  -0.21943
 Alpha virt. eigenvalues --   -0.04758  -0.04405  -0.03038  -0.02816   0.03748
 Alpha virt. eigenvalues --    0.04954   0.05583   0.06093   0.07014   0.07435
 Alpha virt. eigenvalues --    0.08581   0.09691   0.10438   0.11004   0.11154
 Alpha virt. eigenvalues --    0.11642   0.12280   0.12546   0.12995   0.13361
 Alpha virt. eigenvalues --    0.13905   0.14116   0.14574   0.15161   0.15345
 Alpha virt. eigenvalues --    0.15885   0.16032   0.16531   0.17076   0.17294
 Alpha virt. eigenvalues --    0.17565   0.17895   0.18393   0.18529   0.19358
 Alpha virt. eigenvalues --    0.19486   0.19772   0.20483   0.20948   0.21334
 Alpha virt. eigenvalues --    0.22431   0.22544   0.23236   0.23705   0.24779
 Alpha virt. eigenvalues --    0.25218   0.25386   0.26454   0.27027   0.27760
 Alpha virt. eigenvalues --    0.28896   0.29420   0.30054   0.31889   0.32182
 Alpha virt. eigenvalues --    0.33145   0.33938   0.34336   0.36242   0.37901
 Alpha virt. eigenvalues --    0.39072   0.40148   0.40753   0.41263   0.43550
 Alpha virt. eigenvalues --    0.43676   0.45424   0.46908   0.47041   0.49230
 Alpha virt. eigenvalues --    0.50319   0.50538   0.50834   0.51385   0.51744
 Alpha virt. eigenvalues --    0.51948   0.52678   0.53191   0.53802   0.54006
 Alpha virt. eigenvalues --    0.55058   0.55703   0.55745   0.55974   0.56406
 Alpha virt. eigenvalues --    0.56994   0.57504   0.57884   0.58234   0.59169
 Alpha virt. eigenvalues --    0.59605   0.60109   0.60812   0.61195   0.61461
 Alpha virt. eigenvalues --    0.61675   0.62447   0.63186   0.63686   0.63835
 Alpha virt. eigenvalues --    0.64545   0.65223   0.65677   0.65913   0.66743
 Alpha virt. eigenvalues --    0.67172   0.67570   0.69250   0.69571   0.69864
 Alpha virt. eigenvalues --    0.70877   0.71506   0.71964   0.72051   0.72690
 Alpha virt. eigenvalues --    0.73172   0.73819   0.74182   0.75266   0.75531
 Alpha virt. eigenvalues --    0.75743   0.76341   0.76841   0.77635   0.78871
 Alpha virt. eigenvalues --    0.79516   0.80117   0.81357   0.82224   0.82517
 Alpha virt. eigenvalues --    0.82756   0.83199   0.83739   0.83969   0.84596
 Alpha virt. eigenvalues --    0.84751   0.85260   0.85940   0.86355   0.86631
 Alpha virt. eigenvalues --    0.87124   0.88150   0.89170   0.89351   0.90319
 Alpha virt. eigenvalues --    0.90601   0.91585   0.92263   0.92330   0.92737
 Alpha virt. eigenvalues --    0.93261   0.93429   0.94001   0.94229   0.94963
 Alpha virt. eigenvalues --    0.95810   0.96104   0.96506   0.96677   0.97776
 Alpha virt. eigenvalues --    0.97933   0.98579   0.99258   0.99362   1.00412
 Alpha virt. eigenvalues --    1.00726   1.01038   1.01939   1.02937   1.03448
 Alpha virt. eigenvalues --    1.03755   1.04684   1.05488   1.06178   1.07124
 Alpha virt. eigenvalues --    1.07900   1.08737   1.09369   1.10029   1.10385
 Alpha virt. eigenvalues --    1.11508   1.12463   1.13833   1.15153   1.15423
 Alpha virt. eigenvalues --    1.16181   1.18323   1.19113   1.20236   1.20690
 Alpha virt. eigenvalues --    1.22397   1.23386   1.23766   1.24296   1.24535
 Alpha virt. eigenvalues --    1.26080   1.26844   1.27306   1.28333   1.29631
 Alpha virt. eigenvalues --    1.30911   1.32121   1.32774   1.33812   1.33849
 Alpha virt. eigenvalues --    1.34533   1.35291   1.36198   1.36694   1.36957
 Alpha virt. eigenvalues --    1.37491   1.37914   1.38250   1.39964   1.40838
 Alpha virt. eigenvalues --    1.42593   1.42927   1.43270   1.43936   1.44225
 Alpha virt. eigenvalues --    1.44953   1.46087   1.46384   1.49782   1.50199
 Alpha virt. eigenvalues --    1.51111   1.51753   1.55328   1.56459   1.59050
 Alpha virt. eigenvalues --    1.59675   1.61015   1.63131   1.63438   1.64318
 Alpha virt. eigenvalues --    1.65819   1.66209   1.66981   1.67584   1.69509
 Alpha virt. eigenvalues --    1.69635   1.70162   1.70721   1.70766   1.71397
 Alpha virt. eigenvalues --    1.71899   1.72348   1.73167   1.73531   1.73810
 Alpha virt. eigenvalues --    1.74325   1.74592   1.76243   1.76670   1.77075
 Alpha virt. eigenvalues --    1.77700   1.79248   1.79616   1.80030   1.80645
 Alpha virt. eigenvalues --    1.81364   1.81403   1.82708   1.83099   1.83963
 Alpha virt. eigenvalues --    1.84456   1.84937   1.85404   1.86534   1.86796
 Alpha virt. eigenvalues --    1.87609   1.87945   1.88372   1.88643   1.90231
 Alpha virt. eigenvalues --    1.91043   1.91197   1.92028   1.92320   1.92661
 Alpha virt. eigenvalues --    1.94091   1.94601   1.95002   1.95347   1.95948
 Alpha virt. eigenvalues --    1.96594   1.97852   1.98306   1.98884   2.00249
 Alpha virt. eigenvalues --    2.01000   2.01565   2.02500   2.03302   2.03448
 Alpha virt. eigenvalues --    2.04465   2.04909   2.05347   2.06382   2.06950
 Alpha virt. eigenvalues --    2.07839   2.08988   2.10228   2.10467   2.11100
 Alpha virt. eigenvalues --    2.11845   2.12441   2.14066   2.15248   2.16794
 Alpha virt. eigenvalues --    2.18566   2.20548   2.21431   2.22028   2.22708
 Alpha virt. eigenvalues --    2.24026   2.24722   2.25699   2.26214   2.27071
 Alpha virt. eigenvalues --    2.27852   2.28713   2.28951   2.29359   2.30170
 Alpha virt. eigenvalues --    2.31123   2.31759   2.32800   2.33569   2.34112
 Alpha virt. eigenvalues --    2.35046   2.35642   2.37272   2.37657   2.39737
 Alpha virt. eigenvalues --    2.40105   2.40820   2.41781   2.42411   2.43146
 Alpha virt. eigenvalues --    2.44011   2.45496   2.46310   2.46698   2.47415
 Alpha virt. eigenvalues --    2.48711   2.50483   2.52554   2.53118   2.54401
 Alpha virt. eigenvalues --    2.54914   2.55418   2.56449   2.56910   2.57214
 Alpha virt. eigenvalues --    2.58050   2.61604   2.62623   2.64029   2.64488
 Alpha virt. eigenvalues --    2.65866   2.67424   2.68232   2.68935   2.69693
 Alpha virt. eigenvalues --    2.70157   2.71663   2.73600   2.75243   2.75936
 Alpha virt. eigenvalues --    2.76887   2.77172   2.78532   2.79823   2.81653
 Alpha virt. eigenvalues --    2.82655   2.85207   2.85933   2.86911   2.90078
 Alpha virt. eigenvalues --    2.91256   2.93797   2.96028   2.96557   2.97794
 Alpha virt. eigenvalues --    3.00382   3.01281   3.02650   3.06050   3.06463
 Alpha virt. eigenvalues --    3.07884   3.11955   3.14297   3.15797   3.17325
 Alpha virt. eigenvalues --    3.22935   3.23468   3.43923   3.50213   3.80403
 Alpha virt. eigenvalues --    3.88153   3.95131   3.95740   3.97065   3.99760
 Alpha virt. eigenvalues --    4.05641   4.08195   4.10731   4.14221   4.16977
 Alpha virt. eigenvalues --    4.18479   4.20402   4.22279   4.25387   4.25576
 Alpha virt. eigenvalues --    4.28006   4.32303   4.33441   4.34254   4.36455
 Alpha virt. eigenvalues --    4.41683   4.42109   4.49269   4.51453   4.53594
 Alpha virt. eigenvalues --    4.55443   4.56319   4.59847   4.66374   4.70522
 Alpha virt. eigenvalues --    4.76628   4.81921   4.87981
          Condensed to atoms (all electrons):
 Mulliken atomic charges:
              1
     1  C    0.110455
     2  C    0.299947
     3  C   -0.271296
     4  C    0.141707
     5  C   -0.060892
     6  C    0.238588
     7  C    0.070221
     8  C    0.286691
     9  O   -0.499608
    10  C    0.598908
    11  C   -0.384155
    12  C    0.254648
    13  C   -0.297639
    14  C   -0.369068
    15  C   -0.585797
    16  O   -0.659815
    17  O   -0.636735
    18  O   -0.537387
    19  O   -0.546236
    20  C    0.103474
    21  C    0.115792
    22  C    0.112481
    23  C   -0.157803
    24  C    0.054354
    25  C   -0.350805
    26  O   -0.679890
    27  O   -0.642875
    28  C    0.603967
    29  O   -0.465612
    30  O   -0.493183
    31  C   -0.216202
    32  C    0.594085
    33  O   -0.560071
    34  O   -0.476228
    35  H    0.143790
    36  H    0.171561
    37  H    0.184137
    38  H    0.175753
    39  H    0.169160
    40  H    0.182969
    41  H    0.177519
    42  H    0.209519
    43  H    0.161460
    44  H    0.162269
    45  H    0.449140
    46  H    0.422363
    47  H    0.133582
    48  H    0.133793
    49  H    0.137342
    50  H    0.177341
    51  H    0.170188
    52  H    0.177943
    53  H    0.429291
    54  H    0.410437
    55  H    0.165718
    56  H    0.171464
    57  H    0.169968
    58  H    0.419273
 Sum of Mulliken atomic charges =   0.00000
 Mulliken charges with hydrogens summed into heavy atoms:
              1
     1  C    0.110455
     2  C    0.299947
     3  C   -0.127505
     4  C    0.141707
     5  C   -0.060892
     6  C    0.238588
     7  C    0.070221
     8  C    0.286691
     9  O   -0.499608
    10  C    0.598908
    11  C   -0.028457
    12  C    0.254648
    13  C    0.047274
    14  C   -0.008580
    15  C   -0.052549
    16  O   -0.210674
    17  O   -0.214372
    18  O   -0.537387
    19  O   -0.546236
    20  C    0.237056
    21  C    0.249585
    22  C    0.249823
    23  C    0.019538
    24  C    0.054354
    25  C   -0.002674
    26  O   -0.250599
    27  O   -0.232438
    28  C    0.603967
    29  O   -0.465612
    30  O   -0.493183
    31  C    0.290948
    32  C    0.594085
    33  O   -0.140799
    34  O   -0.476228
 Sum of Mulliken charges with hydrogens summed into heavy atoms =   0.00000
 Electronic spatial extent (au):  <R**2>=          19639.5394
 Charge=              0.0000 electrons
 Dipole moment (field-independent basis, Debye):
    X=              0.2174    Y=              2.2604    Z=              1.8135  Tot=              2.9062
 Quadrupole moment (field-independent basis, Debye-Ang):
   XX=           -223.2876   YY=           -179.2518   ZZ=           -188.2443
   XY=             -1.9711   XZ=             -8.0541   YZ=              4.4879
 Traceless Quadrupole moment (field-independent basis, Debye-Ang):
   XX=            -26.3597   YY=             17.6761   ZZ=              8.6836
   XY=             -1.9711   XZ=             -8.0541   YZ=              4.4879
 Octapole moment (field-independent basis, Debye-Ang**2):
  XXX=            129.8301  YYY=             90.5528  ZZZ=             26.8172  XYY=              1.3347
  XXY=            178.5134  XXZ=             21.8751  XZZ=              1.7726  YZZ=            -28.7363
  YYZ=             26.4767  XYZ=             -5.7978
 Hexadecapole moment (field-independent basis, Debye-Ang**3):
 XXXX=         -18988.1505 YYYY=          -5803.3755 ZZZZ=          -1010.7093 XXXY=             46.9149
 XXXZ=           -338.8059 YYYX=             80.4063 YYYZ=             69.9584 ZZZX=             14.2804
 ZZZY=            -76.3745 XXYY=          -3372.0626 XXZZ=          -3071.7997 YYZZ=          -1165.8601
 XXYZ=            -35.8067 YYXZ=           -152.6148 ZZXY=             -8.9101
 N-N= 3.672534072278D+03 E-N=-1.135848921738D+04  KE= 1.703120384508D+03
 1\1\GINC-B0805\FOpt\RB3LYP\6-31G(d)\C23H24O11\CAOFEI\02-Feb-2021\0\\# 
 opt b3lyp/6-31g(d) geom=connectivity\\Title Card Required\\0,1\C,3.908
 7451394,-3.7079407362,-0.2877647186\C,3.4589066402,-2.5399703561,0.351
 1814571\C,2.2449225948,-1.9203104758,0.032971757\C,1.4289349362,-2.466
 1127607,-0.9553749708\C,1.8479845982,-3.6514957666,-1.6204082788\C,3.0
 887054317,-4.2615673509,-1.2810150309\C,0.1502053903,-1.8871307032,-1.
 3436083291\C,-0.5891143677,-2.5139964014,-2.2837356301\O,-0.1770657589
 ,-3.6565636543,-2.9201575848\C,1.0257769376,-4.2568403782,-2.639507564
 8\C,-0.3471824121,-0.6158019177,-0.6849563611\C,-1.5398905481,0.048042
 1861,-1.4038017145\C,-2.5538003608,-1.0303285911,-1.8314172641\C,-1.93
 18217697,-2.0638492431,-2.7752120108\C,5.2257501953,-4.3440834755,0.08
 36110321\O,3.5058256986,-5.3788261571,-1.898787804\O,4.1957161341,-1.9
 438791471,1.3265109178\O,1.2988876387,-5.2713825157,-3.2798035887\O,-2
 .2838377745,0.914145061,-0.5521353585\C,-1.6307342141,2.0261048144,0.0
 956277697\C,-2.5218087618,3.2519580879,-0.1192719722\C,-1.9140621679,4
 .4852093729,0.5512854212\C,-1.5228418043,4.2122754171,1.9732602478\C,-
 1.2912665381,2.9745431194,2.4365999837\C,-1.4652849589,1.727795099,1.5
 932163004\O,-2.6795071494,3.5972879004,-1.4828538236\O,-2.8213523774,5
 .578605911,0.5242173074\C,-0.8704354316,2.7240127526,3.8427500849\O,-0
 .7514317345,3.8516848824,4.5792311833\O,-0.6557082647,1.612338856,4.29
 01100413\C,-0.3591365201,3.6520477448,5.945298199\C,-1.1527899899,0.84
 28574799,-2.6733000454\O,0.1295566296,0.6961300702,-3.0556014689\O,-1.
 9419837403,1.5269702012,-3.2921358282\H,1.9708644489,-1.0274800559,0.5
 80933635\H,0.4819008961,0.0942572734,-0.6015972604\H,-0.6771170689,-0.
 8380612694,0.3377772656\H,-3.4116441921,-0.5391032945,-2.2979885606\H,
 -2.9039664032,-1.5150488778,-0.9135859081\H,-2.5880985171,-2.937102100
 6,-2.867301689\H,-1.830242785,-1.6599893416,-3.7933973406\H,5.39895379
 46,-5.234703791,-0.5216025824\H,6.0732222551,-3.6637394142,-0.08444667
 23\H,5.2494483039,-4.6555977007,1.1380542477\H,2.8072038005,-5.6228276
 699,-2.5629503048\H,5.0072145297,-2.4537873814,1.4760037989\H,-0.65624
 31134,2.2178557583,-0.3752955016\H,-3.4979181611,3.0512694481,0.352464
 2808\H,-1.0029406816,4.7475854155,-0.0190170178\H,-1.4094499982,5.0769
 713057,2.6195743152\H,-0.6246970151,1.0486785825,1.7679237088\H,-2.356
 6736205,1.1825655581,1.9309928332\H,-2.8811082172,2.7912735422,-1.9928
 761895\H,-3.1087419429,5.6513259901,-0.401952208\H,-0.3177593835,4.649
 0058497,6.3850433042\H,-1.0906279989,3.0306521956,6.4688715162\H,0.619
 4608861,3.1671730997,5.9983253467\H,0.2400988636,1.2268975625,-3.86897
 54118\\Version=EM64L-G09RevB.01\State=1-A\HF=-1718.3736931\RMSD=3.952e
 -09\RMSF=2.845e-06\Dipole=0.9654575,0.4321179,0.4341145\Quadrupole=10.
 5995006,-16.4404141,5.8409135,7.6877531,5.9801755,-6.7176483\PG=C01 [X
 (C23H24O11)]\\@


 IN THE LONG RUN, DIGGING FOR TRUTH HAS ALWAYS PROVED NOT ONLY 
 MORE INTERESTING BUT MORE PROFITABLE THAN DIGGING FOR GOLD.

                             -- GEORGE R. HARRISON
 Job cpu time:  0 days  6 hours 14 minutes 40.3 seconds.
 File lengths (MBytes):  RWF=    225 Int=      0 D2E=      0 Chk=     21 Scr=      1
 Normal termination of Gaussian 09 at Tue Feb  2 13:14:39 2021.
