 Entering Gaussian System, Link 0=g09
 Initial command:
 /public/software/g09/g09/l1.exe /tmp/Gau-32310.inp -scrdir=/tmp/
 Entering Link 1 = /public/software/g09/g09/l1.exe PID=     32311.
  
 Copyright (c) 1988,1990,1992,1993,1995,1998,2003,2009,2010,
            Gaussian, Inc.  All Rights Reserved.
  
 This is part of the Gaussian(R) 09 program.  It is based on
 the Gaussian(R) 03 system (copyright 2003, Gaussian, Inc.),
 the Gaussian(R) 98 system (copyright 1998, Gaussian, Inc.),
 the Gaussian(R) 94 system (copyright 1995, Gaussian, Inc.),
 the Gaussian 92(TM) system (copyright 1992, Gaussian, Inc.),
 the Gaussian 90(TM) system (copyright 1990, Gaussian, Inc.),
 the Gaussian 88(TM) system (copyright 1988, Gaussian, Inc.),
 the Gaussian 86(TM) system (copyright 1986, Carnegie Mellon
 University), and the Gaussian 82(TM) system (copyright 1983,
 Carnegie Mellon University). Gaussian is a federally registered
 trademark of Gaussian, Inc.
  
 This software contains proprietary and confidential information,
 including trade secrets, belonging to Gaussian, Inc.
  
 This software is provided under written license and may be
 used, copied, transmitted, or stored only in accord with that
 written license.
  
 The following legend is applicable only to US Government
 contracts under FAR:
  
                    RESTRICTED RIGHTS LEGEND
  
 Use, reproduction and disclosure by the US Government is
 subject to restrictions as set forth in subparagraphs (a)
 and (c) of the Commercial Computer Software - Restricted
 Rights clause in FAR 52.227-19.
  
 Gaussian, Inc.
 340 Quinnipiac St., Bldg. 40, Wallingford CT 06492
  
  
 ---------------------------------------------------------------
 Warning -- This program may not be used in any manner that
 competes with the business of Gaussian, Inc. or will provide
 assistance to any competitor of Gaussian, Inc.  The licensee
 of this program is prohibited from giving any competitor of
 Gaussian, Inc. access to this program.  By using this program,
 the user acknowledges that Gaussian, Inc. is engaged in the
 business of creating and licensing software in the field of
 computational chemistry and represents and warrants to the
 licensee that it is not a competitor of Gaussian, Inc. and that
 it will not use this program in any manner prohibited above.
 ---------------------------------------------------------------
  

 Cite this work as:
 Gaussian 09, Revision B.01,
 M. J. Frisch, G. W. Trucks, H. B. Schlegel, G. E. Scuseria, 
 M. A. Robb, J. R. Cheeseman, G. Scalmani, V. Barone, B. Mennucci, 
 G. A. Petersson, H. Nakatsuji, M. Caricato, X. Li, H. P. Hratchian, 
 A. F. Izmaylov, J. Bloino, G. Zheng, J. L. Sonnenberg, M. Hada, 
 M. Ehara, K. Toyota, R. Fukuda, J. Hasegawa, M. Ishida, T. Nakajima, 
 Y. Honda, O. Kitao, H. Nakai, T. Vreven, J. A. Montgomery, Jr., 
 J. E. Peralta, F. Ogliaro, M. Bearpark, J. J. Heyd, E. Brothers, 
 K. N. Kudin, V. N. Staroverov, T. Keith, R. Kobayashi, J. Normand, 
 K. Raghavachari, A. Rendell, J. C. Burant, S. S. Iyengar, J. Tomasi, 
 M. Cossi, N. Rega, J. M. Millam, M. Klene, J. E. Knox, J. B. Cross, 
 V. Bakken, C. Adamo, J. Jaramillo, R. Gomperts, R. E. Stratmann, 
 O. Yazyev, A. J. Austin, R. Cammi, C. Pomelli, J. W. Ochterski, 
 R. L. Martin, K. Morokuma, V. G. Zakrzewski, G. A. Voth, 
 P. Salvador, J. J. Dannenberg, S. Dapprich, A. D. Daniels, 
 O. Farkas, J. B. Foresman, J. V. Ortiz, J. Cioslowski, 
 and D. J. Fox, Gaussian, Inc., Wallingford CT, 2010.
 
 ******************************************
 Gaussian 09:  EM64L-G09RevB.01 12-Aug-2010
                 2-Feb-2021 
 ******************************************
 %mem=600MW
 %nprocshared=10
 Will use up to   10 processors via shared memory.
 --------------------------------------
 # opt b3lyp/6-31g(d) geom=connectivity
 --------------------------------------
 1/14=-1,18=20,19=15,26=3,38=1,57=2/1,3;
 2/9=110,12=2,17=6,18=5,40=1/2;
 3/5=1,6=6,7=1,11=2,16=1,25=1,30=1,71=1,74=-5/1,2,3;
 4//1;
 5/5=2,38=5/2;
 6/7=2,8=2,9=2,10=2,28=1/1;
 7//1,2,3,16;
 1/14=-1,18=20,19=15/3(2);
 2/9=110/2;
 99//99;
 2/9=110/2;
 3/5=1,6=6,7=1,11=2,16=1,25=1,30=1,71=1,74=-5/1,2,3;
 4/5=5,16=3/1;
 5/5=2,38=5/2;
 7//1,2,3,16;
 1/14=-1,18=20,19=15/3(-5);
 2/9=110/2;
 6/7=2,8=2,9=2,10=2,19=2,28=1/1;
 99/9=1/99;
 -------------------
 Title Card Required
 -------------------
 Symbolic Z-matrix:
 Charge =  0 Multiplicity = 1
 C                     4.30851  -1.31419  -1.55661 
 C                     3.87589  -0.00245  -1.35174 
 C                     2.53531   0.35742  -1.51797 
 C                     1.57828  -0.5939   -1.90696 
 C                     2.00839  -1.90703  -2.14867 
 C                     3.36309  -2.25997  -1.97677 
 C                     0.15565  -0.24975  -2.08484 
 C                    -0.66811  -1.20499  -2.54554 
 O                    -0.24368  -2.51835  -2.81956 
 C                     1.03822  -2.92414  -2.6123 
 C                    -0.35671   1.13695  -1.75615 
 C                    -1.90037   1.23423  -1.62664 
 C                    -2.52902   0.49263  -2.82058 
 C                    -2.12782  -0.98412  -2.82839 
 C                     5.75623  -1.69033  -1.39972 
 O                     3.8264   -3.53137  -2.22066 
 O                     4.79317   0.94486  -0.98924 
 O                     1.39584  -4.081    -2.81775 
 O                    -2.42227   0.59357  -0.44715 
 C                    -1.95949   1.05945   0.83182 
 C                    -3.19184   1.23607   1.73508 
 C                    -2.77232   1.67288   3.14914 
 C                    -1.62043   0.89381   3.69495 
 C                    -0.82678   0.12231   2.92876 
 C                    -1.01975   0.00189   1.43907 
 O                    -4.07202   2.23859   1.19831 
 O                    -3.87604   1.50795   4.03616 
 C                     0.3118   -0.66543   3.48328 
 O                     0.43405  -0.4974    4.82224 
 O                     1.03359  -1.36082   2.78351 
 C                     1.50627  -1.23851   5.40547 
 C                    -2.33493   2.7098   -1.7121 
 O                    -3.65402   2.88631  -1.47158 
 O                    -1.61985   3.67198  -1.94 
 H                     2.25151   1.39166  -1.35238 
 H                    -0.00675   1.8075   -2.55322 
 H                     0.09802   1.49522  -0.82776 
 H                    -2.22249   0.96594  -3.76321 
 H                    -3.62444   0.54919  -2.7828 
 H                    -2.7142   -1.53239  -2.08075 
 H                    -2.38286  -1.41074  -3.80587 
 H                     6.27815  -1.01949  -0.70985 
 H                     5.85987  -2.69763  -0.9828 
 H                     6.25837  -1.65246  -2.37141 
 H                     3.07393  -4.10544  -2.48625 
 H                     4.35169   1.79972  -0.86269 
 H                    -1.45213   2.02703   0.73164 
 H                    -3.78067   0.31041   1.77094 
 H                    -2.51801   2.73952   3.15957 
 H                    -1.45712   0.9829    4.76655 
 H                    -0.04951   0.07316   0.93593 
 H                    -1.40134  -1.00254   1.21146 
 H                    -4.20616   2.0027    0.256 
 H                    -4.62817   1.94787   3.59552 
 H                     1.5097   -1.03986   6.48077 
 H                     1.35895  -2.31223   5.25224 
 H                     2.46598  -0.91494   4.99043 
 H                    -3.78752   3.85791  -1.52892 
 

 GradGradGradGradGradGradGradGradGradGradGradGradGradGradGradGradGradGrad
 Berny optimization.
 Initialization pass.
                           ----------------------------
                           !    Initial Parameters    !
                           ! (Angstroms and Degrees)  !
 --------------------------                            --------------------------
 ! Name  Definition              Value          Derivative Info.                !
 --------------------------------------------------------------------------------
 ! R1    R(1,2)                  1.3963         estimate D2E/DX2                !
 ! R2    R(1,6)                  1.4017         estimate D2E/DX2                !
 ! R3    R(1,15)                 1.504          estimate D2E/DX2                !
 ! R4    R(2,3)                  1.398          estimate D2E/DX2                !
 ! R5    R(2,17)                 1.3676         estimate D2E/DX2                !
 ! R6    R(3,4)                  1.4044         estimate D2E/DX2                !
 ! R7    R(3,35)                 1.0852         estimate D2E/DX2                !
 ! R8    R(4,5)                  1.4028         estimate D2E/DX2                !
 ! R9    R(4,7)                  1.4744         estimate D2E/DX2                !
 ! R10   R(5,6)                  1.4104         estimate D2E/DX2                !
 ! R11   R(5,10)                 1.4801         estimate D2E/DX2                !
 ! R12   R(6,16)                 1.375          estimate D2E/DX2                !
 ! R13   R(7,8)                  1.3429         estimate D2E/DX2                !
 ! R14   R(7,11)                 1.5144         estimate D2E/DX2                !
 ! R15   R(8,9)                  1.4072         estimate D2E/DX2                !
 ! R16   R(8,14)                 1.5032         estimate D2E/DX2                !
 ! R17   R(9,10)                 1.3605         estimate D2E/DX2                !
 ! R18   R(10,18)                1.2282         estimate D2E/DX2                !
 ! R19   R(11,12)                1.5521         estimate D2E/DX2                !
 ! R20   R(11,36)                1.0988         estimate D2E/DX2                !
 ! R21   R(11,37)                1.0941         estimate D2E/DX2                !
 ! R22   R(12,13)                1.5397         estimate D2E/DX2                !
 ! R23   R(12,19)                1.4401         estimate D2E/DX2                !
 ! R24   R(12,32)                1.5406         estimate D2E/DX2                !
 ! R25   R(13,14)                1.5303         estimate D2E/DX2                !
 ! R26   R(13,38)                1.0984         estimate D2E/DX2                !
 ! R27   R(13,39)                1.0975         estimate D2E/DX2                !
 ! R28   R(14,40)                1.097          estimate D2E/DX2                !
 ! R29   R(14,41)                1.0966         estimate D2E/DX2                !
 ! R30   R(15,42)                1.0947         estimate D2E/DX2                !
 ! R31   R(15,43)                1.0951         estimate D2E/DX2                !
 ! R32   R(15,44)                1.0944         estimate D2E/DX2                !
 ! R33   R(16,45)                0.983          estimate D2E/DX2                !
 ! R34   R(17,46)                0.9704         estimate D2E/DX2                !
 ! R35   R(18,45)                1.7107         estimate D2E/DX2                !
 ! R36   R(19,20)                1.4377         estimate D2E/DX2                !
 ! R37   R(20,21)                1.5381         estimate D2E/DX2                !
 ! R38   R(20,25)                1.5396         estimate D2E/DX2                !
 ! R39   R(20,47)                1.0971         estimate D2E/DX2                !
 ! R40   R(21,22)                1.5383         estimate D2E/DX2                !
 ! R41   R(21,26)                1.438          estimate D2E/DX2                !
 ! R42   R(21,48)                1.0977         estimate D2E/DX2                !
 ! R43   R(22,23)                1.4939         estimate D2E/DX2                !
 ! R44   R(22,27)                1.4256         estimate D2E/DX2                !
 ! R45   R(22,49)                1.0966         estimate D2E/DX2                !
 ! R46   R(23,24)                1.3462         estimate D2E/DX2                !
 ! R47   R(23,50)                1.0876         estimate D2E/DX2                !
 ! R48   R(24,25)                1.507          estimate D2E/DX2                !
 ! R49   R(24,28)                1.4914         estimate D2E/DX2                !
 ! R50   R(25,51)                1.0953         estimate D2E/DX2                !
 ! R51   R(25,52)                1.0983         estimate D2E/DX2                !
 ! R52   R(26,53)                0.9806         estimate D2E/DX2                !
 ! R53   R(27,54)                0.9764         estimate D2E/DX2                !
 ! R54   R(28,29)                1.355          estimate D2E/DX2                !
 ! R55   R(28,30)                1.2224         estimate D2E/DX2                !
 ! R56   R(29,31)                1.4279         estimate D2E/DX2                !
 ! R57   R(31,55)                1.0935         estimate D2E/DX2                !
 ! R58   R(31,56)                1.0946         estimate D2E/DX2                !
 ! R59   R(31,57)                1.0945         estimate D2E/DX2                !
 ! R60   R(32,33)                1.3524         estimate D2E/DX2                !
 ! R61   R(32,34)                1.2203         estimate D2E/DX2                !
 ! R62   R(33,58)                0.9824         estimate D2E/DX2                !
 ! A1    A(2,1,6)              117.9598         estimate D2E/DX2                !
 ! A2    A(2,1,15)             121.1891         estimate D2E/DX2                !
 ! A3    A(6,1,15)             120.7807         estimate D2E/DX2                !
 ! A4    A(1,2,3)              121.4319         estimate D2E/DX2                !
 ! A5    A(1,2,17)             118.8036         estimate D2E/DX2                !
 ! A6    A(3,2,17)             119.7631         estimate D2E/DX2                !
 ! A7    A(2,3,4)              120.8008         estimate D2E/DX2                !
 ! A8    A(2,3,35)             118.554          estimate D2E/DX2                !
 ! A9    A(4,3,35)             120.6405         estimate D2E/DX2                !
 ! A10   A(3,4,5)              118.2229         estimate D2E/DX2                !
 ! A11   A(3,4,7)              122.197          estimate D2E/DX2                !
 ! A12   A(5,4,7)              119.5741         estimate D2E/DX2                !
 ! A13   A(4,5,6)              120.5136         estimate D2E/DX2                !
 ! A14   A(4,5,10)             119.7543         estimate D2E/DX2                !
 ! A15   A(6,5,10)             119.7219         estimate D2E/DX2                !
 ! A16   A(1,6,5)              121.0312         estimate D2E/DX2                !
 ! A17   A(1,6,16)             116.7307         estimate D2E/DX2                !
 ! A18   A(5,6,16)             122.2354         estimate D2E/DX2                !
 ! A19   A(4,7,8)              117.8548         estimate D2E/DX2                !
 ! A20   A(4,7,11)             120.9286         estimate D2E/DX2                !
 ! A21   A(8,7,11)             121.2166         estimate D2E/DX2                !
 ! A22   A(7,8,9)              123.0726         estimate D2E/DX2                !
 ! A23   A(7,8,14)             123.7603         estimate D2E/DX2                !
 ! A24   A(9,8,14)             113.1663         estimate D2E/DX2                !
 ! A25   A(8,9,10)             122.2026         estimate D2E/DX2                !
 ! A26   A(5,10,9)             117.4112         estimate D2E/DX2                !
 ! A27   A(5,10,18)            120.5858         estimate D2E/DX2                !
 ! A28   A(9,10,18)            121.9933         estimate D2E/DX2                !
 ! A29   A(7,11,12)            114.3284         estimate D2E/DX2                !
 ! A30   A(7,11,36)            107.0729         estimate D2E/DX2                !
 ! A31   A(7,11,37)            110.0837         estimate D2E/DX2                !
 ! A32   A(12,11,36)           109.8174         estimate D2E/DX2                !
 ! A33   A(12,11,37)           108.786          estimate D2E/DX2                !
 ! A34   A(36,11,37)           106.4585         estimate D2E/DX2                !
 ! A35   A(11,12,13)           108.1305         estimate D2E/DX2                !
 ! A36   A(11,12,19)           113.6328         estimate D2E/DX2                !
 ! A37   A(11,12,32)           109.629          estimate D2E/DX2                !
 ! A38   A(13,12,19)           105.8345         estimate D2E/DX2                !
 ! A39   A(13,12,32)           107.6463         estimate D2E/DX2                !
 ! A40   A(19,12,32)           111.6715         estimate D2E/DX2                !
 ! A41   A(12,13,14)           111.2052         estimate D2E/DX2                !
 ! A42   A(12,13,38)           110.1186         estimate D2E/DX2                !
 ! A43   A(12,13,39)           110.8544         estimate D2E/DX2                !
 ! A44   A(14,13,38)           109.7722         estimate D2E/DX2                !
 ! A45   A(14,13,39)           108.1547         estimate D2E/DX2                !
 ! A46   A(38,13,39)           106.6105         estimate D2E/DX2                !
 ! A47   A(8,14,13)            113.2931         estimate D2E/DX2                !
 ! A48   A(8,14,40)            108.5051         estimate D2E/DX2                !
 ! A49   A(8,14,41)            109.6585         estimate D2E/DX2                !
 ! A50   A(13,14,40)           109.7966         estimate D2E/DX2                !
 ! A51   A(13,14,41)           108.6026         estimate D2E/DX2                !
 ! A52   A(40,14,41)           106.7828         estimate D2E/DX2                !
 ! A53   A(1,15,42)            111.8027         estimate D2E/DX2                !
 ! A54   A(1,15,43)            111.1527         estimate D2E/DX2                !
 ! A55   A(1,15,44)            109.9005         estimate D2E/DX2                !
 ! A56   A(42,15,43)           106.1785         estimate D2E/DX2                !
 ! A57   A(42,15,44)           108.6374         estimate D2E/DX2                !
 ! A58   A(43,15,44)           109.052          estimate D2E/DX2                !
 ! A59   A(6,16,45)            109.2681         estimate D2E/DX2                !
 ! A60   A(2,17,46)            109.8548         estimate D2E/DX2                !
 ! A61   A(12,19,20)           117.8902         estimate D2E/DX2                !
 ! A62   A(19,20,21)           107.5611         estimate D2E/DX2                !
 ! A63   A(19,20,25)           108.9514         estimate D2E/DX2                !
 ! A64   A(19,20,47)           110.6962         estimate D2E/DX2                !
 ! A65   A(21,20,25)           109.6515         estimate D2E/DX2                !
 ! A66   A(21,20,47)           108.8367         estimate D2E/DX2                !
 ! A67   A(25,20,47)           111.0734         estimate D2E/DX2                !
 ! A68   A(20,21,22)           110.7277         estimate D2E/DX2                !
 ! A69   A(20,21,26)           110.5639         estimate D2E/DX2                !
 ! A70   A(20,21,48)           110.6193         estimate D2E/DX2                !
 ! A71   A(22,21,26)           108.1851         estimate D2E/DX2                !
 ! A72   A(22,21,48)           110.8383         estimate D2E/DX2                !
 ! A73   A(26,21,48)           105.7691         estimate D2E/DX2                !
 ! A74   A(21,22,23)           113.4563         estimate D2E/DX2                !
 ! A75   A(21,22,27)           109.1457         estimate D2E/DX2                !
 ! A76   A(21,22,49)           110.3768         estimate D2E/DX2                !
 ! A77   A(23,22,27)           108.0182         estimate D2E/DX2                !
 ! A78   A(23,22,49)           108.9637         estimate D2E/DX2                !
 ! A79   A(27,22,49)           106.629          estimate D2E/DX2                !
 ! A80   A(22,23,24)           123.0608         estimate D2E/DX2                !
 ! A81   A(22,23,50)           115.6604         estimate D2E/DX2                !
 ! A82   A(24,23,50)           121.2784         estimate D2E/DX2                !
 ! A83   A(23,24,25)           122.2043         estimate D2E/DX2                !
 ! A84   A(23,24,28)           122.7633         estimate D2E/DX2                !
 ! A85   A(25,24,28)           115.0304         estimate D2E/DX2                !
 ! A86   A(20,25,24)           114.4049         estimate D2E/DX2                !
 ! A87   A(20,25,51)           108.3506         estimate D2E/DX2                !
 ! A88   A(20,25,52)           109.5361         estimate D2E/DX2                !
 ! A89   A(24,25,51)           109.6013         estimate D2E/DX2                !
 ! A90   A(24,25,52)           108.8096         estimate D2E/DX2                !
 ! A91   A(51,25,52)           105.7876         estimate D2E/DX2                !
 ! A92   A(21,26,53)           105.9449         estimate D2E/DX2                !
 ! A93   A(22,27,54)           105.2755         estimate D2E/DX2                !
 ! A94   A(24,28,29)           111.7641         estimate D2E/DX2                !
 ! A95   A(24,28,30)           122.5747         estimate D2E/DX2                !
 ! A96   A(29,28,30)           125.6591         estimate D2E/DX2                !
 ! A97   A(28,29,31)           114.0161         estimate D2E/DX2                !
 ! A98   A(29,31,55)           108.0419         estimate D2E/DX2                !
 ! A99   A(29,31,56)           110.541          estimate D2E/DX2                !
 ! A100  A(29,31,57)           110.4926         estimate D2E/DX2                !
 ! A101  A(55,31,56)           108.4386         estimate D2E/DX2                !
 ! A102  A(55,31,57)           108.4471         estimate D2E/DX2                !
 ! A103  A(56,31,57)           110.7886         estimate D2E/DX2                !
 ! A104  A(12,32,33)           112.9708         estimate D2E/DX2                !
 ! A105  A(12,32,34)           126.8902         estimate D2E/DX2                !
 ! A106  A(33,32,34)           120.1234         estimate D2E/DX2                !
 ! A107  A(32,33,58)           104.5513         estimate D2E/DX2                !
 ! D1    D(6,1,2,3)              1.9409         estimate D2E/DX2                !
 ! D2    D(6,1,2,17)          -177.6311         estimate D2E/DX2                !
 ! D3    D(15,1,2,3)           178.9145         estimate D2E/DX2                !
 ! D4    D(15,1,2,17)           -0.6575         estimate D2E/DX2                !
 ! D5    D(2,1,6,5)             -1.8686         estimate D2E/DX2                !
 ! D6    D(2,1,6,16)           177.5576         estimate D2E/DX2                !
 ! D7    D(15,1,6,5)          -178.8551         estimate D2E/DX2                !
 ! D8    D(15,1,6,16)            0.5711         estimate D2E/DX2                !
 ! D9    D(2,1,15,42)           26.1839         estimate D2E/DX2                !
 ! D10   D(2,1,15,43)          144.6447         estimate D2E/DX2                !
 ! D11   D(2,1,15,44)          -94.5378         estimate D2E/DX2                !
 ! D12   D(6,1,15,42)         -156.9277         estimate D2E/DX2                !
 ! D13   D(6,1,15,43)          -38.4669         estimate D2E/DX2                !
 ! D14   D(6,1,15,44)           82.3507         estimate D2E/DX2                !
 ! D15   D(1,2,3,4)             -0.4155         estimate D2E/DX2                !
 ! D16   D(1,2,3,35)          -179.6314         estimate D2E/DX2                !
 ! D17   D(17,2,3,4)           179.1524         estimate D2E/DX2                !
 ! D18   D(17,2,3,35)           -0.0635         estimate D2E/DX2                !
 ! D19   D(1,2,17,46)         -178.7365         estimate D2E/DX2                !
 ! D20   D(3,2,17,46)            1.6842         estimate D2E/DX2                !
 ! D21   D(2,3,4,5)             -1.2059         estimate D2E/DX2                !
 ! D22   D(2,3,4,7)            179.6926         estimate D2E/DX2                !
 ! D23   D(35,3,4,5)           177.9936         estimate D2E/DX2                !
 ! D24   D(35,3,4,7)            -1.1079         estimate D2E/DX2                !
 ! D25   D(3,4,5,6)              1.2658         estimate D2E/DX2                !
 ! D26   D(3,4,5,10)          -177.5741         estimate D2E/DX2                !
 ! D27   D(7,4,5,6)           -179.6084         estimate D2E/DX2                !
 ! D28   D(7,4,5,10)             1.5516         estimate D2E/DX2                !
 ! D29   D(3,4,7,8)            175.6011         estimate D2E/DX2                !
 ! D30   D(3,4,7,11)            -4.4611         estimate D2E/DX2                !
 ! D31   D(5,4,7,8)             -3.4886         estimate D2E/DX2                !
 ! D32   D(5,4,7,11)           176.4492         estimate D2E/DX2                !
 ! D33   D(4,5,6,1)              0.2789         estimate D2E/DX2                !
 ! D34   D(4,5,6,16)          -179.1153         estimate D2E/DX2                !
 ! D35   D(10,5,6,1)           179.1192         estimate D2E/DX2                !
 ! D36   D(10,5,6,16)           -0.2749         estimate D2E/DX2                !
 ! D37   D(4,5,10,9)             1.7249         estimate D2E/DX2                !
 ! D38   D(4,5,10,18)         -179.3819         estimate D2E/DX2                !
 ! D39   D(6,5,10,9)          -177.1243         estimate D2E/DX2                !
 ! D40   D(6,5,10,18)            1.7688         estimate D2E/DX2                !
 ! D41   D(1,6,16,45)          178.6764         estimate D2E/DX2                !
 ! D42   D(5,6,16,45)           -1.9049         estimate D2E/DX2                !
 ! D43   D(4,7,8,9)              2.1902         estimate D2E/DX2                !
 ! D44   D(4,7,8,14)          -177.4454         estimate D2E/DX2                !
 ! D45   D(11,7,8,9)          -177.7475         estimate D2E/DX2                !
 ! D46   D(11,7,8,14)            2.6169         estimate D2E/DX2                !
 ! D47   D(4,7,11,12)         -164.2865         estimate D2E/DX2                !
 ! D48   D(4,7,11,36)           73.8384         estimate D2E/DX2                !
 ! D49   D(4,7,11,37)          -41.4935         estimate D2E/DX2                !
 ! D50   D(8,7,11,12)           15.6493         estimate D2E/DX2                !
 ! D51   D(8,7,11,36)         -106.2258         estimate D2E/DX2                !
 ! D52   D(8,7,11,37)          138.4422         estimate D2E/DX2                !
 ! D53   D(7,8,9,10)             1.229          estimate D2E/DX2                !
 ! D54   D(14,8,9,10)         -179.1005         estimate D2E/DX2                !
 ! D55   D(7,8,14,13)           11.9271         estimate D2E/DX2                !
 ! D56   D(7,8,14,40)         -110.277          estimate D2E/DX2                !
 ! D57   D(7,8,14,41)          133.4342         estimate D2E/DX2                !
 ! D58   D(9,8,14,13)         -167.7408         estimate D2E/DX2                !
 ! D59   D(9,8,14,40)           70.0552         estimate D2E/DX2                !
 ! D60   D(9,8,14,41)          -46.2337         estimate D2E/DX2                !
 ! D61   D(8,9,10,5)            -3.1781         estimate D2E/DX2                !
 ! D62   D(8,9,10,18)          177.9454         estimate D2E/DX2                !
 ! D63   D(7,11,12,13)         -46.1977         estimate D2E/DX2                !
 ! D64   D(7,11,12,19)          70.9751         estimate D2E/DX2                !
 ! D65   D(7,11,12,32)        -163.291          estimate D2E/DX2                !
 ! D66   D(36,11,12,13)         74.1608         estimate D2E/DX2                !
 ! D67   D(36,11,12,19)       -168.6664         estimate D2E/DX2                !
 ! D68   D(36,11,12,32)        -42.9325         estimate D2E/DX2                !
 ! D69   D(37,11,12,13)       -169.6918         estimate D2E/DX2                !
 ! D70   D(37,11,12,19)        -52.519          estimate D2E/DX2                !
 ! D71   D(37,11,12,32)         73.2149         estimate D2E/DX2                !
 ! D72   D(11,12,13,14)         60.6545         estimate D2E/DX2                !
 ! D73   D(11,12,13,38)        -61.2531         estimate D2E/DX2                !
 ! D74   D(11,12,13,39)       -178.9848         estimate D2E/DX2                !
 ! D75   D(19,12,13,14)        -61.4404         estimate D2E/DX2                !
 ! D76   D(19,12,13,38)        176.652          estimate D2E/DX2                !
 ! D77   D(19,12,13,39)         58.9204         estimate D2E/DX2                !
 ! D78   D(32,12,13,14)        179.0199         estimate D2E/DX2                !
 ! D79   D(32,12,13,38)         57.1123         estimate D2E/DX2                !
 ! D80   D(32,12,13,39)        -60.6193         estimate D2E/DX2                !
 ! D81   D(11,12,19,20)         59.3226         estimate D2E/DX2                !
 ! D82   D(13,12,19,20)        177.8234         estimate D2E/DX2                !
 ! D83   D(32,12,19,20)        -65.3195         estimate D2E/DX2                !
 ! D84   D(11,12,32,33)       -173.6974         estimate D2E/DX2                !
 ! D85   D(11,12,32,34)          4.8493         estimate D2E/DX2                !
 ! D86   D(13,12,32,33)         68.9058         estimate D2E/DX2                !
 ! D87   D(13,12,32,34)       -112.5475         estimate D2E/DX2                !
 ! D88   D(19,12,32,33)        -46.8489         estimate D2E/DX2                !
 ! D89   D(19,12,32,34)        131.6978         estimate D2E/DX2                !
 ! D90   D(12,13,14,8)         -44.1262         estimate D2E/DX2                !
 ! D91   D(12,13,14,40)         77.3556         estimate D2E/DX2                !
 ! D92   D(12,13,14,41)       -166.224          estimate D2E/DX2                !
 ! D93   D(38,13,14,8)          77.9825         estimate D2E/DX2                !
 ! D94   D(38,13,14,40)       -160.5357         estimate D2E/DX2                !
 ! D95   D(38,13,14,41)        -44.1153         estimate D2E/DX2                !
 ! D96   D(39,13,14,8)        -166.0692         estimate D2E/DX2                !
 ! D97   D(39,13,14,40)        -44.5874         estimate D2E/DX2                !
 ! D98   D(39,13,14,41)         71.833          estimate D2E/DX2                !
 ! D99   D(12,19,20,21)        133.4119         estimate D2E/DX2                !
 ! D100  D(12,19,20,25)       -107.7967         estimate D2E/DX2                !
 ! D101  D(12,19,20,47)         14.6234         estimate D2E/DX2                !
 ! D102  D(19,20,21,22)        177.39           estimate D2E/DX2                !
 ! D103  D(19,20,21,26)        -62.7183         estimate D2E/DX2                !
 ! D104  D(19,20,21,48)         54.1075         estimate D2E/DX2                !
 ! D105  D(25,20,21,22)         59.0489         estimate D2E/DX2                !
 ! D106  D(25,20,21,26)        178.9405         estimate D2E/DX2                !
 ! D107  D(25,20,21,48)        -64.2336         estimate D2E/DX2                !
 ! D108  D(47,20,21,22)        -62.6347         estimate D2E/DX2                !
 ! D109  D(47,20,21,26)         57.2569         estimate D2E/DX2                !
 ! D110  D(47,20,21,48)        174.0828         estimate D2E/DX2                !
 ! D111  D(19,20,25,24)       -160.5889         estimate D2E/DX2                !
 ! D112  D(19,20,25,51)         76.8209         estimate D2E/DX2                !
 ! D113  D(19,20,25,52)        -38.1309         estimate D2E/DX2                !
 ! D114  D(21,20,25,24)        -43.1137         estimate D2E/DX2                !
 ! D115  D(21,20,25,51)       -165.7039         estimate D2E/DX2                !
 ! D116  D(21,20,25,52)         79.3443         estimate D2E/DX2                !
 ! D117  D(47,20,25,24)         77.2186         estimate D2E/DX2                !
 ! D118  D(47,20,25,51)        -45.3716         estimate D2E/DX2                !
 ! D119  D(47,20,25,52)       -160.3233         estimate D2E/DX2                !
 ! D120  D(20,21,22,23)        -45.254          estimate D2E/DX2                !
 ! D121  D(20,21,22,27)       -165.7558         estimate D2E/DX2                !
 ! D122  D(20,21,22,49)         77.3655         estimate D2E/DX2                !
 ! D123  D(26,21,22,23)       -166.5604         estimate D2E/DX2                !
 ! D124  D(26,21,22,27)         72.9378         estimate D2E/DX2                !
 ! D125  D(26,21,22,49)        -43.9409         estimate D2E/DX2                !
 ! D126  D(48,21,22,23)         77.902          estimate D2E/DX2                !
 ! D127  D(48,21,22,27)        -42.5998         estimate D2E/DX2                !
 ! D128  D(48,21,22,49)       -159.4785         estimate D2E/DX2                !
 ! D129  D(20,21,26,53)         49.9864         estimate D2E/DX2                !
 ! D130  D(22,21,26,53)        171.3941         estimate D2E/DX2                !
 ! D131  D(48,21,26,53)        -69.8003         estimate D2E/DX2                !
 ! D132  D(21,22,23,24)         15.0977         estimate D2E/DX2                !
 ! D133  D(21,22,23,50)       -164.6856         estimate D2E/DX2                !
 ! D134  D(27,22,23,24)        136.235          estimate D2E/DX2                !
 ! D135  D(27,22,23,50)        -43.5483         estimate D2E/DX2                !
 ! D136  D(49,22,23,24)       -108.2994         estimate D2E/DX2                !
 ! D137  D(49,22,23,50)         71.9173         estimate D2E/DX2                !
 ! D138  D(21,22,27,54)        -50.1965         estimate D2E/DX2                !
 ! D139  D(23,22,27,54)       -173.9769         estimate D2E/DX2                !
 ! D140  D(49,22,27,54)         69.036          estimate D2E/DX2                !
 ! D141  D(22,23,24,25)          1.2763         estimate D2E/DX2                !
 ! D142  D(22,23,24,28)       -179.26           estimate D2E/DX2                !
 ! D143  D(50,23,24,25)       -178.9522         estimate D2E/DX2                !
 ! D144  D(50,23,24,28)          0.5115         estimate D2E/DX2                !
 ! D145  D(23,24,25,20)         13.5009         estimate D2E/DX2                !
 ! D146  D(23,24,25,51)        135.4094         estimate D2E/DX2                !
 ! D147  D(23,24,25,52)       -109.3513         estimate D2E/DX2                !
 ! D148  D(28,24,25,20)       -166.0014         estimate D2E/DX2                !
 ! D149  D(28,24,25,51)        -44.0929         estimate D2E/DX2                !
 ! D150  D(28,24,25,52)         71.1464         estimate D2E/DX2                !
 ! D151  D(23,24,28,29)         -0.2036         estimate D2E/DX2                !
 ! D152  D(23,24,28,30)       -179.7056         estimate D2E/DX2                !
 ! D153  D(25,24,28,29)        179.2956         estimate D2E/DX2                !
 ! D154  D(25,24,28,30)         -0.2065         estimate D2E/DX2                !
 ! D155  D(24,28,29,31)        179.6137         estimate D2E/DX2                !
 ! D156  D(30,28,29,31)         -0.9028         estimate D2E/DX2                !
 ! D157  D(28,29,31,55)       -179.4895         estimate D2E/DX2                !
 ! D158  D(28,29,31,56)        -60.9816         estimate D2E/DX2                !
 ! D159  D(28,29,31,57)         62.0201         estimate D2E/DX2                !
 ! D160  D(12,32,33,58)        178.2891         estimate D2E/DX2                !
 ! D161  D(34,32,33,58)         -0.3671         estimate D2E/DX2                !
 --------------------------------------------------------------------------------
 Trust Radius=3.00D-01 FncErr=1.00D-07 GrdErr=1.00D-06
 Number of steps in this run=    340 maximum allowed number of steps=    348.
 GradGradGradGradGradGradGradGradGradGradGradGradGradGradGradGradGradGrad

 Stoichiometry    C23H24O11
 Framework group  C1[X(C23H24O11)]
 Deg. of freedom   168
 Full point group                 C1      NOp   1
 Largest Abelian subgroup         C1      NOp   1
 Largest concise Abelian subgroup C1      NOp   1
                         Standard orientation:                         
 ---------------------------------------------------------------------
 Center     Atomic      Atomic             Coordinates (Angstroms)
 Number     Number       Type             X           Y           Z
 ---------------------------------------------------------------------
      1          6           0       -4.523193    0.861210    1.027694
      2          6           0       -3.527967    0.585078    1.967408
      3          6           0       -2.423304   -0.209593    1.647241
      4          6           0       -2.284493   -0.765008    0.364873
      5          6           0       -3.295885   -0.522085   -0.576291
      6          6           0       -4.405698    0.282198   -0.243443
      7          6           0       -1.129207   -1.601820   -0.008000
      8          6           0       -1.128359   -2.162444   -1.228249
      9          8           0       -2.150834   -1.950318   -2.171480
     10          6           0       -3.210823   -1.135182   -1.920746
     11          6           0        0.018323   -1.818659    0.956186
     12          6           0        1.305820   -2.385862    0.300638
     13          6           0        0.901117   -3.552136   -0.619520
     14          6           0       -0.047678   -3.082000   -1.724310
     15          6           0       -5.721493    1.696905    1.385013
     16          8           0       -5.425582    0.528803   -1.132054
     17          8           0       -3.650600    1.100993    3.227962
     18          8           0       -4.081958   -0.923697   -2.760285
     19          8           0        1.989608   -1.439322   -0.542284
     20          6           0        2.442911   -0.212285    0.054287
     21          6           0        3.893218    0.018113   -0.403199
     22          6           0        4.431293    1.351461    0.143622
     23          6           0        3.470651    2.485894   -0.004441
     24          6           0        2.165167    2.311170   -0.282521
     25          6           0        1.553972    0.942904   -0.441292
     26          8           0        4.746188   -1.038210    0.070656
     27          8           0        5.627822    1.693242   -0.551879
     28          6           0        1.215126    3.449365   -0.444780
     29          8           0        1.829557    4.644901   -0.274039
     30          8           0        0.029149    3.286564   -0.692124
     31          6           0        0.964175    5.770290   -0.427814
     32          6           0        2.235411   -2.952085    1.390919
     33          8           0        3.437560   -3.341836    0.909324
     34          8           0        1.993998   -3.045223    2.583443
     35          1           0       -1.680640   -0.399204    2.415429
     36          1           0       -0.339119   -2.508580    1.733147
     37          1           0        0.264913   -0.881251    1.463632
     38          1           0        0.422759   -4.347941   -0.032670
     39          1           0        1.783683   -3.999667   -1.094233
     40          1           0        0.520415   -2.562067   -2.505567
     41          1           0       -0.500245   -3.962953   -2.195073
     42          1           0       -5.504768    2.388657    2.205291
     43          1           0       -6.037789    2.316244    0.539082
     44          1           0       -6.551625    1.049291    1.683728
     45          1           0       -5.222269    0.091577   -1.988668
     46          1           0       -2.882941    0.846599    3.764327
     47          1           0        2.423794   -0.283129    1.148941
     48          1           0        3.962386   -0.011184   -1.498281
     49          1           0        4.701530    1.249094    1.201445
     50          1           0        3.892591    3.480129    0.123642
     51          1           0        0.601658    0.901033    0.098090
     52          1           0        1.305096    0.786860   -1.499594
     53          1           0        4.299897   -1.875865   -0.175795
     54          1           0        6.185389    0.892602   -0.513374
     55          1           0        1.557787    6.676671   -0.280019
     56          1           0        0.541018    5.794313   -1.436987
     57          1           0        0.170647    5.749266    0.325765
     58          1           0        3.932073   -3.650255    1.700185
 ---------------------------------------------------------------------
 Rotational constants (GHZ):      0.1456545      0.0889419      0.0678963
 Standard basis: 6-31G(d) (6D, 7F)
 There are   558 symmetry adapted basis functions of A   symmetry.
 Integral buffers will be    131072 words long.
 Raffenetti 2 integral format.
 Two-electron integral symmetry is turned on.
   558 basis functions,  1048 primitive gaussians,   558 cartesian basis functions
   125 alpha electrons      125 beta electrons
       nuclear repulsion energy      3773.6664116273 Hartrees.
 NAtoms=   58 NActive=   58 NUniq=   58 SFac= 1.00D+00 NAtFMM=   50 NAOKFM=T Big=T
 One-electron integrals computed using PRISM.
 NBasis=   558 RedAO= T  NBF=   558
 NBsUse=   558 1.00D-06 NBFU=   558
 Harris functional with IExCor=  402 diagonalized for initial guess.
 ExpMin= 1.61D-01 ExpMax= 5.48D+03 ExpMxC= 8.25D+02 IAcc=1 IRadAn=         1 AccDes= 0.00D+00
 HarFok:  IExCor=  402 AccDes= 0.00D+00 IRadAn=         1 IDoV= 1
 ScaDFX=  1.000000  1.000000  1.000000  1.000000
 FoFCou: FMM=F IPFlag=           0 FMFlag=      100000 FMFlg1=        2001
         NFxFlg=           0 DoJE=T BraDBF=F KetDBF=T FulRan=T
         Omega=  0.000000  0.000000  1.000000  0.000000  0.000000 ICntrl=     500 IOpCl=  0
         NMat0=    1 NMatS0=    1 NMatT0=    0 NMatD0=    1 NMtDS0=    0 NMtDT0=    0
         I1Cent=           4 NGrid=           0.
 Petite list used in FoFCou.
 Initial guess orbital symmetries:
       Occupied  (A) (A) (A) (A) (A) (A) (A) (A) (A) (A) (A) (A)
                 (A) (A) (A) (A) (A) (A) (A) (A) (A) (A) (A) (A)
                 (A) (A) (A) (A) (A) (A) (A) (A) (A) (A) (A) (A)
                 (A) (A) (A) (A) (A) (A) (A) (A) (A) (A) (A) (A)
                 (A) (A) (A) (A) (A) (A) (A) (A) (A) (A) (A) (A)
                 (A) (A) (A) (A) (A) (A) (A) (A) (A) (A) (A) (A)
                 (A) (A) (A) (A) (A) (A) (A) (A) (A) (A) (A) (A)
                 (A) (A) (A) (A) (A) (A) (A) (A) (A) (A) (A) (A)
                 (A) (A) (A) (A) (A) (A) (A) (A) (A) (A) (A) (A)
                 (A) (A) (A) (A) (A) (A) (A) (A) (A) (A) (A) (A)
                 (A) (A) (A) (A) (A)
       Virtual   (A) (A) (A) (A) (A) (A) (A) (A) (A) (A) (A) (A)
                 (A) (A) (A) (A) (A) (A) (A) (A) (A) (A) (A) (A)
                 (A) (A) (A) (A) (A) (A) (A) (A) (A) (A) (A) (A)
                 (A) (A) (A) (A) (A) (A) (A) (A) (A) (A) (A) (A)
                 (A) (A) (A) (A) (A) (A) (A) (A) (A) (A) (A) (A)
                 (A) (A) (A) (A) (A) (A) (A) (A) (A) (A) (A) (A)
                 (A) (A) (A) (A) (A) (A) (A) (A) (A) (A) (A) (A)
                 (A) (A) (A) (A) (A) (A) (A) (A) (A) (A) (A) (A)
                 (A) (A) (A) (A) (A) (A) (A) (A) (A) (A) (A) (A)
                 (A) (A) (A) (A) (A) (A) (A) (A) (A) (A) (A) (A)
                 (A) (A) (A) (A) (A) (A) (A) (A) (A) (A) (A) (A)
                 (A) (A) (A) (A) (A) (A) (A) (A) (A) (A) (A) (A)
                 (A) (A) (A) (A) (A) (A) (A) (A) (A) (A) (A) (A)
                 (A) (A) (A) (A) (A) (A) (A) (A) (A) (A) (A) (A)
                 (A) (A) (A) (A) (A) (A) (A) (A) (A) (A) (A) (A)
                 (A) (A) (A) (A) (A) (A) (A) (A) (A) (A) (A) (A)
                 (A) (A) (A) (A) (A) (A) (A) (A) (A) (A) (A) (A)
                 (A) (A) (A) (A) (A) (A) (A) (A) (A) (A) (A) (A)
                 (A) (A) (A) (A) (A) (A) (A) (A) (A) (A) (A) (A)
                 (A) (A) (A) (A) (A) (A) (A) (A) (A) (A) (A) (A)
                 (A) (A) (A) (A) (A) (A) (A) (A) (A) (A) (A) (A)
                 (A) (A) (A) (A) (A) (A) (A) (A) (A) (A) (A) (A)
                 (A) (A) (A) (A) (A) (A) (A) (A) (A) (A) (A) (A)
                 (A) (A) (A) (A) (A) (A) (A) (A) (A) (A) (A) (A)
                 (A) (A) (A) (A) (A) (A) (A) (A) (A) (A) (A) (A)
                 (A) (A) (A) (A) (A) (A) (A) (A) (A) (A) (A) (A)
                 (A) (A) (A) (A) (A) (A) (A) (A) (A) (A) (A) (A)
                 (A) (A) (A) (A) (A) (A) (A) (A) (A) (A) (A) (A)
                 (A) (A) (A) (A) (A) (A) (A) (A) (A) (A) (A) (A)
                 (A) (A) (A) (A) (A) (A) (A) (A) (A) (A) (A) (A)
                 (A) (A) (A) (A) (A) (A) (A) (A) (A) (A) (A) (A)
                 (A) (A) (A) (A) (A) (A) (A) (A) (A) (A) (A) (A)
                 (A) (A) (A) (A) (A) (A) (A) (A) (A) (A) (A) (A)
                 (A) (A) (A) (A) (A) (A) (A) (A) (A) (A) (A) (A)
                 (A) (A) (A) (A) (A) (A) (A) (A) (A) (A) (A) (A)
                 (A) (A) (A) (A) (A) (A) (A) (A) (A) (A) (A) (A)
                 (A)
 The electronic state of the initial guess is 1-A.
 Requested convergence on RMS density matrix=1.00D-08 within 128 cycles.
 Requested convergence on MAX density matrix=1.00D-06.
 Requested convergence on             energy=1.00D-06.
 No special actions if energy rises.
 Integral accuracy reduced to 1.0D-05 until final iterations.
 Initial convergence to 1.0D-05 achieved.  Increase integral accuracy.
 SCF Done:  E(RB3LYP) =  -1718.35952538     A.U. after   15 cycles
             Convg  =    0.4594D-08             -V/T =  2.0091

 **********************************************************************

            Population analysis using the SCF density.

 **********************************************************************

 Orbital symmetries:
       Occupied  (A) (A) (A) (A) (A) (A) (A) (A) (A) (A) (A) (A)
                 (A) (A) (A) (A) (A) (A) (A) (A) (A) (A) (A) (A)
                 (A) (A) (A) (A) (A) (A) (A) (A) (A) (A) (A) (A)
                 (A) (A) (A) (A) (A) (A) (A) (A) (A) (A) (A) (A)
                 (A) (A) (A) (A) (A) (A) (A) (A) (A) (A) (A) (A)
                 (A) (A) (A) (A) (A) (A) (A) (A) (A) (A) (A) (A)
                 (A) (A) (A) (A) (A) (A) (A) (A) (A) (A) (A) (A)
                 (A) (A) (A) (A) (A) (A) (A) (A) (A) (A) (A) (A)
                 (A) (A) (A) (A) (A) (A) (A) (A) (A) (A) (A) (A)
                 (A) (A) (A) (A) (A) (A) (A) (A) (A) (A) (A) (A)
                 (A) (A) (A) (A) (A)
       Virtual   (A) (A) (A) (A) (A) (A) (A) (A) (A) (A) (A) (A)
                 (A) (A) (A) (A) (A) (A) (A) (A) (A) (A) (A) (A)
                 (A) (A) (A) (A) (A) (A) (A) (A) (A) (A) (A) (A)
                 (A) (A) (A) (A) (A) (A) (A) (A) (A) (A) (A) (A)
                 (A) (A) (A) (A) (A) (A) (A) (A) (A) (A) (A) (A)
                 (A) (A) (A) (A) (A) (A) (A) (A) (A) (A) (A) (A)
                 (A) (A) (A) (A) (A) (A) (A) (A) (A) (A) (A) (A)
                 (A) (A) (A) (A) (A) (A) (A) (A) (A) (A) (A) (A)
                 (A) (A) (A) (A) (A) (A) (A) (A) (A) (A) (A) (A)
                 (A) (A) (A) (A) (A) (A) (A) (A) (A) (A) (A) (A)
                 (A) (A) (A) (A) (A) (A) (A) (A) (A) (A) (A) (A)
                 (A) (A) (A) (A) (A) (A) (A) (A) (A) (A) (A) (A)
                 (A) (A) (A) (A) (A) (A) (A) (A) (A) (A) (A) (A)
                 (A) (A) (A) (A) (A) (A) (A) (A) (A) (A) (A) (A)
                 (A) (A) (A) (A) (A) (A) (A) (A) (A) (A) (A) (A)
                 (A) (A) (A) (A) (A) (A) (A) (A) (A) (A) (A) (A)
                 (A) (A) (A) (A) (A) (A) (A) (A) (A) (A) (A) (A)
                 (A) (A) (A) (A) (A) (A) (A) (A) (A) (A) (A) (A)
                 (A) (A) (A) (A) (A) (A) (A) (A) (A) (A) (A) (A)
                 (A) (A) (A) (A) (A) (A) (A) (A) (A) (A) (A) (A)
                 (A) (A) (A) (A) (A) (A) (A) (A) (A) (A) (A) (A)
                 (A) (A) (A) (A) (A) (A) (A) (A) (A) (A) (A) (A)
                 (A) (A) (A) (A) (A) (A) (A) (A) (A) (A) (A) (A)
                 (A) (A) (A) (A) (A) (A) (A) (A) (A) (A) (A) (A)
                 (A) (A) (A) (A) (A) (A) (A) (A) (A) (A) (A) (A)
                 (A) (A) (A) (A) (A) (A) (A) (A) (A) (A) (A) (A)
                 (A) (A) (A) (A) (A) (A) (A) (A) (A) (A) (A) (A)
                 (A) (A) (A) (A) (A) (A) (A) (A) (A) (A) (A) (A)
                 (A) (A) (A) (A) (A) (A) (A) (A) (A) (A) (A) (A)
                 (A) (A) (A) (A) (A) (A) (A) (A) (A) (A) (A) (A)
                 (A) (A) (A) (A) (A) (A) (A) (A) (A) (A) (A) (A)
                 (A) (A) (A) (A) (A) (A) (A) (A) (A) (A) (A) (A)
                 (A) (A) (A) (A) (A) (A) (A) (A) (A) (A) (A) (A)
                 (A) (A) (A) (A) (A) (A) (A) (A) (A) (A) (A) (A)
                 (A) (A) (A) (A) (A) (A) (A) (A) (A) (A) (A) (A)
                 (A) (A) (A) (A) (A) (A) (A) (A) (A) (A) (A) (A)
                 (A)
 The electronic state is 1-A.
 Alpha  occ. eigenvalues --  -19.22999 -19.22202 -19.19900 -19.19040 -19.18524
 Alpha  occ. eigenvalues --  -19.17058 -19.15953 -19.14795 -19.14620 -19.14113
 Alpha  occ. eigenvalues --  -19.14005 -10.34916 -10.32820 -10.32031 -10.29194
 Alpha  occ. eigenvalues --  -10.27153 -10.26222 -10.25984 -10.25927 -10.24954
 Alpha  occ. eigenvalues --  -10.24466 -10.24317 -10.22103 -10.21965 -10.21913
 Alpha  occ. eigenvalues --  -10.21629 -10.21513 -10.21469 -10.20942 -10.20192
 Alpha  occ. eigenvalues --  -10.19918 -10.19384 -10.19341 -10.17205  -1.13892
 Alpha  occ. eigenvalues --   -1.11733  -1.10489  -1.07031  -1.06435  -1.04754
 Alpha  occ. eigenvalues --   -1.04043  -1.03072  -1.02164  -1.01758  -1.00887
 Alpha  occ. eigenvalues --   -0.87782  -0.86071  -0.84510  -0.80718  -0.78986
 Alpha  occ. eigenvalues --   -0.76889  -0.76167  -0.75079  -0.74592  -0.72065
 Alpha  occ. eigenvalues --   -0.69846  -0.69527  -0.66210  -0.64960  -0.64337
 Alpha  occ. eigenvalues --   -0.63982  -0.62904  -0.60945  -0.59146  -0.58655
 Alpha  occ. eigenvalues --   -0.56599  -0.55645  -0.54889  -0.54281  -0.53428
 Alpha  occ. eigenvalues --   -0.51953  -0.51654  -0.51143  -0.50875  -0.49577
 Alpha  occ. eigenvalues --   -0.48696  -0.48350  -0.48275  -0.47855  -0.47619
 Alpha  occ. eigenvalues --   -0.46743  -0.46312  -0.46094  -0.45335  -0.44731
 Alpha  occ. eigenvalues --   -0.44477  -0.43940  -0.43439  -0.43367  -0.42945
 Alpha  occ. eigenvalues --   -0.42685  -0.42410  -0.41625  -0.41035  -0.40429
 Alpha  occ. eigenvalues --   -0.40156  -0.39542  -0.39276  -0.39107  -0.38445
 Alpha  occ. eigenvalues --   -0.38195  -0.38024  -0.37364  -0.37023  -0.36719
 Alpha  occ. eigenvalues --   -0.36047  -0.35462  -0.35016  -0.34782  -0.34690
 Alpha  occ. eigenvalues --   -0.34175  -0.33938  -0.33129  -0.32950  -0.31269
 Alpha  occ. eigenvalues --   -0.30665  -0.28919  -0.28185  -0.27733  -0.27664
 Alpha  occ. eigenvalues --   -0.27124  -0.26201  -0.25820  -0.23080  -0.21455
 Alpha virt. eigenvalues --   -0.04835  -0.03848  -0.03250  -0.02522   0.03686
 Alpha virt. eigenvalues --    0.04390   0.05604   0.06305   0.06877   0.07656
 Alpha virt. eigenvalues --    0.08053   0.09650   0.09812   0.10400   0.10791
 Alpha virt. eigenvalues --    0.11493   0.11701   0.11894   0.12992   0.13228
 Alpha virt. eigenvalues --    0.13437   0.14324   0.14953   0.15206   0.15604
 Alpha virt. eigenvalues --    0.15729   0.16524   0.16668   0.16884   0.17189
 Alpha virt. eigenvalues --    0.17461   0.17607   0.17789   0.18284   0.18693
 Alpha virt. eigenvalues --    0.19343   0.20067   0.20487   0.20994   0.21534
 Alpha virt. eigenvalues --    0.22305   0.22659   0.23361   0.23857   0.24074
 Alpha virt. eigenvalues --    0.25394   0.25679   0.26188   0.26721   0.27457
 Alpha virt. eigenvalues --    0.28434   0.29183   0.30149   0.30659   0.31929
 Alpha virt. eigenvalues --    0.32721   0.33139   0.33934   0.36616   0.37364
 Alpha virt. eigenvalues --    0.39090   0.40566   0.40906   0.41303   0.42971
 Alpha virt. eigenvalues --    0.43244   0.45751   0.47379   0.48423   0.49703
 Alpha virt. eigenvalues --    0.50391   0.50489   0.50948   0.51404   0.52131
 Alpha virt. eigenvalues --    0.52275   0.52811   0.53318   0.53872   0.54107
 Alpha virt. eigenvalues --    0.54918   0.55651   0.56239   0.56382   0.56797
 Alpha virt. eigenvalues --    0.57459   0.57565   0.58016   0.58533   0.59156
 Alpha virt. eigenvalues --    0.59341   0.59696   0.60028   0.60735   0.61668
 Alpha virt. eigenvalues --    0.61869   0.62480   0.63394   0.63803   0.64217
 Alpha virt. eigenvalues --    0.64913   0.65228   0.65499   0.65774   0.66203
 Alpha virt. eigenvalues --    0.67470   0.68520   0.68950   0.69328   0.70240
 Alpha virt. eigenvalues --    0.70768   0.71814   0.71938   0.72322   0.72887
 Alpha virt. eigenvalues --    0.73821   0.74401   0.74685   0.75336   0.75568
 Alpha virt. eigenvalues --    0.75660   0.76444   0.77449   0.78072   0.78948
 Alpha virt. eigenvalues --    0.79551   0.80526   0.81218   0.81767   0.82025
 Alpha virt. eigenvalues --    0.82975   0.83385   0.83647   0.84013   0.84457
 Alpha virt. eigenvalues --    0.85076   0.85772   0.86122   0.86888   0.87399
 Alpha virt. eigenvalues --    0.88000   0.88112   0.88516   0.89019   0.89991
 Alpha virt. eigenvalues --    0.90385   0.91074   0.91417   0.91970   0.92563
 Alpha virt. eigenvalues --    0.92925   0.93628   0.93798   0.94595   0.95224
 Alpha virt. eigenvalues --    0.95247   0.95486   0.96265   0.96729   0.97690
 Alpha virt. eigenvalues --    0.97884   0.98346   0.99095   0.99538   0.99921
 Alpha virt. eigenvalues --    1.00872   1.01613   1.02360   1.02644   1.03713
 Alpha virt. eigenvalues --    1.04263   1.05318   1.05682   1.06101   1.06652
 Alpha virt. eigenvalues --    1.07674   1.08290   1.09595   1.10507   1.11178
 Alpha virt. eigenvalues --    1.11794   1.12202   1.12738   1.14021   1.15641
 Alpha virt. eigenvalues --    1.16251   1.16737   1.18161   1.20295   1.20404
 Alpha virt. eigenvalues --    1.21647   1.22043   1.23376   1.24004   1.24307
 Alpha virt. eigenvalues --    1.24952   1.25853   1.26193   1.27166   1.29216
 Alpha virt. eigenvalues --    1.30721   1.31537   1.32130   1.33147   1.33678
 Alpha virt. eigenvalues --    1.34874   1.35262   1.35499   1.36382   1.37297
 Alpha virt. eigenvalues --    1.37928   1.38737   1.39574   1.40140   1.40565
 Alpha virt. eigenvalues --    1.41560   1.42438   1.43154   1.43282   1.43849
 Alpha virt. eigenvalues --    1.44861   1.45766   1.48126   1.48903   1.50439
 Alpha virt. eigenvalues --    1.50514   1.51178   1.53606   1.55660   1.56661
 Alpha virt. eigenvalues --    1.59584   1.61060   1.61903   1.62916   1.64138
 Alpha virt. eigenvalues --    1.65592   1.66040   1.67500   1.68279   1.69251
 Alpha virt. eigenvalues --    1.69760   1.70511   1.71041   1.71423   1.71650
 Alpha virt. eigenvalues --    1.72164   1.72839   1.73315   1.73712   1.74175
 Alpha virt. eigenvalues --    1.75126   1.75597   1.76016   1.76743   1.77167
 Alpha virt. eigenvalues --    1.78306   1.79026   1.79732   1.79964   1.80647
 Alpha virt. eigenvalues --    1.81695   1.81849   1.82180   1.83022   1.83557
 Alpha virt. eigenvalues --    1.84009   1.85067   1.85331   1.85552   1.86213
 Alpha virt. eigenvalues --    1.87216   1.87631   1.87964   1.88163   1.88875
 Alpha virt. eigenvalues --    1.89328   1.90249   1.90666   1.91435   1.92542
 Alpha virt. eigenvalues --    1.93024   1.93498   1.93677   1.95011   1.95841
 Alpha virt. eigenvalues --    1.96058   1.97049   1.98130   1.98530   1.99026
 Alpha virt. eigenvalues --    2.01196   2.01514   2.01881   2.02768   2.03241
 Alpha virt. eigenvalues --    2.03582   2.04617   2.05255   2.05882   2.06831
 Alpha virt. eigenvalues --    2.07770   2.08757   2.09651   2.09757   2.10802
 Alpha virt. eigenvalues --    2.11453   2.12074   2.14330   2.15853   2.16177
 Alpha virt. eigenvalues --    2.18944   2.19709   2.21314   2.22371   2.24044
 Alpha virt. eigenvalues --    2.24069   2.24713   2.26314   2.26414   2.27211
 Alpha virt. eigenvalues --    2.28286   2.29339   2.29538   2.30015   2.30634
 Alpha virt. eigenvalues --    2.31662   2.32423   2.33478   2.33753   2.34345
 Alpha virt. eigenvalues --    2.35291   2.35400   2.36583   2.37601   2.38171
 Alpha virt. eigenvalues --    2.39552   2.40010   2.41515   2.42393   2.43154
 Alpha virt. eigenvalues --    2.43435   2.43827   2.45366   2.45918   2.47693
 Alpha virt. eigenvalues --    2.48390   2.50142   2.51943   2.52662   2.53367
 Alpha virt. eigenvalues --    2.53715   2.54407   2.55794   2.56342   2.57935
 Alpha virt. eigenvalues --    2.58807   2.59663   2.61755   2.63698   2.65045
 Alpha virt. eigenvalues --    2.66151   2.66338   2.67555   2.68173   2.69789
 Alpha virt. eigenvalues --    2.70519   2.71133   2.71409   2.72379   2.74439
 Alpha virt. eigenvalues --    2.76057   2.76883   2.78127   2.79571   2.81711
 Alpha virt. eigenvalues --    2.84478   2.84748   2.85892   2.87983   2.89364
 Alpha virt. eigenvalues --    2.91532   2.93558   2.94321   2.95707   2.96987
 Alpha virt. eigenvalues --    2.98518   3.00569   3.02321   3.03638   3.06139
 Alpha virt. eigenvalues --    3.07590   3.10239   3.12166   3.13646   3.16467
 Alpha virt. eigenvalues --    3.21892   3.22757   3.41513   3.49930   3.76561
 Alpha virt. eigenvalues --    3.89122   3.94751   3.95935   3.96794   3.99522
 Alpha virt. eigenvalues --    4.05923   4.07073   4.08599   4.14225   4.16580
 Alpha virt. eigenvalues --    4.18295   4.19167   4.22419   4.22768   4.24045
 Alpha virt. eigenvalues --    4.25080   4.30769   4.32976   4.34542   4.37163
 Alpha virt. eigenvalues --    4.40562   4.44272   4.48178   4.52379   4.52869
 Alpha virt. eigenvalues --    4.54093   4.54837   4.58033   4.64023   4.71344
 Alpha virt. eigenvalues --    4.74053   4.79231   4.87955
          Condensed to atoms (all electrons):
 Mulliken atomic charges:
              1
     1  C    0.095656
     2  C    0.334727
     3  C   -0.309577
     4  C    0.125050
     5  C   -0.061549
     6  C    0.234932
     7  C    0.069670
     8  C    0.278879
     9  O   -0.514833
    10  C    0.636528
    11  C   -0.357599
    12  C    0.230507
    13  C   -0.309037
    14  C   -0.341286
    15  C   -0.510384
    16  O   -0.665107
    17  O   -0.645116
    18  O   -0.533868
    19  O   -0.538431
    20  C    0.091113
    21  C    0.099355
    22  C    0.106676
    23  C   -0.147146
    24  C    0.046701
    25  C   -0.350058
    26  O   -0.687397
    27  O   -0.641013
    28  C    0.610849
    29  O   -0.460218
    30  O   -0.485725
    31  C   -0.221204
    32  C    0.599629
    33  O   -0.580545
    34  O   -0.468849
    35  H    0.116655
    36  H    0.186311
    37  H    0.166434
    38  H    0.164104
    39  H    0.171407
    40  H    0.187803
    41  H    0.174298
    42  H    0.167048
    43  H    0.175810
    44  H    0.167758
    45  H    0.449120
    46  H    0.414047
    47  H    0.144508
    48  H    0.142992
    49  H    0.144169
    50  H    0.176871
    51  H    0.175287
    52  H    0.179519
    53  H    0.425940
    54  H    0.405285
    55  H    0.165334
    56  H    0.173100
    57  H    0.170328
    58  H    0.424543
 Sum of Mulliken atomic charges =   0.00000
 Mulliken charges with hydrogens summed into heavy atoms:
              1
     1  C    0.095656
     2  C    0.334727
     3  C   -0.192923
     4  C    0.125050
     5  C   -0.061549
     6  C    0.234932
     7  C    0.069670
     8  C    0.278879
     9  O   -0.514833
    10  C    0.636528
    11  C   -0.004854
    12  C    0.230507
    13  C    0.026474
    14  C    0.020816
    15  C    0.000231
    16  O   -0.215987
    17  O   -0.231069
    18  O   -0.533868
    19  O   -0.538431
    20  C    0.235621
    21  C    0.242347
    22  C    0.250845
    23  C    0.029725
    24  C    0.046701
    25  C    0.004748
    26  O   -0.261458
    27  O   -0.235728
    28  C    0.610849
    29  O   -0.460218
    30  O   -0.485725
    31  C    0.287559
    32  C    0.599629
    33  O   -0.156003
    34  O   -0.468849
 Sum of Mulliken charges with hydrogens summed into heavy atoms =   0.00000
 Electronic spatial extent (au):  <R**2>=          16266.5532
 Charge=              0.0000 electrons
 Dipole moment (field-independent basis, Debye):
    X=              4.2160    Y=             -1.9587    Z=              3.4008  Tot=              5.7599
 Quadrupole moment (field-independent basis, Debye-Ang):
   XX=           -218.0451   YY=           -170.6482   ZZ=           -197.5088
   XY=             -8.6995   XZ=             -7.2231   YZ=              2.7355
 Traceless Quadrupole moment (field-independent basis, Debye-Ang):
   XX=            -22.6444   YY=             24.7525   ZZ=             -2.1081
   XY=             -8.6995   XZ=             -7.2231   YZ=              2.7355
 Octapole moment (field-independent basis, Debye-Ang**2):
  XXX=            113.8440  YYY=             55.1122  ZZZ=             29.7072  XYY=             47.5129
  XXY=            -62.9399  XXZ=             55.3729  XZZ=             37.4733  YZZ=             22.7467
  YYZ=            -10.0450  XYZ=             14.0672
 Hexadecapole moment (field-independent basis, Debye-Ang**3):
 XXXX=         -12278.5288 YYYY=          -5493.9116 ZZZZ=          -2168.0231 XXXY=           -408.4468
 XXXZ=             79.3254 YYYX=           -122.3870 YYYZ=            -51.7523 ZZZX=            -99.3225
 ZZZY=              4.0756 XXYY=          -3047.5440 XXZZ=          -2439.1824 YYZZ=          -1488.5427
 XXYZ=            -69.6849 YYXZ=             67.7970 ZZXY=            -60.5780
 N-N= 3.773666411627D+03 E-N=-1.156084561259D+04  KE= 1.702837776912D+03
 Calling FoFJK, ICntrl=      2127 FMM=T ISym2X=0 I1Cent= 0 IOpClX= 0 NMat=1 NMatS=1 NMatT=0.
 ***** Axes restored to original set *****
 -------------------------------------------------------------------
 Center     Atomic                   Forces (Hartrees/Bohr)
 Number     Number              X              Y              Z
 -------------------------------------------------------------------
      1        6           0.007565330   -0.002250149    0.000606687
      2        6          -0.007642540    0.007603584    0.000261628
      3        6          -0.008031980   -0.001377823   -0.000693668
      4        6           0.000333506    0.021305228    0.005155280
      5        6          -0.021808822   -0.014546149   -0.008204567
      6        6           0.011021889   -0.022256619   -0.003634535
      7        6           0.011899947   -0.009739522    0.005159415
      8        6          -0.000403125   -0.008435979   -0.005436351
      9        8          -0.010872841    0.008120993   -0.000048145
     10        6           0.034710419    0.015151800    0.011369637
     11        6           0.000170553   -0.000454760   -0.002993011
     12        6           0.004946349   -0.003364218   -0.007314021
     13        6          -0.005083755   -0.004523994   -0.001110106
     14        6           0.001669465   -0.010483877    0.000751356
     15        6           0.001693125   -0.001746685    0.007154404
     16        8           0.003625868    0.022726701    0.006971118
     17        8           0.003776445   -0.006016131   -0.000351525
     18        8          -0.024137414   -0.003440804   -0.006193545
     19        8           0.001337963    0.010387742   -0.011635187
     20        6          -0.004502826   -0.013101140    0.013119121
     21        6           0.000204195    0.014276728   -0.013703758
     22        6          -0.013835284   -0.002321115   -0.001168399
     23        6           0.004552876   -0.006727062   -0.001129938
     24        6          -0.003035900    0.007857418    0.002354944
     25        6           0.004243794    0.000894636   -0.006265880
     26        8           0.003960396   -0.002288185    0.002526091
     27        8          -0.006877543   -0.000227824    0.002337033
     28        6          -0.003519839    0.003792683   -0.008250181
     29        8           0.004357400   -0.005085977   -0.003767764
     30        8          -0.003989821    0.004825149    0.013598211
     31        6           0.006409973   -0.003620132    0.007808963
     32        6           0.010020166    0.017351203    0.006790318
     33        8          -0.003301182    0.000945593   -0.005088571
     34        8          -0.003274808   -0.015394640   -0.000537969
     35        1          -0.001003207    0.000837952    0.000170794
     36        1          -0.004058190    0.004214602    0.004120796
     37        1           0.001365601    0.000571653   -0.000896400
     38        1           0.002321368    0.001660697    0.003083001
     39        1           0.002290743    0.002321683    0.001964647
     40        1          -0.000902299   -0.000688872   -0.000598985
     41        1           0.000697679   -0.002228226    0.000481252
     42        1          -0.001769965    0.003036708   -0.003371302
     43        1          -0.001423187   -0.000953757   -0.004975115
     44        1           0.003438482   -0.001997123   -0.000126487
     45        1          -0.006599176    0.005051171    0.000052614
     46        1          -0.001459089   -0.002114071   -0.000598590
     47        1          -0.000589588    0.000518802    0.000401280
     48        1           0.008769352   -0.006216497    0.005955214
     49        1           0.004290034    0.004120580   -0.007914214
     50        1          -0.000326225   -0.001432401   -0.001434699
     51        1           0.001175485   -0.003991639    0.001917299
     52        1          -0.000907945    0.001479747   -0.002480801
     53        1          -0.000161112    0.003091621    0.007973361
     54        1           0.002992600   -0.001066324    0.002814417
     55        1          -0.004483809    0.003238999   -0.001660128
     56        1           0.002442070    0.000956795   -0.002819689
     57        1          -0.000655478   -0.003191576   -0.002077258
     58        1          -0.001626125   -0.005057199    0.001581911
 -------------------------------------------------------------------
 Cartesian Forces:  Max     0.034710419 RMS     0.007277758

 GradGradGradGradGradGradGradGradGradGradGradGradGradGradGradGradGradGrad
 Berny optimization.
 Internal  Forces:  Max     0.029015877 RMS     0.004456116
 Search for a local minimum.
 Step number   1 out of a maximum of  340
 All quantities printed in internal units (Hartrees-Bohrs-Radians)
 Mixed Optimization -- RFO/linear search
 Second derivative matrix not updated -- first step.
 ITU=  0
     Eigenvalues ---    0.00230   0.00487   0.00498   0.00557   0.00574
     Eigenvalues ---    0.00696   0.00713   0.00879   0.01161   0.01163
     Eigenvalues ---    0.01189   0.01193   0.01212   0.01279   0.01307
     Eigenvalues ---    0.01322   0.01354   0.01363   0.01372   0.01417
     Eigenvalues ---    0.01529   0.01638   0.01714   0.01757   0.01793
     Eigenvalues ---    0.01902   0.02007   0.02025   0.02040   0.02071
     Eigenvalues ---    0.02110   0.02121   0.02126   0.02287   0.02321
     Eigenvalues ---    0.02794   0.03042   0.03455   0.03605   0.04008
     Eigenvalues ---    0.04335   0.04751   0.04881   0.04947   0.04974
     Eigenvalues ---    0.05186   0.05421   0.05739   0.05775   0.05861
     Eigenvalues ---    0.06269   0.06615   0.07136   0.07180   0.07249
     Eigenvalues ---    0.07723   0.08074   0.08099   0.08139   0.08152
     Eigenvalues ---    0.09511   0.09635   0.09666   0.09865   0.10089
     Eigenvalues ---    0.10110   0.10499   0.11838   0.12000   0.14281
     Eigenvalues ---    0.14710   0.15999   0.16000   0.16000   0.16000
     Eigenvalues ---    0.16000   0.16000   0.16000   0.16000   0.16000
     Eigenvalues ---    0.16000   0.16000   0.16000   0.16589   0.16718
     Eigenvalues ---    0.17122   0.18777   0.19333   0.19829   0.22984
     Eigenvalues ---    0.23527   0.24352   0.24960   0.24976   0.24985
     Eigenvalues ---    0.24989   0.24996   0.24997   0.24997   0.24999
     Eigenvalues ---    0.24999   0.24999   0.24999   0.25000   0.25000
     Eigenvalues ---    0.25000   0.25000   0.26860   0.27407   0.27653
     Eigenvalues ---    0.27700   0.27997   0.28465   0.28590   0.30476
     Eigenvalues ---    0.31037   0.31436   0.31962   0.32372   0.32666
     Eigenvalues ---    0.33292   0.33812   0.33857   0.33869   0.33943
     Eigenvalues ---    0.33957   0.34004   0.34015   0.34062   0.34063
     Eigenvalues ---    0.34212   0.34231   0.34276   0.34291   0.34294
     Eigenvalues ---    0.34307   0.34344   0.34411   0.34519   0.35088
     Eigenvalues ---    0.35376   0.38437   0.39565   0.39858   0.39902
     Eigenvalues ---    0.40803   0.41286   0.41634   0.43295   0.44408
     Eigenvalues ---    0.45127   0.45385   0.45981   0.49779   0.50307
     Eigenvalues ---    0.50668   0.50920   0.51268   0.51450   0.52087
     Eigenvalues ---    0.52633   0.53292   0.53624   0.53974   0.54513
     Eigenvalues ---    0.91635   0.94334   0.95262
 RFO step:  Lambda=-2.58868075D-02 EMin= 2.30000000D-03
 Linear search not attempted -- first point.
 Iteration  1 RMS(Cart)=  0.09448310 RMS(Int)=  0.00182531
 Iteration  2 RMS(Cart)=  0.00378487 RMS(Int)=  0.00040370
 Iteration  3 RMS(Cart)=  0.00000678 RMS(Int)=  0.00040367
 Iteration  4 RMS(Cart)=  0.00000001 RMS(Int)=  0.00040367
 Variable       Old X    -DE/DX   Delta X   Delta X   Delta X     New X
                                 (Linear)    (Quad)   (Total)
    R1        2.63872   0.00491   0.00000   0.00928   0.00957   2.64829
    R2        2.64889  -0.00105   0.00000  -0.00215  -0.00223   2.64666
    R3        2.84213   0.00214   0.00000   0.00620   0.00620   2.84833
    R4        2.64176   0.00421   0.00000   0.00789   0.00825   2.65001
    R5        2.58430  -0.00433   0.00000  -0.00801  -0.00801   2.57630
    R6        2.65385  -0.00617   0.00000  -0.01302  -0.01295   2.64091
    R7        2.05069   0.00109   0.00000   0.00287   0.00287   2.05356
    R8        2.65082   0.00810   0.00000   0.01929   0.01868   2.66950
    R9        2.78629  -0.01044   0.00000  -0.02654  -0.02648   2.75981
   R10        2.66535   0.00413   0.00000   0.01104   0.00968   2.67503
   R11        2.79697  -0.01030   0.00000  -0.02565  -0.02681   2.77017
   R12        2.59836  -0.02902   0.00000  -0.05477  -0.05500   2.54336
   R13        2.53766   0.00377   0.00000   0.00708   0.00745   2.54512
   R14        2.86186  -0.00131   0.00000  -0.00358  -0.00358   2.85828
   R15        2.65917  -0.02074   0.00000  -0.04564  -0.04533   2.61385
   R16        2.84059  -0.00585   0.00000  -0.01496  -0.01495   2.82563
   R17        2.57092  -0.00164   0.00000  -0.00374  -0.00377   2.56715
   R18        2.32093  -0.00182   0.00000  -0.00211  -0.00200   2.31892
   R19        2.93310  -0.00544   0.00000  -0.02134  -0.02132   2.91178
   R20        2.07649  -0.00171   0.00000  -0.00470  -0.00470   2.07179
   R21        2.06754  -0.00001   0.00000  -0.00002  -0.00002   2.06752
   R22        2.90961   0.00008   0.00000   0.00006   0.00002   2.90962
   R23        2.72148  -0.00625   0.00000  -0.01483  -0.01483   2.70665
   R24        2.91132  -0.00273   0.00000  -0.00880  -0.00880   2.90252
   R25        2.89184   0.00322   0.00000   0.00881   0.00883   2.90067
   R26        2.07571  -0.00128   0.00000  -0.00352  -0.00352   2.07219
   R27        2.07402  -0.00210   0.00000  -0.00574  -0.00574   2.06828
   R28        2.07304   0.00042   0.00000   0.00114   0.00114   2.07419
   R29        2.07226   0.00028   0.00000   0.00075   0.00075   2.07301
   R30        2.06867  -0.00111   0.00000  -0.00300  -0.00300   2.06567
   R31        2.06942  -0.00116   0.00000  -0.00314  -0.00314   2.06628
   R32        2.06815   0.00162   0.00000   0.00440   0.00440   2.07255
   R33        1.85760   0.00486   0.00000   0.00813   0.00908   1.86668
   R34        1.83382  -0.00127   0.00000  -0.00228  -0.00228   1.83154
   R35        3.23275   0.00349   0.00000   0.02887   0.02993   3.26268
   R36        2.71687   0.00604   0.00000   0.01420   0.01420   2.73108
   R37        2.90660  -0.00187   0.00000  -0.00391  -0.00398   2.90262
   R38        2.90936  -0.00009   0.00000  -0.00065  -0.00062   2.90874
   R39        2.07324   0.00015   0.00000   0.00040   0.00040   2.07364
   R40        2.90696  -0.00798   0.00000  -0.02489  -0.02488   2.88208
   R41        2.71747  -0.00569   0.00000  -0.01340  -0.01340   2.70407
   R42        2.07427   0.00074   0.00000   0.00201   0.00201   2.07628
   R43        2.82303   0.00296   0.00000   0.00820   0.00819   2.83123
   R44        2.69392   0.00637   0.00000   0.01440   0.01440   2.70831
   R45        2.07224   0.00492   0.00000   0.01344   0.01344   2.08568
   R46        2.54387  -0.00519   0.00000  -0.00951  -0.00950   2.53437
   R47        2.05533  -0.00158   0.00000  -0.00419  -0.00419   2.05113
   R48        2.84774   0.00360   0.00000   0.00941   0.00943   2.85717
   R49        2.81841   0.00101   0.00000   0.00282   0.00282   2.82123
   R50        2.06974  -0.00010   0.00000  -0.00027  -0.00027   2.06947
   R51        2.07551  -0.00052   0.00000  -0.00143  -0.00143   2.07408
   R52        1.85307  -0.00838   0.00000  -0.01557  -0.01557   1.83750
   R53        1.84516  -0.00406   0.00000  -0.00742  -0.00742   1.83774
   R54        2.56055  -0.00272   0.00000  -0.00480  -0.00480   2.55575
   R55        2.30997  -0.01288   0.00000  -0.01329  -0.01329   2.29668
   R56        2.69843   0.00467   0.00000   0.01064   0.01064   2.70906
   R57        2.06642  -0.00106   0.00000  -0.00286  -0.00286   2.06356
   R58        2.06843  -0.00087   0.00000  -0.00236  -0.00236   2.06606
   R59        2.06837  -0.00073   0.00000  -0.00197  -0.00197   2.06640
   R60        2.55568   0.00365   0.00000   0.00640   0.00640   2.56207
   R61        2.30598  -0.01396   0.00000  -0.01427  -0.01427   2.29172
   R62        1.85648  -0.00487   0.00000  -0.00911  -0.00911   1.84737
    A1        2.05879  -0.00377   0.00000  -0.01250  -0.01292   2.04587
    A2        2.11515   0.00314   0.00000   0.01106   0.01124   2.12639
    A3        2.10802   0.00066   0.00000   0.00205   0.00222   2.11024
    A4        2.11939   0.00433   0.00000   0.01530   0.01532   2.13471
    A5        2.07351  -0.00950   0.00000  -0.03420  -0.03422   2.03929
    A6        2.09026   0.00516   0.00000   0.01894   0.01892   2.10918
    A7        2.10837  -0.00345   0.00000  -0.01305  -0.01323   2.09514
    A8        2.06916   0.00247   0.00000   0.01051   0.01060   2.07976
    A9        2.10557   0.00099   0.00000   0.00253   0.00262   2.10819
   A10        2.06338   0.00387   0.00000   0.01444   0.01403   2.07741
   A11        2.13274   0.00451   0.00000   0.01122   0.01205   2.14479
   A12        2.08696  -0.00838   0.00000  -0.02562  -0.02604   2.06092
   A13        2.10336  -0.00372   0.00000  -0.01481  -0.01399   2.08937
   A14        2.09011   0.00208   0.00000   0.00800   0.00884   2.09895
   A15        2.08954   0.00164   0.00000   0.00687   0.00520   2.09474
   A16        2.11239   0.00275   0.00000   0.01094   0.01106   2.12346
   A17        2.03734   0.00322   0.00000   0.00701   0.00869   2.04603
   A18        2.13341  -0.00597   0.00000  -0.01791  -0.01972   2.11369
   A19        2.05695   0.00401   0.00000   0.01586   0.01579   2.07275
   A20        2.11060  -0.00177   0.00000  -0.00883  -0.00876   2.10184
   A21        2.11563  -0.00225   0.00000  -0.00703  -0.00704   2.10858
   A22        2.14802   0.00138   0.00000   0.00147   0.00163   2.14965
   A23        2.16002   0.00710   0.00000   0.03064   0.03052   2.19054
   A24        1.97512  -0.00847   0.00000  -0.03208  -0.03214   1.94299
   A25        2.13284  -0.00037   0.00000  -0.00401  -0.00441   2.12843
   A26        2.04921   0.00131   0.00000   0.00490   0.00474   2.05395
   A27        2.10462   0.02446   0.00000   0.09127   0.09012   2.19474
   A28        2.12918  -0.02577   0.00000  -0.09605  -0.09477   2.03442
   A29        1.99541  -0.00245   0.00000  -0.01423  -0.01423   1.98118
   A30        1.86878   0.00555   0.00000   0.04564   0.04563   1.91440
   A31        1.92132  -0.00010   0.00000  -0.00133  -0.00134   1.91998
   A32        1.91668  -0.00393   0.00000  -0.02676  -0.02662   1.89006
   A33        1.89867   0.00227   0.00000   0.00991   0.00993   1.90860
   A34        1.85805  -0.00135   0.00000  -0.01348  -0.01366   1.84440
   A35        1.88723   0.00365   0.00000   0.02110   0.02101   1.90825
   A36        1.98327   0.00080   0.00000  -0.00270  -0.00257   1.98069
   A37        1.91339  -0.00361   0.00000  -0.01140  -0.01154   1.90185
   A38        1.84716  -0.00364   0.00000  -0.01899  -0.01892   1.82824
   A39        1.87878   0.00141   0.00000   0.00933   0.00939   1.88817
   A40        1.94904   0.00161   0.00000   0.00415   0.00413   1.95316
   A41        1.94090   0.00097   0.00000   0.00208   0.00219   1.94308
   A42        1.92193  -0.00352   0.00000  -0.02549  -0.02560   1.89633
   A43        1.93477  -0.00108   0.00000  -0.01426  -0.01427   1.92051
   A44        1.91589   0.00222   0.00000   0.01216   0.01208   1.92797
   A45        1.88766   0.00042   0.00000   0.01593   0.01585   1.90351
   A46        1.86070   0.00109   0.00000   0.01084   0.01041   1.87112
   A47        1.97734  -0.00665   0.00000  -0.02894  -0.02888   1.94846
   A48        1.89377   0.00190   0.00000   0.01174   0.01175   1.90552
   A49        1.91390   0.00129   0.00000  -0.00347  -0.00330   1.91060
   A50        1.91631   0.00218   0.00000   0.01023   0.01030   1.92662
   A51        1.89547   0.00320   0.00000   0.01766   0.01745   1.91292
   A52        1.86371  -0.00167   0.00000  -0.00614  -0.00626   1.85745
   A53        1.95132  -0.00349   0.00000  -0.01573  -0.01567   1.93566
   A54        1.93998  -0.00174   0.00000  -0.00792  -0.00787   1.93211
   A55        1.91813   0.00470   0.00000   0.02076   0.02084   1.93896
   A56        1.85316   0.00499   0.00000   0.03538   0.03541   1.88857
   A57        1.89608  -0.00141   0.00000  -0.01019  -0.01011   1.88597
   A58        1.90332  -0.00315   0.00000  -0.02279  -0.02273   1.88059
   A59        1.90709  -0.01886   0.00000  -0.09758  -0.09846   1.80863
   A60        1.91733  -0.00423   0.00000  -0.02274  -0.02274   1.89459
   A61        2.05757   0.00992   0.00000   0.03594   0.03594   2.09351
   A62        1.87730   0.00232   0.00000   0.01557   0.01559   1.89289
   A63        1.90156  -0.00096   0.00000  -0.00028  -0.00051   1.90105
   A64        1.93201  -0.00047   0.00000  -0.00882  -0.00883   1.92319
   A65        1.91378   0.00134   0.00000   0.01105   0.01088   1.92466
   A66        1.89956  -0.00166   0.00000  -0.00840  -0.00835   1.89120
   A67        1.93860  -0.00046   0.00000  -0.00812  -0.00804   1.93055
   A68        1.93256   0.00426   0.00000   0.01822   0.01846   1.95102
   A69        1.92970   0.00689   0.00000   0.04469   0.04488   1.97459
   A70        1.93067  -0.00446   0.00000  -0.02841  -0.02942   1.90125
   A71        1.88819  -0.01039   0.00000  -0.05454  -0.05470   1.83349
   A72        1.93449  -0.00191   0.00000  -0.03822  -0.03799   1.89650
   A73        1.84602   0.00555   0.00000   0.05951   0.05867   1.90469
   A74        1.98019  -0.00275   0.00000  -0.01147  -0.01174   1.96845
   A75        1.90495   0.00460   0.00000   0.02306   0.02318   1.92814
   A76        1.92644  -0.00440   0.00000  -0.04014  -0.04038   1.88606
   A77        1.88527  -0.00168   0.00000  -0.00289  -0.00278   1.88249
   A78        1.90178   0.00258   0.00000   0.00425   0.00350   1.90527
   A79        1.86103   0.00200   0.00000   0.03079   0.03107   1.89209
   A80        2.14782   0.00122   0.00000   0.00699   0.00695   2.15477
   A81        2.01865   0.00014   0.00000   0.00055   0.00056   2.01922
   A82        2.11671  -0.00136   0.00000  -0.00753  -0.00751   2.10920
   A83        2.13287   0.00239   0.00000   0.00911   0.00909   2.14196
   A84        2.14262  -0.00273   0.00000  -0.01010  -0.01011   2.13251
   A85        2.00766   0.00034   0.00000   0.00107   0.00106   2.00872
   A86        1.99674  -0.00471   0.00000  -0.01760  -0.01757   1.97917
   A87        1.89107   0.00459   0.00000   0.03400   0.03406   1.92513
   A88        1.91177  -0.00095   0.00000  -0.01686  -0.01679   1.89498
   A89        1.91290  -0.00038   0.00000  -0.00622  -0.00608   1.90682
   A90        1.89909   0.00325   0.00000   0.01693   0.01668   1.91576
   A91        1.84634  -0.00161   0.00000  -0.00996  -0.00980   1.83654
   A92        1.84909   0.00304   0.00000   0.01637   0.01637   1.86546
[...]
     50          1           0        4.092274    3.299103    0.090811
     51          1           0        0.599312    0.969361    0.005428
     52          1           0        1.375933    0.756932   -1.540669
     53          1           0        4.226262   -2.036761   -0.229514
     54          1           0        6.266686    0.554910   -0.202816
     55          1           0        2.053068    6.631773   -0.404272
     56          1           0        0.948788    5.828086   -1.569621
     57          1           0        0.537619    5.851368    0.160747
     58          1           0        3.749037   -3.870012    1.615047
 ---------------------------------------------------------------------
 Rotational constants (GHZ):      0.1460345      0.0877108      0.0672129

 **********************************************************************

            Population analysis using the SCF density.

 **********************************************************************

 Orbital symmetries:
       Occupied  (A) (A) (A) (A) (A) (A) (A) (A) (A) (A) (A) (A)
                 (A) (A) (A) (A) (A) (A) (A) (A) (A) (A) (A) (A)
                 (A) (A) (A) (A) (A) (A) (A) (A) (A) (A) (A) (A)
                 (A) (A) (A) (A) (A) (A) (A) (A) (A) (A) (A) (A)
                 (A) (A) (A) (A) (A) (A) (A) (A) (A) (A) (A) (A)
                 (A) (A) (A) (A) (A) (A) (A) (A) (A) (A) (A) (A)
                 (A) (A) (A) (A) (A) (A) (A) (A) (A) (A) (A) (A)
                 (A) (A) (A) (A) (A) (A) (A) (A) (A) (A) (A) (A)
                 (A) (A) (A) (A) (A) (A) (A) (A) (A) (A) (A) (A)
                 (A) (A) (A) (A) (A) (A) (A) (A) (A) (A) (A) (A)
                 (A) (A) (A) (A) (A)
       Virtual   (A) (A) (A) (A) (A) (A) (A) (A) (A) (A) (A) (A)
                 (A) (A) (A) (A) (A) (A) (A) (A) (A) (A) (A) (A)
                 (A) (A) (A) (A) (A) (A) (A) (A) (A) (A) (A) (A)
                 (A) (A) (A) (A) (A) (A) (A) (A) (A) (A) (A) (A)
                 (A) (A) (A) (A) (A) (A) (A) (A) (A) (A) (A) (A)
                 (A) (A) (A) (A) (A) (A) (A) (A) (A) (A) (A) (A)
                 (A) (A) (A) (A) (A) (A) (A) (A) (A) (A) (A) (A)
                 (A) (A) (A) (A) (A) (A) (A) (A) (A) (A) (A) (A)
                 (A) (A) (A) (A) (A) (A) (A) (A) (A) (A) (A) (A)
                 (A) (A) (A) (A) (A) (A) (A) (A) (A) (A) (A) (A)
                 (A) (A) (A) (A) (A) (A) (A) (A) (A) (A) (A) (A)
                 (A) (A) (A) (A) (A) (A) (A) (A) (A) (A) (A) (A)
                 (A) (A) (A) (A) (A) (A) (A) (A) (A) (A) (A) (A)
                 (A) (A) (A) (A) (A) (A) (A) (A) (A) (A) (A) (A)
                 (A) (A) (A) (A) (A) (A) (A) (A) (A) (A) (A) (A)
                 (A) (A) (A) (A) (A) (A) (A) (A) (A) (A) (A) (A)
                 (A) (A) (A) (A) (A) (A) (A) (A) (A) (A) (A) (A)
                 (A) (A) (A) (A) (A) (A) (A) (A) (A) (A) (A) (A)
                 (A) (A) (A) (A) (A) (A) (A) (A) (A) (A) (A) (A)
                 (A) (A) (A) (A) (A) (A) (A) (A) (A) (A) (A) (A)
                 (A) (A) (A) (A) (A) (A) (A) (A) (A) (A) (A) (A)
                 (A) (A) (A) (A) (A) (A) (A) (A) (A) (A) (A) (A)
                 (A) (A) (A) (A) (A) (A) (A) (A) (A) (A) (A) (A)
                 (A) (A) (A) (A) (A) (A) (A) (A) (A) (A) (A) (A)
                 (A) (A) (A) (A) (A) (A) (A) (A) (A) (A) (A) (A)
                 (A) (A) (A) (A) (A) (A) (A) (A) (A) (A) (A) (A)
                 (A) (A) (A) (A) (A) (A) (A) (A) (A) (A) (A) (A)
                 (A) (A) (A) (A) (A) (A) (A) (A) (A) (A) (A) (A)
                 (A) (A) (A) (A) (A) (A) (A) (A) (A) (A) (A) (A)
                 (A) (A) (A) (A) (A) (A) (A) (A) (A) (A) (A) (A)
                 (A) (A) (A) (A) (A) (A) (A) (A) (A) (A) (A) (A)
                 (A) (A) (A) (A) (A) (A) (A) (A) (A) (A) (A) (A)
                 (A) (A) (A) (A) (A) (A) (A) (A) (A) (A) (A) (A)
                 (A) (A) (A) (A) (A) (A) (A) (A) (A) (A) (A) (A)
                 (A) (A) (A) (A) (A) (A) (A) (A) (A) (A) (A) (A)
                 (A) (A) (A) (A) (A) (A) (A) (A) (A) (A) (A) (A)
                 (A)
 The electronic state is 1-A.
 Alpha  occ. eigenvalues --  -19.22700 -19.21775 -19.19437 -19.19432 -19.18031
 Alpha  occ. eigenvalues --  -19.17077 -19.16602 -19.15681 -19.14893 -19.13897
 Alpha  occ. eigenvalues --  -19.13729 -10.34579 -10.32436 -10.31716 -10.28530
 Alpha  occ. eigenvalues --  -10.26927 -10.26542 -10.26338 -10.25763 -10.24996
 Alpha  occ. eigenvalues --  -10.24456 -10.24226 -10.22342 -10.21539 -10.21424
 Alpha  occ. eigenvalues --  -10.21403 -10.21183 -10.21120 -10.20928 -10.20355
 Alpha  occ. eigenvalues --  -10.20068 -10.19533 -10.19394 -10.17387  -1.13538
 Alpha  occ. eigenvalues --   -1.12166  -1.10332  -1.07579  -1.06274  -1.06033
 Alpha  occ. eigenvalues --   -1.04517  -1.03748  -1.02497  -1.01571  -1.01433
 Alpha  occ. eigenvalues --   -0.87688  -0.86050  -0.84562  -0.80635  -0.78942
 Alpha  occ. eigenvalues --   -0.76914  -0.76297  -0.75386  -0.74611  -0.72087
 Alpha  occ. eigenvalues --   -0.69753  -0.69480  -0.66458  -0.65401  -0.64413
 Alpha  occ. eigenvalues --   -0.63970  -0.62812  -0.61182  -0.59042  -0.58484
 Alpha  occ. eigenvalues --   -0.56775  -0.55746  -0.54909  -0.54333  -0.53588
 Alpha  occ. eigenvalues --   -0.52076  -0.51871  -0.51322  -0.50867  -0.49530
 Alpha  occ. eigenvalues --   -0.48519  -0.48334  -0.48217  -0.47856  -0.47583
 Alpha  occ. eigenvalues --   -0.46682  -0.46533  -0.45985  -0.45258  -0.44509
 Alpha  occ. eigenvalues --   -0.44274  -0.43920  -0.43541  -0.43435  -0.42836
 Alpha  occ. eigenvalues --   -0.42616  -0.42404  -0.41498  -0.40933  -0.40646
 Alpha  occ. eigenvalues --   -0.40390  -0.39579  -0.39208  -0.38947  -0.38488
 Alpha  occ. eigenvalues --   -0.38432  -0.38238  -0.37595  -0.37223  -0.37014
 Alpha  occ. eigenvalues --   -0.36121  -0.35610  -0.35392  -0.34940  -0.34707
 Alpha  occ. eigenvalues --   -0.34387  -0.33867  -0.33498  -0.33104  -0.31395
 Alpha  occ. eigenvalues --   -0.30367  -0.28973  -0.28386  -0.28057  -0.27483
 Alpha  occ. eigenvalues --   -0.27361  -0.25995  -0.25950  -0.23251  -0.21297
 Alpha virt. eigenvalues --   -0.04635  -0.04293  -0.02873  -0.02401   0.03918
 Alpha virt. eigenvalues --    0.04530   0.05517   0.06541   0.06988   0.07669
 Alpha virt. eigenvalues --    0.08103   0.09758   0.09978   0.10801   0.11231
 Alpha virt. eigenvalues --    0.11888   0.12037   0.12655   0.13112   0.13147
 Alpha virt. eigenvalues --    0.13627   0.14723   0.15003   0.15426   0.15755
 Alpha virt. eigenvalues --    0.16351   0.16643   0.16760   0.16986   0.17290
 Alpha virt. eigenvalues --    0.17547   0.18066   0.18219   0.18436   0.18849
 Alpha virt. eigenvalues --    0.19558   0.20211   0.20863   0.21086   0.21848
 Alpha virt. eigenvalues --    0.22110   0.22755   0.23297   0.24006   0.24532
 Alpha virt. eigenvalues --    0.25281   0.25733   0.26407   0.27448   0.28249
 Alpha virt. eigenvalues --    0.28440   0.29564   0.30325   0.30976   0.32425
 Alpha virt. eigenvalues --    0.33051   0.33258   0.33721   0.36668   0.37578
 Alpha virt. eigenvalues --    0.39447   0.40535   0.40722   0.41429   0.43099
 Alpha virt. eigenvalues --    0.43822   0.46074   0.47410   0.48463   0.49500
 Alpha virt. eigenvalues --    0.50446   0.50758   0.51125   0.51482   0.51777
 Alpha virt. eigenvalues --    0.52572   0.52948   0.53035   0.53728   0.53947
 Alpha virt. eigenvalues --    0.54945   0.55575   0.56000   0.56232   0.56678
 Alpha virt. eigenvalues --    0.57197   0.57450   0.57731   0.58731   0.59379
 Alpha virt. eigenvalues --    0.59544   0.59864   0.60604   0.60634   0.61364
 Alpha virt. eigenvalues --    0.62531   0.62734   0.63581   0.63835   0.64262
 Alpha virt. eigenvalues --    0.64541   0.65353   0.65715   0.66177   0.66342
 Alpha virt. eigenvalues --    0.67236   0.68046   0.68877   0.69174   0.69771
 Alpha virt. eigenvalues --    0.70136   0.71617   0.71980   0.72283   0.72593
 Alpha virt. eigenvalues --    0.73426   0.73964   0.74979   0.75449   0.75607
 Alpha virt. eigenvalues --    0.76379   0.76449   0.77034   0.78457   0.79491
 Alpha virt. eigenvalues --    0.79807   0.80525   0.81316   0.81617   0.81904
 Alpha virt. eigenvalues --    0.82939   0.83317   0.83618   0.84438   0.84871
 Alpha virt. eigenvalues --    0.84944   0.85788   0.86276   0.87011   0.87364
 Alpha virt. eigenvalues --    0.87894   0.88188   0.88357   0.88760   0.90137
 Alpha virt. eigenvalues --    0.90963   0.91565   0.92199   0.92337   0.92454
 Alpha virt. eigenvalues --    0.92772   0.93572   0.94167   0.94354   0.95341
 Alpha virt. eigenvalues --    0.95955   0.96236   0.96567   0.97027   0.97674
 Alpha virt. eigenvalues --    0.98091   0.98518   0.99024   0.99599   0.99688
 Alpha virt. eigenvalues --    1.01196   1.01706   1.02711   1.02992   1.03576
 Alpha virt. eigenvalues --    1.03757   1.04569   1.04590   1.05326   1.06371
 Alpha virt. eigenvalues --    1.07832   1.08477   1.09540   1.10873   1.11392
 Alpha virt. eigenvalues --    1.12142   1.13362   1.13733   1.14218   1.15466
 Alpha virt. eigenvalues --    1.16947   1.17196   1.17934   1.20012   1.20402
 Alpha virt. eigenvalues --    1.21439   1.22610   1.24085   1.24953   1.25212
 Alpha virt. eigenvalues --    1.25944   1.26278   1.26944   1.28027   1.28426
 Alpha virt. eigenvalues --    1.30391   1.31275   1.31703   1.33301   1.34278
 Alpha virt. eigenvalues --    1.34723   1.35583   1.36185   1.36470   1.37257
 Alpha virt. eigenvalues --    1.37732   1.38424   1.39661   1.40313   1.41658
 Alpha virt. eigenvalues --    1.42001   1.42917   1.43254   1.43985   1.45043
 Alpha virt. eigenvalues --    1.45570   1.47071   1.49069   1.49473   1.50016
 Alpha virt. eigenvalues --    1.51250   1.52358   1.55148   1.55839   1.57539
 Alpha virt. eigenvalues --    1.60070   1.61263   1.62157   1.63576   1.64359
 Alpha virt. eigenvalues --    1.65189   1.66581   1.67658   1.68043   1.68975
 Alpha virt. eigenvalues --    1.70153   1.70414   1.70807   1.71064   1.71710
 Alpha virt. eigenvalues --    1.72216   1.72406   1.73488   1.73893   1.73994
 Alpha virt. eigenvalues --    1.74544   1.75623   1.75802   1.76631   1.76895
 Alpha virt. eigenvalues --    1.78037   1.79222   1.79334   1.80125   1.80814
 Alpha virt. eigenvalues --    1.81494   1.82077   1.82909   1.83441   1.83754
 Alpha virt. eigenvalues --    1.84335   1.84995   1.85450   1.85597   1.85806
 Alpha virt. eigenvalues --    1.86137   1.87575   1.87729   1.88798   1.89691
 Alpha virt. eigenvalues --    1.90077   1.90974   1.91111   1.91978   1.92652
 Alpha virt. eigenvalues --    1.93747   1.94330   1.94903   1.95525   1.95952
 Alpha virt. eigenvalues --    1.96688   1.98114   1.98531   1.98768   1.99279
 Alpha virt. eigenvalues --    2.01105   2.01621   2.01832   2.03333   2.03517
 Alpha virt. eigenvalues --    2.04731   2.04862   2.05932   2.07088   2.07440
 Alpha virt. eigenvalues --    2.08115   2.08873   2.09144   2.09810   2.11103
 Alpha virt. eigenvalues --    2.11270   2.12305   2.14885   2.16269   2.17352
 Alpha virt. eigenvalues --    2.19390   2.20473   2.20912   2.21825   2.22509
 Alpha virt. eigenvalues --    2.23874   2.24775   2.26031   2.27069   2.27888
 Alpha virt. eigenvalues --    2.29040   2.29268   2.29788   2.30496   2.30700
 Alpha virt. eigenvalues --    2.32173   2.32719   2.33361   2.34420   2.34686
 Alpha virt. eigenvalues --    2.35572   2.36302   2.37023   2.38160   2.39038
 Alpha virt. eigenvalues --    2.40298   2.41234   2.41489   2.42919   2.43341
 Alpha virt. eigenvalues --    2.44646   2.44877   2.45600   2.47661   2.47792
 Alpha virt. eigenvalues --    2.48348   2.50520   2.52605   2.53278   2.54072
 Alpha virt. eigenvalues --    2.54652   2.55244   2.55610   2.56717   2.57612
 Alpha virt. eigenvalues --    2.58314   2.60138   2.62157   2.63809   2.64979
 Alpha virt. eigenvalues --    2.66577   2.67510   2.69215   2.69587   2.70009
 Alpha virt. eigenvalues --    2.70226   2.71150   2.72396   2.73659   2.75419
 Alpha virt. eigenvalues --    2.76684   2.77113   2.79186   2.80068   2.82578
 Alpha virt. eigenvalues --    2.84067   2.86273   2.86585   2.87397   2.90130
 Alpha virt. eigenvalues --    2.91371   2.93469   2.94754   2.96239   2.97389
 Alpha virt. eigenvalues --    2.98950   3.00665   3.03633   3.05072   3.07326
 Alpha virt. eigenvalues --    3.07536   3.10070   3.13063   3.15448   3.16803
 Alpha virt. eigenvalues --    3.22617   3.23614   3.44217   3.50613   3.78800
 Alpha virt. eigenvalues --    3.91036   3.92884   3.95458   3.96646   4.00371
 Alpha virt. eigenvalues --    4.05167   4.07063   4.09044   4.14534   4.15948
 Alpha virt. eigenvalues --    4.18635   4.19615   4.21628   4.23174   4.24886
 Alpha virt. eigenvalues --    4.25229   4.31126   4.32370   4.35235   4.36749
 Alpha virt. eigenvalues --    4.41425   4.47453   4.48960   4.52501   4.53179
 Alpha virt. eigenvalues --    4.54298   4.56190   4.59305   4.65968   4.70409
 Alpha virt. eigenvalues --    4.75609   4.80082   4.88075
          Condensed to atoms (all electrons):
 Mulliken atomic charges:
              1
     1  C    0.100217
     2  C    0.324129
     3  C   -0.307697
     4  C    0.139706
     5  C   -0.060011
     6  C    0.241416
     7  C    0.057447
     8  C    0.287741
     9  O   -0.500108
    10  C    0.598798
    11  C   -0.361624
    12  C    0.225161
    13  C   -0.303258
    14  C   -0.341883
    15  C   -0.517854
    16  O   -0.655845
    17  O   -0.634294
    18  O   -0.535278
    19  O   -0.541760
    20  C    0.100345
    21  C    0.105060
    22  C    0.110174
    23  C   -0.159128
    24  C    0.054184
    25  C   -0.350951
    26  O   -0.677616
    27  O   -0.639330
    28  C    0.602721
    29  O   -0.466329
    30  O   -0.487269
    31  C   -0.217020
    32  C    0.600581
    33  O   -0.583438
    34  O   -0.461127
    35  H    0.122728
    36  H    0.179682
    37  H    0.165668
    38  H    0.157087
    39  H    0.172029
    40  H    0.188952
    41  H    0.174747
    42  H    0.166268
    43  H    0.183970
    44  H    0.163901
    45  H    0.448009
    46  H    0.413952
    47  H    0.144288
    48  H    0.136818
    49  H    0.139979
    50  H    0.178452
    51  H    0.178997
    52  H    0.177998
    53  H    0.421055
    54  H    0.407788
    55  H    0.165614
    56  H    0.173203
    57  H    0.170934
    58  H    0.422022
 Sum of Mulliken atomic charges =   0.00000
 Mulliken charges with hydrogens summed into heavy atoms:
              1
     1  C    0.100217
     2  C    0.324129
     3  C   -0.184969
     4  C    0.139706
     5  C   -0.060011
     6  C    0.241416
     7  C    0.057447
     8  C    0.287741
     9  O   -0.500108
    10  C    0.598798
    11  C   -0.016274
    12  C    0.225161
    13  C    0.025857
    14  C    0.021816
    15  C   -0.003715
    16  O   -0.207836
    17  O   -0.220342
    18  O   -0.535278
    19  O   -0.541760
    20  C    0.244633
    21  C    0.241878
    22  C    0.250153
    23  C    0.019324
    24  C    0.054184
    25  C    0.006044
    26  O   -0.256561
    27  O   -0.231542
    28  C    0.602721
    29  O   -0.466329
    30  O   -0.487269
    31  C    0.292731
    32  C    0.600581
    33  O   -0.161415
    34  O   -0.461127
 Sum of Mulliken charges with hydrogens summed into heavy atoms =   0.00000
 Electronic spatial extent (au):  <R**2>=          16402.0950
 Charge=              0.0000 electrons
 Dipole moment (field-independent basis, Debye):
    X=              4.1055    Y=             -2.0203    Z=              3.5730  Tot=              5.8055
 Quadrupole moment (field-independent basis, Debye-Ang):
   XX=           -216.8077   YY=           -170.7879   ZZ=           -197.4883
   XY=             -8.3576   XZ=             -9.1258   YZ=              1.4009
 Traceless Quadrupole moment (field-independent basis, Debye-Ang):
   XX=            -21.7797   YY=             24.2401   ZZ=             -2.4603
   XY=             -8.3576   XZ=             -9.1258   YZ=              1.4009
 Octapole moment (field-independent basis, Debye-Ang**2):
  XXX=            110.7938  YYY=             48.5226  ZZZ=             32.3560  XYY=             62.7171
  XXY=            -63.4312  XXZ=             59.4486  XZZ=             36.9937  YZZ=             21.9285
  YYZ=             -6.1214  XYZ=              7.8287
 Hexadecapole moment (field-independent basis, Debye-Ang**3):
 XXXX=         -12503.0495 YYYY=          -5464.4813 ZZZZ=          -2167.4274 XXXY=           -457.6171
 XXXZ=             65.9687 YYYX=            -54.1930 YYYZ=           -107.9911 ZZZX=           -127.5421
 ZZZY=              8.6071 XXYY=          -3035.0391 XXZZ=          -2487.0368 YYZZ=          -1461.9280
 XXYZ=            -83.8890 YYXZ=             59.6206 ZZXY=            -60.2277
 N-N= 3.773587215300D+03 E-N=-1.156085265629D+04  KE= 1.703112492112D+03
 1\1\GINC-B0802\FOpt\RB3LYP\6-31G(d)\C23H24O11\CAOFEI\02-Feb-2021\0\\# 
 opt b3lyp/6-31g(d) geom=connectivity\\Title Card Required\\0,1\C,4.350
 2036291,-1.2981652818,-1.6920673528\C,3.8915640294,-0.0031874172,-1.40
 78563523\C,2.5461062702,0.3706499373,-1.5166553669\C,1.5959950822,-0.5
 66816464,-1.9240073373\C,2.0231229082,-1.8871646974,-2.2249234032\C,3.
 3991257435,-2.2418042335,-2.1030891608\C,0.1807087348,-0.2583424385,-2
 .0675396228\C,-0.6546796314,-1.2240894261,-2.5083672669\O,-0.236515413
 ,-2.4959265993,-2.7956061556\C,1.0763073984,-2.8840615306,-2.663226114
 3\C,-0.3405886146,1.126348239,-1.7503117951\C,-1.8729067116,1.20072587
 8,-1.6352997009\C,-2.5243370816,0.4186767474,-2.7903812145\C,-2.126098
 1131,-1.060253283,-2.7345526032\C,5.8095323985,-1.6452207136,-1.556024
 7439\O,3.8193727765,-3.4861497972,-2.38141673\O,4.8410724324,0.8918411
 365,-1.015351281\O,1.3340056009,-4.0534128499,-2.9423307512\O,-2.39591
 8596,0.5930114192,-0.4456881694\C,-1.9242229843,1.0262997041,0.8461039
 01\C,-3.1617990265,1.2412563567,1.7200881991\C,-2.7577981814,1.7602654
 802,3.0987881853\C,-1.6622727998,0.9269564782,3.6987730308\C,-0.858903
 3399,0.1395425428,2.9665537522\C,-1.0083828973,-0.0349103475,1.4682352
 676\O,-4.053516784,2.2019990623,1.1749219808\O,-3.8652435516,1.7707718
 845,3.9901709034\C,0.2392400028,-0.6558724059,3.5848674548\O,0.3308960
 241,-0.4971241,4.9243793184\O,0.9816169166,-1.3796372624,2.9482784615\
 C,1.3690066026,-1.2581607956,5.5605177489\C,-2.3163936015,2.6777631191
 ,-1.6713037164\O,-3.6693924208,2.7976935897,-1.6541052808\O,-1.5827631
 715,3.6390737648,-1.6943953415\H,2.2597686323,1.3941049455,-1.29268964
 22\H,-0.0207282528,1.8404924916,-2.5191044665\H,0.1060573042,1.4937236
 42,-0.8204948432\H,-2.1947905436,0.8627550762,-3.7379337665\H,-3.61072
 22409,0.521930314,-2.7359120317\H,-2.6743255094,-1.5711491897,-1.93333
 78579\H,-2.4004098337,-1.5622158674,-3.6698281002\H,6.1548148531,-1.49
 62661607,-0.525996232\H,5.9830138941,-2.6849929142,-1.8352852019\H,6.4
 277499428,-1.0012553883,-2.1925254093\H,3.0211546658,-4.0124675852,-2.
 6493178036\H,4.4185663063,1.7471992199,-0.839353095\H,-1.4007212214,1.
 9873536301,0.7498758519\H,-3.6691402622,0.2723187825,1.8533893985\H,-2
 .3826483655,2.7920275496,2.9628290927\H,-1.5317923852,1.0042630211,4.7
 735715055\H,-0.0213855545,-0.0360689079,0.9957215084\H,-1.4328555569,-
 1.0253691455,1.2559487679\H,-4.2432496688,1.9338916241,0.2596155992\H,
 -4.5691978696,2.2546746298,3.5263660205\H,1.302878583,-1.0115168284,6.
 6205761079\H,1.2119489545,-2.3287178839,5.4039826605\H,2.3486376587,-0
 .9823644737,5.1609863886\H,-3.8587671807,3.7550737423,-1.6182632149\\V
 ersion=EM64L-G09RevB.01\State=1-A\HF=-1718.374476\RMSD=4.712e-09\RMSF=
 2.750e-06\Dipole=-0.9163379,2.0900977,0.0930979\Quadrupole=3.850733,-7
 .7356798,3.8849469,3.8032044,14.543695,-10.4896724\PG=C01 [X(C23H24O11
 )]\\@


 CONFIDENCE: THAT QUIET ASSURED FEELING YOU HAVE
 JUST BEFORE YOU FALL FLAT ON YOUR FACE.
 Job cpu time:  0 days 10 hours  4 minutes 40.3 seconds.
 File lengths (MBytes):  RWF=    201 Int=      0 D2E=      0 Chk=     21 Scr=      1
 Normal termination of Gaussian 09 at Tue Feb  2 12:41:26 2021.
