 Entering Gaussian System, Link 0=g09
 Initial command:
 /public/software/g09/g09/l1.exe /tmp/Gau-31779.inp -scrdir=/tmp/
 Entering Link 1 = /public/software/g09/g09/l1.exe PID=     31780.
  
 Copyright (c) 1988,1990,1992,1993,1995,1998,2003,2009,2010,
            Gaussian, Inc.  All Rights Reserved.
  
 This is part of the Gaussian(R) 09 program.  It is based on
 the Gaussian(R) 03 system (copyright 2003, Gaussian, Inc.),
 the Gaussian(R) 98 system (copyright 1998, Gaussian, Inc.),
 the Gaussian(R) 94 system (copyright 1995, Gaussian, Inc.),
 the Gaussian 92(TM) system (copyright 1992, Gaussian, Inc.),
 the Gaussian 90(TM) system (copyright 1990, Gaussian, Inc.),
 the Gaussian 88(TM) system (copyright 1988, Gaussian, Inc.),
 the Gaussian 86(TM) system (copyright 1986, Carnegie Mellon
 University), and the Gaussian 82(TM) system (copyright 1983,
 Carnegie Mellon University). Gaussian is a federally registered
 trademark of Gaussian, Inc.
  
 This software contains proprietary and confidential information,
 including trade secrets, belonging to Gaussian, Inc.
  
 This software is provided under written license and may be
 used, copied, transmitted, or stored only in accord with that
 written license.
  
 The following legend is applicable only to US Government
 contracts under FAR:
  
                    RESTRICTED RIGHTS LEGEND
  
 Use, reproduction and disclosure by the US Government is
 subject to restrictions as set forth in subparagraphs (a)
 and (c) of the Commercial Computer Software - Restricted
 Rights clause in FAR 52.227-19.
  
 Gaussian, Inc.
 340 Quinnipiac St., Bldg. 40, Wallingford CT 06492
  
  
 ---------------------------------------------------------------
 Warning -- This program may not be used in any manner that
 competes with the business of Gaussian, Inc. or will provide
 assistance to any competitor of Gaussian, Inc.  The licensee
 of this program is prohibited from giving any competitor of
 Gaussian, Inc. access to this program.  By using this program,
 the user acknowledges that Gaussian, Inc. is engaged in the
 business of creating and licensing software in the field of
 computational chemistry and represents and warrants to the
 licensee that it is not a competitor of Gaussian, Inc. and that
 it will not use this program in any manner prohibited above.
 ---------------------------------------------------------------
  

 Cite this work as:
 Gaussian 09, Revision B.01,
 M. J. Frisch, G. W. Trucks, H. B. Schlegel, G. E. Scuseria, 
 M. A. Robb, J. R. Cheeseman, G. Scalmani, V. Barone, B. Mennucci, 
 G. A. Petersson, H. Nakatsuji, M. Caricato, X. Li, H. P. Hratchian, 
 A. F. Izmaylov, J. Bloino, G. Zheng, J. L. Sonnenberg, M. Hada, 
 M. Ehara, K. Toyota, R. Fukuda, J. Hasegawa, M. Ishida, T. Nakajima, 
 Y. Honda, O. Kitao, H. Nakai, T. Vreven, J. A. Montgomery, Jr., 
 J. E. Peralta, F. Ogliaro, M. Bearpark, J. J. Heyd, E. Brothers, 
 K. N. Kudin, V. N. Staroverov, T. Keith, R. Kobayashi, J. Normand, 
 K. Raghavachari, A. Rendell, J. C. Burant, S. S. Iyengar, J. Tomasi, 
 M. Cossi, N. Rega, J. M. Millam, M. Klene, J. E. Knox, J. B. Cross, 
 V. Bakken, C. Adamo, J. Jaramillo, R. Gomperts, R. E. Stratmann, 
 O. Yazyev, A. J. Austin, R. Cammi, C. Pomelli, J. W. Ochterski, 
 R. L. Martin, K. Morokuma, V. G. Zakrzewski, G. A. Voth, 
 P. Salvador, J. J. Dannenberg, S. Dapprich, A. D. Daniels, 
 O. Farkas, J. B. Foresman, J. V. Ortiz, J. Cioslowski, 
 and D. J. Fox, Gaussian, Inc., Wallingford CT, 2010.
 
 ******************************************
 Gaussian 09:  EM64L-G09RevB.01 12-Aug-2010
                13-Apr-2021 
 ******************************************
 %mem=600MW
 %nprocshared=10
 Will use up to   10 processors via shared memory.
 ----------------------------------------
 # opt b3lyp/6-311+g(d) geom=connectivity
 ----------------------------------------
 1/14=-1,18=20,19=15,26=3,38=1,57=2/1,3;
 2/9=110,12=2,17=6,18=5,40=1/2;
 3/5=4,6=6,7=11,11=2,16=1,25=1,30=1,71=1,74=-5/1,2,3;
 4//1;
 5/5=2,38=5/2;
 6/7=2,8=2,9=2,10=2,28=1/1;
 7//1,2,3,16;
 1/14=-1,18=20,19=15/3(2);
 2/9=110/2;
 99//99;
 2/9=110/2;
 3/5=4,6=6,7=11,11=2,16=1,25=1,30=1,71=1,74=-5/1,2,3;
 4/5=5,16=3/1;
 5/5=2,38=5/2;
 7//1,2,3,16;
 1/14=-1,18=20,19=15/3(-5);
 2/9=110/2;
 6/7=2,8=2,9=2,10=2,19=2,28=1/1;
 99/9=1/99;
 -------------------
 Title Card Required
 -------------------
 Symbolic Z-matrix:
 Charge =  0 Multiplicity = 1
 C                     2.27954   1.00897   2.66803 
 C                     2.75108   1.80978   1.70474 
 C                     2.15196   1.74867   0.31801 
 C                     1.59169   0.35709  -0.12744 
 C                     1.30968  -0.66665   1.01378 
 C                     1.18966   0.00056   2.41832 
 C                     0.34313   0.7147   -1.01385 
 C                    -0.97885   0.46707  -0.31428 
 C                    -1.21468  -0.61005   0.47095 
 C                    -0.02971  -1.43598   0.82093 
 C                    -2.53083  -0.95905   1.11011 
 O                    -2.55448  -1.31106   2.27775 
 C                    -3.79251  -0.91245   0.24703 
 C                    -5.05937  -0.98184   1.11567 
 C                    -3.70909  -2.05084  -0.79574 
 O                    -0.11222  -2.62554   1.07641 
 C                     0.29604   2.24861  -1.18342 
 C                    -1.21179   2.53994  -1.36364 
 O                    -1.85731   1.44435  -0.59133 
 C                     0.98017   2.74453   0.10311 
 O                     0.33087  -0.01371  -2.22674 
 C                     2.52371  -1.61907   0.97063 
 C                     3.2151   -1.40454  -0.39157 
 O                     2.52459  -0.28335  -1.00776 
 C                     3.21162  -2.58944  -1.3368 
 C                     1.8879   -3.2217   -1.69118 
 C                     4.37484  -3.04678  -1.81168 
 C                    -1.6585    2.39783  -2.82054 
 C                    -1.71932   3.84195  -0.75232 
 H                     0.86244   2.55655  -2.06759 
 H                     2.92645   1.98829  -0.42274 
 C                     3.8363    2.82754   1.94 
 H                     2.6826    1.07886   3.67725 
 H                     1.21732  -0.79523   3.17073 
 H                     0.20095   0.46807   2.52545 
 H                    -3.77993   0.0399   -0.29939 
 H                    -5.09853  -1.95874   1.61238 
 H                    -4.96964  -0.24449   1.92254 
 H                    -2.79319  -1.98043  -1.3912 
 H                    -4.55936  -2.00848  -1.4838 
 H                    -3.71714  -3.02909  -0.30105 
 H                     1.325     3.78082   0.03325 
 H                     0.29491   2.68971   0.95766 
 H                     1.25796  -0.31604  -2.3311 
 H                     2.18477  -2.64647   1.11956 
 H                     3.22185  -1.37455   1.77498 
 H                     4.25442  -1.08986  -0.24239 
 H                     1.4056   -3.66813  -0.81361 
 H                     1.1794   -2.48295  -2.08215 
 H                     2.0187   -4.00374  -2.44479 
 H                     4.42347  -3.90639  -2.4754 
 H                     5.32323  -2.58373  -1.54917 
 H                    -2.75143   2.42279  -2.88195 
 H                    -1.26257   3.22778  -3.41692 
 H                    -1.29702   1.45956  -3.24767 
 H                    -1.26175   4.69698  -1.26193 
 H                    -2.80498   3.916    -0.87166 
 H                    -1.48788   3.90824   0.3137 
 H                     4.17834   2.81794   2.97976 
 H                     4.70409   2.63882   1.29281 
 H                     3.49113   3.84488   1.70858 
 C                    -6.35801  -0.7321    0.34084 
 H                    -7.21973  -0.73627   1.01808 
 H                    -6.34041   0.2416   -0.16562 
 H                    -6.5392   -1.49838  -0.42131 
 

 GradGradGradGradGradGradGradGradGradGradGradGradGradGradGradGradGradGrad
 Berny optimization.
 Initialization pass.
                           ----------------------------
                           !    Initial Parameters    !
                           ! (Angstroms and Degrees)  !
 --------------------------                            --------------------------
 ! Name  Definition              Value          Derivative Info.                !
 --------------------------------------------------------------------------------
 ! R1    R(1,2)                  1.3385         estimate D2E/DX2                !
 ! R2    R(1,6)                  1.5057         estimate D2E/DX2                !
 ! R3    R(1,33)                 1.089          estimate D2E/DX2                !
 ! R4    R(2,3)                  1.5119         estimate D2E/DX2                !
 ! R5    R(2,32)                 1.5063         estimate D2E/DX2                !
 ! R6    R(3,4)                  1.5649         estimate D2E/DX2                !
 ! R7    R(3,20)                 1.5527         estimate D2E/DX2                !
 ! R8    R(3,31)                 1.0982         estimate D2E/DX2                !
 ! R9    R(4,5)                  1.5588         estimate D2E/DX2                !
 ! R10   R(4,7)                  1.5724         estimate D2E/DX2                !
 ! R11   R(4,24)                 1.4337         estimate D2E/DX2                !
 ! R12   R(5,6)                  1.5596         estimate D2E/DX2                !
 ! R13   R(5,10)                 1.5566         estimate D2E/DX2                !
 ! R14   R(5,22)                 1.5436         estimate D2E/DX2                !
 ! R15   R(6,34)                 1.0955         estimate D2E/DX2                !
 ! R16   R(6,35)                 1.0989         estimate D2E/DX2                !
 ! R17   R(7,8)                  1.516          estimate D2E/DX2                !
 ! R18   R(7,17)                 1.544          estimate D2E/DX2                !
 ! R19   R(7,21)                 1.4149         estimate D2E/DX2                !
 ! R20   R(8,9)                  1.3537         estimate D2E/DX2                !
 ! R21   R(8,19)                 1.3429         estimate D2E/DX2                !
 ! R22   R(9,10)                 1.4862         estimate D2E/DX2                !
 ! R23   R(9,11)                 1.5042         estimate D2E/DX2                !
 ! R24   R(10,16)                1.2195         estimate D2E/DX2                !
 ! R25   R(11,12)                1.2198         estimate D2E/DX2                !
 ! R26   R(11,13)                1.5293         estimate D2E/DX2                !
 ! R27   R(13,14)                1.5376         estimate D2E/DX2                !
 ! R28   R(13,15)                1.546          estimate D2E/DX2                !
 ! R29   R(13,36)                1.098          estimate D2E/DX2                !
 ! R30   R(14,37)                1.0966         estimate D2E/DX2                !
 ! R31   R(14,38)                1.0967         estimate D2E/DX2                !
 ! R32   R(14,62)                1.5327         estimate D2E/DX2                !
 ! R33   R(15,39)                1.0947         estimate D2E/DX2                !
 ! R34   R(15,40)                1.0946         estimate D2E/DX2                !
 ! R35   R(15,41)                1.0962         estimate D2E/DX2                !
 ! R36   R(17,18)                1.5463         estimate D2E/DX2                !
 ! R37   R(17,20)                1.5392         estimate D2E/DX2                !
 ! R38   R(17,30)                1.0943         estimate D2E/DX2                !
 ! R39   R(18,19)                1.4878         estimate D2E/DX2                !
 ! R40   R(18,28)                1.5305         estimate D2E/DX2                !
 ! R41   R(18,29)                1.5253         estimate D2E/DX2                !
 ! R42   R(20,42)                1.0944         estimate D2E/DX2                !
 ! R43   R(20,43)                1.0967         estimate D2E/DX2                !
 ! R44   R(21,44)                0.9807         estimate D2E/DX2                !
 ! R45   R(22,23)                1.5426         estimate D2E/DX2                !
 ! R46   R(22,45)                1.0921         estimate D2E/DX2                !
 ! R47   R(22,46)                1.0928         estimate D2E/DX2                !
 ! R48   R(23,24)                1.4538         estimate D2E/DX2                !
 ! R49   R(23,25)                1.5157         estimate D2E/DX2                !
 ! R50   R(23,47)                1.0961         estimate D2E/DX2                !
 ! R51   R(24,44)                1.8321         estimate D2E/DX2                !
 ! R52   R(25,26)                1.5092         estimate D2E/DX2                !
 ! R53   R(25,27)                1.3371         estimate D2E/DX2                !
 ! R54   R(26,48)                1.0964         estimate D2E/DX2                !
 ! R55   R(26,49)                1.0957         estimate D2E/DX2                !
 ! R56   R(26,50)                1.0939         estimate D2E/DX2                !
 ! R57   R(27,51)                1.0871         estimate D2E/DX2                !
 ! R58   R(27,52)                1.0875         estimate D2E/DX2                !
 ! R59   R(28,53)                1.0949         estimate D2E/DX2                !
 ! R60   R(28,54)                1.096          estimate D2E/DX2                !
 ! R61   R(28,55)                1.0925         estimate D2E/DX2                !
 ! R62   R(29,56)                1.0955         estimate D2E/DX2                !
 ! R63   R(29,57)                1.0947         estimate D2E/DX2                !
 ! R64   R(29,58)                1.0929         estimate D2E/DX2                !
 ! R65   R(32,59)                1.0946         estimate D2E/DX2                !
 ! R66   R(32,60)                1.0989         estimate D2E/DX2                !
 ! R67   R(32,61)                1.0989         estimate D2E/DX2                !
 ! R68   R(62,63)                1.096          estimate D2E/DX2                !
 ! R69   R(62,64)                1.0977         estimate D2E/DX2                !
 ! R70   R(62,65)                1.0958         estimate D2E/DX2                !
 ! A1    A(2,1,6)              122.4355         estimate D2E/DX2                !
 ! A2    A(2,1,33)             119.8796         estimate D2E/DX2                !
 ! A3    A(6,1,33)             117.6839         estimate D2E/DX2                !
 ! A4    A(1,2,3)              119.7569         estimate D2E/DX2                !
 ! A5    A(1,2,32)             123.07           estimate D2E/DX2                !
 ! A6    A(3,2,32)             117.1345         estimate D2E/DX2                !
 ! A7    A(2,3,4)              116.0356         estimate D2E/DX2                !
 ! A8    A(2,3,20)             113.583          estimate D2E/DX2                !
 ! A9    A(2,3,31)             109.2935         estimate D2E/DX2                !
 ! A10   A(4,3,20)             105.1142         estimate D2E/DX2                !
 ! A11   A(4,3,31)             104.7459         estimate D2E/DX2                !
 ! A12   A(20,3,31)            107.3931         estimate D2E/DX2                !
 ! A13   A(3,4,5)              116.1281         estimate D2E/DX2                !
 ! A14   A(3,4,7)              104.0353         estimate D2E/DX2                !
 ! A15   A(3,4,24)             109.8197         estimate D2E/DX2                !
 ! A16   A(5,4,7)              114.7342         estimate D2E/DX2                !
 ! A17   A(5,4,24)             105.8953         estimate D2E/DX2                !
 ! A18   A(7,4,24)             105.7913         estimate D2E/DX2                !
 ! A19   A(4,5,6)              113.0966         estimate D2E/DX2                !
 ! A20   A(4,5,10)             112.9264         estimate D2E/DX2                !
 ! A21   A(4,5,22)             104.0314         estimate D2E/DX2                !
 ! A22   A(6,5,10)             104.8803         estimate D2E/DX2                !
 ! A23   A(6,5,22)             110.466          estimate D2E/DX2                !
 ! A24   A(10,5,22)            111.612          estimate D2E/DX2                !
 ! A25   A(1,6,5)              112.3445         estimate D2E/DX2                !
 ! A26   A(1,6,34)             110.7517         estimate D2E/DX2                !
 ! A27   A(1,6,35)             110.4977         estimate D2E/DX2                !
 ! A28   A(5,6,34)             107.8075         estimate D2E/DX2                !
 ! A29   A(5,6,35)             109.8183         estimate D2E/DX2                !
 ! A30   A(34,6,35)            105.3548         estimate D2E/DX2                !
 ! A31   A(4,7,8)              113.2738         estimate D2E/DX2                !
 ! A32   A(4,7,17)             108.1841         estimate D2E/DX2                !
 ! A33   A(4,7,21)             111.904          estimate D2E/DX2                !
 ! A34   A(8,7,17)             100.7402         estimate D2E/DX2                !
 ! A35   A(8,7,21)             107.6935         estimate D2E/DX2                !
 ! A36   A(17,7,21)            114.649          estimate D2E/DX2                !
 ! A37   A(7,8,9)              123.337          estimate D2E/DX2                !
 ! A38   A(7,8,19)             110.8755         estimate D2E/DX2                !
 ! A39   A(9,8,19)             125.7859         estimate D2E/DX2                !
 ! A40   A(8,9,10)             116.0972         estimate D2E/DX2                !
 ! A41   A(8,9,11)             125.7001         estimate D2E/DX2                !
 ! A42   A(10,9,11)            117.9463         estimate D2E/DX2                !
 ! A43   A(5,10,9)             116.1401         estimate D2E/DX2                !
 ! A44   A(5,10,16)            120.9559         estimate D2E/DX2                !
 ! A45   A(9,10,16)            122.5121         estimate D2E/DX2                !
 ! A46   A(9,11,12)            119.3851         estimate D2E/DX2                !
 ! A47   A(9,11,13)            118.3577         estimate D2E/DX2                !
 ! A48   A(12,11,13)           122.2101         estimate D2E/DX2                !
 ! A49   A(11,13,14)           111.0705         estimate D2E/DX2                !
 ! A50   A(11,13,15)           108.2816         estimate D2E/DX2                !
 ! A51   A(11,13,36)           107.3268         estimate D2E/DX2                !
 ! A52   A(14,13,15)           113.0944         estimate D2E/DX2                !
 ! A53   A(14,13,36)           109.2504         estimate D2E/DX2                !
 ! A54   A(15,13,36)           107.5999         estimate D2E/DX2                !
 ! A55   A(13,14,37)           108.996          estimate D2E/DX2                !
 ! A56   A(13,14,38)           108.5343         estimate D2E/DX2                !
 ! A57   A(13,14,62)           113.9004         estimate D2E/DX2                !
 ! A58   A(37,14,38)           105.5813         estimate D2E/DX2                !
 ! A59   A(37,14,62)           110.1125         estimate D2E/DX2                !
 ! A60   A(38,14,62)           109.3724         estimate D2E/DX2                !
 ! A61   A(13,15,39)           111.3864         estimate D2E/DX2                !
 ! A62   A(13,15,40)           110.7053         estimate D2E/DX2                !
 ! A63   A(13,15,41)           110.6287         estimate D2E/DX2                !
 ! A64   A(39,15,40)           107.7876         estimate D2E/DX2                !
 ! A65   A(39,15,41)           107.9988         estimate D2E/DX2                !
 ! A66   A(40,15,41)           108.2091         estimate D2E/DX2                !
 ! A67   A(7,17,18)            103.2809         estimate D2E/DX2                !
 ! A68   A(7,17,20)            102.4003         estimate D2E/DX2                !
 ! A69   A(7,17,30)            110.6424         estimate D2E/DX2                !
 ! A70   A(18,17,20)           118.0435         estimate D2E/DX2                !
 ! A71   A(18,17,30)           110.9495         estimate D2E/DX2                !
 ! A72   A(20,17,30)           110.7717         estimate D2E/DX2                !
 ! A73   A(17,18,19)           102.9351         estimate D2E/DX2                !
 ! A74   A(17,18,28)           112.2149         estimate D2E/DX2                !
 ! A75   A(17,18,29)           116.0137         estimate D2E/DX2                !
 ! A76   A(19,18,28)           107.406          estimate D2E/DX2                !
 ! A77   A(19,18,29)           106.0321         estimate D2E/DX2                !
 ! A78   A(28,18,29)           111.3257         estimate D2E/DX2                !
 ! A79   A(8,19,18)            111.0489         estimate D2E/DX2                !
 ! A80   A(3,20,17)            104.1501         estimate D2E/DX2                !
 ! A81   A(3,20,42)            112.2318         estimate D2E/DX2                !
 ! A82   A(3,20,43)            109.3676         estimate D2E/DX2                !
 ! A83   A(17,20,42)           113.0651         estimate D2E/DX2                !
 ! A84   A(17,20,43)           110.9439         estimate D2E/DX2                !
 ! A85   A(42,20,43)           107.0944         estimate D2E/DX2                !
 ! A86   A(7,21,44)            103.9886         estimate D2E/DX2                !
 ! A87   A(5,22,23)            106.9403         estimate D2E/DX2                !
 ! A88   A(5,22,45)            109.4235         estimate D2E/DX2                !
 ! A89   A(5,22,46)            110.1097         estimate D2E/DX2                !
 ! A90   A(23,22,45)           112.9767         estimate D2E/DX2                !
 ! A91   A(23,22,46)           109.4221         estimate D2E/DX2                !
 ! A92   A(45,22,46)           107.9639         estimate D2E/DX2                !
 ! A93   A(22,23,24)           105.5838         estimate D2E/DX2                !
 ! A94   A(22,23,25)           116.1641         estimate D2E/DX2                !
 ! A95   A(22,23,47)           110.1644         estimate D2E/DX2                !
 ! A96   A(24,23,25)           109.7226         estimate D2E/DX2                !
 ! A97   A(24,23,47)           106.6565         estimate D2E/DX2                !
 ! A98   A(25,23,47)           108.1485         estimate D2E/DX2                !
 ! A99   A(4,24,23)            113.161          estimate D2E/DX2                !
 ! A100  A(23,25,26)           118.4218         estimate D2E/DX2                !
 ! A101  A(23,25,27)           119.1356         estimate D2E/DX2                !
 ! A102  A(26,25,27)           122.437          estimate D2E/DX2                !
 ! A103  A(25,26,48)           111.6218         estimate D2E/DX2                !
 ! A104  A(25,26,49)           111.6218         estimate D2E/DX2                !
 ! A105  A(25,26,50)           110.8795         estimate D2E/DX2                !
 ! A106  A(48,26,49)           106.0032         estimate D2E/DX2                !
 ! A107  A(48,26,50)           108.2359         estimate D2E/DX2                !
 ! A108  A(49,26,50)           108.271          estimate D2E/DX2                !
 ! A109  A(25,27,51)           121.7506         estimate D2E/DX2                !
 ! A110  A(25,27,52)           121.8227         estimate D2E/DX2                !
 ! A111  A(51,27,52)           116.4253         estimate D2E/DX2                !
 ! A112  A(18,28,53)           110.036          estimate D2E/DX2                !
 ! A113  A(18,28,54)           110.0133         estimate D2E/DX2                !
 ! A114  A(18,28,55)           110.8154         estimate D2E/DX2                !
 ! A115  A(53,28,54)           108.2281         estimate D2E/DX2                !
 ! A116  A(53,28,55)           109.1433         estimate D2E/DX2                !
 ! A117  A(54,28,55)           108.5474         estimate D2E/DX2                !
 ! A118  A(18,29,56)           109.9262         estimate D2E/DX2                !
 ! A119  A(18,29,57)           110.123          estimate D2E/DX2                !
 ! A120  A(18,29,58)           111.8549         estimate D2E/DX2                !
 ! A121  A(56,29,57)           108.1025         estimate D2E/DX2                !
 ! A122  A(56,29,58)           108.5395         estimate D2E/DX2                !
 ! A123  A(57,29,58)           108.1956         estimate D2E/DX2                !
 ! A124  A(2,32,59)            111.5652         estimate D2E/DX2                !
 ! A125  A(2,32,60)            111.1571         estimate D2E/DX2                !
 ! A126  A(2,32,61)            111.4892         estimate D2E/DX2                !
 ! A127  A(59,32,60)           108.1294         estimate D2E/DX2                !
 ! A128  A(59,32,61)           107.8362         estimate D2E/DX2                !
 ! A129  A(60,32,61)           106.4396         estimate D2E/DX2                !
 ! A130  A(14,62,63)           110.6816         estimate D2E/DX2                !
 ! A131  A(14,62,64)           111.3584         estimate D2E/DX2                !
 ! A132  A(14,62,65)           112.1946         estimate D2E/DX2                !
 ! A133  A(63,62,64)           107.5222         estimate D2E/DX2                !
 ! A134  A(63,62,65)           107.283          estimate D2E/DX2                !
 ! A135  A(64,62,65)           107.5795         estimate D2E/DX2                !
 ! D1    D(6,1,2,3)              2.0408         estimate D2E/DX2                !
 ! D2    D(6,1,2,32)           179.7157         estimate D2E/DX2                !
 ! D3    D(33,1,2,3)          -177.5873         estimate D2E/DX2                !
 ! D4    D(33,1,2,32)            0.0877         estimate D2E/DX2                !
 ! D5    D(2,1,6,5)             37.0298         estimate D2E/DX2                !
 ! D6    D(2,1,6,34)           157.6488         estimate D2E/DX2                !
 ! D7    D(2,1,6,35)           -85.9949         estimate D2E/DX2                !
 ! D8    D(33,1,6,5)          -143.3344         estimate D2E/DX2                !
 ! D9    D(33,1,6,34)          -22.7154         estimate D2E/DX2                !
 ! D10   D(33,1,6,35)           93.6409         estimate D2E/DX2                !
 ! D11   D(1,2,3,4)            -30.6372         estimate D2E/DX2                !
 ! D12   D(1,2,3,20)            91.3606         estimate D2E/DX2                !
 ! D13   D(1,2,3,31)          -148.7458         estimate D2E/DX2                !
 ! D14   D(32,2,3,4)           151.5521         estimate D2E/DX2                !
 ! D15   D(32,2,3,20)          -86.4501         estimate D2E/DX2                !
 ! D16   D(32,2,3,31)           33.4435         estimate D2E/DX2                !
 ! D17   D(1,2,32,59)            0.2091         estimate D2E/DX2                !
 ! D18   D(1,2,32,60)          120.988          estimate D2E/DX2                !
 ! D19   D(1,2,32,61)         -120.425          estimate D2E/DX2                !
 ! D20   D(3,2,32,59)          177.941          estimate D2E/DX2                !
 ! D21   D(3,2,32,60)          -61.2801         estimate D2E/DX2                !
 ! D22   D(3,2,32,61)           57.307          estimate D2E/DX2                !
 ! D23   D(2,3,4,5)             18.1499         estimate D2E/DX2                !
 ! D24   D(2,3,4,7)            145.2342         estimate D2E/DX2                !
 ! D25   D(2,3,4,24)          -101.9192         estimate D2E/DX2                !
 ! D26   D(20,3,4,5)          -108.2313         estimate D2E/DX2                !
 ! D27   D(20,3,4,7)            18.853          estimate D2E/DX2                !
 ! D28   D(20,3,4,24)          131.6997         estimate D2E/DX2                !
 ! D29   D(31,3,4,5)           138.7352         estimate D2E/DX2                !
 ! D30   D(31,3,4,7)           -94.1805         estimate D2E/DX2                !
 ! D31   D(31,3,4,24)           18.6662         estimate D2E/DX2                !
 ! D32   D(2,3,20,17)         -164.9089         estimate D2E/DX2                !
 ! D33   D(2,3,20,42)           72.4394         estimate D2E/DX2                !
 ! D34   D(2,3,20,43)          -46.2644         estimate D2E/DX2                !
 ! D35   D(4,3,20,17)          -37.0301         estimate D2E/DX2                !
 ! D36   D(4,3,20,42)         -159.6818         estimate D2E/DX2                !
 ! D37   D(4,3,20,43)           81.6144         estimate D2E/DX2                !
 ! D38   D(31,3,20,17)          74.1248         estimate D2E/DX2                !
 ! D39   D(31,3,20,42)         -48.5269         estimate D2E/DX2                !
 ! D40   D(31,3,20,43)        -167.2307         estimate D2E/DX2                !
 ! D41   D(3,4,5,6)             18.7546         estimate D2E/DX2                !
 ! D42   D(3,4,5,10)           137.669          estimate D2E/DX2                !
 ! D43   D(3,4,5,22)          -101.1388         estimate D2E/DX2                !
 ! D44   D(7,4,5,6)           -102.8038         estimate D2E/DX2                !
 ! D45   D(7,4,5,10)            16.1106         estimate D2E/DX2                !
 ! D46   D(7,4,5,22)           137.3028         estimate D2E/DX2                !
 ! D47   D(24,4,5,6)           140.9188         estimate D2E/DX2                !
 ! D48   D(24,4,5,10)         -100.1669         estimate D2E/DX2                !
 ! D49   D(24,4,5,22)           21.0254         estimate D2E/DX2                !
 ! D50   D(3,4,7,8)           -104.9743         estimate D2E/DX2                !
 ! D51   D(3,4,7,17)             5.8077         estimate D2E/DX2                !
 ! D52   D(3,4,7,21)           133.0517         estimate D2E/DX2                !
 ! D53   D(5,4,7,8)             22.9733         estimate D2E/DX2                !
 ! D54   D(5,4,7,17)           133.7553         estimate D2E/DX2                !
 ! D55   D(5,4,7,21)           -99.0007         estimate D2E/DX2                !
 ! D56   D(24,4,7,8)           139.3104         estimate D2E/DX2                !
 ! D57   D(24,4,7,17)         -109.9075         estimate D2E/DX2                !
 ! D58   D(24,4,7,21)           17.3365         estimate D2E/DX2                !
 ! D59   D(3,4,24,23)          107.6144         estimate D2E/DX2                !
 ! D60   D(5,4,24,23)          -18.4966         estimate D2E/DX2                !
 ! D61   D(7,4,24,23)         -140.6807         estimate D2E/DX2                !
 ! D62   D(4,5,6,1)            -45.2925         estimate D2E/DX2                !
 ! D63   D(4,5,6,34)          -167.595          estimate D2E/DX2                !
 ! D64   D(4,5,6,35)            78.113          estimate D2E/DX2                !
 ! D65   D(10,5,6,1)          -168.7629         estimate D2E/DX2                !
 ! D66   D(10,5,6,34)           68.9347         estimate D2E/DX2                !
 ! D67   D(10,5,6,35)          -45.3574         estimate D2E/DX2                !
 ! D68   D(22,5,6,1)            70.8432         estimate D2E/DX2                !
 ! D69   D(22,5,6,34)          -51.4592         estimate D2E/DX2                !
 ! D70   D(22,5,6,35)         -165.7512         estimate D2E/DX2                !
 ! D71   D(4,5,10,9)           -46.9182         estimate D2E/DX2                !
 ! D72   D(4,5,10,16)          140.0929         estimate D2E/DX2                !
 ! D73   D(6,5,10,9)            76.6613         estimate D2E/DX2                !
 ! D74   D(6,5,10,16)          -96.3276         estimate D2E/DX2                !
 ! D75   D(22,5,10,9)         -163.708          estimate D2E/DX2                !
 ! D76   D(22,5,10,16)          23.3031         estimate D2E/DX2                !
 ! D77   D(4,5,22,23)          -16.5667         estimate D2E/DX2                !
 ! D78   D(4,5,22,45)         -139.2567         estimate D2E/DX2                !
 ! D79   D(4,5,22,46)          102.2296         estimate D2E/DX2                !
 ! D80   D(6,5,22,23)         -138.2254         estimate D2E/DX2                !
 ! D81   D(6,5,22,45)           99.0846         estimate D2E/DX2                !
 ! D82   D(6,5,22,46)          -19.4291         estimate D2E/DX2                !
 ! D83   D(10,5,22,23)         105.4994         estimate D2E/DX2                !
 ! D84   D(10,5,22,45)         -17.1905         estimate D2E/DX2                !
 ! D85   D(10,5,22,46)        -135.7042         estimate D2E/DX2                !
 ! D86   D(4,7,8,9)            -40.1314         estimate D2E/DX2                !
 ! D87   D(4,7,8,19)           140.2997         estimate D2E/DX2                !
 ! D88   D(17,7,8,9)          -155.4313         estimate D2E/DX2                !
 ! D89   D(17,7,8,19)           24.9998         estimate D2E/DX2                !
 ! D90   D(21,7,8,9)            84.1654         estimate D2E/DX2                !
 ! D91   D(21,7,8,19)          -95.4035         estimate D2E/DX2                !
 ! D92   D(4,7,17,18)         -151.3148         estimate D2E/DX2                !
 ! D93   D(4,7,17,20)          -28.1877         estimate D2E/DX2                !
 ! D94   D(4,7,17,30)           89.9022         estimate D2E/DX2                !
 ! D95   D(8,7,17,18)          -32.2619         estimate D2E/DX2                !
 ! D96   D(8,7,17,20)           90.8652         estimate D2E/DX2                !
 ! D97   D(8,7,17,30)         -151.0449         estimate D2E/DX2                !
 ! D98   D(21,7,17,18)          83.0405         estimate D2E/DX2                !
 ! D99   D(21,7,17,20)        -153.8324         estimate D2E/DX2                !
 ! D100  D(21,7,17,30)         -35.7425         estimate D2E/DX2                !
 ! D101  D(4,7,21,44)          -19.062          estimate D2E/DX2                !
 ! D102  D(8,7,21,44)         -144.1815         estimate D2E/DX2                !
 ! D103  D(17,7,21,44)         104.6195         estimate D2E/DX2                !
 ! D104  D(7,8,9,10)            10.5582         estimate D2E/DX2                !
 ! D105  D(7,8,9,11)          -175.4063         estimate D2E/DX2                !
 ! D106  D(19,8,9,10)         -169.9383         estimate D2E/DX2                !
 ! D107  D(19,8,9,11)            4.0972         estimate D2E/DX2                !
 ! D108  D(7,8,19,18)           -6.648          estimate D2E/DX2                !
 ! D109  D(9,8,19,18)          173.7959         estimate D2E/DX2                !
 ! D110  D(8,9,10,5)            34.4117         estimate D2E/DX2                !
 ! D111  D(8,9,10,16)         -152.7187         estimate D2E/DX2                !
 ! D112  D(11,9,10,5)         -140.1068         estimate D2E/DX2                !
 ! D113  D(11,9,10,16)          32.7627         estimate D2E/DX2                !
 ! D114  D(8,9,11,12)         -135.1853         estimate D2E/DX2                !
 ! D115  D(8,9,11,13)           47.2536         estimate D2E/DX2                !
 ! D116  D(10,9,11,12)          38.7509         estimate D2E/DX2                !
 ! D117  D(10,9,11,13)        -138.8102         estimate D2E/DX2                !
 ! D118  D(9,11,13,14)        -167.1732         estimate D2E/DX2                !
 ! D119  D(9,11,13,15)          68.078          estimate D2E/DX2                !
 ! D120  D(9,11,13,36)         -47.812          estimate D2E/DX2                !
 ! D121  D(12,11,13,14)         15.3385         estimate D2E/DX2                !
 ! D122  D(12,11,13,15)       -109.4103         estimate D2E/DX2                !
 ! D123  D(12,11,13,36)        134.6997         estimate D2E/DX2                !
 ! D124  D(11,13,14,37)        -65.1834         estimate D2E/DX2                !
 ! D125  D(11,13,14,38)         49.3379         estimate D2E/DX2                !
 ! D126  D(11,13,14,62)        171.4268         estimate D2E/DX2                !
 ! D127  D(15,13,14,37)         56.8047         estimate D2E/DX2                !
 ! D128  D(15,13,14,38)        171.3259         estimate D2E/DX2                !
 ! D129  D(15,13,14,62)        -66.5852         estimate D2E/DX2                !
 ! D130  D(36,13,14,37)        176.6127         estimate D2E/DX2                !
 ! D131  D(36,13,14,38)        -68.866          estimate D2E/DX2                !
 ! D132  D(36,13,14,62)         53.2229         estimate D2E/DX2                !
 ! D133  D(11,13,15,39)        -55.9009         estimate D2E/DX2                !
 ! D134  D(11,13,15,40)       -175.8186         estimate D2E/DX2                !
 ! D135  D(11,13,15,41)         64.2319         estimate D2E/DX2                !
 ! D136  D(14,13,15,39)       -179.4388         estimate D2E/DX2                !
 ! D137  D(14,13,15,40)         60.6435         estimate D2E/DX2                !
 ! D138  D(14,13,15,41)        -59.306          estimate D2E/DX2                !
 ! D139  D(36,13,15,39)         59.8114         estimate D2E/DX2                !
 ! D140  D(36,13,15,40)        -60.1064         estimate D2E/DX2                !
 ! D141  D(36,13,15,41)        179.9442         estimate D2E/DX2                !
 ! D142  D(13,14,62,63)       -176.7333         estimate D2E/DX2                !
 ! D143  D(13,14,62,64)        -57.184          estimate D2E/DX2                !
 ! D144  D(13,14,62,65)         63.4663         estimate D2E/DX2                !
 ! D145  D(37,14,62,63)         60.4856         estimate D2E/DX2                !
 ! D146  D(37,14,62,64)       -179.9652         estimate D2E/DX2                !
 ! D147  D(37,14,62,65)        -59.3148         estimate D2E/DX2                !
 ! D148  D(38,14,62,63)        -55.1075         estimate D2E/DX2                !
 ! D149  D(38,14,62,64)         64.4418         estimate D2E/DX2                !
 ! D150  D(38,14,62,65)       -174.9079         estimate D2E/DX2                !
 ! D151  D(7,17,18,19)          29.3508         estimate D2E/DX2                !
 ! D152  D(7,17,18,28)         -85.8212         estimate D2E/DX2                !
 ! D153  D(7,17,18,29)         144.6533         estimate D2E/DX2                !
 ! D154  D(20,17,18,19)        -82.7184         estimate D2E/DX2                !
 ! D155  D(20,17,18,28)        162.1096         estimate D2E/DX2                !
 ! D156  D(20,17,18,29)         32.5841         estimate D2E/DX2                !
 ! D157  D(30,17,18,19)        147.9205         estimate D2E/DX2                !
 ! D158  D(30,17,18,28)         32.7485         estimate D2E/DX2                !
 ! D159  D(30,17,18,29)        -96.7769         estimate D2E/DX2                !
 ! D160  D(7,17,20,3)           39.7721         estimate D2E/DX2                !
 ! D161  D(7,17,20,42)         161.8755         estimate D2E/DX2                !
 ! D162  D(7,17,20,43)         -77.7889         estimate D2E/DX2                !
 ! D163  D(18,17,20,3)         152.3304         estimate D2E/DX2                !
 ! D164  D(18,17,20,42)        -85.5662         estimate D2E/DX2                !
 ! D165  D(18,17,20,43)         34.7694         estimate D2E/DX2                !
 ! D166  D(30,17,20,3)         -78.2261         estimate D2E/DX2                !
 ! D167  D(30,17,20,42)         43.8773         estimate D2E/DX2                !
 ! D168  D(30,17,20,43)        164.2129         estimate D2E/DX2                !
 ! D169  D(17,18,19,8)         -14.799          estimate D2E/DX2                !
 ! D170  D(28,18,19,8)         103.7914         estimate D2E/DX2                !
 ! D171  D(29,18,19,8)        -137.0895         estimate D2E/DX2                !
 ! D172  D(17,18,28,53)        169.3135         estimate D2E/DX2                !
 ! D173  D(17,18,28,54)        -71.5311         estimate D2E/DX2                !
 ! D174  D(17,18,28,55)         48.5114         estimate D2E/DX2                !
 ! D175  D(19,18,28,53)         56.8913         estimate D2E/DX2                !
 ! D176  D(19,18,28,54)        176.0467         estimate D2E/DX2                !
 ! D177  D(19,18,28,55)        -63.9108         estimate D2E/DX2                !
 ! D178  D(29,18,28,53)        -58.7727         estimate D2E/DX2                !
 ! D179  D(29,18,28,54)         60.3827         estimate D2E/DX2                !
 ! D180  D(29,18,28,55)       -179.5748         estimate D2E/DX2                !
 ! D181  D(17,18,29,56)         65.1168         estimate D2E/DX2                !
 ! D182  D(17,18,29,57)       -175.8827         estimate D2E/DX2                !
 ! D183  D(17,18,29,58)        -55.5332         estimate D2E/DX2                !
 ! D184  D(19,18,29,56)        178.6573         estimate D2E/DX2                !
 ! D185  D(19,18,29,57)        -62.3423         estimate D2E/DX2                !
 ! D186  D(19,18,29,58)         58.0073         estimate D2E/DX2                !
 ! D187  D(28,18,29,56)        -64.8358         estimate D2E/DX2                !
 ! D188  D(28,18,29,57)         54.1647         estimate D2E/DX2                !
 ! D189  D(28,18,29,58)        174.5142         estimate D2E/DX2                !
 ! D190  D(5,22,23,24)           6.3397         estimate D2E/DX2                !
 ! D191  D(5,22,23,25)        -115.4876         estimate D2E/DX2                !
 ! D192  D(5,22,23,47)         121.1377         estimate D2E/DX2                !
 ! D193  D(45,22,23,24)        126.7862         estimate D2E/DX2                !
 ! D194  D(45,22,23,25)          4.9589         estimate D2E/DX2                !
 ! D195  D(45,22,23,47)       -118.4157         estimate D2E/DX2                !
 ! D196  D(46,22,23,24)       -112.9021         estimate D2E/DX2                !
 ! D197  D(46,22,23,25)        125.2706         estimate D2E/DX2                !
 ! D198  D(46,22,23,47)          1.896          estimate D2E/DX2                !
 ! D199  D(22,23,24,4)           7.8028         estimate D2E/DX2                !
 ! D200  D(25,23,24,4)         133.6966         estimate D2E/DX2                !
 ! D201  D(47,23,24,4)        -109.3901         estimate D2E/DX2                !
 ! D202  D(22,23,25,26)         54.899          estimate D2E/DX2                !
 ! D203  D(22,23,25,27)       -124.2567         estimate D2E/DX2                !
 ! D204  D(24,23,25,26)        -64.711          estimate D2E/DX2                !
 ! D205  D(24,23,25,27)        116.1333         estimate D2E/DX2                !
 ! D206  D(47,23,25,26)        179.316          estimate D2E/DX2                !
 ! D207  D(47,23,25,27)          0.1604         estimate D2E/DX2                !
 ! D208  D(23,25,26,48)        -64.248          estimate D2E/DX2                !
 ! D209  D(23,25,26,49)         54.1838         estimate D2E/DX2                !
 ! D210  D(23,25,26,50)        174.9903         estimate D2E/DX2                !
 ! D211  D(27,25,26,48)        114.8782         estimate D2E/DX2                !
 ! D212  D(27,25,26,49)       -126.6901         estimate D2E/DX2                !
 ! D213  D(27,25,26,50)         -5.8836         estimate D2E/DX2                !
 ! D214  D(23,25,27,51)        178.7025         estimate D2E/DX2                !
 ! D215  D(23,25,27,52)         -0.8411         estimate D2E/DX2                !
 ! D216  D(26,25,27,51)         -0.4176         estimate D2E/DX2                !
 ! D217  D(26,25,27,52)       -179.9612         estimate D2E/DX2                !
 --------------------------------------------------------------------------------
 Trust Radius=3.00D-01 FncErr=1.00D-07 GrdErr=1.00D-06
 Number of steps in this run=    390 maximum allowed number of steps=    390.
 GradGradGradGradGradGradGradGradGradGradGradGradGradGradGradGradGradGrad

 Stoichiometry    C26H34O5
 Framework group  C1[X(C26H34O5)]
 Deg. of freedom   189
 Full point group                 C1      NOp   1
 Largest Abelian subgroup         C1      NOp   1
 Largest concise Abelian subgroup C1      NOp   1
                         Standard orientation:                         
 ---------------------------------------------------------------------
 Center     Atomic      Atomic             Coordinates (Angstroms)
 Number     Number       Type             X           Y           Z
 ---------------------------------------------------------------------
      1          6           0        2.279540    1.008969    2.668025
      2          6           0        2.751083    1.809781    1.704739
      3          6           0        2.151959    1.748665    0.318010
      4          6           0        1.591688    0.357091   -0.127444
      5          6           0        1.309675   -0.666646    1.013780
      6          6           0        1.189660    0.000564    2.418319
      7          6           0        0.343133    0.714697   -1.013852
      8          6           0       -0.978853    0.467069   -0.314284
      9          6           0       -1.214681   -0.610052    0.470948
     10          6           0       -0.029707   -1.435976    0.820931
     11          6           0       -2.530834   -0.959049    1.110107
     12          8           0       -2.554480   -1.311061    2.277749
     13          6           0       -3.792505   -0.912445    0.247028
     14          6           0       -5.059369   -0.981837    1.115669
     15          6           0       -3.709091   -2.050840   -0.795739
     16          8           0       -0.112221   -2.625536    1.076410
     17          6           0        0.296042    2.248611   -1.183417
     18          6           0       -1.211794    2.539942   -1.363642
     19          8           0       -1.857307    1.444348   -0.591329
     20          6           0        0.980166    2.744527    0.103112
     21          8           0        0.330868   -0.013708   -2.226744
     22          6           0        2.523712   -1.619065    0.970634
     23          6           0        3.215103   -1.404544   -0.391566
     24          8           0        2.524588   -0.283352   -1.007763
     25          6           0        3.211622   -2.589435   -1.336796
     26          6           0        1.887901   -3.221701   -1.691182
     27          6           0        4.374842   -3.046780   -1.811676
     28          6           0       -1.658498    2.397834   -2.820542
     29          6           0       -1.719321    3.841951   -0.752319
     30          1           0        0.862439    2.556553   -2.067593
     31          1           0        2.926446    1.988291   -0.422741
     32          6           0        3.836296    2.827542    1.939999
     33          1           0        2.682601    1.078858    3.677252
     34          1           0        1.217321   -0.795225    3.170729
     35          1           0        0.200951    0.468070    2.525450
     36          1           0       -3.779934    0.039898   -0.299390
     37          1           0       -5.098532   -1.958743    1.612378
     38          1           0       -4.969636   -0.244493    1.922542
     39          1           0       -2.793194   -1.980429   -1.391202
     40          1           0       -4.559362   -2.008482   -1.483797
     41          1           0       -3.717137   -3.029090   -0.301045
     42          1           0        1.325001    3.780817    0.033246
     43          1           0        0.294911    2.689709    0.957656
     44          1           0        1.257958   -0.316035   -2.331097
     45          1           0        2.184768   -2.646467    1.119558
     46          1           0        3.221846   -1.374546    1.774980
     47          1           0        4.254419   -1.089856   -0.242386
     48          1           0        1.405601   -3.668127   -0.813608
     49          1           0        1.179404   -2.482949   -2.082147
     50          1           0        2.018703   -4.003743   -2.444787
     51          1           0        4.423469   -3.906391   -2.475399
     52          1           0        5.323228   -2.583731   -1.549171
     53          1           0       -2.751433    2.422794   -2.881949
     54          1           0       -1.262574    3.227775   -3.416923
     55          1           0       -1.297018    1.459563   -3.247669
     56          1           0       -1.261750    4.696978   -1.261931
     57          1           0       -2.804981    3.916000   -0.871664
     58          1           0       -1.487880    3.908243    0.313702
     59          1           0        4.178339    2.817940    2.979755
     60          1           0        4.704088    2.638822    1.292812
     61          1           0        3.491128    3.844878    1.708582
     62          6           0       -6.358006   -0.732102    0.340844
     63          1           0       -7.219726   -0.736271    1.018080
     64          1           0       -6.340412    0.241597   -0.165616
     65          1           0       -6.539202   -1.498375   -0.421309
 ---------------------------------------------------------------------
 Rotational constants (GHZ):      0.2059159      0.1273434      0.1087927
 Standard basis: 6-311+G(d) (5D, 7F)
 There are   784 symmetry adapted basis functions of A   symmetry.
 Integral buffers will be    131072 words long.
 Raffenetti 2 integral format.
 Two-electron integral symmetry is turned on.
   784 basis functions,  1286 primitive gaussians,   815 cartesian basis functions
   115 alpha electrons      115 beta electrons
       nuclear repulsion energy      3508.0842649113 Hartrees.
 NAtoms=   65 NActive=   65 NUniq=   65 SFac= 1.00D+00 NAtFMM=   50 NAOKFM=T Big=T
 One-electron integrals computed using PRISM.
 NBasis=   784 RedAO= T  NBF=   784
 NBsUse=   777 1.00D-06 NBFU=   777
 Harris functional with IExCor=  402 diagonalized for initial guess.
 ExpMin= 4.38D-02 ExpMax= 8.59D+03 ExpMxC= 1.30D+03 IAcc=2 IRadAn=         0 AccDes= 0.00D+00
 HarFok:  IExCor=  402 AccDes= 0.00D+00 IRadAn=         0 IDoV= 1
 ScaDFX=  1.000000  1.000000  1.000000  1.000000
 FoFCou: FMM=F IPFlag=           0 FMFlag=      100000 FMFlg1=        2001
         NFxFlg=           0 DoJE=T BraDBF=F KetDBF=T FulRan=T
         Omega=  0.000000  0.000000  1.000000  0.000000  0.000000 ICntrl=     500 IOpCl=  0
         NMat0=    1 NMatS0=    1 NMatT0=    0 NMatD0=    1 NMtDS0=    0 NMtDT0=    0
         I1Cent=           4 NGrid=           0.
 Petite list used in FoFCou.
 Initial guess orbital symmetries:
       Occupied  (A) (A) (A) (A) (A) (A) (A) (A) (A) (A) (A) (A)
                 (A) (A) (A) (A) (A) (A) (A) (A) (A) (A) (A) (A)
                 (A) (A) (A) (A) (A) (A) (A) (A) (A) (A) (A) (A)
                 (A) (A) (A) (A) (A) (A) (A) (A) (A) (A) (A) (A)
                 (A) (A) (A) (A) (A) (A) (A) (A) (A) (A) (A) (A)
                 (A) (A) (A) (A) (A) (A) (A) (A) (A) (A) (A) (A)
                 (A) (A) (A) (A) (A) (A) (A) (A) (A) (A) (A) (A)
                 (A) (A) (A) (A) (A) (A) (A) (A) (A) (A) (A) (A)
                 (A) (A) (A) (A) (A) (A) (A) (A) (A) (A) (A) (A)
                 (A) (A) (A) (A) (A) (A) (A)
       Virtual   (A) (A) (A) (A) (A) (A) (A) (A) (A) (A) (A) (A)
                 (A) (A) (A) (A) (A) (A) (A) (A) (A) (A) (A) (A)
                 (A) (A) (A) (A) (A) (A) (A) (A) (A) (A) (A) (A)
                 (A) (A) (A) (A) (A) (A) (A) (A) (A) (A) (A) (A)
                 (A) (A) (A) (A) (A) (A) (A) (A) (A) (A) (A) (A)
                 (A) (A) (A) (A) (A) (A) (A) (A) (A) (A) (A) (A)
                 (A) (A) (A) (A) (A) (A) (A) (A) (A) (A) (A) (A)
                 (A) (A) (A) (A) (A) (A) (A) (A) (A) (A) (A) (A)
                 (A) (A) (A) (A) (A) (A) (A) (A) (A) (A) (A) (A)
                 (A) (A) (A) (A) (A) (A) (A) (A) (A) (A) (A) (A)
                 (A) (A) (A) (A) (A) (A) (A) (A) (A) (A) (A) (A)
                 (A) (A) (A) (A) (A) (A) (A) (A) (A) (A) (A) (A)
                 (A) (A) (A) (A) (A) (A) (A) (A) (A) (A) (A) (A)
                 (A) (A) (A) (A) (A) (A) (A) (A) (A) (A) (A) (A)
                 (A) (A) (A) (A) (A) (A) (A) (A) (A) (A) (A) (A)
                 (A) (A) (A) (A) (A) (A) (A) (A) (A) (A) (A) (A)
                 (A) (A) (A) (A) (A) (A) (A) (A) (A) (A) (A) (A)
                 (A) (A) (A) (A) (A) (A) (A) (A) (A) (A) (A) (A)
                 (A) (A) (A) (A) (A) (A) (A) (A) (A) (A) (A) (A)
                 (A) (A) (A) (A) (A) (A) (A) (A) (A) (A) (A) (A)
                 (A) (A) (A) (A) (A) (A) (A) (A) (A) (A) (A) (A)
                 (A) (A) (A) (A) (A) (A) (A) (A) (A) (A) (A) (A)
                 (A) (A) (A) (A) (A) (A) (A) (A) (A) (A) (A) (A)
                 (A) (A) (A) (A) (A) (A) (A) (A) (A) (A) (A) (A)
                 (A) (A) (A) (A) (A) (A) (A) (A) (A) (A) (A) (A)
                 (A) (A) (A) (A) (A) (A) (A) (A) (A) (A) (A) (A)
                 (A) (A) (A) (A) (A) (A) (A) (A) (A) (A) (A) (A)
                 (A) (A) (A) (A) (A) (A) (A) (A) (A) (A) (A) (A)
                 (A) (A) (A) (A) (A) (A) (A) (A) (A) (A) (A) (A)
                 (A) (A) (A) (A) (A) (A) (A) (A) (A) (A) (A) (A)
                 (A) (A) (A) (A) (A) (A) (A) (A) (A) (A) (A) (A)
                 (A) (A) (A) (A) (A) (A) (A) (A) (A) (A) (A) (A)
                 (A) (A) (A) (A) (A) (A) (A) (A) (A) (A) (A) (A)
                 (A) (A) (A) (A) (A) (A) (A) (A) (A) (A) (A) (A)
                 (A) (A) (A) (A) (A) (A) (A) (A) (A) (A) (A) (A)
                 (A) (A) (A) (A) (A) (A) (A) (A) (A) (A) (A) (A)
                 (A) (A) (A) (A) (A) (A) (A) (A) (A) (A) (A) (A)
                 (A) (A) (A) (A) (A) (A) (A) (A) (A) (A) (A) (A)
                 (A) (A) (A) (A) (A) (A) (A) (A) (A) (A) (A) (A)
                 (A) (A) (A) (A) (A) (A) (A) (A) (A) (A) (A) (A)
                 (A) (A) (A) (A) (A) (A) (A) (A) (A) (A) (A) (A)
                 (A) (A) (A) (A) (A) (A) (A) (A) (A) (A) (A) (A)
                 (A) (A) (A) (A) (A) (A) (A) (A) (A) (A) (A) (A)
                 (A) (A) (A) (A) (A) (A) (A) (A) (A) (A) (A) (A)
                 (A) (A) (A) (A) (A) (A) (A) (A) (A) (A) (A) (A)
                 (A) (A) (A) (A) (A) (A) (A) (A) (A) (A) (A) (A)
                 (A) (A) (A) (A) (A) (A) (A) (A) (A) (A) (A) (A)
                 (A) (A) (A) (A) (A) (A) (A) (A) (A) (A) (A) (A)
                 (A) (A) (A) (A) (A) (A) (A) (A) (A) (A) (A) (A)
                 (A) (A) (A) (A) (A) (A) (A) (A) (A) (A) (A) (A)
                 (A) (A) (A) (A) (A) (A) (A) (A) (A) (A) (A) (A)
                 (A) (A) (A) (A) (A) (A) (A) (A) (A) (A) (A) (A)
                 (A) (A) (A) (A) (A) (A) (A) (A) (A) (A) (A) (A)
                 (A) (A) (A) (A) (A) (A) (A) (A) (A) (A) (A) (A)
                 (A) (A) (A) (A) (A) (A) (A) (A) (A) (A) (A) (A)
                 (A) (A)
 The electronic state of the initial guess is 1-A.
 Requested convergence on RMS density matrix=1.00D-08 within 128 cycles.
 Requested convergence on MAX density matrix=1.00D-06.
 Requested convergence on             energy=1.00D-06.
 No special actions if energy rises.
 SCF Done:  E(RB3LYP) =  -1387.64876411     A.U. after   17 cycles
             Convg  =    0.6782D-08             -V/T =  2.0043

 **********************************************************************

            Population analysis using the SCF density.

 **********************************************************************

 Orbital symmetries:
       Occupied  (A) (A) (A) (A) (A) (A) (A) (A) (A) (A) (A) (A)
                 (A) (A) (A) (A) (A) (A) (A) (A) (A) (A) (A) (A)
                 (A) (A) (A) (A) (A) (A) (A) (A) (A) (A) (A) (A)
                 (A) (A) (A) (A) (A) (A) (A) (A) (A) (A) (A) (A)
                 (A) (A) (A) (A) (A) (A) (A) (A) (A) (A) (A) (A)
                 (A) (A) (A) (A) (A) (A) (A) (A) (A) (A) (A) (A)
                 (A) (A) (A) (A) (A) (A) (A) (A) (A) (A) (A) (A)
                 (A) (A) (A) (A) (A) (A) (A) (A) (A) (A) (A) (A)
                 (A) (A) (A) (A) (A) (A) (A) (A) (A) (A) (A) (A)
                 (A) (A) (A) (A) (A) (A) (A)
       Virtual   (A) (A) (A) (A) (A) (A) (A) (A) (A) (A) (A) (A)
                 (A) (A) (A) (A) (A) (A) (A) (A) (A) (A) (A) (A)
                 (A) (A) (A) (A) (A) (A) (A) (A) (A) (A) (A) (A)
                 (A) (A) (A) (A) (A) (A) (A) (A) (A) (A) (A) (A)
                 (A) (A) (A) (A) (A) (A) (A) (A) (A) (A) (A) (A)
                 (A) (A) (A) (A) (A) (A) (A) (A) (A) (A) (A) (A)
                 (A) (A) (A) (A) (A) (A) (A) (A) (A) (A) (A) (A)
                 (A) (A) (A) (A) (A) (A) (A) (A) (A) (A) (A) (A)
                 (A) (A) (A) (A) (A) (A) (A) (A) (A) (A) (A) (A)
                 (A) (A) (A) (A) (A) (A) (A) (A) (A) (A) (A) (A)
                 (A) (A) (A) (A) (A) (A) (A) (A) (A) (A) (A) (A)
                 (A) (A) (A) (A) (A) (A) (A) (A) (A) (A) (A) (A)
                 (A) (A) (A) (A) (A) (A) (A) (A) (A) (A) (A) (A)
                 (A) (A) (A) (A) (A) (A) (A) (A) (A) (A) (A) (A)
                 (A) (A) (A) (A) (A) (A) (A) (A) (A) (A) (A) (A)
                 (A) (A) (A) (A) (A) (A) (A) (A) (A) (A) (A) (A)
                 (A) (A) (A) (A) (A) (A) (A) (A) (A) (A) (A) (A)
                 (A) (A) (A) (A) (A) (A) (A) (A) (A) (A) (A) (A)
                 (A) (A) (A) (A) (A) (A) (A) (A) (A) (A) (A) (A)
                 (A) (A) (A) (A) (A) (A) (A) (A) (A) (A) (A) (A)
                 (A) (A) (A) (A) (A) (A) (A) (A) (A) (A) (A) (A)
                 (A) (A) (A) (A) (A) (A) (A) (A) (A) (A) (A) (A)
                 (A) (A) (A) (A) (A) (A) (A) (A) (A) (A) (A) (A)
                 (A) (A) (A) (A) (A) (A) (A) (A) (A) (A) (A) (A)
                 (A) (A) (A) (A) (A) (A) (A) (A) (A) (A) (A) (A)
                 (A) (A) (A) (A) (A) (A) (A) (A) (A) (A) (A) (A)
                 (A) (A) (A) (A) (A) (A) (A) (A) (A) (A) (A) (A)
                 (A) (A) (A) (A) (A) (A) (A) (A) (A) (A) (A) (A)
                 (A) (A) (A) (A) (A) (A) (A) (A) (A) (A) (A) (A)
                 (A) (A) (A) (A) (A) (A) (A) (A) (A) (A) (A) (A)
                 (A) (A) (A) (A) (A) (A) (A) (A) (A) (A) (A) (A)
                 (A) (A) (A) (A) (A) (A) (A) (A) (A) (A) (A) (A)
                 (A) (A) (A) (A) (A) (A) (A) (A) (A) (A) (A) (A)
                 (A) (A) (A) (A) (A) (A) (A) (A) (A) (A) (A) (A)
                 (A) (A) (A) (A) (A) (A) (A) (A) (A) (A) (A) (A)
                 (A) (A) (A) (A) (A) (A) (A) (A) (A) (A) (A) (A)
                 (A) (A) (A) (A) (A) (A) (A) (A) (A) (A) (A) (A)
                 (A) (A) (A) (A) (A) (A) (A) (A) (A) (A) (A) (A)
                 (A) (A) (A) (A) (A) (A) (A) (A) (A) (A) (A) (A)
                 (A) (A) (A) (A) (A) (A) (A) (A) (A) (A) (A) (A)
                 (A) (A) (A) (A) (A) (A) (A) (A) (A) (A) (A) (A)
                 (A) (A) (A) (A) (A) (A) (A) (A) (A) (A) (A) (A)
                 (A) (A) (A) (A) (A) (A) (A) (A) (A) (A) (A) (A)
                 (A) (A) (A) (A) (A) (A) (A) (A) (A) (A) (A) (A)
                 (A) (A) (A) (A) (A) (A) (A) (A) (A) (A) (A) (A)
                 (A) (A) (A) (A) (A) (A) (A) (A) (A) (A) (A) (A)
                 (A) (A) (A) (A) (A) (A) (A) (A) (A) (A) (A) (A)
                 (A) (A) (A) (A) (A) (A) (A) (A) (A) (A) (A) (A)
                 (A) (A) (A) (A) (A) (A) (A) (A) (A) (A) (A) (A)
                 (A) (A) (A) (A) (A) (A) (A) (A) (A) (A) (A) (A)
                 (A) (A) (A) (A) (A) (A) (A) (A) (A) (A) (A) (A)
                 (A) (A) (A) (A) (A) (A) (A) (A) (A) (A) (A) (A)
                 (A) (A) (A) (A) (A) (A) (A) (A) (A) (A) (A) (A)
                 (A) (A) (A) (A) (A) (A) (A) (A) (A) (A) (A) (A)
                 (A) (A) (A) (A) (A) (A) (A) (A) (A) (A) (A) (A)
                 (A) (A)
 The electronic state is 1-A.
 Alpha  occ. eigenvalues --  -19.18056 -19.14915 -19.13580 -19.11251 -19.10667
 Alpha  occ. eigenvalues --  -10.26546 -10.26485 -10.26247 -10.25794 -10.25789
 Alpha  occ. eigenvalues --  -10.25666 -10.23805 -10.20879 -10.19986 -10.19765
 Alpha  occ. eigenvalues --  -10.19421 -10.19025 -10.18833 -10.18677 -10.18448
 Alpha  occ. eigenvalues --  -10.18265 -10.17893 -10.17737 -10.17605 -10.17451
 Alpha  occ. eigenvalues --  -10.17406 -10.16840 -10.16236 -10.15834 -10.15678
 Alpha  occ. eigenvalues --  -10.15345  -1.10379  -1.07307  -1.04762  -1.03542
 Alpha  occ. eigenvalues --   -1.03486  -0.88041  -0.84936  -0.83075  -0.82198
 Alpha  occ. eigenvalues --   -0.80883  -0.80390  -0.77865  -0.74768  -0.74099
 Alpha  occ. eigenvalues --   -0.73236  -0.72273  -0.71117  -0.69554  -0.69015
 Alpha  occ. eigenvalues --   -0.65883  -0.65253  -0.64297  -0.63154  -0.61729
 Alpha  occ. eigenvalues --   -0.60033  -0.59333  -0.57734  -0.55790  -0.54413
 Alpha  occ. eigenvalues --   -0.54206  -0.52919  -0.51975  -0.50997  -0.50082
 Alpha  occ. eigenvalues --   -0.48971  -0.48440  -0.47977  -0.47570  -0.47046
 Alpha  occ. eigenvalues --   -0.46089  -0.45628  -0.45458  -0.45168  -0.44084
 Alpha  occ. eigenvalues --   -0.44070  -0.43516  -0.43262  -0.42078  -0.41947
 Alpha  occ. eigenvalues --   -0.41652  -0.41419  -0.41233  -0.40981  -0.40406
 Alpha  occ. eigenvalues --   -0.40192  -0.40063  -0.39716  -0.39425  -0.38780
 Alpha  occ. eigenvalues --   -0.38733  -0.38505  -0.38325  -0.37394  -0.37150
 Alpha  occ. eigenvalues --   -0.36846  -0.36616  -0.36340  -0.35618  -0.35422
 Alpha  occ. eigenvalues --   -0.34855  -0.34546  -0.34324  -0.34023  -0.33285
 Alpha  occ. eigenvalues --   -0.32761  -0.32243  -0.32084  -0.28978  -0.28840
 Alpha  occ. eigenvalues --   -0.26284  -0.26070  -0.25557  -0.24757  -0.24143
 Alpha virt. eigenvalues --   -0.05933  -0.03427  -0.01475  -0.00968  -0.00506
 Alpha virt. eigenvalues --   -0.00185   0.00342   0.00572   0.01619   0.01842
 Alpha virt. eigenvalues --    0.02012   0.02270   0.02924   0.03262   0.03559
 Alpha virt. eigenvalues --    0.03709   0.03851   0.04245   0.04597   0.04692
 Alpha virt. eigenvalues --    0.05025   0.05135   0.05618   0.05797   0.06395
 Alpha virt. eigenvalues --    0.06466   0.06699   0.06972   0.07233   0.07343
 Alpha virt. eigenvalues --    0.07446   0.07722   0.07927   0.08555   0.08625
 Alpha virt. eigenvalues --    0.08963   0.09209   0.09371   0.09523   0.09725
 Alpha virt. eigenvalues --    0.10241   0.10642   0.10685   0.10920   0.11122
 Alpha virt. eigenvalues --    0.11470   0.11657   0.11757   0.12044   0.12263
 Alpha virt. eigenvalues --    0.12530   0.12854   0.13096   0.13145   0.13714
 Alpha virt. eigenvalues --    0.13821   0.13876   0.14073   0.14119   0.14548
 Alpha virt. eigenvalues --    0.14857   0.15061   0.15245   0.15873   0.15961
 Alpha virt. eigenvalues --    0.16105   0.16351   0.16835   0.16920   0.17160
 Alpha virt. eigenvalues --    0.17535   0.17839   0.17996   0.18110   0.18152
 Alpha virt. eigenvalues --    0.18399   0.18616   0.18713   0.18857   0.18989
 Alpha virt. eigenvalues --    0.19263   0.19717   0.19811   0.20056   0.20296
 Alpha virt. eigenvalues --    0.20379   0.20635   0.20820   0.21011   0.21144
 Alpha virt. eigenvalues --    0.21399   0.21686   0.21888   0.21965   0.22207
 Alpha virt. eigenvalues --    0.22377   0.22554   0.22746   0.22991   0.23094
 Alpha virt. eigenvalues --    0.23164   0.23306   0.23423   0.23535   0.23891
 Alpha virt. eigenvalues --    0.24034   0.24220   0.24387   0.24755   0.24808
 Alpha virt. eigenvalues --    0.25074   0.25342   0.25486   0.25707   0.25957
 Alpha virt. eigenvalues --    0.26205   0.26409   0.26494   0.26802   0.26992
 Alpha virt. eigenvalues --    0.27126   0.27327   0.27492   0.27830   0.28266
 Alpha virt. eigenvalues --    0.28351   0.28802   0.29108   0.29202   0.29585
 Alpha virt. eigenvalues --    0.29755   0.29872   0.30043   0.30338   0.30391
 Alpha virt. eigenvalues --    0.30981   0.31091   0.31455   0.32044   0.32172
 Alpha virt. eigenvalues --    0.32520   0.32920   0.33144   0.33243   0.33809
 Alpha virt. eigenvalues --    0.33904   0.34061   0.34353   0.34663   0.35120
 Alpha virt. eigenvalues --    0.35319   0.35785   0.35919   0.36052   0.36592
 Alpha virt. eigenvalues --    0.36975   0.37094   0.37607   0.38338   0.38666
 Alpha virt. eigenvalues --    0.38890   0.39095   0.39546   0.39718   0.39925
 Alpha virt. eigenvalues --    0.40436   0.41064   0.41285   0.41829   0.42196
 Alpha virt. eigenvalues --    0.42679   0.42867   0.43441   0.43802   0.44122
 Alpha virt. eigenvalues --    0.44217   0.44702   0.45083   0.45667   0.45744
 Alpha virt. eigenvalues --    0.46294   0.46433   0.47058   0.47424   0.47862
 Alpha virt. eigenvalues --    0.47962   0.48303   0.48917   0.49216   0.49669
 Alpha virt. eigenvalues --    0.50106   0.50314   0.50747   0.51353   0.51526
 Alpha virt. eigenvalues --    0.52279   0.52564   0.52960   0.53407   0.53664
 Alpha virt. eigenvalues --    0.54317   0.54570   0.54949   0.55181   0.55733
 Alpha virt. eigenvalues --    0.56137   0.56458   0.56901   0.57626   0.57811
 Alpha virt. eigenvalues --    0.58180   0.58718   0.59023   0.59534   0.60138
 Alpha virt. eigenvalues --    0.60662   0.61103   0.61568   0.61804   0.62382
 Alpha virt. eigenvalues --    0.62518   0.62883   0.63538   0.63584   0.64386
 Alpha virt. eigenvalues --    0.64417   0.64980   0.65180   0.65739   0.66068
 Alpha virt. eigenvalues --    0.66317   0.66796   0.67071   0.67599   0.67848
 Alpha virt. eigenvalues --    0.68352   0.68617   0.68739   0.69113   0.69485
 Alpha virt. eigenvalues --    0.69692   0.69816   0.70062   0.70295   0.70638
 Alpha virt. eigenvalues --    0.70787   0.70984   0.71131   0.71863   0.71922
 Alpha virt. eigenvalues --    0.72432   0.72768   0.73040   0.73384   0.73605
 Alpha virt. eigenvalues --    0.74132   0.74382   0.74579   0.75317   0.75344
 Alpha virt. eigenvalues --    0.75639   0.76181   0.76775   0.76894   0.77360
 Alpha virt. eigenvalues --    0.77773   0.78021   0.78269   0.78570   0.79075
 Alpha virt. eigenvalues --    0.79248   0.79685   0.80022   0.80857   0.80912
 Alpha virt. eigenvalues --    0.81586   0.81687   0.82130   0.82347   0.82939
 Alpha virt. eigenvalues --    0.83186   0.83692   0.83792   0.84553   0.84748
 Alpha virt. eigenvalues --    0.84960   0.86113   0.86977   0.87948   0.88674
 Alpha virt. eigenvalues --    0.89371   0.89572   0.90951   0.91527   0.92844
 Alpha virt. eigenvalues --    0.93989   0.95446   0.95724   0.96296   0.96741
 Alpha virt. eigenvalues --    0.97852   0.98790   0.99139   1.00256   1.01119
 Alpha virt. eigenvalues --    1.01912   1.02294   1.03094   1.04058   1.04740
 Alpha virt. eigenvalues --    1.05474   1.06665   1.08007   1.08555   1.09847
 Alpha virt. eigenvalues --    1.10490   1.12351   1.13389   1.14431   1.14962
 Alpha virt. eigenvalues --    1.15612   1.16582   1.18183   1.19161   1.19344
 Alpha virt. eigenvalues --    1.20798   1.21697   1.22769   1.23929   1.24060
 Alpha virt. eigenvalues --    1.25136   1.25629   1.26748   1.27296   1.27853
 Alpha virt. eigenvalues --    1.28160   1.28874   1.30431   1.31672   1.32088
 Alpha virt. eigenvalues --    1.33128   1.34290   1.35149   1.35407   1.35830
 Alpha virt. eigenvalues --    1.36726   1.37878   1.38544   1.39144   1.39745
 Alpha virt. eigenvalues --    1.40822   1.41392   1.42441   1.43310   1.43763
 Alpha virt. eigenvalues --    1.44583   1.46393   1.46672   1.46921   1.48078
 Alpha virt. eigenvalues --    1.48838   1.50546   1.51131   1.51640   1.52272
 Alpha virt. eigenvalues --    1.52996   1.53297   1.54269   1.54993   1.55910
 Alpha virt. eigenvalues --    1.56402   1.57021   1.57252   1.58120   1.58839
 Alpha virt. eigenvalues --    1.58948   1.59434   1.59818   1.60507   1.60718
 Alpha virt. eigenvalues --    1.60867   1.61749   1.62445   1.62594   1.62922
 Alpha virt. eigenvalues --    1.63897   1.64327   1.64705   1.65103   1.65619
 Alpha virt. eigenvalues --    1.66039   1.66139   1.66670   1.67362   1.67369
 Alpha virt. eigenvalues --    1.67834   1.68795   1.69012   1.70165   1.70202
 Alpha virt. eigenvalues --    1.70650   1.71556   1.71919   1.72186   1.72677
 Alpha virt. eigenvalues --    1.73133   1.73540   1.74876   1.75546   1.76350
 Alpha virt. eigenvalues --    1.76628   1.78227   1.78412   1.79130   1.80321
 Alpha virt. eigenvalues --    1.80822   1.81915   1.82752   1.83721   1.84395
 Alpha virt. eigenvalues --    1.84965   1.85494   1.85731   1.87554   1.88180
 Alpha virt. eigenvalues --    1.88556   1.89453   1.89706   1.91372   1.92382
 Alpha virt. eigenvalues --    1.92666   1.93922   1.94519   1.96385   1.97263
 Alpha virt. eigenvalues --    1.97935   1.98379   2.00671   2.01477   2.01844
 Alpha virt. eigenvalues --    2.02787   2.03275   2.03965   2.04115   2.05595
 Alpha virt. eigenvalues --    2.05681   2.07762   2.08412   2.09489   2.11067
 Alpha virt. eigenvalues --    2.11791   2.13014   2.14418   2.15554   2.15652
 Alpha virt. eigenvalues --    2.17404   2.17960   2.20175   2.21098   2.22350
 Alpha virt. eigenvalues --    2.22752   2.24125   2.24947   2.26266   2.27403
 Alpha virt. eigenvalues --    2.27986   2.30303   2.30806   2.32578   2.33272
 Alpha virt. eigenvalues --    2.33929   2.35394   2.35898   2.38554   2.40307
 Alpha virt. eigenvalues --    2.43587   2.46920   2.47975   2.50245   2.50560
 Alpha virt. eigenvalues --    2.51900   2.52295   2.53604   2.54039   2.54365
 Alpha virt. eigenvalues --    2.54878   2.55948   2.56191   2.56287   2.56997
 Alpha virt. eigenvalues --    2.57857   2.58796   2.59660   2.61093   2.61603
 Alpha virt. eigenvalues --    2.63361   2.64119   2.64956   2.65429   2.66393
 Alpha virt. eigenvalues --    2.66961   2.68639   2.69405   2.69760   2.70809
 Alpha virt. eigenvalues --    2.71370   2.72213   2.72453   2.73297   2.73676
 Alpha virt. eigenvalues --    2.74833   2.78547   2.79886   2.80673   2.85234
 Alpha virt. eigenvalues --    2.86109   2.87197   2.88179   2.89409   2.90890
 Alpha virt. eigenvalues --    2.91352   2.93032   2.93411   2.94547   2.95356
 Alpha virt. eigenvalues --    2.95555   2.97169   2.97638   2.98169   2.99580
 Alpha virt. eigenvalues --    3.01052   3.01468   3.02400   3.03198   3.03527
 Alpha virt. eigenvalues --    3.04256   3.04551   3.05895   3.06594   3.06973
 Alpha virt. eigenvalues --    3.08975   3.11082   3.11631   3.12975   3.13547
 Alpha virt. eigenvalues --    3.13971   3.15879   3.16967   3.17683   3.18268
 Alpha virt. eigenvalues --    3.19497   3.19813   3.21193   3.22437   3.23612
 Alpha virt. eigenvalues --    3.23830   3.24576   3.25050   3.25652   3.26534
 Alpha virt. eigenvalues --    3.26918   3.27458   3.28448   3.28962   3.30597
 Alpha virt. eigenvalues --    3.30678   3.31985   3.32596   3.33143   3.33312
 Alpha virt. eigenvalues --    3.34676   3.36103   3.37617   3.38190   3.38856
 Alpha virt. eigenvalues --    3.39983   3.40975   3.42348   3.42741   3.45344
 Alpha virt. eigenvalues --    3.46474   3.48386   3.51027   3.51282   3.52565
 Alpha virt. eigenvalues --    3.53508   3.58225   3.60742   3.66320   3.74710
 Alpha virt. eigenvalues --    3.75955   3.77602   3.81828   3.85112   3.89731
 Alpha virt. eigenvalues --    3.92082   3.94237   3.97643   4.01294   4.04152
 Alpha virt. eigenvalues --    4.05285   4.06317   4.07866   4.09433   4.11681
 Alpha virt. eigenvalues --    4.15367   4.17741   4.18941   4.20411   4.21867
 Alpha virt. eigenvalues --    4.24188   4.27424   4.28683   4.32962   4.44635
 Alpha virt. eigenvalues --    4.54805   5.13993   5.14918   5.17995   5.22290
 Alpha virt. eigenvalues --    5.26136   5.27401   5.31206   5.32713   5.40412
 Alpha virt. eigenvalues --    5.42490   5.55907   5.71781   5.72051   5.78132
 Alpha virt. eigenvalues --    5.82266  23.45681  23.48063  23.50662  23.51901
 Alpha virt. eigenvalues --   23.59952  23.62266  23.65339  23.66516  23.68500
 Alpha virt. eigenvalues --   23.70174  23.72273  23.74491  23.76380  23.77804
 Alpha virt. eigenvalues --   23.78894  23.80160  23.82567  23.84951  23.86073
 Alpha virt. eigenvalues --   23.88084  23.89276  23.91478  23.96521  24.18262
 Alpha virt. eigenvalues --   24.20521  24.21691  49.97936  49.99697  50.01919
 Alpha virt. eigenvalues --   50.02196  50.06667
          Condensed to atoms (all electrons):
 Mulliken atomic charges:
              1
     1  C   -0.788017
     2  C    1.016222
     3  C   -0.386649
     4  C   -0.224070
     5  C    1.299011
     6  C   -0.898759
     7  C   -0.905163
     8  C    0.112520
     9  C   -0.131756
    10  C   -0.284798
    11  C   -0.452215
    12  O   -0.165254
    13  C    0.664422
    14  C   -0.265675
    15  C   -1.169384
    16  O   -0.180116
    17  C    0.028791
    18  C    0.459607
    19  O    0.153562
    20  C   -1.433541
    21  O   -0.065338
    22  C   -0.408478
    23  C   -0.200613
    24  O   -0.045084
    25  C    0.946538
    26  C   -1.136709
    27  C   -0.969489
    28  C   -0.758604
    29  C   -0.521190
    30  H    0.239304
    31  H    0.258043
    32  C   -1.143861
    33  H    0.210758
    34  H    0.269136
    35  H    0.274949
    36  H    0.246432
    37  H    0.253280
    38  H    0.251365
    39  H    0.275660
    40  H    0.255201
    41  H    0.273363
    42  H    0.259874
    43  H    0.288753
    44  H    0.302691
    45  H    0.296618
    46  H    0.254618
    47  H    0.209801
    48  H    0.298099
    49  H    0.275064
    50  H    0.252919
    51  H    0.228563
    52  H    0.214364
    53  H    0.261023
    54  H    0.252662
    55  H    0.312793
    56  H    0.262055
    57  H    0.267453
    58  H    0.263436
    59  H    0.251950
    60  H    0.260111
    61  H    0.245019
    62  C   -0.928291
    63  H    0.247831
    64  H    0.231805
    65  H    0.237391
 Sum of Mulliken atomic charges =   0.00000
 Mulliken charges with hydrogens summed into heavy atoms:
              1
     1  C   -0.577258
     2  C    1.016222
     3  C   -0.128606
     4  C   -0.224070
     5  C    1.299011
     6  C   -0.354675
     7  C   -0.905163
     8  C    0.112520
     9  C   -0.131756
    10  C   -0.284798
    11  C   -0.452215
    12  O   -0.165254
    13  C    0.910854
    14  C    0.238970
    15  C   -0.365161
    16  O   -0.180116
    17  C    0.268095
    18  C    0.459607
    19  O    0.153562
    20  C   -0.884913
    21  O    0.237353
    22  C    0.142757
    23  C    0.009188
    24  O   -0.045084
    25  C    0.946538
    26  C   -0.310627
    27  C   -0.526562
    28  C    0.067874
    29  C    0.271754
    32  C   -0.386782
    62  C   -0.211264
 Sum of Mulliken charges with hydrogens summed into heavy atoms =   0.00000
 Electronic spatial extent (au):  <R**2>=          11675.6874
 Charge=              0.0000 electrons
 Dipole moment (field-independent basis, Debye):
    X=              2.8452    Y=              5.4588    Z=             -2.1450  Tot=              6.5188
 Quadrupole moment (field-independent basis, Debye-Ang):
   XX=           -183.0356   YY=           -184.2735   ZZ=           -194.9025
   XY=             -3.6019   XZ=             10.2297   YZ=              4.7685
 Traceless Quadrupole moment (field-independent basis, Debye-Ang):
   XX=              4.3682   YY=              3.1304   ZZ=             -7.4986
   XY=             -3.6019   XZ=             10.2297   YZ=              4.7685
 Octapole moment (field-independent basis, Debye-Ang**2):
  XXX=             14.9012  YYY=             49.2460  ZZZ=             -7.8644  XYY=              7.7286
  XXY=              2.2050  XXZ=             -8.4349  XZZ=             24.3797  YZZ=             16.9982
  YYZ=            -42.2988  XYZ=              0.5549
 Hexadecapole moment (field-independent basis, Debye-Ang**3):
 XXXX=          -8835.2682 YYYY=          -4552.7374 ZZZZ=          -2671.7722 XXXY=              9.4642
 XXXZ=              1.9575 YYYX=            -16.4064 YYYZ=              8.3399 ZZZX=             78.9516
 ZZZY=              0.1080 XXYY=          -2210.5813 XXZZ=          -1955.0712 YYZZ=          -1184.2854
 XXYZ=             41.4730 YYXZ=            -15.6048 ZZXY=            -51.1018
 N-N= 3.508084264911D+03 E-N=-1.024899839520D+04  KE= 1.381710531979D+03
 Calling FoFJK, ICntrl=      2127 FMM=T ISym2X=0 I1Cent= 0 IOpClX= 0 NMat=1 NMatS=1 NMatT=0.
 ***** Axes restored to original set *****
 -------------------------------------------------------------------
 Center     Atomic                   Forces (Hartrees/Bohr)
 Number     Number              X              Y              Z
 -------------------------------------------------------------------
      1        6           0.000735102    0.001478049   -0.002170656
      2        6          -0.000833845   -0.001252202    0.001852836
      3        6          -0.000113030    0.000322254   -0.000140708
      4        6          -0.000381203    0.001112549    0.000309667
      5        6           0.000204348   -0.000481428    0.000226688
      6        6          -0.000346431   -0.000176410   -0.000017535
      7        6          -0.001762490    0.001506379    0.001675084
      8        6          -0.002674635   -0.001803783    0.001287422
      9        6           0.001588890    0.001865076   -0.000806131
     10        6          -0.001336044   -0.007184890    0.002102202
     11        6          -0.000615635   -0.002097455    0.006348865
     12        8           0.000168590    0.002838586   -0.007841603
     13        6          -0.000178576    0.000218088    0.000367212
     14        6           0.000189596   -0.000074933    0.000285916
     15        6           0.000120737   -0.000185236    0.000158328
     16        8           0.000703311    0.008853750   -0.002202136
     17        6           0.000324584    0.000153687   -0.000315181
     18        6           0.000085464    0.001539050   -0.000848975
     19        8           0.001691423   -0.002710543    0.001033002
     20        6          -0.000321736    0.000106979    0.000413066
     21        8           0.006254587   -0.000150852    0.000477360
     22        6          -0.000034769   -0.000161528   -0.000020702
     23        6           0.001576597   -0.001754130    0.000817801
     24        8           0.000303641   -0.000159580    0.000790092
     25        6           0.001205489   -0.000697339   -0.000801808
     26        6           0.000031912    0.000150239    0.000472028
     27        6          -0.001020137    0.000395914    0.000480494
     28        6           0.000359332    0.000068182    0.000308052
     29        6           0.000449555   -0.000346582   -0.000148768
     30        1          -0.000749308   -0.000489913    0.000945390
     31        1          -0.000767582   -0.000196776    0.001106256
     32        6           0.000177250    0.000317958   -0.000155307
     33        1          -0.000282849   -0.000128822   -0.000847694
     34        1          -0.000287578    0.001277019   -0.000887077
     35        1           0.001610388   -0.000544261    0.000283691
     36        1           0.000113626   -0.001166569    0.000849666
     37        1          -0.000171814    0.001448974   -0.000430674
     38        1          -0.000328539   -0.001110651   -0.000890044
     39        1          -0.001635584   -0.000565057    0.000554715
     40        1           0.001538880   -0.000154928    0.000882218
     41        1          -0.000018238    0.001234741   -0.001079671
     42        1          -0.000586946   -0.001445269    0.000139353
     43        1           0.001137208    0.000347078   -0.001096688
     44        1          -0.005232113    0.000291133   -0.001764877
     45        1           0.001276408    0.001535534   -0.000157562
     46        1          -0.000885258   -0.000731395   -0.001180358
     47        1          -0.001621932   -0.000131557   -0.000274099
     48        1           0.000884790    0.000435035   -0.001643647
     49        1           0.000952514   -0.002152218    0.000096792
     50        1          -0.000474644    0.001169466    0.001130664
     51        1          -0.000010489    0.000749875    0.000630338
     52        1          -0.000949965   -0.000363413   -0.000283818
     53        1           0.001568763    0.000013193   -0.000242418
     54        1          -0.000664156   -0.001263796    0.000567037
     55        1          -0.000981754    0.001695631    0.000082048
     56        1          -0.000786344   -0.000912882    0.000894936
     57        1           0.001629149    0.000210843    0.000196440
     58        1          -0.000526753    0.000276193   -0.001612983
     59        1          -0.000355621    0.000193653   -0.001647400
     60        1          -0.001214407    0.000300094    0.001055005
     61        1           0.000629802   -0.001446061    0.000456572
     62        6           0.000233953   -0.000076054   -0.000367039
     63        1           0.001057731    0.000062437   -0.001180903
[...]
                 (A) (A) (A) (A) (A) (A) (A) (A) (A) (A) (A) (A)
                 (A) (A) (A) (A) (A) (A) (A) (A) (A) (A) (A) (A)
                 (A) (A) (A)
 The electronic state is 1-A.
 Alpha  occ. eigenvalues --  -19.17849 -19.14982 -19.13535 -19.11163 -19.10716
 Alpha  occ. eigenvalues --  -10.26369 -10.26200 -10.26151 -10.25732 -10.25725
 Alpha  occ. eigenvalues --  -10.25698 -10.23806 -10.20707 -10.19889 -10.19727
 Alpha  occ. eigenvalues --  -10.19337 -10.19247 -10.18933 -10.18463 -10.18197
 Alpha  occ. eigenvalues --  -10.18110 -10.17823 -10.17654 -10.17451 -10.17332
 Alpha  occ. eigenvalues --  -10.17262 -10.17065 -10.17061 -10.15660 -10.15655
 Alpha  occ. eigenvalues --  -10.15257  -1.10228  -1.07476  -1.04965  -1.03844
 Alpha  occ. eigenvalues --   -1.03677  -0.88070  -0.84911  -0.83191  -0.82376
 Alpha  occ. eigenvalues --   -0.81039  -0.80436  -0.77853  -0.74836  -0.74100
 Alpha  occ. eigenvalues --   -0.73252  -0.72321  -0.71147  -0.70109  -0.69181
 Alpha  occ. eigenvalues --   -0.65881  -0.65231  -0.64427  -0.63139  -0.61734
 Alpha  occ. eigenvalues --   -0.59971  -0.59350  -0.57887  -0.56093  -0.54374
 Alpha  occ. eigenvalues --   -0.54216  -0.52859  -0.52110  -0.51052  -0.50417
 Alpha  occ. eigenvalues --   -0.49220  -0.48314  -0.48099  -0.47571  -0.47007
 Alpha  occ. eigenvalues --   -0.46143  -0.45573  -0.45377  -0.45240  -0.44180
 Alpha  occ. eigenvalues --   -0.44052  -0.43625  -0.43271  -0.42242  -0.42186
 Alpha  occ. eigenvalues --   -0.41844  -0.41442  -0.41304  -0.41219  -0.40647
 Alpha  occ. eigenvalues --   -0.40231  -0.40115  -0.39891  -0.39499  -0.38755
 Alpha  occ. eigenvalues --   -0.38689  -0.38465  -0.38319  -0.37668  -0.37296
 Alpha  occ. eigenvalues --   -0.37008  -0.36748  -0.36217  -0.35654  -0.35519
 Alpha  occ. eigenvalues --   -0.34835  -0.34590  -0.34451  -0.34084  -0.33165
 Alpha  occ. eigenvalues --   -0.32624  -0.32238  -0.32105  -0.29493  -0.28872
 Alpha  occ. eigenvalues --   -0.26495  -0.25929  -0.25495  -0.24671  -0.24099
 Alpha virt. eigenvalues --   -0.05583  -0.03164  -0.01490  -0.01197  -0.00558
 Alpha virt. eigenvalues --   -0.00126   0.00273   0.00569   0.01578   0.01858
 Alpha virt. eigenvalues --    0.01896   0.02250   0.02976   0.03297   0.03488
 Alpha virt. eigenvalues --    0.03591   0.03865   0.04333   0.04538   0.04641
 Alpha virt. eigenvalues --    0.05001   0.05171   0.05545   0.05792   0.06135
 Alpha virt. eigenvalues --    0.06431   0.06734   0.06951   0.07341   0.07399
 Alpha virt. eigenvalues --    0.07445   0.07752   0.07868   0.08492   0.08621
 Alpha virt. eigenvalues --    0.08723   0.08946   0.09217   0.09409   0.09564
 Alpha virt. eigenvalues --    0.10138   0.10401   0.10438   0.10693   0.11191
 Alpha virt. eigenvalues --    0.11253   0.11402   0.11667   0.11919   0.12493
 Alpha virt. eigenvalues --    0.12599   0.12785   0.12871   0.13007   0.13479
 Alpha virt. eigenvalues --    0.13674   0.13876   0.14194   0.14253   0.14319
 Alpha virt. eigenvalues --    0.14667   0.14975   0.14988   0.15547   0.15699
 Alpha virt. eigenvalues --    0.16108   0.16264   0.16386   0.16965   0.17090
 Alpha virt. eigenvalues --    0.17318   0.17559   0.17747   0.17852   0.18029
 Alpha virt. eigenvalues --    0.18343   0.18375   0.18856   0.18922   0.19079
 Alpha virt. eigenvalues --    0.19200   0.19575   0.19713   0.20013   0.20072
 Alpha virt. eigenvalues --    0.20455   0.20706   0.20710   0.20875   0.21198
 Alpha virt. eigenvalues --    0.21289   0.21657   0.21898   0.21953   0.22102
 Alpha virt. eigenvalues --    0.22365   0.22447   0.22822   0.22902   0.22981
 Alpha virt. eigenvalues --    0.23208   0.23306   0.23574   0.23616   0.23916
 Alpha virt. eigenvalues --    0.24041   0.24298   0.24689   0.24804   0.24970
 Alpha virt. eigenvalues --    0.25192   0.25434   0.25505   0.25690   0.25826
 Alpha virt. eigenvalues --    0.26143   0.26299   0.26614   0.26728   0.27176
 Alpha virt. eigenvalues --    0.27271   0.27511   0.27559   0.27705   0.28017
 Alpha virt. eigenvalues --    0.28219   0.28741   0.28835   0.29092   0.29453
 Alpha virt. eigenvalues --    0.29830   0.29915   0.29950   0.30208   0.30432
 Alpha virt. eigenvalues --    0.30779   0.31093   0.31514   0.31730   0.32090
 Alpha virt. eigenvalues --    0.32365   0.32695   0.32945   0.33137   0.33452
 Alpha virt. eigenvalues --    0.33918   0.33963   0.34214   0.34438   0.34745
 Alpha virt. eigenvalues --    0.35144   0.35310   0.35726   0.36056   0.36158
 Alpha virt. eigenvalues --    0.36846   0.37024   0.37276   0.37791   0.37903
 Alpha virt. eigenvalues --    0.38433   0.38798   0.39372   0.39627   0.40142
 Alpha virt. eigenvalues --    0.40159   0.40776   0.41302   0.41587   0.42182
 Alpha virt. eigenvalues --    0.42554   0.42762   0.43049   0.43596   0.43945
 Alpha virt. eigenvalues --    0.44036   0.44849   0.44992   0.45113   0.45270
 Alpha virt. eigenvalues --    0.45915   0.46103   0.46257   0.46522   0.46969
 Alpha virt. eigenvalues --    0.47693   0.47970   0.48560   0.48828   0.49281
 Alpha virt. eigenvalues --    0.49667   0.50314   0.50856   0.51033   0.51293
 Alpha virt. eigenvalues --    0.51694   0.51860   0.52617   0.53000   0.53520
 Alpha virt. eigenvalues --    0.53830   0.54537   0.54709   0.55040   0.55208
 Alpha virt. eigenvalues --    0.55562   0.56127   0.56861   0.56927   0.57551
 Alpha virt. eigenvalues --    0.57864   0.58126   0.58817   0.59228   0.59729
 Alpha virt. eigenvalues --    0.60084   0.60576   0.60842   0.61290   0.61684
 Alpha virt. eigenvalues --    0.62211   0.62279   0.62735   0.63223   0.63554
 Alpha virt. eigenvalues --    0.64142   0.64584   0.64852   0.65477   0.65646
 Alpha virt. eigenvalues --    0.65914   0.66317   0.66782   0.67145   0.67595
 Alpha virt. eigenvalues --    0.67788   0.68034   0.68699   0.68823   0.69203
 Alpha virt. eigenvalues --    0.69590   0.69679   0.69927   0.70185   0.70415
 Alpha virt. eigenvalues --    0.70554   0.70719   0.71381   0.71521   0.71881
 Alpha virt. eigenvalues --    0.72205   0.72614   0.72781   0.73118   0.73442
 Alpha virt. eigenvalues --    0.73758   0.74021   0.74282   0.74712   0.75105
 Alpha virt. eigenvalues --    0.75363   0.75573   0.76420   0.76814   0.77035
 Alpha virt. eigenvalues --    0.77175   0.77622   0.77738   0.78351   0.78423
 Alpha virt. eigenvalues --    0.78755   0.79498   0.79779   0.80463   0.80821
 Alpha virt. eigenvalues --    0.81079   0.81309   0.81928   0.82127   0.82804
 Alpha virt. eigenvalues --    0.83292   0.83627   0.84079   0.84655   0.84886
 Alpha virt. eigenvalues --    0.85022   0.85925   0.86837   0.87040   0.87886
 Alpha virt. eigenvalues --    0.88749   0.88976   0.90042   0.91152   0.91580
 Alpha virt. eigenvalues --    0.92825   0.93710   0.95085   0.95453   0.96501
 Alpha virt. eigenvalues --    0.96509   0.97165   0.98083   0.98366   0.99002
 Alpha virt. eigenvalues --    1.00769   1.01897   1.02709   1.03199   1.03885
 Alpha virt. eigenvalues --    1.04659   1.05824   1.07081   1.07688   1.08091
 Alpha virt. eigenvalues --    1.09851   1.11163   1.12052   1.13576   1.14061
 Alpha virt. eigenvalues --    1.14895   1.15857   1.16749   1.17291   1.18750
 Alpha virt. eigenvalues --    1.19553   1.20074   1.20625   1.22201   1.23278
 Alpha virt. eigenvalues --    1.23796   1.24745   1.26085   1.26601   1.27568
 Alpha virt. eigenvalues --    1.28334   1.29009   1.30057   1.30670   1.31424
 Alpha virt. eigenvalues --    1.32014   1.33127   1.33489   1.34415   1.35044
 Alpha virt. eigenvalues --    1.35728   1.36662   1.37070   1.38226   1.38889
 Alpha virt. eigenvalues --    1.39474   1.39823   1.40590   1.41390   1.42856
 Alpha virt. eigenvalues --    1.43967   1.44987   1.45643   1.46832   1.47257
 Alpha virt. eigenvalues --    1.47537   1.48460   1.49994   1.51372   1.51457
 Alpha virt. eigenvalues --    1.52662   1.53011   1.53315   1.54236   1.54831
 Alpha virt. eigenvalues --    1.55402   1.55888   1.56250   1.57439   1.58234
 Alpha virt. eigenvalues --    1.58411   1.59297   1.59574   1.59756   1.60022
 Alpha virt. eigenvalues --    1.60414   1.61019   1.61978   1.62447   1.62592
 Alpha virt. eigenvalues --    1.62965   1.63766   1.64344   1.64562   1.65067
 Alpha virt. eigenvalues --    1.65281   1.65957   1.66002   1.66892   1.67158
 Alpha virt. eigenvalues --    1.67680   1.68430   1.69104   1.69219   1.70281
 Alpha virt. eigenvalues --    1.71003   1.71307   1.71566   1.71927   1.72717
 Alpha virt. eigenvalues --    1.72821   1.73277   1.73675   1.74194   1.74660
 Alpha virt. eigenvalues --    1.76321   1.77237   1.77300   1.78398   1.78528
 Alpha virt. eigenvalues --    1.79398   1.80748   1.81466   1.81542   1.82698
 Alpha virt. eigenvalues --    1.84364   1.84950   1.85374   1.85812   1.87610
 Alpha virt. eigenvalues --    1.88144   1.89070   1.89686   1.90234   1.91089
 Alpha virt. eigenvalues --    1.92334   1.93250   1.93475   1.94189   1.96114
 Alpha virt. eigenvalues --    1.96760   1.97892   1.98649   2.00548   2.01088
 Alpha virt. eigenvalues --    2.01680   2.02719   2.03968   2.04630   2.05584
 Alpha virt. eigenvalues --    2.06359   2.07319   2.08099   2.09207   2.09765
 Alpha virt. eigenvalues --    2.10741   2.12464   2.14109   2.14167   2.15506
 Alpha virt. eigenvalues --    2.15762   2.17446   2.18181   2.20272   2.21287
 Alpha virt. eigenvalues --    2.22168   2.23848   2.24798   2.25061   2.27657
 Alpha virt. eigenvalues --    2.27927   2.28144   2.29561   2.31357   2.31650
 Alpha virt. eigenvalues --    2.33298   2.35097   2.35387   2.36825   2.39357
 Alpha virt. eigenvalues --    2.40230   2.43909   2.47030   2.48864   2.50156
 Alpha virt. eigenvalues --    2.50717   2.51665   2.52646   2.53322   2.53596
 Alpha virt. eigenvalues --    2.54199   2.54869   2.55529   2.56144   2.56671
 Alpha virt. eigenvalues --    2.57228   2.57459   2.58873   2.59050   2.59910
 Alpha virt. eigenvalues --    2.60286   2.62258   2.63981   2.65292   2.66174
 Alpha virt. eigenvalues --    2.66948   2.67109   2.68151   2.69062   2.69964
 Alpha virt. eigenvalues --    2.70580   2.71330   2.72113   2.73275   2.73435
 Alpha virt. eigenvalues --    2.74128   2.75087   2.78259   2.79298   2.81161
 Alpha virt. eigenvalues --    2.85425   2.86231   2.87279   2.88120   2.89274
 Alpha virt. eigenvalues --    2.91070   2.92376   2.93011   2.93437   2.94685
 Alpha virt. eigenvalues --    2.95199   2.96658   2.97423   2.98302   2.98972
 Alpha virt. eigenvalues --    2.99815   3.01015   3.01950   3.02600   3.03220
 Alpha virt. eigenvalues --    3.03410   3.04204   3.04364   3.04754   3.06773
 Alpha virt. eigenvalues --    3.07012   3.09213   3.10724   3.11434   3.12090
 Alpha virt. eigenvalues --    3.13942   3.15403   3.15874   3.16872   3.18012
 Alpha virt. eigenvalues --    3.19196   3.19633   3.20447   3.21132   3.22302
 Alpha virt. eigenvalues --    3.23248   3.24321   3.24810   3.25737   3.25985
 Alpha virt. eigenvalues --    3.26822   3.27308   3.27503   3.28647   3.29407
 Alpha virt. eigenvalues --    3.30691   3.31609   3.32431   3.32720   3.33529
 Alpha virt. eigenvalues --    3.33601   3.35847   3.36741   3.38333   3.38716
 Alpha virt. eigenvalues --    3.39346   3.40011   3.40698   3.41538   3.43146
 Alpha virt. eigenvalues --    3.45788   3.46907   3.47994   3.51461   3.52275
 Alpha virt. eigenvalues --    3.52878   3.53549   3.58741   3.61712   3.66277
 Alpha virt. eigenvalues --    3.75840   3.76438   3.78072   3.83668   3.85995
 Alpha virt. eigenvalues --    3.90233   3.93117   3.94670   3.98805   4.02242
 Alpha virt. eigenvalues --    4.02719   4.05288   4.06252   4.08049   4.09728
 Alpha virt. eigenvalues --    4.11590   4.15644   4.17670   4.18511   4.20497
 Alpha virt. eigenvalues --    4.21669   4.24933   4.27449   4.28582   4.32979
 Alpha virt. eigenvalues --    4.44937   4.54973   5.13917   5.14682   5.16536
 Alpha virt. eigenvalues --    5.20761   5.25290   5.27980   5.31636   5.32651
 Alpha virt. eigenvalues --    5.40499   5.44360   5.55721   5.72335   5.72766
 Alpha virt. eigenvalues --    5.77900   5.82402  23.44727  23.50244  23.50866
 Alpha virt. eigenvalues --   23.53380  23.60062  23.62684  23.65551  23.66914
 Alpha virt. eigenvalues --   23.67716  23.70564  23.72523  23.74748  23.76079
 Alpha virt. eigenvalues --   23.78398  23.79203  23.79635  23.83925  23.84488
 Alpha virt. eigenvalues --   23.85750  23.88814  23.89081  23.91425  23.96010
 Alpha virt. eigenvalues --   24.20346  24.21033  24.23104  49.97388  49.99797
 Alpha virt. eigenvalues --   50.01963  50.02709  50.06895
          Condensed to atoms (all electrons):
 Mulliken atomic charges:
              1
     1  C   -0.812344
     2  C    0.954602
     3  C   -0.067510
     4  C    0.513478
     5  C    1.061203
     6  C   -1.226851
     7  C   -0.722233
     8  C    0.065251
     9  C    0.591245
    10  C   -0.467834
    11  C   -1.114109
    12  O   -0.161977
    13  C    0.675778
    14  C   -0.264183
    15  C   -1.145639
    16  O   -0.144382
    17  C   -0.795283
    18  C    1.079972
    19  O    0.166540
    20  C   -1.405499
    21  O   -0.062237
    22  C   -0.496536
    23  C   -0.284219
    24  O    0.040132
    25  C    0.781066
    26  C   -1.102797
    27  C   -0.993459
    28  C   -0.697011
    29  C   -0.601878
    30  H    0.242663
    31  H    0.260637
    32  C   -1.179444
    33  H    0.208655
    34  H    0.269502
    35  H    0.274095
    36  H    0.240030
    37  H    0.257415
    38  H    0.250140
    39  H    0.273567
    40  H    0.257028
    41  H    0.271674
    42  H    0.262623
    43  H    0.290017
    44  H    0.285570
    45  H    0.305813
    46  H    0.257944
    47  H    0.241729
    48  H    0.287027
    49  H    0.265460
    50  H    0.260035
    51  H    0.228696
    52  H    0.214274
    53  H    0.260445
    54  H    0.248337
    55  H    0.312755
    56  H    0.261610
    57  H    0.266010
    58  H    0.261212
    59  H    0.250719
    60  H    0.261110
    61  H    0.247755
    62  C   -0.980731
    63  H    0.247716
    64  H    0.233731
    65  H    0.240895
 Sum of Mulliken atomic charges =   0.00000
 Mulliken charges with hydrogens summed into heavy atoms:
              1
     1  C   -0.603690
     2  C    0.954602
     3  C    0.193127
     4  C    0.513478
     5  C    1.061203
     6  C   -0.683254
     7  C   -0.722233
     8  C    0.065251
     9  C    0.591245
    10  C   -0.467834
    11  C   -1.114109
    12  O   -0.161977
    13  C    0.915808
    14  C    0.243372
    15  C   -0.343369
    16  O   -0.144382
    17  C   -0.552620
    18  C    1.079972
    19  O    0.166540
    20  C   -0.852858
    21  O    0.223333
    22  C    0.067221
    23  C   -0.042490
    24  O    0.040132
    25  C    0.781066
    26  C   -0.290274
    27  C   -0.550489
    28  C    0.124526
    29  C    0.186954
    32  C   -0.419860
    62  C   -0.258390
 Sum of Mulliken charges with hydrogens summed into heavy atoms =   0.00000
 Electronic spatial extent (au):  <R**2>=          12015.3400
 Charge=              0.0000 electrons
 Dipole moment (field-independent basis, Debye):
    X=              2.9928    Y=              5.4602    Z=             -1.9018  Tot=              6.5105
 Quadrupole moment (field-independent basis, Debye-Ang):
   XX=           -182.3866   YY=           -185.2814   ZZ=           -193.7086
   XY=             -5.5514   XZ=              9.8131   YZ=              5.9155
 Traceless Quadrupole moment (field-independent basis, Debye-Ang):
   XX=              4.7389   YY=              1.8441   ZZ=             -6.5831
   XY=             -5.5514   XZ=              9.8131   YZ=              5.9155
 Octapole moment (field-independent basis, Debye-Ang**2):
  XXX=             13.6326  YYY=             59.0696  ZZZ=             -9.3901  XYY=              7.7547
  XXY=             -4.9877  XXZ=            -10.4609  XZZ=             26.5281  YZZ=             10.2363
  YYZ=            -39.1855  XYZ=              4.3168
 Hexadecapole moment (field-independent basis, Debye-Ang**3):
 XXXX=          -9626.2073 YYYY=          -4317.5005 ZZZZ=          -2568.8290 XXXY=            -33.3583
 XXXZ=             17.5045 YYYX=            -30.5722 YYYZ=              2.8222 ZZZX=             61.6752
 ZZZY=              5.7569 XXYY=          -2274.7968 XXZZ=          -2077.6041 YYZZ=          -1133.3350
 XXYZ=             68.7350 YYXZ=            -17.3796 ZZXY=            -65.4464
 N-N= 3.488048807869D+03 E-N=-1.020902428957D+04  KE= 1.381924056508D+03
 1\1\GINC-B0800\FOpt\RB3LYP\6-311+G(d)\C26H34O5\CAOFEI\13-Apr-2021\0\\#
  opt b3lyp/6-311+g(d) geom=connectivity\\Title Card Required\\0,1\C,2.
 3042065486,0.8322835824,2.5487146212\C,2.7500676291,1.6317099461,1.576
 4399815\C,2.0872421269,1.6044431582,0.2198004719\C,1.4523516483,0.2407
 307984,-0.2110514951\C,1.1769565909,-0.7862993572,0.9387438815\C,1.160
 6091593,-0.1238518045,2.3470160569\C,0.1950460862,0.6513807727,-1.0468
 974617\C,-1.1099684076,0.4638938172,-0.2950705929\C,-1.3606507198,-0.5
 897056873,0.5088254684\C,-0.2096038547,-1.4785027726,0.8062110863\C,-2
 .6720310412,-0.857429469,1.198546483\O,-2.682157777,-1.110591502,2.385
 960432\C,-3.9418578781,-0.8542546157,0.3509204015\C,-5.1962566059,-0.6
 631034802,1.216681589\C,-3.965978579,-2.1624236622,-0.4705556391\O,-0.
 343656397,-2.6600029765,1.0500182202\C,0.2079912914,2.1843004071,-1.21
 5176148\C,-1.288302781,2.5449336777,-1.3426095474\O,-1.9550383797,1.47
 3693415,-0.5488587442\C,0.9544276258,2.6479646957,0.0469966093\O,0.095
 5657491,-0.065466573,-2.2650561104\C,2.3285942807,-1.8116598577,0.8075
 342675\C,3.1922099443,-1.3336377867,-0.3728101906\O,2.3290809768,-0.44
 35373947,-1.1161415144\C,3.7156424091,-2.4215979079,-1.28006202\C,2.71
 82593504,-3.1682114137,-2.1267029506\C,5.0192681523,-2.7068138612,-1.2
 848088702\C,-1.792055169,2.4356325453,-2.7810706994\C,-1.7092811771,3.
 8656143236,-0.7119485166\H,0.756529609,2.4658024221,-2.1165965007\H,2.
 8405729197,1.8150603002,-0.5488468534\C,3.8766661423,2.6109620833,1.76
 68665159\H,2.7604241571,0.8723902489,3.5353911265\H,1.18167689,-0.9193
 863848,3.0960346509\H,0.2064848965,0.3933430892,2.5040657684\H,-3.8620
 195829,-0.0203694805,-0.3551117317\H,-5.2998521453,-1.5168590218,1.893
 1364297\H,-5.0441838978,0.2068685842,1.8643075891\H,-3.0474594976,-2.2
 933662984,-1.0472583447\H,-4.7997436239,-2.1584223341,-1.1758082424\H,
 -4.0763838383,-3.0307833732,0.1848374192\H,1.3393449946,3.6665875668,-
 0.035995842\H,0.3003730102,2.623780982,0.9238373211\H,0.9453789142,-0.
 5227875055,-2.3822525961\H,1.9098103807,-2.8032468727,0.63625994\H,2.9
 285669388,-1.8692945326,1.7164988768\H,4.038212399,-0.7451817203,-0.00
 07018328\H,1.8625927407,-3.5186646859,-1.542245958\H,2.3180683795,-2.5
 266615528,-2.9180180782\H,3.1793180974,-4.0337542217,-2.6058628306\H,5
 .4239158622,-3.520373305,-1.8787460281\H,5.7309565131,-2.1429178165,-0
 .6891556764\H,-2.8808410208,2.5241201431,-2.8062016892\H,-1.3727261085
 ,3.2432915215,-3.3879438233\H,-1.5035494295,1.4850543553,-3.2290599086
 \H,-1.2227489643,4.6984668952,-1.2268762038\H,-2.7895040524,4.00064970
 43,-0.8017214955\H,-1.4491801136,3.9163951162,0.3456306062\H,4.2739637
 597,2.5761890051,2.7835362415\H,4.7014053119,2.4081185657,1.0733872695
 \H,3.5529249618,3.6398572814,1.5704860713\C,-6.4837685435,-0.471436326
 3,0.4103183898\H,-7.329080539,-0.2674770996,1.0738038953\H,-6.40261675
 94,0.3724295715,-0.2835277572\H,-6.7431485634,-1.3565809213,-0.1767487
 88\\Version=EM64L-G09RevB.01\State=1-A\HF=-1387.6508197\RMSD=7.636e-09
 \RMSF=2.382e-06\Dipole=1.2833645,2.003709,-0.9482297\Quadrupole=3.6097
 553,2.463133,-6.0728882,-3.5421626,7.4702027,3.5200958\PG=C01 [X(C26H3
 4O5)]\\@


 A COMPLEXITY IS MERELY A DISARRANGEMENT OF SIMPLICITIES.

                                    -- G. O. ABELL IN "EXPLORATION OF THE UNIVERSE"
 Job cpu time:  2 days  9 hours 15 minutes 31.8 seconds.
 File lengths (MBytes):  RWF=    372 Int=      0 D2E=      0 Chk=     40 Scr=      1
 Normal termination of Gaussian 09 at Tue Apr 13 22:26:26 2021.
