 Entering Gaussian System, Link 0=g09
 Initial command:
 /public/software/g09/g09/l1.exe /tmp/Gau-18831.inp -scrdir=/tmp/
 Entering Link 1 = /public/software/g09/g09/l1.exe PID=     18835.
  
 Copyright (c) 1988,1990,1992,1993,1995,1998,2003,2009,2010,
            Gaussian, Inc.  All Rights Reserved.
  
 This is part of the Gaussian(R) 09 program.  It is based on
 the Gaussian(R) 03 system (copyright 2003, Gaussian, Inc.),
 the Gaussian(R) 98 system (copyright 1998, Gaussian, Inc.),
 the Gaussian(R) 94 system (copyright 1995, Gaussian, Inc.),
 the Gaussian 92(TM) system (copyright 1992, Gaussian, Inc.),
 the Gaussian 90(TM) system (copyright 1990, Gaussian, Inc.),
 the Gaussian 88(TM) system (copyright 1988, Gaussian, Inc.),
 the Gaussian 86(TM) system (copyright 1986, Carnegie Mellon
 University), and the Gaussian 82(TM) system (copyright 1983,
 Carnegie Mellon University). Gaussian is a federally registered
 trademark of Gaussian, Inc.
  
 This software contains proprietary and confidential information,
 including trade secrets, belonging to Gaussian, Inc.
  
 This software is provided under written license and may be
 used, copied, transmitted, or stored only in accord with that
 written license.
  
 The following legend is applicable only to US Government
 contracts under FAR:
  
                    RESTRICTED RIGHTS LEGEND
  
 Use, reproduction and disclosure by the US Government is
 subject to restrictions as set forth in subparagraphs (a)
 and (c) of the Commercial Computer Software - Restricted
 Rights clause in FAR 52.227-19.
  
 Gaussian, Inc.
 340 Quinnipiac St., Bldg. 40, Wallingford CT 06492
  
  
 ---------------------------------------------------------------
 Warning -- This program may not be used in any manner that
 competes with the business of Gaussian, Inc. or will provide
 assistance to any competitor of Gaussian, Inc.  The licensee
 of this program is prohibited from giving any competitor of
 Gaussian, Inc. access to this program.  By using this program,
 the user acknowledges that Gaussian, Inc. is engaged in the
 business of creating and licensing software in the field of
 computational chemistry and represents and warrants to the
 licensee that it is not a competitor of Gaussian, Inc. and that
 it will not use this program in any manner prohibited above.
 ---------------------------------------------------------------
  

 Cite this work as:
 Gaussian 09, Revision B.01,
 M. J. Frisch, G. W. Trucks, H. B. Schlegel, G. E. Scuseria, 
 M. A. Robb, J. R. Cheeseman, G. Scalmani, V. Barone, B. Mennucci, 
 G. A. Petersson, H. Nakatsuji, M. Caricato, X. Li, H. P. Hratchian, 
 A. F. Izmaylov, J. Bloino, G. Zheng, J. L. Sonnenberg, M. Hada, 
 M. Ehara, K. Toyota, R. Fukuda, J. Hasegawa, M. Ishida, T. Nakajima, 
 Y. Honda, O. Kitao, H. Nakai, T. Vreven, J. A. Montgomery, Jr., 
 J. E. Peralta, F. Ogliaro, M. Bearpark, J. J. Heyd, E. Brothers, 
 K. N. Kudin, V. N. Staroverov, T. Keith, R. Kobayashi, J. Normand, 
 K. Raghavachari, A. Rendell, J. C. Burant, S. S. Iyengar, J. Tomasi, 
 M. Cossi, N. Rega, J. M. Millam, M. Klene, J. E. Knox, J. B. Cross, 
 V. Bakken, C. Adamo, J. Jaramillo, R. Gomperts, R. E. Stratmann, 
 O. Yazyev, A. J. Austin, R. Cammi, C. Pomelli, J. W. Ochterski, 
 R. L. Martin, K. Morokuma, V. G. Zakrzewski, G. A. Voth, 
 P. Salvador, J. J. Dannenberg, S. Dapprich, A. D. Daniels, 
 O. Farkas, J. B. Foresman, J. V. Ortiz, J. Cioslowski, 
 and D. J. Fox, Gaussian, Inc., Wallingford CT, 2010.
 
 ******************************************
 Gaussian 09:  EM64L-G09RevB.01 12-Aug-2010
                13-Apr-2021 
 ******************************************
 %mem=600MW
 %nprocshared=10
 Will use up to   10 processors via shared memory.
 ----------------------------------------
 # opt b3lyp/6-311+g(d) geom=connectivity
 ----------------------------------------
 1/14=-1,18=20,19=15,26=3,38=1,57=2/1,3;
 2/9=110,12=2,17=6,18=5,40=1/2;
 3/5=4,6=6,7=11,11=2,16=1,25=1,30=1,71=1,74=-5/1,2,3;
 4//1;
 5/5=2,38=5/2;
 6/7=2,8=2,9=2,10=2,28=1/1;
 7//1,2,3,16;
 1/14=-1,18=20,19=15/3(2);
 2/9=110/2;
 99//99;
 2/9=110/2;
 3/5=4,6=6,7=11,11=2,16=1,25=1,30=1,71=1,74=-5/1,2,3;
 4/5=5,16=3/1;
 5/5=2,38=5/2;
 7//1,2,3,16;
 1/14=-1,18=20,19=15/3(-5);
 2/9=110/2;
 6/7=2,8=2,9=2,10=2,19=2,28=1/1;
 99/9=1/99;
 -------------------
 Title Card Required
 -------------------
 Symbolic Z-matrix:
 Charge =  0 Multiplicity = 1
 C                     1.4946    0.10824   3.22939 
 C                     1.76447   1.28223   2.64673 
 C                     1.98791   1.38492   1.15244 
 C                     1.58412   0.12942   0.31903 
 C                     0.88559  -1.05141   1.03893 
 C                     1.38918  -1.1994    2.49385 
 C                     0.74684   0.69857  -0.85533 
 C                    -0.73255   0.80623  -0.53688 
 C                    -1.41915  -0.06494   0.25019 
 C                    -0.6681   -1.0336    1.05442 
 C                    -2.91347   0.04942   0.42639 
 O                    -3.43534   1.14022   0.58644 
 C                    -3.76813  -1.21759   0.31912 
 C                    -4.63107  -1.08961  -0.961 
 C                    -4.60476  -1.38403   1.59814 
 O                    -1.24114  -1.83572   1.78887 
 C                     1.07167   2.20126  -0.99315 
 C                    -0.198     2.7626   -1.67787 
 O                    -1.26282   1.86564  -1.14761 
 C                     1.28671   2.60189   0.48103 
 O                     0.8632   -0.07495  -2.03528 
 C                     1.35343  -2.25748   0.18358 
 C                     2.79593  -1.8721   -0.18105 
 O                     2.79201  -0.43429  -0.25293 
 C                     3.33763  -2.49008  -1.45339 
 C                     3.23961  -3.994    -1.52932 
 C                     3.91116  -1.75696  -2.41358 
 C                    -0.17433   2.61289  -3.2004 
 C                    -0.60723   4.17743  -1.27738 
 H                     1.96835   2.37169  -1.59711 
 H                     3.06821   1.49359   0.97901 
 C                     1.93297   2.54914   3.44852 
 H                     1.37765   0.07083   4.31164 
 H                     2.37271  -1.69275   2.4969 
 H                     0.70396  -1.87934   3.00776 
 H                    -3.10793  -2.08378   0.21522 
 H                    -5.2995   -0.22783  -0.84524 
 H                    -3.97245  -0.85466  -1.8091 
 H                    -3.94783  -1.50974   2.46421 
 H                    -5.2503   -2.26602   1.5359 
 H                    -5.23218  -0.50117   1.76009 
 H                     1.86818   3.52214   0.58707 
 H                     0.31942   2.77517   0.96531 
 H                     1.79637  -0.36248  -2.06873 
 H                     0.74559  -2.34411  -0.72253 
 H                     1.28661  -3.19602   0.74017 
 H                     3.47005  -2.16404   0.64102 
 H                     3.72503  -4.37608  -2.43168 
 H                     3.71973  -4.46568  -0.66089 
 H                     2.19569  -4.33209  -1.53417 
 H                     4.30841  -2.22017  -3.31274 
 H                     4.02558  -0.68183  -2.32019 
 H                     0.10317   1.59768  -3.48898 
 H                    -1.16221   2.84602  -3.61075 
 H                     0.54912   3.31395  -3.63246 
 H                    -0.74171   4.27461  -0.19795 
 H                     0.15727   4.89216  -1.60209 
 H                    -1.55226   4.44334  -1.76082 
 H                     2.92541   2.99318   3.28457 
 H                     1.19728   3.31492   3.171 
 H                     1.82413   2.35476   4.51987 
 C                    -5.43688  -2.34824  -1.29923 
 H                    -4.78216  -3.22158  -1.41108 
 H                    -5.97975  -2.21718  -2.24255 
 H                    -6.17578  -2.58327  -0.52574 
 

 GradGradGradGradGradGradGradGradGradGradGradGradGradGradGradGradGradGrad
 Berny optimization.
 Initialization pass.
                           ----------------------------
                           !    Initial Parameters    !
                           ! (Angstroms and Degrees)  !
 --------------------------                            --------------------------
 ! Name  Definition              Value          Derivative Info.                !
 --------------------------------------------------------------------------------
 ! R1    R(1,2)                  1.3381         estimate D2E/DX2                !
 ! R2    R(1,6)                  1.504          estimate D2E/DX2                !
 ! R3    R(1,33)                 1.0892         estimate D2E/DX2                !
 ! R4    R(2,3)                  1.5144         estimate D2E/DX2                !
 ! R5    R(2,32)                 1.5088         estimate D2E/DX2                !
 ! R6    R(3,4)                  1.5601         estimate D2E/DX2                !
 ! R7    R(3,20)                 1.5568         estimate D2E/DX2                !
 ! R8    R(3,31)                 1.0995         estimate D2E/DX2                !
 ! R9    R(4,5)                  1.5494         estimate D2E/DX2                !
 ! R10   R(4,7)                  1.5505         estimate D2E/DX2                !
 ! R11   R(4,24)                 1.4505         estimate D2E/DX2                !
 ! R12   R(5,6)                  1.5467         estimate D2E/DX2                !
 ! R13   R(5,10)                 1.5539         estimate D2E/DX2                !
 ! R14   R(5,22)                 1.5508         estimate D2E/DX2                !
 ! R15   R(6,34)                 1.1003         estimate D2E/DX2                !
 ! R16   R(6,35)                 1.0936         estimate D2E/DX2                !
 ! R17   R(7,8)                  1.5171         estimate D2E/DX2                !
 ! R18   R(7,17)                 1.5436         estimate D2E/DX2                !
 ! R19   R(7,21)                 1.4157         estimate D2E/DX2                !
 ! R20   R(8,9)                  1.3601         estimate D2E/DX2                !
 ! R21   R(8,19)                 1.3329         estimate D2E/DX2                !
 ! R22   R(9,10)                 1.466          estimate D2E/DX2                !
 ! R23   R(9,11)                 1.509          estimate D2E/DX2                !
 ! R24   R(10,16)                1.2293         estimate D2E/DX2                !
 ! R25   R(11,12)                1.2198         estimate D2E/DX2                !
 ! R26   R(11,13)                1.5321         estimate D2E/DX2                !
 ! R27   R(13,14)                1.5491         estimate D2E/DX2                !
 ! R28   R(13,15)                1.5374         estimate D2E/DX2                !
 ! R29   R(13,36)                1.094          estimate D2E/DX2                !
 ! R30   R(14,37)                1.0968         estimate D2E/DX2                !
 ! R31   R(14,38)                1.0992         estimate D2E/DX2                !
 ! R32   R(14,62)                1.5323         estimate D2E/DX2                !
 ! R33   R(15,39)                1.0943         estimate D2E/DX2                !
 ! R34   R(15,40)                1.0948         estimate D2E/DX2                !
 ! R35   R(15,41)                1.0951         estimate D2E/DX2                !
 ! R36   R(17,18)                1.5479         estimate D2E/DX2                !
 ! R37   R(17,20)                1.5427         estimate D2E/DX2                !
 ! R38   R(17,30)                1.0945         estimate D2E/DX2                !
 ! R39   R(18,19)                1.4898         estimate D2E/DX2                !
 ! R40   R(18,28)                1.5301         estimate D2E/DX2                !
 ! R41   R(18,29)                1.5263         estimate D2E/DX2                !
 ! R42   R(20,42)                1.0937         estimate D2E/DX2                !
 ! R43   R(20,43)                1.0955         estimate D2E/DX2                !
 ! R44   R(21,44)                0.977          estimate D2E/DX2                !
 ! R45   R(22,23)                1.537          estimate D2E/DX2                !
 ! R46   R(22,45)                1.0945         estimate D2E/DX2                !
 ! R47   R(22,46)                1.0932         estimate D2E/DX2                !
 ! R48   R(23,24)                1.4396         estimate D2E/DX2                !
 ! R49   R(23,25)                1.5147         estimate D2E/DX2                !
 ! R50   R(23,47)                1.1025         estimate D2E/DX2                !
 ! R51   R(25,26)                1.509          estimate D2E/DX2                !
 ! R52   R(25,27)                1.3373         estimate D2E/DX2                !
 ! R53   R(26,48)                1.0936         estimate D2E/DX2                !
 ! R54   R(26,49)                1.0987         estimate D2E/DX2                !
 ! R55   R(26,50)                1.0973         estimate D2E/DX2                !
 ! R56   R(27,51)                1.0867         estimate D2E/DX2                !
 ! R57   R(27,52)                1.0852         estimate D2E/DX2                !
 ! R58   R(28,53)                1.0913         estimate D2E/DX2                !
 ! R59   R(28,54)                1.0948         estimate D2E/DX2                !
 ! R60   R(28,55)                1.0961         estimate D2E/DX2                !
 ! R61   R(29,56)                1.0921         estimate D2E/DX2                !
 ! R62   R(29,57)                1.0958         estimate D2E/DX2                !
 ! R63   R(29,58)                1.0943         estimate D2E/DX2                !
 ! R64   R(32,59)                1.0995         estimate D2E/DX2                !
 ! R65   R(32,60)                1.0976         estimate D2E/DX2                !
 ! R66   R(32,61)                1.0943         estimate D2E/DX2                !
 ! R67   R(62,63)                1.0972         estimate D2E/DX2                !
 ! R68   R(62,64)                1.0962         estimate D2E/DX2                !
 ! R69   R(62,65)                1.0952         estimate D2E/DX2                !
 ! A1    A(2,1,6)              124.3314         estimate D2E/DX2                !
 ! A2    A(2,1,33)             118.9758         estimate D2E/DX2                !
 ! A3    A(6,1,33)             116.6506         estimate D2E/DX2                !
 ! A4    A(1,2,3)              121.2587         estimate D2E/DX2                !
 ! A5    A(1,2,32)             121.8592         estimate D2E/DX2                !
 ! A6    A(3,2,32)             116.8049         estimate D2E/DX2                !
 ! A7    A(2,3,4)              115.744          estimate D2E/DX2                !
 ! A8    A(2,3,20)             114.3383         estimate D2E/DX2                !
 ! A9    A(2,3,31)             107.8973         estimate D2E/DX2                !
 ! A10   A(4,3,20)             106.3874         estimate D2E/DX2                !
 ! A11   A(4,3,31)             104.452          estimate D2E/DX2                !
 ! A12   A(20,3,31)            107.2931         estimate D2E/DX2                !
 ! A13   A(3,4,5)              118.804          estimate D2E/DX2                !
 ! A14   A(3,4,7)              104.4163         estimate D2E/DX2                !
 ! A15   A(3,4,24)             107.9307         estimate D2E/DX2                !
 ! A16   A(5,4,7)              112.8436         estimate D2E/DX2                !
 ! A17   A(5,4,24)             105.217          estimate D2E/DX2                !
 ! A18   A(7,4,24)             107.0782         estimate D2E/DX2                !
 ! A19   A(4,5,6)              111.2963         estimate D2E/DX2                !
 ! A20   A(4,5,10)             116.5317         estimate D2E/DX2                !
 ! A21   A(4,5,22)             101.5621         estimate D2E/DX2                !
 ! A22   A(6,5,10)             108.498          estimate D2E/DX2                !
 ! A23   A(6,5,22)             110.2537         estimate D2E/DX2                !
 ! A24   A(10,5,22)            108.4243         estimate D2E/DX2                !
 ! A25   A(1,6,5)              113.5572         estimate D2E/DX2                !
 ! A26   A(1,6,34)             109.0152         estimate D2E/DX2                !
 ! A27   A(1,6,35)             110.7729         estimate D2E/DX2                !
 ! A28   A(5,6,34)             109.6658         estimate D2E/DX2                !
 ! A29   A(5,6,35)             107.3087         estimate D2E/DX2                !
 ! A30   A(34,6,35)            106.2598         estimate D2E/DX2                !
 ! A31   A(4,7,8)              113.1815         estimate D2E/DX2                !
 ! A32   A(4,7,17)             108.1399         estimate D2E/DX2                !
 ! A33   A(4,7,21)             112.7266         estimate D2E/DX2                !
 ! A34   A(8,7,17)              98.9089         estimate D2E/DX2                !
 ! A35   A(8,7,21)             107.0905         estimate D2E/DX2                !
 ! A36   A(17,7,21)            116.1171         estimate D2E/DX2                !
 ! A37   A(7,8,9)              124.631          estimate D2E/DX2                !
 ! A38   A(7,8,19)             110.3763         estimate D2E/DX2                !
 ! A39   A(9,8,19)             124.9896         estimate D2E/DX2                !
 ! A40   A(8,9,10)             118.82           estimate D2E/DX2                !
 ! A41   A(8,9,11)             121.261          estimate D2E/DX2                !
 ! A42   A(10,9,11)            119.5605         estimate D2E/DX2                !
 ! A43   A(5,10,9)             120.9544         estimate D2E/DX2                !
 ! A44   A(5,10,16)            117.683          estimate D2E/DX2                !
 ! A45   A(9,10,16)            121.3373         estimate D2E/DX2                !
 ! A46   A(9,11,12)            120.4495         estimate D2E/DX2                !
 ! A47   A(9,11,13)            118.7875         estimate D2E/DX2                !
 ! A48   A(12,11,13)           120.6685         estimate D2E/DX2                !
 ! A49   A(11,13,14)           107.4744         estimate D2E/DX2                !
 ! A50   A(11,13,15)           109.5639         estimate D2E/DX2                !
 ! A51   A(11,13,36)           108.9518         estimate D2E/DX2                !
 ! A52   A(14,13,15)           113.1587         estimate D2E/DX2                !
 ! A53   A(14,13,36)           108.8497         estimate D2E/DX2                !
 ! A54   A(15,13,36)           108.765          estimate D2E/DX2                !
 ! A55   A(13,14,37)           108.4942         estimate D2E/DX2                !
 ! A56   A(13,14,38)           108.7514         estimate D2E/DX2                !
 ! A57   A(13,14,62)           114.0476         estimate D2E/DX2                !
 ! A58   A(37,14,38)           106.1804         estimate D2E/DX2                !
 ! A59   A(37,14,62)           110.378          estimate D2E/DX2                !
 ! A60   A(38,14,62)           108.6846         estimate D2E/DX2                !
 ! A61   A(13,15,39)           110.132          estimate D2E/DX2                !
 ! A62   A(13,15,40)           111.1497         estimate D2E/DX2                !
 ! A63   A(13,15,41)           110.3362         estimate D2E/DX2                !
 ! A64   A(39,15,40)           107.845          estimate D2E/DX2                !
 ! A65   A(39,15,41)           108.6335         estimate D2E/DX2                !
 ! A66   A(40,15,41)           108.667          estimate D2E/DX2                !
 ! A67   A(7,17,18)            102.7042         estimate D2E/DX2                !
 ! A68   A(7,17,20)            101.3514         estimate D2E/DX2                !
 ! A69   A(7,17,30)            111.9179         estimate D2E/DX2                !
 ! A70   A(18,17,20)           116.2871         estimate D2E/DX2                !
 ! A71   A(18,17,30)           111.8048         estimate D2E/DX2                !
 ! A72   A(20,17,30)           111.8812         estimate D2E/DX2                !
 ! A73   A(17,18,19)           102.1509         estimate D2E/DX2                !
 ! A74   A(17,18,28)           113.0796         estimate D2E/DX2                !
 ! A75   A(17,18,29)           116.1044         estimate D2E/DX2                !
 ! A76   A(19,18,28)           107.8379         estimate D2E/DX2                !
 ! A77   A(19,18,29)           105.8467         estimate D2E/DX2                !
 ! A78   A(28,18,29)           110.8512         estimate D2E/DX2                !
 ! A79   A(8,19,18)            110.9326         estimate D2E/DX2                !
 ! A80   A(3,20,17)            105.7781         estimate D2E/DX2                !
 ! A81   A(3,20,42)            112.1153         estimate D2E/DX2                !
 ! A82   A(3,20,43)            109.3104         estimate D2E/DX2                !
 ! A83   A(17,20,42)           112.6598         estimate D2E/DX2                !
 ! A84   A(17,20,43)           109.9021         estimate D2E/DX2                !
 ! A85   A(42,20,43)           107.0654         estimate D2E/DX2                !
 ! A86   A(7,21,44)            105.5354         estimate D2E/DX2                !
 ! A87   A(5,22,23)            102.6492         estimate D2E/DX2                !
 ! A88   A(5,22,45)            110.525          estimate D2E/DX2                !
 ! A89   A(5,22,46)            111.6178         estimate D2E/DX2                !
 ! A90   A(23,22,45)           110.1603         estimate D2E/DX2                !
 ! A91   A(23,22,46)           113.1672         estimate D2E/DX2                !
 ! A92   A(45,22,46)           108.6381         estimate D2E/DX2                !
 ! A93   A(22,23,24)           105.0533         estimate D2E/DX2                !
 ! A94   A(22,23,25)           115.6352         estimate D2E/DX2                !
 ! A95   A(22,23,47)           109.304          estimate D2E/DX2                !
 ! A96   A(24,23,25)           111.501          estimate D2E/DX2                !
 ! A97   A(24,23,47)           107.6599         estimate D2E/DX2                !
 ! A98   A(25,23,47)           107.4362         estimate D2E/DX2                !
 ! A99   A(4,24,23)            111.7598         estimate D2E/DX2                !
 ! A100  A(23,25,26)           115.1923         estimate D2E/DX2                !
 ! A101  A(23,25,27)           122.1982         estimate D2E/DX2                !
 ! A102  A(26,25,27)           122.5534         estimate D2E/DX2                !
 ! A103  A(25,26,48)           111.1553         estimate D2E/DX2                !
 ! A104  A(25,26,49)           111.0817         estimate D2E/DX2                !
 ! A105  A(25,26,50)           111.6587         estimate D2E/DX2                !
 ! A106  A(48,26,49)           107.9537         estimate D2E/DX2                !
 ! A107  A(48,26,50)           108.119          estimate D2E/DX2                !
 ! A108  A(49,26,50)           106.6751         estimate D2E/DX2                !
 ! A109  A(25,27,51)           121.1451         estimate D2E/DX2                !
 ! A110  A(25,27,52)           121.772          estimate D2E/DX2                !
 ! A111  A(51,27,52)           117.0624         estimate D2E/DX2                !
 ! A112  A(18,28,53)           110.9826         estimate D2E/DX2                !
 ! A113  A(18,28,54)           109.7652         estimate D2E/DX2                !
 ! A114  A(18,28,55)           109.8681         estimate D2E/DX2                !
 ! A115  A(53,28,54)           109.1732         estimate D2E/DX2                !
 ! A116  A(53,28,55)           108.8393         estimate D2E/DX2                !
 ! A117  A(54,28,55)           108.1565         estimate D2E/DX2                !
 ! A118  A(18,29,56)           112.015          estimate D2E/DX2                !
 ! A119  A(18,29,57)           109.8654         estimate D2E/DX2                !
 ! A120  A(18,29,58)           109.9302         estimate D2E/DX2                !
 ! A121  A(56,29,57)           108.7082         estimate D2E/DX2                !
 ! A122  A(56,29,58)           107.9801         estimate D2E/DX2                !
 ! A123  A(57,29,58)           108.2459         estimate D2E/DX2                !
 ! A124  A(2,32,59)            111.1411         estimate D2E/DX2                !
 ! A125  A(2,32,60)            112.1256         estimate D2E/DX2                !
 ! A126  A(2,32,61)            111.1019         estimate D2E/DX2                !
 ! A127  A(59,32,60)           106.5907         estimate D2E/DX2                !
 ! A128  A(59,32,61)           107.9089         estimate D2E/DX2                !
 ! A129  A(60,32,61)           107.7473         estimate D2E/DX2                !
 ! A130  A(14,62,63)           111.2544         estimate D2E/DX2                !
 ! A131  A(14,62,64)           110.6202         estimate D2E/DX2                !
 ! A132  A(14,62,65)           112.0347         estimate D2E/DX2                !
 ! A133  A(63,62,64)           107.6339         estimate D2E/DX2                !
 ! A134  A(63,62,65)           107.6838         estimate D2E/DX2                !
 ! A135  A(64,62,65)           107.4148         estimate D2E/DX2                !
 ! D1    D(6,1,2,3)              0.157          estimate D2E/DX2                !
 ! D2    D(6,1,2,32)          -176.5465         estimate D2E/DX2                !
 ! D3    D(33,1,2,3)           177.7105         estimate D2E/DX2                !
 ! D4    D(33,1,2,32)            1.007          estimate D2E/DX2                !
 ! D5    D(2,1,6,5)            -30.3439         estimate D2E/DX2                !
 ! D6    D(2,1,6,34)            92.2428         estimate D2E/DX2                !
 ! D7    D(2,1,6,35)          -151.1758         estimate D2E/DX2                !
 ! D8    D(33,1,6,5)           152.0507         estimate D2E/DX2                !
 ! D9    D(33,1,6,34)          -85.3625         estimate D2E/DX2                !
 ! D10   D(33,1,6,35)           31.2188         estimate D2E/DX2                !
 ! D11   D(1,2,3,4)             12.7413         estimate D2E/DX2                !
 ! D12   D(1,2,3,20)           136.9276         estimate D2E/DX2                !
 ! D13   D(1,2,3,31)          -103.8028         estimate D2E/DX2                !
 ! D14   D(32,2,3,4)          -170.3955         estimate D2E/DX2                !
 ! D15   D(32,2,3,20)          -46.2091         estimate D2E/DX2                !
 ! D16   D(32,2,3,31)           73.0604         estimate D2E/DX2                !
 ! D17   D(1,2,32,59)          121.2442         estimate D2E/DX2                !
 ! D18   D(1,2,32,60)         -119.5666         estimate D2E/DX2                !
 ! D19   D(1,2,32,61)            1.0708         estimate D2E/DX2                !
 ! D20   D(3,2,32,59)          -55.5988         estimate D2E/DX2                !
 ! D21   D(3,2,32,60)           63.5904         estimate D2E/DX2                !
 ! D22   D(3,2,32,61)         -175.7722         estimate D2E/DX2                !
 ! D23   D(2,3,4,5)              5.2787         estimate D2E/DX2                !
 ! D24   D(2,3,4,7)            132.0612         estimate D2E/DX2                !
 ! D25   D(2,3,4,24)          -114.2427         estimate D2E/DX2                !
 ! D26   D(20,3,4,5)          -122.9439         estimate D2E/DX2                !
 ! D27   D(20,3,4,7)             3.8386         estimate D2E/DX2                !
 ! D28   D(20,3,4,24)          117.5347         estimate D2E/DX2                !
 ! D29   D(31,3,4,5)           123.7425         estimate D2E/DX2                !
 ! D30   D(31,3,4,7)          -109.475          estimate D2E/DX2                !
 ! D31   D(31,3,4,24)            4.2211         estimate D2E/DX2                !
 ! D32   D(2,3,20,17)         -154.6939         estimate D2E/DX2                !
 ! D33   D(2,3,20,42)           82.1474         estimate D2E/DX2                !
 ! D34   D(2,3,20,43)          -36.4102         estimate D2E/DX2                !
 ! D35   D(4,3,20,17)          -25.6496         estimate D2E/DX2                !
 ! D36   D(4,3,20,42)         -148.8082         estimate D2E/DX2                !
 ! D37   D(4,3,20,43)           92.6341         estimate D2E/DX2                !
 ! D38   D(31,3,20,17)          85.697          estimate D2E/DX2                !
 ! D39   D(31,3,20,42)         -37.4616         estimate D2E/DX2                !
 ! D40   D(31,3,20,43)        -156.0193         estimate D2E/DX2                !
 ! D41   D(3,4,5,6)            -32.9944         estimate D2E/DX2                !
 ! D42   D(3,4,5,10)            92.1213         estimate D2E/DX2                !
 ! D43   D(3,4,5,22)          -150.3165         estimate D2E/DX2                !
 ! D44   D(7,4,5,6)           -155.673          estimate D2E/DX2                !
 ! D45   D(7,4,5,10)           -30.5573         estimate D2E/DX2                !
 ! D46   D(7,4,5,22)            87.0049         estimate D2E/DX2                !
 ! D47   D(24,4,5,6)            87.9141         estimate D2E/DX2                !
 ! D48   D(24,4,5,10)         -146.9703         estimate D2E/DX2                !
 ! D49   D(24,4,5,22)          -29.408          estimate D2E/DX2                !
 ! D50   D(3,4,7,8)            -89.0437         estimate D2E/DX2                !
 ! D51   D(3,4,7,17)            19.4723         estimate D2E/DX2                !
 ! D52   D(3,4,7,21)           149.2232         estimate D2E/DX2                !
 ! D53   D(5,4,7,8)             41.3553         estimate D2E/DX2                !
 ! D54   D(5,4,7,17)           149.8713         estimate D2E/DX2                !
 ! D55   D(5,4,7,21)           -80.3778         estimate D2E/DX2                !
 ! D56   D(24,4,7,8)           156.6563         estimate D2E/DX2                !
 ! D57   D(24,4,7,17)          -94.8277         estimate D2E/DX2                !
 ! D58   D(24,4,7,21)           34.9231         estimate D2E/DX2                !
 ! D59   D(3,4,24,23)          138.5429         estimate D2E/DX2                !
 ! D60   D(5,4,24,23)           10.7484         estimate D2E/DX2                !
 ! D61   D(7,4,24,23)         -109.5465         estimate D2E/DX2                !
 ! D62   D(4,5,6,1)             44.2134         estimate D2E/DX2                !
 ! D63   D(4,5,6,34)           -78.0136         estimate D2E/DX2                !
 ! D64   D(4,5,6,35)           166.9742         estimate D2E/DX2                !
 ! D65   D(10,5,6,1)           -85.2781         estimate D2E/DX2                !
 ! D66   D(10,5,6,34)          152.4949         estimate D2E/DX2                !
 ! D67   D(10,5,6,35)           37.4827         estimate D2E/DX2                !
 ! D68   D(22,5,6,1)           156.1224         estimate D2E/DX2                !
 ! D69   D(22,5,6,34)           33.8953         estimate D2E/DX2                !
 ! D70   D(22,5,6,35)          -81.1168         estimate D2E/DX2                !
 ! D71   D(4,5,10,9)             9.2631         estimate D2E/DX2                !
 ! D72   D(4,5,10,16)         -168.9284         estimate D2E/DX2                !
 ! D73   D(6,5,10,9)           135.7823         estimate D2E/DX2                !
 ! D74   D(6,5,10,16)          -42.4092         estimate D2E/DX2                !
 ! D75   D(22,5,10,9)         -104.4682         estimate D2E/DX2                !
 ! D76   D(22,5,10,16)          77.3404         estimate D2E/DX2                !
 ! D77   D(4,5,22,23)           36.5078         estimate D2E/DX2                !
 ! D78   D(4,5,22,45)          -80.9559         estimate D2E/DX2                !
 ! D79   D(4,5,22,46)          158.0176         estimate D2E/DX2                !
 ! D80   D(6,5,22,23)          -81.5677         estimate D2E/DX2                !
 ! D81   D(6,5,22,45)          160.9687         estimate D2E/DX2                !
 ! D82   D(6,5,22,46)           39.9422         estimate D2E/DX2                !
 ! D83   D(10,5,22,23)         159.7877         estimate D2E/DX2                !
 ! D84   D(10,5,22,45)          42.324          estimate D2E/DX2                !
 ! D85   D(10,5,22,46)         -78.7024         estimate D2E/DX2                !
 ! D86   D(4,7,8,9)            -34.3459         estimate D2E/DX2                !
 ! D87   D(4,7,8,19)           146.259          estimate D2E/DX2                !
 ! D88   D(17,7,8,9)          -148.5472         estimate D2E/DX2                !
 ! D89   D(17,7,8,19)           32.0577         estimate D2E/DX2                !
 ! D90   D(21,7,8,9)            90.4979         estimate D2E/DX2                !
 ! D91   D(21,7,8,19)          -88.8973         estimate D2E/DX2                !
 ! D92   D(4,7,17,18)         -155.36           estimate D2E/DX2                !
 ! D93   D(4,7,17,20)          -34.8095         estimate D2E/DX2                !
 ! D94   D(4,7,17,30)           84.5646         estimate D2E/DX2                !
 ! D95   D(8,7,17,18)          -37.2837         estimate D2E/DX2                !
 ! D96   D(8,7,17,20)           83.2668         estimate D2E/DX2                !
 ! D97   D(8,7,17,30)         -157.3591         estimate D2E/DX2                !
 ! D98   D(21,7,17,18)          76.8048         estimate D2E/DX2                !
 ! D99   D(21,7,17,20)        -162.6446         estimate D2E/DX2                !
 ! D100  D(21,7,17,30)         -43.2706         estimate D2E/DX2                !
 ! D101  D(4,7,21,44)          -37.8898         estimate D2E/DX2                !
 ! D102  D(8,7,21,44)         -163.0089         estimate D2E/DX2                !
 ! D103  D(17,7,21,44)          87.6509         estimate D2E/DX2                !
 ! D104  D(7,8,9,10)            11.9588         estimate D2E/DX2                !
 ! D105  D(7,8,9,11)          -174.9461         estimate D2E/DX2                !
 ! D106  D(19,8,9,10)         -168.7333         estimate D2E/DX2                !
 ! D107  D(19,8,9,11)            4.3618         estimate D2E/DX2                !
 ! D108  D(7,8,19,18)          -12.933          estimate D2E/DX2                !
 ! D109  D(9,8,19,18)          167.6745         estimate D2E/DX2                !
 ! D110  D(8,9,10,5)             1.3581         estimate D2E/DX2                !
 ! D111  D(8,9,10,16)          179.4831         estimate D2E/DX2                !
 ! D112  D(11,9,10,5)         -171.8568         estimate D2E/DX2                !
 ! D113  D(11,9,10,16)           6.2681         estimate D2E/DX2                !
 ! D114  D(8,9,11,12)          -42.4357         estimate D2E/DX2                !
 ! D115  D(8,9,11,13)          134.052          estimate D2E/DX2                !
 ! D116  D(10,9,11,12)         130.6091         estimate D2E/DX2                !
 ! D117  D(10,9,11,13)         -52.9032         estimate D2E/DX2                !
 ! D118  D(9,11,13,14)        -112.2697         estimate D2E/DX2                !
 ! D119  D(9,11,13,15)         124.4015         estimate D2E/DX2                !
 ! D120  D(9,11,13,36)           5.5203         estimate D2E/DX2                !
 ! D121  D(12,11,13,14)         64.21           estimate D2E/DX2                !
 ! D122  D(12,11,13,15)        -59.1188         estimate D2E/DX2                !
 ! D123  D(12,11,13,36)       -178.0            estimate D2E/DX2                !
 ! D124  D(11,13,14,37)        -62.8727         estimate D2E/DX2                !
 ! D125  D(11,13,14,38)         52.2058         estimate D2E/DX2                !
 ! D126  D(11,13,14,62)        173.6693         estimate D2E/DX2                !
 ! D127  D(15,13,14,37)         58.2241         estimate D2E/DX2                !
 ! D128  D(15,13,14,38)        173.3026         estimate D2E/DX2                !
 ! D129  D(15,13,14,62)        -65.2339         estimate D2E/DX2                !
 ! D130  D(36,13,14,37)        179.2711         estimate D2E/DX2                !
 ! D131  D(36,13,14,38)        -65.6504         estimate D2E/DX2                !
 ! D132  D(36,13,14,62)         55.8131         estimate D2E/DX2                !
 ! D133  D(11,13,15,39)        -62.3507         estimate D2E/DX2                !
 ! D134  D(11,13,15,40)        178.192          estimate D2E/DX2                !
 ! D135  D(11,13,15,41)         57.5695         estimate D2E/DX2                !
 ! D136  D(14,13,15,39)        177.7407         estimate D2E/DX2                !
 ! D137  D(14,13,15,40)         58.2834         estimate D2E/DX2                !
 ! D138  D(14,13,15,41)        -62.3391         estimate D2E/DX2                !
 ! D139  D(36,13,15,39)         56.6459         estimate D2E/DX2                !
 ! D140  D(36,13,15,40)        -62.8114         estimate D2E/DX2                !
 ! D141  D(36,13,15,41)        176.566          estimate D2E/DX2                !
 ! D142  D(13,14,62,63)        -57.1522         estimate D2E/DX2                !
 ! D143  D(13,14,62,64)       -176.7331         estimate D2E/DX2                !
 ! D144  D(13,14,62,65)         63.4479         estimate D2E/DX2                !
 ! D145  D(37,14,62,63)       -179.5844         estimate D2E/DX2                !
 ! D146  D(37,14,62,64)         60.8347         estimate D2E/DX2                !
 ! D147  D(37,14,62,65)        -58.9843         estimate D2E/DX2                !
 ! D148  D(38,14,62,63)         64.3482         estimate D2E/DX2                !
 ! D149  D(38,14,62,64)        -55.2327         estimate D2E/DX2                !
 ! D150  D(38,14,62,65)       -175.0517         estimate D2E/DX2                !
 ! D151  D(7,17,18,19)          31.3313         estimate D2E/DX2                !
 ! D152  D(7,17,18,28)         -84.2857         estimate D2E/DX2                !
 ! D153  D(7,17,18,29)         145.9484         estimate D2E/DX2                !
 ! D154  D(20,17,18,19)        -78.3259         estimate D2E/DX2                !
 ! D155  D(20,17,18,28)        166.0571         estimate D2E/DX2                !
 ! D156  D(20,17,18,29)         36.2912         estimate D2E/DX2                !
 ! D157  D(30,17,18,19)        151.485          estimate D2E/DX2                !
 ! D158  D(30,17,18,28)         35.868          estimate D2E/DX2                !
 ! D159  D(30,17,18,29)        -93.898          estimate D2E/DX2                !
 ! D160  D(7,17,20,3)           36.5167         estimate D2E/DX2                !
 ! D161  D(7,17,20,42)         159.3298         estimate D2E/DX2                !
 ! D162  D(7,17,20,43)         -81.3721         estimate D2E/DX2                !
 ! D163  D(18,17,20,3)         146.9636         estimate D2E/DX2                !
 ! D164  D(18,17,20,42)        -90.2233         estimate D2E/DX2                !
 ! D165  D(18,17,20,43)         29.0748         estimate D2E/DX2                !
 ! D166  D(30,17,20,3)         -82.8836         estimate D2E/DX2                !
 ! D167  D(30,17,20,42)         39.9295         estimate D2E/DX2                !
 ! D168  D(30,17,20,43)        159.2276         estimate D2E/DX2                !
 ! D169  D(17,18,19,8)         -12.197          estimate D2E/DX2                !
 ! D170  D(28,18,19,8)         107.1783         estimate D2E/DX2                !
 ! D171  D(29,18,19,8)        -134.1342         estimate D2E/DX2                !
 ! D172  D(17,18,28,53)         48.4847         estimate D2E/DX2                !
 ! D173  D(17,18,28,54)        169.2539         estimate D2E/DX2                !
 ! D174  D(17,18,28,55)        -71.9347         estimate D2E/DX2                !
 ! D175  D(19,18,28,53)        -63.6927         estimate D2E/DX2                !
 ! D176  D(19,18,28,54)         57.0765         estimate D2E/DX2                !
 ! D177  D(19,18,28,55)        175.8879         estimate D2E/DX2                !
 ! D178  D(29,18,28,53)       -179.1301         estimate D2E/DX2                !
 ! D179  D(29,18,28,54)        -58.3609         estimate D2E/DX2                !
 ! D180  D(29,18,28,55)         60.4505         estimate D2E/DX2                !
 ! D181  D(17,18,29,56)        -55.7219         estimate D2E/DX2                !
 ! D182  D(17,18,29,57)         65.2058         estimate D2E/DX2                !
 ! D183  D(17,18,29,58)       -175.7737         estimate D2E/DX2                !
 ! D184  D(19,18,29,56)         56.7817         estimate D2E/DX2                !
 ! D185  D(19,18,29,57)        177.7094         estimate D2E/DX2                !
 ! D186  D(19,18,29,58)        -63.2701         estimate D2E/DX2                !
 ! D187  D(28,18,29,56)        173.4521         estimate D2E/DX2                !
 ! D188  D(28,18,29,57)        -65.6202         estimate D2E/DX2                !
 ! D189  D(28,18,29,58)         53.4003         estimate D2E/DX2                !
 ! D190  D(5,22,23,24)         -31.0936         estimate D2E/DX2                !
 ! D191  D(5,22,23,25)        -154.4634         estimate D2E/DX2                !
 ! D192  D(5,22,23,47)          84.1879         estimate D2E/DX2                !
 ! D193  D(45,22,23,24)         86.6287         estimate D2E/DX2                !
 ! D194  D(45,22,23,25)        -36.7411         estimate D2E/DX2                !
 ! D195  D(45,22,23,47)       -158.0898         estimate D2E/DX2                !
 ! D196  D(46,22,23,24)       -151.5402         estimate D2E/DX2                !
 ! D197  D(46,22,23,25)         85.09           estimate D2E/DX2                !
 ! D198  D(46,22,23,47)        -36.2587         estimate D2E/DX2                !
 ! D199  D(22,23,24,4)          12.9815         estimate D2E/DX2                !
 ! D200  D(25,23,24,4)         138.959          estimate D2E/DX2                !
 ! D201  D(47,23,24,4)        -103.4344         estimate D2E/DX2                !
 ! D202  D(22,23,25,26)        -53.6915         estimate D2E/DX2                !
 ! D203  D(22,23,25,27)        128.9671         estimate D2E/DX2                !
 ! D204  D(24,23,25,26)       -173.6027         estimate D2E/DX2                !
 ! D205  D(24,23,25,27)          9.0559         estimate D2E/DX2                !
 ! D206  D(47,23,25,26)         68.6558         estimate D2E/DX2                !
 ! D207  D(47,23,25,27)       -108.6856         estimate D2E/DX2                !
 ! D208  D(23,25,26,48)       -175.1143         estimate D2E/DX2                !
 ! D209  D(23,25,26,49)        -54.8882         estimate D2E/DX2                !
 ! D210  D(23,25,26,50)         64.0572         estimate D2E/DX2                !
 ! D211  D(27,25,26,48)          2.2167         estimate D2E/DX2                !
 ! D212  D(27,25,26,49)        122.4427         estimate D2E/DX2                !
 ! D213  D(27,25,26,50)       -118.6119         estimate D2E/DX2                !
 ! D214  D(23,25,27,51)        179.0087         estimate D2E/DX2                !
 ! D215  D(23,25,27,52)          0.7055         estimate D2E/DX2                !
 ! D216  D(26,25,27,51)          1.863          estimate D2E/DX2                !
 ! D217  D(26,25,27,52)       -176.4402         estimate D2E/DX2                !
 --------------------------------------------------------------------------------
 Trust Radius=3.00D-01 FncErr=1.00D-07 GrdErr=1.00D-06
 Number of steps in this run=    390 maximum allowed number of steps=    390.
 GradGradGradGradGradGradGradGradGradGradGradGradGradGradGradGradGradGrad

 Stoichiometry    C26H34O5
 Framework group  C1[X(C26H34O5)]
 Deg. of freedom   189
 Full point group                 C1      NOp   1
 Largest Abelian subgroup         C1      NOp   1
 Largest concise Abelian subgroup C1      NOp   1
                         Standard orientation:                         
 ---------------------------------------------------------------------
 Center     Atomic      Atomic             Coordinates (Angstroms)
 Number     Number       Type             X           Y           Z
 ---------------------------------------------------------------------
      1          6           0        1.494603    0.108236    3.229385
      2          6           0        1.764472    1.282226    2.646725
      3          6           0        1.987909    1.384921    1.152443
      4          6           0        1.584117    0.129415    0.319033
      5          6           0        0.885585   -1.051415    1.038929
      6          6           0        1.389182   -1.199401    2.493849
      7          6           0        0.746839    0.698565   -0.855327
      8          6           0       -0.732545    0.806232   -0.536878
      9          6           0       -1.419151   -0.064938    0.250188
     10          6           0       -0.668098   -1.033603    1.054424
     11          6           0       -2.913467    0.049422    0.426385
     12          8           0       -3.435339    1.140218    0.586438
     13          6           0       -3.768126   -1.217594    0.319122
     14          6           0       -4.631071   -1.089609   -0.960996
     15          6           0       -4.604761   -1.384033    1.598144
     16          8           0       -1.241142   -1.835716    1.788874
     17          6           0        1.071672    2.201264   -0.993147
     18          6           0       -0.198002    2.762596   -1.677870
     19          8           0       -1.262822    1.865641   -1.147609
     20          6           0        1.286714    2.601886    0.481028
     21          8           0        0.863198   -0.074953   -2.035280
     22          6           0        1.353429   -2.257481    0.183584
     23          6           0        2.795929   -1.872104   -0.181048
     24          8           0        2.792013   -0.434286   -0.252934
     25          6           0        3.337626   -2.490084   -1.453389
     26          6           0        3.239613   -3.993999   -1.529317
     27          6           0        3.911156   -1.756962   -2.413579
     28          6           0       -0.174333    2.612894   -3.200405
     29          6           0       -0.607229    4.177425   -1.277382
     30          1           0        1.968352    2.371691   -1.597113
     31          1           0        3.068215    1.493585    0.979005
     32          6           0        1.932968    2.549143    3.448521
     33          1           0        1.377649    0.070831    4.311642
     34          1           0        2.372705   -1.692753    2.496896
     35          1           0        0.703957   -1.879338    3.007763
     36          1           0       -3.107930   -2.083778    0.215221
     37          1           0       -5.299504   -0.227832   -0.845240
     38          1           0       -3.972446   -0.854660   -1.809103
     39          1           0       -3.947830   -1.509743    2.464208
     40          1           0       -5.250295   -2.266019    1.535898
     41          1           0       -5.232182   -0.501170    1.760093
     42          1           0        1.868176    3.522135    0.587070
     43          1           0        0.319419    2.775167    0.965314
     44          1           0        1.796365   -0.362481   -2.068729
     45          1           0        0.745593   -2.344113   -0.722529
     46          1           0        1.286609   -3.196019    0.740170
     47          1           0        3.470053   -2.164043    0.641022
     48          1           0        3.725029   -4.376078   -2.431677
     49          1           0        3.719730   -4.465678   -0.660889
     50          1           0        2.195691   -4.332088   -1.534168
     51          1           0        4.308405   -2.220171   -3.312738
     52          1           0        4.025577   -0.681834   -2.320190
     53          1           0        0.103171    1.597681   -3.488980
     54          1           0       -1.162214    2.846017   -3.610745
     55          1           0        0.549121    3.313953   -3.632463
     56          1           0       -0.741707    4.274610   -0.197951
     57          1           0        0.157273    4.892162   -1.602089
     58          1           0       -1.552261    4.443341   -1.760823
     59          1           0        2.925409    2.993181    3.284566
     60          1           0        1.197282    3.314921    3.171001
     61          1           0        1.824125    2.354762    4.519868
     62          6           0       -5.436882   -2.348242   -1.299230
     63          1           0       -4.782164   -3.221582   -1.411084
     64          1           0       -5.979751   -2.217183   -2.242546
     65          1           0       -6.175778   -2.583268   -0.525737
 ---------------------------------------------------------------------
 Rotational constants (GHZ):      0.1797185      0.1291594      0.1161614
 Standard basis: 6-311+G(d) (5D, 7F)
 There are   784 symmetry adapted basis functions of A   symmetry.
 Integral buffers will be    131072 words long.
 Raffenetti 2 integral format.
 Two-electron integral symmetry is turned on.
   784 basis functions,  1286 primitive gaussians,   815 cartesian basis functions
   115 alpha electrons      115 beta electrons
       nuclear repulsion energy      3495.7053524354 Hartrees.
 NAtoms=   65 NActive=   65 NUniq=   65 SFac= 1.00D+00 NAtFMM=   50 NAOKFM=T Big=T
 One-electron integrals computed using PRISM.
 NBasis=   784 RedAO= T  NBF=   784
 NBsUse=   778 1.00D-06 NBFU=   778
 Harris functional with IExCor=  402 diagonalized for initial guess.
 ExpMin= 4.38D-02 ExpMax= 8.59D+03 ExpMxC= 1.30D+03 IAcc=2 IRadAn=         0 AccDes= 0.00D+00
 HarFok:  IExCor=  402 AccDes= 0.00D+00 IRadAn=         0 IDoV= 1
 ScaDFX=  1.000000  1.000000  1.000000  1.000000
 FoFCou: FMM=F IPFlag=           0 FMFlag=      100000 FMFlg1=        2001
         NFxFlg=           0 DoJE=T BraDBF=F KetDBF=T FulRan=T
         Omega=  0.000000  0.000000  1.000000  0.000000  0.000000 ICntrl=     500 IOpCl=  0
         NMat0=    1 NMatS0=    1 NMatT0=    0 NMatD0=    1 NMtDS0=    0 NMtDT0=    0
         I1Cent=           4 NGrid=           0.
 Petite list used in FoFCou.
 Initial guess orbital symmetries:
       Occupied  (A) (A) (A) (A) (A) (A) (A) (A) (A) (A) (A) (A)
                 (A) (A) (A) (A) (A) (A) (A) (A) (A) (A) (A) (A)
                 (A) (A) (A) (A) (A) (A) (A) (A) (A) (A) (A) (A)
                 (A) (A) (A) (A) (A) (A) (A) (A) (A) (A) (A) (A)
                 (A) (A) (A) (A) (A) (A) (A) (A) (A) (A) (A) (A)
                 (A) (A) (A) (A) (A) (A) (A) (A) (A) (A) (A) (A)
                 (A) (A) (A) (A) (A) (A) (A) (A) (A) (A) (A) (A)
                 (A) (A) (A) (A) (A) (A) (A) (A) (A) (A) (A) (A)
                 (A) (A) (A) (A) (A) (A) (A) (A) (A) (A) (A) (A)
                 (A) (A) (A) (A) (A) (A) (A)
       Virtual   (A) (A) (A) (A) (A) (A) (A) (A) (A) (A) (A) (A)
                 (A) (A) (A) (A) (A) (A) (A) (A) (A) (A) (A) (A)
                 (A) (A) (A) (A) (A) (A) (A) (A) (A) (A) (A) (A)
                 (A) (A) (A) (A) (A) (A) (A) (A) (A) (A) (A) (A)
                 (A) (A) (A) (A) (A) (A) (A) (A) (A) (A) (A) (A)
                 (A) (A) (A) (A) (A) (A) (A) (A) (A) (A) (A) (A)
                 (A) (A) (A) (A) (A) (A) (A) (A) (A) (A) (A) (A)
                 (A) (A) (A) (A) (A) (A) (A) (A) (A) (A) (A) (A)
                 (A) (A) (A) (A) (A) (A) (A) (A) (A) (A) (A) (A)
                 (A) (A) (A) (A) (A) (A) (A) (A) (A) (A) (A) (A)
                 (A) (A) (A) (A) (A) (A) (A) (A) (A) (A) (A) (A)
                 (A) (A) (A) (A) (A) (A) (A) (A) (A) (A) (A) (A)
                 (A) (A) (A) (A) (A) (A) (A) (A) (A) (A) (A) (A)
                 (A) (A) (A) (A) (A) (A) (A) (A) (A) (A) (A) (A)
                 (A) (A) (A) (A) (A) (A) (A) (A) (A) (A) (A) (A)
                 (A) (A) (A) (A) (A) (A) (A) (A) (A) (A) (A) (A)
                 (A) (A) (A) (A) (A) (A) (A) (A) (A) (A) (A) (A)
                 (A) (A) (A) (A) (A) (A) (A) (A) (A) (A) (A) (A)
                 (A) (A) (A) (A) (A) (A) (A) (A) (A) (A) (A) (A)
                 (A) (A) (A) (A) (A) (A) (A) (A) (A) (A) (A) (A)
                 (A) (A) (A) (A) (A) (A) (A) (A) (A) (A) (A) (A)
                 (A) (A) (A) (A) (A) (A) (A) (A) (A) (A) (A) (A)
                 (A) (A) (A) (A) (A) (A) (A) (A) (A) (A) (A) (A)
                 (A) (A) (A) (A) (A) (A) (A) (A) (A) (A) (A) (A)
                 (A) (A) (A) (A) (A) (A) (A) (A) (A) (A) (A) (A)
                 (A) (A) (A) (A) (A) (A) (A) (A) (A) (A) (A) (A)
                 (A) (A) (A) (A) (A) (A) (A) (A) (A) (A) (A) (A)
                 (A) (A) (A) (A) (A) (A) (A) (A) (A) (A) (A) (A)
                 (A) (A) (A) (A) (A) (A) (A) (A) (A) (A) (A) (A)
                 (A) (A) (A) (A) (A) (A) (A) (A) (A) (A) (A) (A)
                 (A) (A) (A) (A) (A) (A) (A) (A) (A) (A) (A) (A)
                 (A) (A) (A) (A) (A) (A) (A) (A) (A) (A) (A) (A)
                 (A) (A) (A) (A) (A) (A) (A) (A) (A) (A) (A) (A)
                 (A) (A) (A) (A) (A) (A) (A) (A) (A) (A) (A) (A)
                 (A) (A) (A) (A) (A) (A) (A) (A) (A) (A) (A) (A)
                 (A) (A) (A) (A) (A) (A) (A) (A) (A) (A) (A) (A)
                 (A) (A) (A) (A) (A) (A) (A) (A) (A) (A) (A) (A)
                 (A) (A) (A) (A) (A) (A) (A) (A) (A) (A) (A) (A)
                 (A) (A) (A) (A) (A) (A) (A) (A) (A) (A) (A) (A)
                 (A) (A) (A) (A) (A) (A) (A) (A) (A) (A) (A) (A)
                 (A) (A) (A) (A) (A) (A) (A) (A) (A) (A) (A) (A)
                 (A) (A) (A) (A) (A) (A) (A) (A) (A) (A) (A) (A)
                 (A) (A) (A) (A) (A) (A) (A) (A) (A) (A) (A) (A)
                 (A) (A) (A) (A) (A) (A) (A) (A) (A) (A) (A) (A)
                 (A) (A) (A) (A) (A) (A) (A) (A) (A) (A) (A) (A)
                 (A) (A) (A) (A) (A) (A) (A) (A) (A) (A) (A) (A)
                 (A) (A) (A) (A) (A) (A) (A) (A) (A) (A) (A) (A)
                 (A) (A) (A) (A) (A) (A) (A) (A) (A) (A) (A) (A)
                 (A) (A) (A) (A) (A) (A) (A) (A) (A) (A) (A) (A)
                 (A) (A) (A) (A) (A) (A) (A) (A) (A) (A) (A) (A)
                 (A) (A) (A) (A) (A) (A) (A) (A) (A) (A) (A) (A)
                 (A) (A) (A) (A) (A) (A) (A) (A) (A) (A) (A) (A)
                 (A) (A) (A) (A) (A) (A) (A) (A) (A) (A) (A) (A)
                 (A) (A) (A) (A) (A) (A) (A) (A) (A) (A) (A) (A)
                 (A) (A) (A) (A) (A) (A) (A) (A) (A) (A) (A) (A)
                 (A) (A) (A)
 The electronic state of the initial guess is 1-A.
 Requested convergence on RMS density matrix=1.00D-08 within 128 cycles.
 Requested convergence on MAX density matrix=1.00D-06.
 Requested convergence on             energy=1.00D-06.
 No special actions if energy rises.
 SCF Done:  E(RB3LYP) =  -1387.64989148     A.U. after   17 cycles
             Convg  =    0.3983D-08             -V/T =  2.0043

 **********************************************************************

            Population analysis using the SCF density.

 **********************************************************************

 Orbital symmetries:
       Occupied  (A) (A) (A) (A) (A) (A) (A) (A) (A) (A) (A) (A)
                 (A) (A) (A) (A) (A) (A) (A) (A) (A) (A) (A) (A)
                 (A) (A) (A) (A) (A) (A) (A) (A) (A) (A) (A) (A)
                 (A) (A) (A) (A) (A) (A) (A) (A) (A) (A) (A) (A)
                 (A) (A) (A) (A) (A) (A) (A) (A) (A) (A) (A) (A)
                 (A) (A) (A) (A) (A) (A) (A) (A) (A) (A) (A) (A)
                 (A) (A) (A) (A) (A) (A) (A) (A) (A) (A) (A) (A)
                 (A) (A) (A) (A) (A) (A) (A) (A) (A) (A) (A) (A)
                 (A) (A) (A) (A) (A) (A) (A) (A) (A) (A) (A) (A)
                 (A) (A) (A) (A) (A) (A) (A)
       Virtual   (A) (A) (A) (A) (A) (A) (A) (A) (A) (A) (A) (A)
                 (A) (A) (A) (A) (A) (A) (A) (A) (A) (A) (A) (A)
                 (A) (A) (A) (A) (A) (A) (A) (A) (A) (A) (A) (A)
                 (A) (A) (A) (A) (A) (A) (A) (A) (A) (A) (A) (A)
                 (A) (A) (A) (A) (A) (A) (A) (A) (A) (A) (A) (A)
                 (A) (A) (A) (A) (A) (A) (A) (A) (A) (A) (A) (A)
                 (A) (A) (A) (A) (A) (A) (A) (A) (A) (A) (A) (A)
                 (A) (A) (A) (A) (A) (A) (A) (A) (A) (A) (A) (A)
                 (A) (A) (A) (A) (A) (A) (A) (A) (A) (A) (A) (A)
                 (A) (A) (A) (A) (A) (A) (A) (A) (A) (A) (A) (A)
                 (A) (A) (A) (A) (A) (A) (A) (A) (A) (A) (A) (A)
                 (A) (A) (A) (A) (A) (A) (A) (A) (A) (A) (A) (A)
                 (A) (A) (A) (A) (A) (A) (A) (A) (A) (A) (A) (A)
                 (A) (A) (A) (A) (A) (A) (A) (A) (A) (A) (A) (A)
                 (A) (A) (A) (A) (A) (A) (A) (A) (A) (A) (A) (A)
                 (A) (A) (A) (A) (A) (A) (A) (A) (A) (A) (A) (A)
                 (A) (A) (A) (A) (A) (A) (A) (A) (A) (A) (A) (A)
                 (A) (A) (A) (A) (A) (A) (A) (A) (A) (A) (A) (A)
                 (A) (A) (A) (A) (A) (A) (A) (A) (A) (A) (A) (A)
                 (A) (A) (A) (A) (A) (A) (A) (A) (A) (A) (A) (A)
                 (A) (A) (A) (A) (A) (A) (A) (A) (A) (A) (A) (A)
                 (A) (A) (A) (A) (A) (A) (A) (A) (A) (A) (A) (A)
                 (A) (A) (A) (A) (A) (A) (A) (A) (A) (A) (A) (A)
                 (A) (A) (A) (A) (A) (A) (A) (A) (A) (A) (A) (A)
                 (A) (A) (A) (A) (A) (A) (A) (A) (A) (A) (A) (A)
                 (A) (A) (A) (A) (A) (A) (A) (A) (A) (A) (A) (A)
                 (A) (A) (A) (A) (A) (A) (A) (A) (A) (A) (A) (A)
                 (A) (A) (A) (A) (A) (A) (A) (A) (A) (A) (A) (A)
                 (A) (A) (A) (A) (A) (A) (A) (A) (A) (A) (A) (A)
                 (A) (A) (A) (A) (A) (A) (A) (A) (A) (A) (A) (A)
                 (A) (A) (A) (A) (A) (A) (A) (A) (A) (A) (A) (A)
                 (A) (A) (A) (A) (A) (A) (A) (A) (A) (A) (A) (A)
                 (A) (A) (A) (A) (A) (A) (A) (A) (A) (A) (A) (A)
                 (A) (A) (A) (A) (A) (A) (A) (A) (A) (A) (A) (A)
                 (A) (A) (A) (A) (A) (A) (A) (A) (A) (A) (A) (A)
                 (A) (A) (A) (A) (A) (A) (A) (A) (A) (A) (A) (A)
                 (A) (A) (A) (A) (A) (A) (A) (A) (A) (A) (A) (A)
                 (A) (A) (A) (A) (A) (A) (A) (A) (A) (A) (A) (A)
                 (A) (A) (A) (A) (A) (A) (A) (A) (A) (A) (A) (A)
                 (A) (A) (A) (A) (A) (A) (A) (A) (A) (A) (A) (A)
                 (A) (A) (A) (A) (A) (A) (A) (A) (A) (A) (A) (A)
                 (A) (A) (A) (A) (A) (A) (A) (A) (A) (A) (A) (A)
                 (A) (A) (A) (A) (A) (A) (A) (A) (A) (A) (A) (A)
                 (A) (A) (A) (A) (A) (A) (A) (A) (A) (A) (A) (A)
                 (A) (A) (A) (A) (A) (A) (A) (A) (A) (A) (A) (A)
                 (A) (A) (A) (A) (A) (A) (A) (A) (A) (A) (A) (A)
                 (A) (A) (A) (A) (A) (A) (A) (A) (A) (A) (A) (A)
                 (A) (A) (A) (A) (A) (A) (A) (A) (A) (A) (A) (A)
                 (A) (A) (A) (A) (A) (A) (A) (A) (A) (A) (A) (A)
                 (A) (A) (A) (A) (A) (A) (A) (A) (A) (A) (A) (A)
                 (A) (A) (A) (A) (A) (A) (A) (A) (A) (A) (A) (A)
                 (A) (A) (A) (A) (A) (A) (A) (A) (A) (A) (A) (A)
                 (A) (A) (A) (A) (A) (A) (A) (A) (A) (A) (A) (A)
                 (A) (A) (A) (A) (A) (A) (A) (A) (A) (A) (A) (A)
                 (A) (A) (A) (A) (A) (A) (A) (A) (A) (A) (A) (A)
                 (A) (A) (A)
 The electronic state is 1-A.
 Alpha  occ. eigenvalues --  -19.17768 -19.14831 -19.14111 -19.10661 -19.10358
 Alpha  occ. eigenvalues --  -10.26960 -10.26603 -10.25861 -10.25496 -10.25472
 Alpha  occ. eigenvalues --  -10.25375 -10.24584 -10.20853 -10.20091 -10.19937
 Alpha  occ. eigenvalues --  -10.19603 -10.18970 -10.18892 -10.18619 -10.18520
 Alpha  occ. eigenvalues --  -10.18213 -10.17812 -10.17569 -10.17357 -10.17274
 Alpha  occ. eigenvalues --  -10.17115 -10.16938 -10.16685 -10.16005 -10.15205
 Alpha  occ. eigenvalues --  -10.14432  -1.10448  -1.07286  -1.04221  -1.03942
 Alpha  occ. eigenvalues --   -1.03375  -0.87791  -0.84600  -0.83399  -0.82401
 Alpha  occ. eigenvalues --   -0.81199  -0.79882  -0.77657  -0.75221  -0.74145
 Alpha  occ. eigenvalues --   -0.72645  -0.71903  -0.70603  -0.70434  -0.68844
 Alpha  occ. eigenvalues --   -0.66233  -0.64980  -0.64163  -0.62732  -0.61624
 Alpha  occ. eigenvalues --   -0.60454  -0.59086  -0.57950  -0.55483  -0.54939
 Alpha  occ. eigenvalues --   -0.53769  -0.53193  -0.51830  -0.51310  -0.50230
 Alpha  occ. eigenvalues --   -0.49040  -0.48529  -0.47735  -0.47221  -0.46839
 Alpha  occ. eigenvalues --   -0.45969  -0.45443  -0.45086  -0.44538  -0.44324
 Alpha  occ. eigenvalues --   -0.44080  -0.43324  -0.42786  -0.42554  -0.42193
 Alpha  occ. eigenvalues --   -0.41831  -0.41780  -0.41350  -0.40890  -0.40272
 Alpha  occ. eigenvalues --   -0.39999  -0.39701  -0.39642  -0.38993  -0.38644
 Alpha  occ. eigenvalues --   -0.38487  -0.38111  -0.37965  -0.37719  -0.37656
 Alpha  occ. eigenvalues --   -0.37195  -0.36109  -0.35843  -0.35572  -0.35284
 Alpha  occ. eigenvalues --   -0.34961  -0.34773  -0.34499  -0.33827  -0.33082
 Alpha  occ. eigenvalues --   -0.32280  -0.31870  -0.31499  -0.29646  -0.27820
 Alpha  occ. eigenvalues --   -0.27084  -0.26000  -0.25234  -0.24583  -0.23876
 Alpha virt. eigenvalues --   -0.06259  -0.02804  -0.01743  -0.01095  -0.00217
 Alpha virt. eigenvalues --    0.00268   0.00560   0.01250   0.01511   0.01779
 Alpha virt. eigenvalues --    0.01972   0.02625   0.03020   0.03354   0.03677
 Alpha virt. eigenvalues --    0.03769   0.03994   0.04450   0.04563   0.04802
 Alpha virt. eigenvalues --    0.05290   0.05447   0.05546   0.06006   0.06345
 Alpha virt. eigenvalues --    0.06610   0.06930   0.06968   0.07220   0.07439
 Alpha virt. eigenvalues --    0.07560   0.07774   0.08147   0.08509   0.08597
 Alpha virt. eigenvalues --    0.08954   0.09026   0.09169   0.09498   0.09625
 Alpha virt. eigenvalues --    0.10110   0.10415   0.10658   0.10987   0.11098
 Alpha virt. eigenvalues --    0.11250   0.11444   0.11688   0.11808   0.12029
 Alpha virt. eigenvalues --    0.12355   0.12721   0.12915   0.13148   0.13302
 Alpha virt. eigenvalues --    0.13359   0.13409   0.14126   0.14278   0.14843
 Alpha virt. eigenvalues --    0.15013   0.15250   0.15431   0.15540   0.16029
 Alpha virt. eigenvalues --    0.16355   0.16597   0.16682   0.17068   0.17139
 Alpha virt. eigenvalues --    0.17480   0.17532   0.17754   0.17927   0.18176
 Alpha virt. eigenvalues --    0.18383   0.18637   0.18714   0.18850   0.19231
 Alpha virt. eigenvalues --    0.19306   0.19383   0.19500   0.19876   0.20065
 Alpha virt. eigenvalues --    0.20317   0.20511   0.20910   0.20975   0.21149
 Alpha virt. eigenvalues --    0.21316   0.21348   0.21526   0.21795   0.22003
 Alpha virt. eigenvalues --    0.22104   0.22427   0.22641   0.22800   0.23003
 Alpha virt. eigenvalues --    0.23130   0.23597   0.23617   0.23766   0.24083
 Alpha virt. eigenvalues --    0.24203   0.24289   0.24336   0.24624   0.24793
 Alpha virt. eigenvalues --    0.25025   0.25164   0.25451   0.25703   0.25824
 Alpha virt. eigenvalues --    0.25976   0.26099   0.26335   0.26456   0.26714
 Alpha virt. eigenvalues --    0.26852   0.27305   0.27535   0.27807   0.27965
 Alpha virt. eigenvalues --    0.28342   0.28460   0.28599   0.28754   0.29003
 Alpha virt. eigenvalues --    0.29704   0.29851   0.29964   0.30214   0.30417
 Alpha virt. eigenvalues --    0.30741   0.30979   0.31431   0.31695   0.31751
 Alpha virt. eigenvalues --    0.32001   0.32410   0.32543   0.32737   0.33218
 Alpha virt. eigenvalues --    0.33418   0.33935   0.34368   0.34754   0.35062
 Alpha virt. eigenvalues --    0.35409   0.35656   0.36185   0.36397   0.36842
 Alpha virt. eigenvalues --    0.37090   0.37236   0.37681   0.38045   0.38446
 Alpha virt. eigenvalues --    0.38607   0.38986   0.39321   0.39949   0.40337
 Alpha virt. eigenvalues --    0.40613   0.41104   0.41330   0.41578   0.41866
 Alpha virt. eigenvalues --    0.42430   0.42699   0.42997   0.43646   0.43740
 Alpha virt. eigenvalues --    0.44355   0.44918   0.45085   0.45133   0.45540
 Alpha virt. eigenvalues --    0.45572   0.46250   0.46439   0.46874   0.47429
 Alpha virt. eigenvalues --    0.47696   0.47941   0.48082   0.48418   0.48580
 Alpha virt. eigenvalues --    0.48879   0.49690   0.50332   0.50669   0.50980
 Alpha virt. eigenvalues --    0.51479   0.51659   0.52081   0.52772   0.53457
 Alpha virt. eigenvalues --    0.53519   0.53942   0.54355   0.54772   0.55075
 Alpha virt. eigenvalues --    0.55947   0.56283   0.56879   0.56896   0.57574
 Alpha virt. eigenvalues --    0.57914   0.58118   0.58366   0.58692   0.58811
 Alpha virt. eigenvalues --    0.59444   0.59928   0.60409   0.60997   0.61601
 Alpha virt. eigenvalues --    0.62016   0.62572   0.63188   0.64135   0.64466
 Alpha virt. eigenvalues --    0.64607   0.64989   0.65327   0.65413   0.65564
 Alpha virt. eigenvalues --    0.65798   0.66274   0.66727   0.66995   0.67295
 Alpha virt. eigenvalues --    0.67597   0.67755   0.67931   0.68083   0.68461
 Alpha virt. eigenvalues --    0.69016   0.69116   0.69428   0.69613   0.69718
 Alpha virt. eigenvalues --    0.70129   0.70416   0.70541   0.71001   0.71108
 Alpha virt. eigenvalues --    0.71718   0.72072   0.72641   0.72947   0.73156
 Alpha virt. eigenvalues --    0.73271   0.73446   0.73937   0.74260   0.74787
 Alpha virt. eigenvalues --    0.74942   0.75458   0.75970   0.76418   0.76713
 Alpha virt. eigenvalues --    0.77033   0.77388   0.77720   0.78180   0.78265
 Alpha virt. eigenvalues --    0.78834   0.78944   0.79429   0.80075   0.80454
 Alpha virt. eigenvalues --    0.80684   0.80916   0.81371   0.81562   0.82274
 Alpha virt. eigenvalues --    0.82605   0.82764   0.83289   0.83936   0.84901
 Alpha virt. eigenvalues --    0.85108   0.86147   0.86363   0.87009   0.87945
 Alpha virt. eigenvalues --    0.88463   0.88913   0.89902   0.90494   0.91596
 Alpha virt. eigenvalues --    0.91933   0.93087   0.94157   0.95332   0.95720
 Alpha virt. eigenvalues --    0.96359   0.97503   0.98582   0.99555   1.00051
 Alpha virt. eigenvalues --    1.01341   1.02760   1.03331   1.04219   1.04588
 Alpha virt. eigenvalues --    1.05425   1.06092   1.07082   1.07883   1.09338
 Alpha virt. eigenvalues --    1.10021   1.10339   1.11353   1.12397   1.13484
 Alpha virt. eigenvalues --    1.14229   1.15480   1.16056   1.16502   1.18121
 Alpha virt. eigenvalues --    1.19195   1.19794   1.20214   1.21651   1.22670
 Alpha virt. eigenvalues --    1.23816   1.24188   1.24902   1.26112   1.27230
 Alpha virt. eigenvalues --    1.28013   1.28754   1.29852   1.31466   1.32049
 Alpha virt. eigenvalues --    1.33135   1.33726   1.34065   1.34784   1.35583
 Alpha virt. eigenvalues --    1.35674   1.36773   1.37046   1.38165   1.39120
 Alpha virt. eigenvalues --    1.39573   1.40405   1.40579   1.41216   1.43197
 Alpha virt. eigenvalues --    1.44287   1.44445   1.45901   1.46801   1.47141
 Alpha virt. eigenvalues --    1.47975   1.49492   1.50066   1.50725   1.51478
 Alpha virt. eigenvalues --    1.52287   1.53414   1.53961   1.54519   1.55385
 Alpha virt. eigenvalues --    1.55542   1.55826   1.56116   1.57192   1.57537
 Alpha virt. eigenvalues --    1.57681   1.58256   1.59038   1.59529   1.60283
 Alpha virt. eigenvalues --    1.60571   1.60886   1.61244   1.61916   1.62502
 Alpha virt. eigenvalues --    1.62666   1.63379   1.63765   1.64220   1.64487
 Alpha virt. eigenvalues --    1.65311   1.65750   1.65950   1.66150   1.66528
 Alpha virt. eigenvalues --    1.67081   1.67334   1.67511   1.68199   1.68824
 Alpha virt. eigenvalues --    1.70095   1.70154   1.71246   1.71509   1.71693
 Alpha virt. eigenvalues --    1.72657   1.73299   1.73785   1.74135   1.75234
 Alpha virt. eigenvalues --    1.75830   1.76766   1.77741   1.78565   1.78912
 Alpha virt. eigenvalues --    1.79312   1.80720   1.81096   1.82053   1.83057
 Alpha virt. eigenvalues --    1.84016   1.84878   1.85503   1.85856   1.86824
 Alpha virt. eigenvalues --    1.86900   1.89126   1.89436   1.90088   1.90784
 Alpha virt. eigenvalues --    1.91470   1.92217   1.93034   1.93445   1.95078
 Alpha virt. eigenvalues --    1.95308   1.96724   1.97975   1.98435   1.99797
 Alpha virt. eigenvalues --    2.01253   2.02283   2.04083   2.05121   2.05483
 Alpha virt. eigenvalues --    2.05626   2.06766   2.08719   2.09057   2.09574
 Alpha virt. eigenvalues --    2.10215   2.12632   2.13208   2.13990   2.14892
 Alpha virt. eigenvalues --    2.15828   2.17154   2.19935   2.20368   2.21498
 Alpha virt. eigenvalues --    2.21743   2.22503   2.22859   2.25610   2.26771
 Alpha virt. eigenvalues --    2.27335   2.29027   2.29167   2.30380   2.32077
 Alpha virt. eigenvalues --    2.33320   2.34550   2.37159   2.39051   2.39762
 Alpha virt. eigenvalues --    2.43664   2.44363   2.47915   2.48220   2.49246
 Alpha virt. eigenvalues --    2.51075   2.51693   2.52616   2.53457   2.53618
 Alpha virt. eigenvalues --    2.54188   2.54786   2.55398   2.55646   2.56108
 Alpha virt. eigenvalues --    2.57260   2.57370   2.57863   2.59175   2.60684
 Alpha virt. eigenvalues --    2.60755   2.62485   2.63257   2.63507   2.64998
 Alpha virt. eigenvalues --    2.66443   2.66938   2.67961   2.68851   2.69751
 Alpha virt. eigenvalues --    2.70934   2.71065   2.72564   2.73668   2.74600
 Alpha virt. eigenvalues --    2.75053   2.76788   2.77132   2.79358   2.83429
 Alpha virt. eigenvalues --    2.83751   2.85268   2.87597   2.89164   2.89514
 Alpha virt. eigenvalues --    2.90264   2.92280   2.93287   2.94105   2.94806
 Alpha virt. eigenvalues --    2.95142   2.96813   2.98053   2.98528   2.98841
 Alpha virt. eigenvalues --    2.99541   3.00799   3.01299   3.02388   3.03609
 Alpha virt. eigenvalues --    3.03768   3.05269   3.05998   3.06214   3.07397
 Alpha virt. eigenvalues --    3.09454   3.09839   3.11129   3.11403   3.12117
 Alpha virt. eigenvalues --    3.13586   3.14683   3.15493   3.16318   3.17023
 Alpha virt. eigenvalues --    3.17473   3.18075   3.19856   3.21427   3.21759
 Alpha virt. eigenvalues --    3.21826   3.22342   3.23218   3.24787   3.25573
 Alpha virt. eigenvalues --    3.26271   3.26456   3.27546   3.27973   3.28097
 Alpha virt. eigenvalues --    3.28576   3.29657   3.30141   3.30570   3.31887
 Alpha virt. eigenvalues --    3.32771   3.34063   3.35531   3.36316   3.37293
 Alpha virt. eigenvalues --    3.38515   3.39045   3.40693   3.41527   3.42828
 Alpha virt. eigenvalues --    3.44109   3.46362   3.48068   3.50961   3.53176
 Alpha virt. eigenvalues --    3.53776   3.55238   3.59256   3.61619   3.63242
 Alpha virt. eigenvalues --    3.74036   3.77769   3.78655   3.79934   3.87748
 Alpha virt. eigenvalues --    3.89163   3.90316   3.96713   3.98337   4.01057
 Alpha virt. eigenvalues --    4.02656   4.05812   4.07255   4.09084   4.10601
 Alpha virt. eigenvalues --    4.12338   4.15738   4.17846   4.20172   4.21715
 Alpha virt. eigenvalues --    4.22593   4.23693   4.25330   4.30489   4.32708
 Alpha virt. eigenvalues --    4.44684   4.60409   5.12689   5.16778   5.17940
 Alpha virt. eigenvalues --    5.22366   5.23324   5.30074   5.32005   5.33727
 Alpha virt. eigenvalues --    5.42095   5.43664   5.57674   5.67852   5.74172
 Alpha virt. eigenvalues --    5.79278   5.83729  23.46358  23.48026  23.51760
 Alpha virt. eigenvalues --   23.52476  23.61228  23.64294  23.66070  23.66707
 Alpha virt. eigenvalues --   23.68776  23.70315  23.73100  23.74218  23.76618
 Alpha virt. eigenvalues --   23.78632  23.78908  23.79735  23.82035  23.84333
 Alpha virt. eigenvalues --   23.86191  23.86700  23.89195  23.89607  23.95952
 Alpha virt. eigenvalues --   24.15111  24.18827  24.21996  49.99223  50.00680
 Alpha virt. eigenvalues --   50.03067  50.03357  50.07076
          Condensed to atoms (all electrons):
 Mulliken atomic charges:
              1
     1  C   -0.514740
     2  C    0.687910
     3  C   -0.182164
     4  C   -0.092559
     5  C    1.058128
     6  C   -0.591744
     7  C   -1.409629
     8  C    0.079308
     9  C    0.439838
    10  C   -0.799437
    11  C    0.030727
    12  O   -0.208024
    13  C    0.555520
    14  C   -0.308249
    15  C   -1.105588
    16  O   -0.191045
    17  C    0.156385
    18  C    0.500269
    19  O    0.184843
    20  C   -1.251732
    21  O   -0.010143
    22  C   -0.986511
    23  C   -0.321421
    24  O   -0.072634
    25  C    1.003384
    26  C   -1.121499
    27  C   -0.789596
    28  C   -0.775514
    29  C   -0.661238
    30  H    0.230636
    31  H    0.276918
    32  C   -1.014760
    33  H    0.202145
    34  H    0.240958
    35  H    0.282974
    36  H    0.230268
    37  H    0.259229
    38  H    0.238347
    39  H    0.260218
    40  H    0.231616
    41  H    0.266229
    42  H    0.268486
    43  H    0.290746
    44  H    0.276350
    45  H    0.296351
    46  H    0.276756
    47  H    0.247269
    48  H    0.259475
    49  H    0.261901
    50  H    0.267675
    51  H    0.223547
    52  H    0.246109
    53  H    0.311114
    54  H    0.262620
    55  H    0.247580
    56  H    0.267339
    57  H    0.259346
    58  H    0.272178
    59  H    0.256122
    60  H    0.259608
    61  H    0.256612
    62  C   -1.038432
    63  H    0.239097
    64  H    0.244979
    65  H    0.239551
 Sum of Mulliken atomic charges =   0.00000
 Mulliken charges with hydrogens summed into heavy atoms:
              1
     1  C   -0.312596
     2  C    0.687910
     3  C    0.094753
     4  C   -0.092559
     5  C    1.058128
     6  C   -0.067812
     7  C   -1.409629
     8  C    0.079308
     9  C    0.439838
    10  C   -0.799437
    11  C    0.030727
    12  O   -0.208024
    13  C    0.785788
    14  C    0.189327
    15  C   -0.347524
    16  O   -0.191045
    17  C    0.387021
    18  C    0.500269
    19  O    0.184843
    20  C   -0.692500
    21  O    0.266207
    22  C   -0.413404
    23  C   -0.074152
    24  O   -0.072634
    25  C    1.003384
    26  C   -0.332448
    27  C   -0.319941
    28  C    0.045801
    29  C    0.137625
    32  C   -0.242418
    62  C   -0.314804
 Sum of Mulliken charges with hydrogens summed into heavy atoms =   0.00000
 Electronic spatial extent (au):  <R**2>=          11700.8565
 Charge=              0.0000 electrons
 Dipole moment (field-independent basis, Debye):
    X=              5.2910    Y=              0.6796    Z=             -1.6869  Tot=              5.5948
 Quadrupole moment (field-independent basis, Debye-Ang):
   XX=           -196.8843   YY=           -175.2793   ZZ=           -187.5417
   XY=              2.4874   XZ=              4.2653   YZ=             -0.0820
 Traceless Quadrupole moment (field-independent basis, Debye-Ang):
   XX=            -10.3159   YY=             11.2892   ZZ=             -0.9733
   XY=              2.4874   XZ=              4.2653   YZ=             -0.0820
 Octapole moment (field-independent basis, Debye-Ang**2):
  XXX=             11.3515  YYY=             22.9009  ZZZ=             -3.4040  XYY=             47.1722
  XXY=            -30.1591  XXZ=            -24.2943  XZZ=             19.6780  YZZ=             17.6718
  YYZ=            -29.5483  XYZ=              4.3720
 Hexadecapole moment (field-independent basis, Debye-Ang**3):
 XXXX=          -7997.1929 YYYY=          -4677.2777 ZZZZ=          -3485.4611 XXXY=             54.9156
 XXXZ=             -9.0202 YYYX=            -98.8682 YYYZ=            -28.6278 ZZZX=            -17.7095
 ZZZY=             -7.8575 XXYY=          -2073.3548 XXZZ=          -1859.5186 YYZZ=          -1359.8287
 XXYZ=             -8.0169 YYXZ=             -7.4692 ZZXY=            -47.9120
 N-N= 3.495705352435D+03 E-N=-1.022439730763D+04  KE= 1.381710618951D+03
 Calling FoFJK, ICntrl=      2127 FMM=T ISym2X=0 I1Cent= 0 IOpClX= 0 NMat=1 NMatS=1 NMatT=0.
 ***** Axes restored to original set *****
 -------------------------------------------------------------------
 Center     Atomic                   Forces (Hartrees/Bohr)
 Number     Number              X              Y              Z
 -------------------------------------------------------------------
      1        6           0.000581989    0.001856752   -0.000905125
      2        6          -0.000001890   -0.002027770    0.001050995
      3        6          -0.000400998    0.000430246   -0.000249070
      4        6           0.000222636    0.001109692    0.000972920
      5        6          -0.000143429   -0.000319086    0.000089188
      6        6           0.000006464    0.000026500   -0.000210350
      7        6          -0.001831935    0.001338499    0.001665002
      8        6          -0.003336574    0.000513946   -0.000918187
      9        6           0.001310186    0.001442596    0.000906587
     10        6          -0.003260956   -0.004555690    0.003061356
     11        6          -0.003719681    0.005794970   -0.000235185
     12        8           0.004082363   -0.007217603   -0.000037086
     13        6           0.000044634    0.000251065   -0.000065190
     14        6           0.000044570    0.000728470   -0.000500887
     15        6           0.000215169    0.000139104    0.000102023
     16        8           0.003383997    0.005460414   -0.004672197
     17        6           0.000454177    0.000023097   -0.000138080
     18        6           0.000707472    0.001487049   -0.001092011
     19        8           0.001636727   -0.004124766    0.002108664
     20        6          -0.000417313    0.000159843    0.000221898
     21        8           0.006512445   -0.000219129    0.000750637
     22        6          -0.000167291   -0.000341818   -0.000353935
     23        6           0.000223992   -0.002318194    0.000073301
     24        8           0.000000489   -0.000118906    0.000680052
     25        6           0.001622434    0.000559012   -0.001354368
     26        6          -0.000240238   -0.000127978    0.000184902
     27        6          -0.001025280   -0.001223542    0.001700822
     28        6           0.000259408    0.000021418    0.000449537
     29        6           0.000336654   -0.000447197    0.000107314
     30        1          -0.001128072   -0.000233804    0.000614237
     31        1          -0.001246387   -0.000092706    0.000566716
     32        6          -0.000010749    0.000412329   -0.000026527
     33        1           0.000022585    0.000023433   -0.000851582
     34        1          -0.001539865    0.000612475    0.000138836
     35        1           0.001698622    0.000789042   -0.000277459
     36        1          -0.000690925    0.000984861    0.000087292
     37        1           0.000758326   -0.001236834   -0.000547118
     38        1          -0.001018481   -0.000082149    0.000951661
     39        1          -0.001567510    0.000105197   -0.000875620
     40        1           0.000997284    0.001319340    0.000369233
     41        1           0.000486667   -0.001654943    0.000130349
     42        1          -0.000975821   -0.001228063   -0.000121011
     43        1           0.001527388   -0.000025931   -0.000550770
     44        1          -0.005185423    0.000528585   -0.002446238
     45        1           0.000647294   -0.000491568    0.001425963
     46        1           0.000079438    0.001340353   -0.000749330
     47        1          -0.000693281    0.000752465   -0.001354087
     48        1          -0.000751101    0.000354372    0.001486325
     49        1          -0.000695159    0.000554635   -0.001349838
     50        1           0.001655245    0.000358950   -0.000077693
     51        1          -0.000358906    0.000466996    0.000843192
     52        1           0.000137573   -0.001049945   -0.000326419
     53        1          -0.000677667    0.001912156   -0.000323456
     54        1           0.001546811   -0.000347022    0.000291391
     55        1          -0.001037809   -0.001060183    0.000316842
     56        1           0.000076910    0.000247152   -0.001752376
     57        1          -0.001168876   -0.000715175    0.000551335
     58        1           0.001477773   -0.000135238    0.000798482
     59        1          -0.001417668   -0.000605849    0.000358571
     60        1           0.001177564   -0.001144102    0.000630003
     61        1           0.000231789    0.000531936   -0.001623137
     62        6           0.000178929   -0.000164236    0.000464712
     63        1          -0.001167961    0.000917629   -0.000043866
     64        1           0.000687514   -0.000392872    0.001372788
[...]
                 (A) (A) (A) (A) (A) (A) (A) (A) (A) (A) (A) (A)
                 (A) (A) (A) (A) (A) (A) (A) (A) (A) (A) (A) (A)
                 (A) (A) (A) (A) (A) (A) (A) (A) (A) (A) (A) (A)
                 (A) (A) (A) (A) (A) (A) (A) (A) (A) (A) (A) (A)
                 (A) (A)
 The electronic state is 1-A.
 Alpha  occ. eigenvalues --  -19.17520 -19.14651 -19.13938 -19.10894 -19.10658
 Alpha  occ. eigenvalues --  -10.26498 -10.26461 -10.25811 -10.25754 -10.25325
 Alpha  occ. eigenvalues --  -10.25282 -10.24408 -10.20775 -10.19912 -10.19769
 Alpha  occ. eigenvalues --  -10.19407 -10.18817 -10.18657 -10.18369 -10.18319
 Alpha  occ. eigenvalues --  -10.18049 -10.17736 -10.17486 -10.17182 -10.17068
 Alpha  occ. eigenvalues --  -10.17002 -10.16932 -10.16875 -10.16622 -10.15509
 Alpha  occ. eigenvalues --  -10.14555  -1.10191  -1.07035  -1.04605  -1.03957
 Alpha  occ. eigenvalues --   -1.03832  -0.87735  -0.84613  -0.83417  -0.82424
 Alpha  occ. eigenvalues --   -0.81180  -0.80482  -0.77647  -0.75172  -0.74099
 Alpha  occ. eigenvalues --   -0.72689  -0.72233  -0.70666  -0.70426  -0.68830
 Alpha  occ. eigenvalues --   -0.66523  -0.65321  -0.64125  -0.62516  -0.61541
 Alpha  occ. eigenvalues --   -0.60424  -0.59286  -0.57925  -0.55789  -0.54913
 Alpha  occ. eigenvalues --   -0.53783  -0.53271  -0.51789  -0.51307  -0.50205
 Alpha  occ. eigenvalues --   -0.49095  -0.48596  -0.47719  -0.47294  -0.46747
 Alpha  occ. eigenvalues --   -0.46036  -0.45727  -0.45331  -0.44629  -0.44374
 Alpha  occ. eigenvalues --   -0.44077  -0.43493  -0.42954  -0.42639  -0.42307
 Alpha  occ. eigenvalues --   -0.42159  -0.41710  -0.41419  -0.40889  -0.40195
 Alpha  occ. eigenvalues --   -0.39894  -0.39616  -0.39114  -0.38941  -0.38608
 Alpha  occ. eigenvalues --   -0.38474  -0.38413  -0.38084  -0.37966  -0.37452
 Alpha  occ. eigenvalues --   -0.37142  -0.36490  -0.35912  -0.35760  -0.35599
 Alpha  occ. eigenvalues --   -0.35030  -0.34912  -0.34527  -0.33819  -0.33013
 Alpha  occ. eigenvalues --   -0.32581  -0.32241  -0.31958  -0.29511  -0.27767
 Alpha  occ. eigenvalues --   -0.26976  -0.26036  -0.25242  -0.24472  -0.24085
 Alpha virt. eigenvalues --   -0.05861  -0.02328  -0.01581  -0.01027  -0.00222
 Alpha virt. eigenvalues --    0.00333   0.00660   0.01138   0.01565   0.01774
 Alpha virt. eigenvalues --    0.01982   0.02563   0.02889   0.03364   0.03510
 Alpha virt. eigenvalues --    0.03701   0.04003   0.04449   0.04466   0.04757
 Alpha virt. eigenvalues --    0.05085   0.05453   0.05665   0.06161   0.06307
 Alpha virt. eigenvalues --    0.06713   0.06901   0.07020   0.07267   0.07412
 Alpha virt. eigenvalues --    0.07612   0.07648   0.08459   0.08508   0.08646
 Alpha virt. eigenvalues --    0.08941   0.09134   0.09211   0.09671   0.09865
 Alpha virt. eigenvalues --    0.10143   0.10392   0.10810   0.10919   0.11129
 Alpha virt. eigenvalues --    0.11173   0.11322   0.11531   0.11826   0.12111
 Alpha virt. eigenvalues --    0.12320   0.12764   0.12907   0.13001   0.13407
 Alpha virt. eigenvalues --    0.13549   0.13725   0.14105   0.14487   0.14829
 Alpha virt. eigenvalues --    0.15194   0.15273   0.15561   0.15863   0.15956
 Alpha virt. eigenvalues --    0.16363   0.16579   0.16717   0.16990   0.17405
 Alpha virt. eigenvalues --    0.17592   0.17744   0.17994   0.18066   0.18318
 Alpha virt. eigenvalues --    0.18421   0.18661   0.18723   0.18898   0.19281
 Alpha virt. eigenvalues --    0.19379   0.19518   0.19673   0.19784   0.20074
 Alpha virt. eigenvalues --    0.20471   0.20485   0.20661   0.20928   0.21299
 Alpha virt. eigenvalues --    0.21462   0.21623   0.21727   0.22099   0.22314
 Alpha virt. eigenvalues --    0.22369   0.22531   0.22740   0.22943   0.22989
 Alpha virt. eigenvalues --    0.23168   0.23398   0.23720   0.24034   0.24151
 Alpha virt. eigenvalues --    0.24224   0.24336   0.24680   0.24872   0.24993
 Alpha virt. eigenvalues --    0.25033   0.25185   0.25305   0.25636   0.25956
 Alpha virt. eigenvalues --    0.26146   0.26243   0.26491   0.26608   0.26833
 Alpha virt. eigenvalues --    0.27110   0.27459   0.27772   0.28172   0.28301
 Alpha virt. eigenvalues --    0.28540   0.28571   0.29006   0.29180   0.29248
 Alpha virt. eigenvalues --    0.29602   0.29947   0.30300   0.30405   0.30589
 Alpha virt. eigenvalues --    0.30717   0.31206   0.31271   0.31608   0.32019
 Alpha virt. eigenvalues --    0.32110   0.32492   0.32872   0.33333   0.33422
 Alpha virt. eigenvalues --    0.34000   0.34316   0.34686   0.35269   0.35342
 Alpha virt. eigenvalues --    0.35733   0.36051   0.36496   0.36944   0.37504
 Alpha virt. eigenvalues --    0.37596   0.37702   0.37936   0.38469   0.38700
 Alpha virt. eigenvalues --    0.39222   0.39633   0.40036   0.40207   0.40793
 Alpha virt. eigenvalues --    0.41004   0.41436   0.41743   0.41932   0.42097
 Alpha virt. eigenvalues --    0.42565   0.42715   0.43435   0.44027   0.44296
 Alpha virt. eigenvalues --    0.44721   0.45115   0.45383   0.45551   0.45943
 Alpha virt. eigenvalues --    0.46320   0.46742   0.46939   0.47217   0.47502
 Alpha virt. eigenvalues --    0.47835   0.48235   0.48407   0.48641   0.48709
 Alpha virt. eigenvalues --    0.49282   0.50104   0.50492   0.50762   0.51518
 Alpha virt. eigenvalues --    0.52116   0.52281   0.52757   0.53336   0.54009
 Alpha virt. eigenvalues --    0.54255   0.54797   0.55115   0.55177   0.55645
 Alpha virt. eigenvalues --    0.56025   0.56327   0.57177   0.57421   0.57543
 Alpha virt. eigenvalues --    0.58613   0.58696   0.59187   0.59455   0.59509
 Alpha virt. eigenvalues --    0.60141   0.60831   0.61107   0.62123   0.62204
 Alpha virt. eigenvalues --    0.62589   0.63426   0.63624   0.64235   0.64568
 Alpha virt. eigenvalues --    0.64689   0.65208   0.65546   0.65574   0.66017
 Alpha virt. eigenvalues --    0.66307   0.66833   0.66962   0.67463   0.67542
 Alpha virt. eigenvalues --    0.67779   0.68064   0.68127   0.68622   0.68779
 Alpha virt. eigenvalues --    0.69182   0.69546   0.69781   0.69968   0.70407
 Alpha virt. eigenvalues --    0.70541   0.70829   0.71039   0.71305   0.71579
 Alpha virt. eigenvalues --    0.71927   0.72468   0.72730   0.73274   0.73450
 Alpha virt. eigenvalues --    0.73838   0.74313   0.74450   0.74550   0.75000
 Alpha virt. eigenvalues --    0.75247   0.75659   0.76069   0.76307   0.76907
 Alpha virt. eigenvalues --    0.77427   0.77847   0.78359   0.78901   0.79117
 Alpha virt. eigenvalues --    0.79611   0.79703   0.79864   0.80101   0.80614
 Alpha virt. eigenvalues --    0.80934   0.81205   0.81568   0.81909   0.82442
 Alpha virt. eigenvalues --    0.83248   0.83387   0.84409   0.84756   0.85072
 Alpha virt. eigenvalues --    0.85716   0.86642   0.87411   0.87570   0.88662
 Alpha virt. eigenvalues --    0.89290   0.90209   0.90761   0.91806   0.92305
 Alpha virt. eigenvalues --    0.93669   0.94792   0.95369   0.95906   0.96561
 Alpha virt. eigenvalues --    0.97985   0.98596   0.99720   1.00233   1.01152
 Alpha virt. eigenvalues --    1.01405   1.02141   1.03932   1.04707   1.05242
 Alpha virt. eigenvalues --    1.06471   1.07783   1.08553   1.09806   1.10133
 Alpha virt. eigenvalues --    1.10398   1.11497   1.12948   1.13274   1.13795
 Alpha virt. eigenvalues --    1.15528   1.16153   1.16680   1.18293   1.19996
 Alpha virt. eigenvalues --    1.20702   1.20929   1.22258   1.22343   1.22884
 Alpha virt. eigenvalues --    1.24062   1.25643   1.26080   1.27236   1.28328
 Alpha virt. eigenvalues --    1.29317   1.29725   1.30675   1.31669   1.32474
 Alpha virt. eigenvalues --    1.32950   1.33405   1.34227   1.35621   1.36204
 Alpha virt. eigenvalues --    1.37601   1.37958   1.38268   1.39050   1.39282
 Alpha virt. eigenvalues --    1.40357   1.41437   1.42037   1.43062   1.43958
 Alpha virt. eigenvalues --    1.45534   1.45999   1.46940   1.47909   1.48270
 Alpha virt. eigenvalues --    1.49456   1.50270   1.51077   1.51592   1.51967
 Alpha virt. eigenvalues --    1.53174   1.54430   1.54670   1.55050   1.55741
 Alpha virt. eigenvalues --    1.55950   1.56323   1.57340   1.57625   1.57931
 Alpha virt. eigenvalues --    1.59132   1.59257   1.59698   1.60172   1.60489
 Alpha virt. eigenvalues --    1.61169   1.61494   1.62198   1.62488   1.62910
 Alpha virt. eigenvalues --    1.63251   1.63607   1.63990   1.64815   1.65136
 Alpha virt. eigenvalues --    1.65663   1.66029   1.66455   1.66922   1.67187
 Alpha virt. eigenvalues --    1.67233   1.67959   1.68276   1.68979   1.69694
 Alpha virt. eigenvalues --    1.69807   1.70574   1.71652   1.71962   1.72821
 Alpha virt. eigenvalues --    1.73407   1.73985   1.74544   1.74836   1.75571
 Alpha virt. eigenvalues --    1.77011   1.77305   1.78757   1.79012   1.79446
 Alpha virt. eigenvalues --    1.80283   1.81502   1.82157   1.82621   1.83731
 Alpha virt. eigenvalues --    1.85060   1.85701   1.86347   1.86853   1.87755
 Alpha virt. eigenvalues --    1.87965   1.88972   1.90579   1.91327   1.92276
 Alpha virt. eigenvalues --    1.93133   1.93394   1.94165   1.95126   1.95663
 Alpha virt. eigenvalues --    1.96861   1.97597   1.98710   1.99307   2.01897
 Alpha virt. eigenvalues --    2.03016   2.03189   2.03647   2.05187   2.06289
 Alpha virt. eigenvalues --    2.06740   2.07835   2.09021   2.10002   2.10494
 Alpha virt. eigenvalues --    2.12928   2.13403   2.14599   2.15465   2.16409
 Alpha virt. eigenvalues --    2.18101   2.19708   2.20954   2.21953   2.22121
 Alpha virt. eigenvalues --    2.22881   2.23622   2.26439   2.27249   2.27415
 Alpha virt. eigenvalues --    2.28771   2.29583   2.32020   2.32468   2.33455
 Alpha virt. eigenvalues --    2.35894   2.36493   2.39287   2.39927   2.43677
 Alpha virt. eigenvalues --    2.44352   2.46293   2.47352   2.49692   2.51184
 Alpha virt. eigenvalues --    2.51686   2.52761   2.53568   2.53967   2.54851
 Alpha virt. eigenvalues --    2.55026   2.55304   2.55869   2.56133   2.57318
 Alpha virt. eigenvalues --    2.57449   2.58054   2.59804   2.60825   2.61037
 Alpha virt. eigenvalues --    2.62411   2.63352   2.63795   2.65607   2.66263
 Alpha virt. eigenvalues --    2.67133   2.67937   2.68713   2.69539   2.71015
 Alpha virt. eigenvalues --    2.71834   2.71990   2.73551   2.73960   2.74906
 Alpha virt. eigenvalues --    2.76174   2.77595   2.79199   2.84105   2.84846
 Alpha virt. eigenvalues --    2.85967   2.87246   2.88273   2.90220   2.90421
 Alpha virt. eigenvalues --    2.91292   2.92879   2.93332   2.95002   2.95612
 Alpha virt. eigenvalues --    2.96810   2.97703   2.98768   2.98948   2.99834
 Alpha virt. eigenvalues --    3.00015   3.01677   3.03196   3.03749   3.04773
 Alpha virt. eigenvalues --    3.05544   3.06720   3.08130   3.08844   3.09461
 Alpha virt. eigenvalues --    3.10374   3.11208   3.12259   3.13044   3.14188
 Alpha virt. eigenvalues --    3.15298   3.15470   3.16489   3.17171   3.17424
 Alpha virt. eigenvalues --    3.19115   3.19897   3.20927   3.21429   3.21790
 Alpha virt. eigenvalues --    3.22577   3.24007   3.25060   3.26003   3.26057
 Alpha virt. eigenvalues --    3.26867   3.27550   3.27857   3.28562   3.29109
 Alpha virt. eigenvalues --    3.30109   3.30863   3.31576   3.33021   3.33383
 Alpha virt. eigenvalues --    3.34722   3.36175   3.36863   3.37995   3.38737
 Alpha virt. eigenvalues --    3.39874   3.41437   3.41691   3.43134   3.44895
 Alpha virt. eigenvalues --    3.47167   3.48175   3.51522   3.52185   3.54147
 Alpha virt. eigenvalues --    3.55396   3.59759   3.61714   3.64925   3.74813
 Alpha virt. eigenvalues --    3.77853   3.78953   3.81562   3.88128   3.89572
 Alpha virt. eigenvalues --    3.90346   3.97188   3.98761   4.01270   4.03184
 Alpha virt. eigenvalues --    4.05778   4.07122   4.09233   4.11086   4.12608
 Alpha virt. eigenvalues --    4.16565   4.18033   4.20091   4.21914   4.22498
 Alpha virt. eigenvalues --    4.23880   4.24564   4.28520   4.32710   4.45241
 Alpha virt. eigenvalues --    4.61520   5.14845   5.16276   5.17756   5.21952
 Alpha virt. eigenvalues --    5.23759   5.27684   5.32379   5.33023   5.42696
 Alpha virt. eigenvalues --    5.43436   5.57907   5.68294   5.74636   5.79086
 Alpha virt. eigenvalues --    5.84144  23.46282  23.47782  23.51097  23.52326
 Alpha virt. eigenvalues --   23.59659  23.65113  23.66352  23.66981  23.69110
 Alpha virt. eigenvalues --   23.70750  23.73598  23.74872  23.77046  23.78945
 Alpha virt. eigenvalues --   23.79610  23.80050  23.82479  23.84815  23.86762
 Alpha virt. eigenvalues --   23.87112  23.89568  23.90847  23.96936  24.19064
 Alpha virt. eigenvalues --   24.20210  24.23551  49.99482  50.00563  50.02161
 Alpha virt. eigenvalues --   50.03302  50.07904
          Condensed to atoms (all electrons):
 Mulliken atomic charges:
              1
     1  C   -0.090388
     2  C    0.572708
     3  C   -0.127887
     4  C   -0.413163
     5  C    1.009034
     6  C   -0.770738
     7  C   -1.229773
     8  C    0.257780
     9  C    0.636135
    10  C   -0.675385
    11  C   -0.279806
    12  O   -0.167661
    13  C    0.305275
    14  C   -0.193465
    15  C   -1.098109
    16  O   -0.191081
    17  C   -0.068998
    18  C    0.550767
    19  O    0.173841
    20  C   -1.234186
    21  O    0.000371
    22  C   -0.805971
    23  C   -0.428792
    24  O   -0.056495
    25  C    1.017467
    26  C   -1.119362
    27  C   -0.782331
    28  C   -0.786157
    29  C   -0.641737
    30  H    0.232673
    31  H    0.275800
    32  C   -1.052005
    33  H    0.200377
    34  H    0.242792
    35  H    0.281462
    36  H    0.270407
    37  H    0.250388
    38  H    0.265518
    39  H    0.259290
    40  H    0.237299
    41  H    0.270499
    42  H    0.266416
    43  H    0.287331
    44  H    0.271936
    45  H    0.294004
    46  H    0.277055
    47  H    0.247082
    48  H    0.259869
    49  H    0.261554
    50  H    0.267394
    51  H    0.223203
    52  H    0.243229
    53  H    0.306061
    54  H    0.261896
    55  H    0.249435
    56  H    0.265661
    57  H    0.261754
    58  H    0.269173
    59  H    0.254013
    60  H    0.259561
    61  H    0.257053
    62  C   -1.116085
    63  H    0.246414
    64  H    0.244016
    65  H    0.245582
 Sum of Mulliken atomic charges =   0.00000
 Mulliken charges with hydrogens summed into heavy atoms:
              1
     1  C    0.109989
     2  C    0.572708
     3  C    0.147913
     4  C   -0.413163
     5  C    1.009034
     6  C   -0.246485
     7  C   -1.229773
     8  C    0.257780
     9  C    0.636135
    10  C   -0.675385
    11  C   -0.279806
    12  O   -0.167661
    13  C    0.575682
    14  C    0.322441
    15  C   -0.331021
    16  O   -0.191081
    17  C    0.163675
    18  C    0.550767
    19  O    0.173841
    20  C   -0.680439
    21  O    0.272307
    22  C   -0.234913
    23  C   -0.181711
    24  O   -0.056495
    25  C    1.017467
    26  C   -0.330545
    27  C   -0.315898
    28  C    0.031236
    29  C    0.154851
    32  C   -0.281377
    62  C   -0.380073
 Sum of Mulliken charges with hydrogens summed into heavy atoms =   0.00000
 Electronic spatial extent (au):  <R**2>=          11457.8847
 Charge=              0.0000 electrons
 Dipole moment (field-independent basis, Debye):
    X=              4.6075    Y=              0.7931    Z=             -2.7526  Tot=              5.4254
 Quadrupole moment (field-independent basis, Debye-Ang):
   XX=           -194.1906   YY=           -175.5370   ZZ=           -189.6033
   XY=              0.9569   XZ=              7.9304   YZ=             -2.4170
 Traceless Quadrupole moment (field-independent basis, Debye-Ang):
   XX=             -7.7470   YY=             10.9066   ZZ=             -3.1597
   XY=              0.9569   XZ=              7.9304   YZ=             -2.4170
 Octapole moment (field-independent basis, Debye-Ang**2):
  XXX=              5.0823  YYY=             19.5585  ZZZ=            -15.8282  XYY=             35.8644
  XXY=            -40.2143  XXZ=            -25.0457  XZZ=             23.8421  YZZ=             23.7622
  YYZ=            -27.7715  XYZ=              8.7304
 Hexadecapole moment (field-independent basis, Debye-Ang**3):
 XXXX=          -7673.1835 YYYY=          -4679.3310 ZZZZ=          -3463.6080 XXXY=             20.0908
 XXXZ=             45.4079 YYYX=            -97.9864 YYYZ=            -25.7823 ZZZX=              0.3861
 ZZZY=             -2.6036 XXYY=          -1980.1820 XXZZ=          -1821.5832 YYZZ=          -1364.2762
 XXYZ=            -30.9434 YYXZ=             -0.6136 ZZXY=            -38.0597
 N-N= 3.507889091429D+03 E-N=-1.024888253498D+04  KE= 1.381921898907D+03
 1\1\GINC-B0803\FOpt\RB3LYP\6-311+G(d)\C26H34O5\CAOFEI\13-Apr-2021\0\\#
  opt b3lyp/6-311+g(d) geom=connectivity\\Title Card Required\\0,1\C,1.
 6959323676,0.1452874714,3.2118359102\C,1.9176389036,1.3041730705,2.587
 908555\C,2.0098915214,1.3808256862,1.0805059991\C,1.5530023733,0.10965
 12368,0.2999929466\C,0.9291060007,-1.0687776206,1.0940168264\C,1.53487
 84658,-1.1744389687,2.5136419196\C,0.614719879,0.6591202244,-0.8069508
 679\C,-0.8310170389,0.7502187726,-0.3686679486\C,-1.4292387811,-0.0947
 714698,0.4991650609\C,-0.6191852639,-1.0788349239,1.2167374243\C,-2.89
 86626084,0.0400247995,0.8534117358\O,-3.3037708798,1.0566001043,1.3736
 317202\C,-3.813706397,-1.1224689284,0.4831197027\C,-4.0702260416,-1.06
 79266195,-1.0458307964\C,-5.1011855125,-1.1018953147,1.3093741425\O,-1
 .1323010401,-1.9071549068,1.9576438233\C,0.9052077613,2.1634299841,-0.
 983142483\C,-0.4223605371,2.7073390858,-1.5628206466\O,-1.4303070653,1
 .7891581437,-0.9528163523\C,1.2415049324,2.5811640183,0.4601601717\O,0
 .6444602735,-0.1130923797,-1.9943622558\C,1.3658667284,-2.2898570276,0
 .2457675362\C,2.7670128523,-1.8853139357,-0.2307679755\O,2.7133087038,
 -0.4522223392,-0.3666371452\C,3.2471168926,-2.5520437225,-1.50012548\C
 ,3.2166005103,-4.058733127,-1.4753246654\C,3.7113197696,-1.8588258587,
 -2.5413417995\C,-0.5169069233,2.5684049796,-3.0810814564\C,-0.81156724
 37,4.1141287336,-1.1249599555\H,1.7429953409,2.33742593,-1.6624979821\
 H,3.0690219842,1.4971072414,0.8171715396\C,2.1587671848,2.5844800536,3
 .3456386068\H,1.6690633518,0.1271313512,4.2993350415\H,2.5149708945,-1
 .665990777,2.4562558478\H,0.900565373,-1.8457440504,3.0952804048\H,-3.
 2561630605,-2.040387738,0.697764732\H,-4.6604836082,-0.1725153733,-1.2
 73042674\H,-3.1149053385,-0.9447926085,-1.5672183199\H,-4.8786263785,-
 1.1120102369,2.3786720176\H,-5.7193130625,-1.9752552617,1.0898920987\H
 ,-5.6886021077,-0.2037569087,1.1051386807\H,1.8188580006,3.5061619315,
 0.5069756686\H,0.3219406101,2.7505650123,1.0258091269\H,1.5613167891,-
 0.4077102547,-2.1163588586\H,0.7009425872,-2.4291759004,-0.6098646785\
 H,1.3619409754,-3.2070203,0.8365265317\H,3.5014704466,-2.1148007368,0.
 5554568817\H,3.6609664148,-4.4787714148,-2.3789783747\H,3.7707747756,-
 4.4515764716,-0.614956064\H,2.1945175378,-4.4419139335,-1.3912886634\H
 ,4.0667013314,-2.3603314747,-3.4358088548\H,3.7795926487,-0.7772855879
 ,-2.5257816731\H,-0.2613302644,1.5606760483,-3.4041378993\H,-1.5311795
 461,2.8006669598,-3.4141864025\H,0.1659970966,3.2738201872,-3.5635194\
 H,-0.8768100551,4.2066978759,-0.0413453335\H,-0.0761447883,4.835619027
 4,-1.4921618134\H,-1.7844063584,4.3823367607,-1.5424540687\H,3.1290852
 166,3.0226119228,3.0812181391\H,1.4020742325,3.3448926255,3.1266729383
 \H,2.1523668253,2.4123442376,4.423685151\C,-4.7739319146,-2.3096611833
 ,-1.5999253223\H,-4.2064005505,-3.2194059929,-1.379235462\H,-4.8773955
 323,-2.2414062072,-2.6868120369\H,-5.7774686544,-2.4363239205,-1.18637
 91719\\Version=EM64L-G09RevB.01\State=1-A\HF=-1387.6513797\RMSD=6.822e
 -09\RMSF=2.993e-06\Dipole=1.8513471,0.2959262,-1.0203256\Quadrupole=-5
 .7247507,8.3089388,-2.5841881,1.148542,5.8731041,-0.8152805\PG=C01 [X(
 C26H34O5)]\\@


 THE CAUTIOUS SELDOM ERR...CONFUCIUS                   
 Job cpu time:  1 days 14 hours 25 minutes 44.5 seconds.
 File lengths (MBytes):  RWF=    372 Int=      0 D2E=      0 Chk=     38 Scr=      1
 Normal termination of Gaussian 09 at Tue Apr 13 17:53:07 2021.
