 Entering Gaussian System, Link 0=g09
 Initial command:
 /public/software/g09/g09/l1.exe /tmp/Gau-29036.inp -scrdir=/tmp/
 Entering Link 1 = /public/software/g09/g09/l1.exe PID=     29037.
  
 Copyright (c) 1988,1990,1992,1993,1995,1998,2003,2009,2010,
            Gaussian, Inc.  All Rights Reserved.
  
 This is part of the Gaussian(R) 09 program.  It is based on
 the Gaussian(R) 03 system (copyright 2003, Gaussian, Inc.),
 the Gaussian(R) 98 system (copyright 1998, Gaussian, Inc.),
 the Gaussian(R) 94 system (copyright 1995, Gaussian, Inc.),
 the Gaussian 92(TM) system (copyright 1992, Gaussian, Inc.),
 the Gaussian 90(TM) system (copyright 1990, Gaussian, Inc.),
 the Gaussian 88(TM) system (copyright 1988, Gaussian, Inc.),
 the Gaussian 86(TM) system (copyright 1986, Carnegie Mellon
 University), and the Gaussian 82(TM) system (copyright 1983,
 Carnegie Mellon University). Gaussian is a federally registered
 trademark of Gaussian, Inc.
  
 This software contains proprietary and confidential information,
 including trade secrets, belonging to Gaussian, Inc.
  
 This software is provided under written license and may be
 used, copied, transmitted, or stored only in accord with that
 written license.
  
 The following legend is applicable only to US Government
 contracts under FAR:
  
                    RESTRICTED RIGHTS LEGEND
  
 Use, reproduction and disclosure by the US Government is
 subject to restrictions as set forth in subparagraphs (a)
 and (c) of the Commercial Computer Software - Restricted
 Rights clause in FAR 52.227-19.
  
 Gaussian, Inc.
 340 Quinnipiac St., Bldg. 40, Wallingford CT 06492
  
  
 ---------------------------------------------------------------
 Warning -- This program may not be used in any manner that
 competes with the business of Gaussian, Inc. or will provide
 assistance to any competitor of Gaussian, Inc.  The licensee
 of this program is prohibited from giving any competitor of
 Gaussian, Inc. access to this program.  By using this program,
 the user acknowledges that Gaussian, Inc. is engaged in the
 business of creating and licensing software in the field of
 computational chemistry and represents and warrants to the
 licensee that it is not a competitor of Gaussian, Inc. and that
 it will not use this program in any manner prohibited above.
 ---------------------------------------------------------------
  

 Cite this work as:
 Gaussian 09, Revision B.01,
 M. J. Frisch, G. W. Trucks, H. B. Schlegel, G. E. Scuseria, 
 M. A. Robb, J. R. Cheeseman, G. Scalmani, V. Barone, B. Mennucci, 
 G. A. Petersson, H. Nakatsuji, M. Caricato, X. Li, H. P. Hratchian, 
 A. F. Izmaylov, J. Bloino, G. Zheng, J. L. Sonnenberg, M. Hada, 
 M. Ehara, K. Toyota, R. Fukuda, J. Hasegawa, M. Ishida, T. Nakajima, 
 Y. Honda, O. Kitao, H. Nakai, T. Vreven, J. A. Montgomery, Jr., 
 J. E. Peralta, F. Ogliaro, M. Bearpark, J. J. Heyd, E. Brothers, 
 K. N. Kudin, V. N. Staroverov, T. Keith, R. Kobayashi, J. Normand, 
 K. Raghavachari, A. Rendell, J. C. Burant, S. S. Iyengar, J. Tomasi, 
 M. Cossi, N. Rega, J. M. Millam, M. Klene, J. E. Knox, J. B. Cross, 
 V. Bakken, C. Adamo, J. Jaramillo, R. Gomperts, R. E. Stratmann, 
 O. Yazyev, A. J. Austin, R. Cammi, C. Pomelli, J. W. Ochterski, 
 R. L. Martin, K. Morokuma, V. G. Zakrzewski, G. A. Voth, 
 P. Salvador, J. J. Dannenberg, S. Dapprich, A. D. Daniels, 
 O. Farkas, J. B. Foresman, J. V. Ortiz, J. Cioslowski, 
 and D. J. Fox, Gaussian, Inc., Wallingford CT, 2010.
 
 ******************************************
 Gaussian 09:  EM64L-G09RevB.01 12-Aug-2010
                13-Apr-2021 
 ******************************************
 %mem=600MW
 %nprocshared=10
 Will use up to   10 processors via shared memory.
 ----------------------------------------
 # opt b3lyp/6-311+g(d) geom=connectivity
 ----------------------------------------
 1/14=-1,18=20,19=15,26=3,38=1,57=2/1,3;
 2/9=110,12=2,17=6,18=5,40=1/2;
 3/5=4,6=6,7=11,11=2,16=1,25=1,30=1,71=1,74=-5/1,2,3;
 4//1;
 5/5=2,38=5/2;
 6/7=2,8=2,9=2,10=2,28=1/1;
 7//1,2,3,16;
 1/14=-1,18=20,19=15/3(2);
 2/9=110/2;
 99//99;
 2/9=110/2;
 3/5=4,6=6,7=11,11=2,16=1,25=1,30=1,71=1,74=-5/1,2,3;
 4/5=5,16=3/1;
 5/5=2,38=5/2;
 7//1,2,3,16;
 1/14=-1,18=20,19=15/3(-5);
 2/9=110/2;
 6/7=2,8=2,9=2,10=2,19=2,28=1/1;
 99/9=1/99;
 -------------------
 Title Card Required
 -------------------
 Symbolic Z-matrix:
 Charge =  0 Multiplicity = 1
 C                     1.5082    0.11171   3.221 
 C                     1.80813   1.26587   2.61432 
 C                     2.00507   1.3395    1.11496 
 C                     1.55938   0.08085   0.30633 
 C                     0.8425   -1.07261   1.05607 
 C                     1.34784  -1.20459   2.51241 
 C                     0.72201   0.65455  -0.86795 
 C                    -0.75289   0.78895  -0.54521 
 C                    -1.44888  -0.05918   0.25815 
 C                    -0.7109   -1.0251    1.07729 
 C                    -2.94055   0.08113   0.4409 
 O                    -3.44395   1.1809    0.59749 
 C                    -3.81467  -1.17306   0.34242 
 C                    -4.66494  -1.04598  -0.94642 
 C                    -4.66422  -1.31136   1.61604 
 O                    -1.29642  -1.80203   1.82885 
 C                     1.07287   2.14897  -1.02453 
 C                    -0.19145   2.72539  -1.70668 
 O                    -1.2689    1.84986  -1.16596 
 C                     1.31327   2.56128   0.44166 
 O                     0.83346  -0.13182  -2.04002 
 C                     1.27858  -2.30678   0.22088 
 C                     2.72163  -1.97199  -0.14665 
 O                     2.73872  -0.5211   -0.28666 
 C                     3.32387  -2.58071  -1.39666 
 C                     4.7289   -2.12273  -1.70802 
 C                     2.68415  -3.48198  -2.14846 
 C                    -0.17641   2.56336  -3.22799 
 C                    -0.57626   4.14932  -1.3144 
 H                     1.96673   2.29413  -1.63919 
 H                     3.08356   1.42534   0.91824 
 C                     2.03325   2.53915   3.39197 
 H                     1.40928   0.09651   4.30566 
 H                     2.31147  -1.73534   2.52385 
 H                     0.64053  -1.84738   3.04406 
 H                    -3.16735  -2.0506    0.25333 
 H                    -5.32263  -0.17418  -0.84451 
 H                    -3.99623  -0.82809  -1.79122 
 H                    -5.32421  -2.18288   1.55807 
 H                    -5.27768  -0.41624   1.76332 
 H                    -4.0164   -1.4385    2.48875 
 H                     1.91056   3.4732    0.53072 
 H                     0.35593   2.75421   0.93865 
 H                     1.75978  -0.44489  -2.03316 
 H                     0.66234  -2.38388  -0.67926 
 H                     1.18547  -3.23506   0.79088 
 H                     3.38803  -2.21738   0.69509 
 H                     4.76968  -1.03407  -1.82814 
 H                     5.41247  -2.37228  -0.8848 
 H                     5.10959  -2.59024  -2.62078 
 H                     3.1587   -3.91777  -3.02412 
 H                     1.68098  -3.8302   -1.92475 
 H                    -1.16309   2.80545  -3.63602 
 H                     0.55397   3.25161  -3.66886 
 H                     0.08732   1.54245  -3.50975 
 H                     0.19857   4.84953  -1.6462 
 H                    -1.51861   4.42748  -1.79621 
 H                    -0.70533   4.25524  -0.23507 
 H                     1.93995   2.36516   4.4683 
 H                     3.03582   2.9483    3.20121 
 H                     1.31687   3.32383   3.11667 
 C                    -5.48472  -2.2969   -1.27947 
 H                    -6.01899  -2.16718  -2.22787 
 H                    -4.84063  -3.17959  -1.37884 
 H                    -6.23219  -2.51551  -0.5094 
 

 GradGradGradGradGradGradGradGradGradGradGradGradGradGradGradGradGradGrad
 Berny optimization.
 Initialization pass.
                           ----------------------------
                           !    Initial Parameters    !
                           ! (Angstroms and Degrees)  !
 --------------------------                            --------------------------
 ! Name  Definition              Value          Derivative Info.                !
 --------------------------------------------------------------------------------
 ! R1    R(1,2)                  1.3379         estimate D2E/DX2                !
 ! R2    R(1,6)                  1.5035         estimate D2E/DX2                !
 ! R3    R(1,33)                 1.0893         estimate D2E/DX2                !
 ! R4    R(2,3)                  1.514          estimate D2E/DX2                !
 ! R5    R(2,32)                 1.5089         estimate D2E/DX2                !
 ! R6    R(3,4)                  1.561          estimate D2E/DX2                !
 ! R7    R(3,20)                 1.5571         estimate D2E/DX2                !
 ! R8    R(3,31)                 1.0996         estimate D2E/DX2                !
 ! R9    R(4,5)                  1.5513         estimate D2E/DX2                !
 ! R10   R(4,7)                  1.5522         estimate D2E/DX2                !
 ! R11   R(4,24)                 1.4508         estimate D2E/DX2                !
 ! R12   R(5,6)                  1.5472         estimate D2E/DX2                !
 ! R13   R(5,10)                 1.5543         estimate D2E/DX2                !
 ! R14   R(5,22)                 1.5527         estimate D2E/DX2                !
 ! R15   R(6,34)                 1.1002         estimate D2E/DX2                !
 ! R16   R(6,35)                 1.0937         estimate D2E/DX2                !
 ! R17   R(7,8)                  1.5158         estimate D2E/DX2                !
 ! R18   R(7,17)                 1.543          estimate D2E/DX2                !
 ! R19   R(7,21)                 1.4158         estimate D2E/DX2                !
 ! R20   R(8,9)                  1.3598         estimate D2E/DX2                !
 ! R21   R(8,19)                 1.3331         estimate D2E/DX2                !
 ! R22   R(9,10)                 1.4658         estimate D2E/DX2                !
 ! R23   R(9,11)                 1.5094         estimate D2E/DX2                !
 ! R24   R(10,16)                1.2293         estimate D2E/DX2                !
 ! R25   R(11,12)                1.2196         estimate D2E/DX2                !
 ! R26   R(11,13)                1.5319         estimate D2E/DX2                !
 ! R27   R(13,14)                1.5493         estimate D2E/DX2                !
 ! R28   R(13,15)                1.5372         estimate D2E/DX2                !
 ! R29   R(13,36)                1.0941         estimate D2E/DX2                !
 ! R30   R(14,37)                1.0968         estimate D2E/DX2                !
 ! R31   R(14,38)                1.0992         estimate D2E/DX2                !
 ! R32   R(14,62)                1.5322         estimate D2E/DX2                !
 ! R33   R(15,39)                1.0948         estimate D2E/DX2                !
 ! R34   R(15,40)                1.0951         estimate D2E/DX2                !
 ! R35   R(15,41)                1.0943         estimate D2E/DX2                !
 ! R36   R(17,18)                1.5479         estimate D2E/DX2                !
 ! R37   R(17,20)                1.5419         estimate D2E/DX2                !
 ! R38   R(17,30)                1.0945         estimate D2E/DX2                !
 ! R39   R(18,19)                1.4899         estimate D2E/DX2                !
 ! R40   R(18,28)                1.53           estimate D2E/DX2                !
 ! R41   R(18,29)                1.5263         estimate D2E/DX2                !
 ! R42   R(20,42)                1.0937         estimate D2E/DX2                !
 ! R43   R(20,43)                1.0958         estimate D2E/DX2                !
 ! R44   R(21,44)                0.9778         estimate D2E/DX2                !
 ! R45   R(22,23)                1.5263         estimate D2E/DX2                !
 ! R46   R(22,45)                1.0936         estimate D2E/DX2                !
 ! R47   R(22,46)                1.0933         estimate D2E/DX2                !
 ! R48   R(23,24)                1.4577         estimate D2E/DX2                !
 ! R49   R(23,25)                1.5152         estimate D2E/DX2                !
 ! R50   R(23,47)                1.1013         estimate D2E/DX2                !
 ! R51   R(25,26)                1.5102         estimate D2E/DX2                !
 ! R52   R(25,27)                1.3367         estimate D2E/DX2                !
 ! R53   R(26,48)                1.096          estimate D2E/DX2                !
 ! R54   R(26,49)                1.0987         estimate D2E/DX2                !
 ! R55   R(26,50)                1.0939         estimate D2E/DX2                !
 ! R56   R(27,51)                1.0871         estimate D2E/DX2                !
 ! R57   R(27,52)                1.0852         estimate D2E/DX2                !
 ! R58   R(28,53)                1.0948         estimate D2E/DX2                !
 ! R59   R(28,54)                1.0961         estimate D2E/DX2                !
 ! R60   R(28,55)                1.0914         estimate D2E/DX2                !
 ! R61   R(29,56)                1.0958         estimate D2E/DX2                !
 ! R62   R(29,57)                1.0943         estimate D2E/DX2                !
 ! R63   R(29,58)                1.0922         estimate D2E/DX2                !
 ! R64   R(32,59)                1.0943         estimate D2E/DX2                !
 ! R65   R(32,60)                1.0995         estimate D2E/DX2                !
 ! R66   R(32,61)                1.0976         estimate D2E/DX2                !
 ! R67   R(62,63)                1.0962         estimate D2E/DX2                !
 ! R68   R(62,64)                1.0972         estimate D2E/DX2                !
 ! R69   R(62,65)                1.0952         estimate D2E/DX2                !
 ! A1    A(2,1,6)              124.4333         estimate D2E/DX2                !
 ! A2    A(2,1,33)             118.9415         estimate D2E/DX2                !
 ! A3    A(6,1,33)             116.5768         estimate D2E/DX2                !
 ! A4    A(1,2,3)              121.3429         estimate D2E/DX2                !
 ! A5    A(1,2,32)             121.8503         estimate D2E/DX2                !
 ! A6    A(3,2,32)             116.7401         estimate D2E/DX2                !
 ! A7    A(2,3,4)              115.8901         estimate D2E/DX2                !
 ! A8    A(2,3,20)             114.1155         estimate D2E/DX2                !
 ! A9    A(2,3,31)             107.9707         estimate D2E/DX2                !
 ! A10   A(4,3,20)             106.3687         estimate D2E/DX2                !
 ! A11   A(4,3,31)             104.4948         estimate D2E/DX2                !
 ! A12   A(20,3,31)            107.2858         estimate D2E/DX2                !
 ! A13   A(3,4,5)              118.758          estimate D2E/DX2                !
 ! A14   A(3,4,7)              104.3537         estimate D2E/DX2                !
 ! A15   A(3,4,24)             108.3114         estimate D2E/DX2                !
 ! A16   A(5,4,7)              113.0265         estimate D2E/DX2                !
 ! A17   A(5,4,24)             105.3486         estimate D2E/DX2                !
 ! A18   A(7,4,24)             106.4199         estimate D2E/DX2                !
 ! A19   A(4,5,6)              111.5567         estimate D2E/DX2                !
 ! A20   A(4,5,10)             116.4702         estimate D2E/DX2                !
 ! A21   A(4,5,22)             101.6106         estimate D2E/DX2                !
 ! A22   A(6,5,10)             108.433          estimate D2E/DX2                !
 ! A23   A(6,5,22)             110.2905         estimate D2E/DX2                !
 ! A24   A(10,5,22)            108.1999         estimate D2E/DX2                !
 ! A25   A(1,6,5)              113.8147         estimate D2E/DX2                !
 ! A26   A(1,6,34)             108.9076         estimate D2E/DX2                !
 ! A27   A(1,6,35)             110.7593         estimate D2E/DX2                !
 ! A28   A(5,6,34)             109.6956         estimate D2E/DX2                !
 ! A29   A(5,6,35)             107.2458         estimate D2E/DX2                !
 ! A30   A(34,6,35)            106.1329         estimate D2E/DX2                !
 ! A31   A(4,7,8)              113.3673         estimate D2E/DX2                !
 ! A32   A(4,7,17)             108.1843         estimate D2E/DX2                !
 ! A33   A(4,7,21)             112.2427         estimate D2E/DX2                !
 ! A34   A(8,7,17)              99.0325         estimate D2E/DX2                !
 ! A35   A(8,7,21)             107.5843         estimate D2E/DX2                !
 ! A36   A(17,7,21)            115.8496         estimate D2E/DX2                !
 ! A37   A(7,8,9)              124.6468         estimate D2E/DX2                !
 ! A38   A(7,8,19)             110.3683         estimate D2E/DX2                !
 ! A39   A(9,8,19)             124.984          estimate D2E/DX2                !
 ! A40   A(8,9,10)             118.912          estimate D2E/DX2                !
 ! A41   A(8,9,11)             121.2906         estimate D2E/DX2                !
 ! A42   A(10,9,11)            119.4164         estimate D2E/DX2                !
 ! A43   A(5,10,9)             121.0435         estimate D2E/DX2                !
 ! A44   A(5,10,16)            117.7137         estimate D2E/DX2                !
 ! A45   A(9,10,16)            121.2184         estimate D2E/DX2                !
 ! A46   A(9,11,12)            120.4835         estimate D2E/DX2                !
 ! A47   A(9,11,13)            118.6872         estimate D2E/DX2                !
 ! A48   A(12,11,13)           120.7304         estimate D2E/DX2                !
 ! A49   A(11,13,14)           107.4267         estimate D2E/DX2                !
 ! A50   A(11,13,15)           109.6178         estimate D2E/DX2                !
 ! A51   A(11,13,36)           108.9235         estimate D2E/DX2                !
 ! A52   A(14,13,15)           113.1615         estimate D2E/DX2                !
 ! A53   A(14,13,36)           108.83           estimate D2E/DX2                !
 ! A54   A(15,13,36)           108.8012         estimate D2E/DX2                !
 ! A55   A(13,14,37)           108.4817         estimate D2E/DX2                !
 ! A56   A(13,14,38)           108.7674         estimate D2E/DX2                !
 ! A57   A(13,14,62)           114.0471         estimate D2E/DX2                !
 ! A58   A(37,14,38)           106.1793         estimate D2E/DX2                !
 ! A59   A(37,14,62)           110.3827         estimate D2E/DX2                !
 ! A60   A(38,14,62)           108.6783         estimate D2E/DX2                !
 ! A61   A(13,15,39)           111.1572         estimate D2E/DX2                !
 ! A62   A(13,15,40)           110.3334         estimate D2E/DX2                !
 ! A63   A(13,15,41)           110.1231         estimate D2E/DX2                !
 ! A64   A(39,15,40)           108.6703         estimate D2E/DX2                !
 ! A65   A(39,15,41)           107.856          estimate D2E/DX2                !
 ! A66   A(40,15,41)           108.6234         estimate D2E/DX2                !
 ! A67   A(7,17,18)            102.6882         estimate D2E/DX2                !
 ! A68   A(7,17,20)            101.4162         estimate D2E/DX2                !
 ! A69   A(7,17,30)            111.7866         estimate D2E/DX2                !
 ! A70   A(18,17,20)           116.539          estimate D2E/DX2                !
 ! A71   A(18,17,30)           111.7276         estimate D2E/DX2                !
 ! A72   A(20,17,30)           111.7913         estimate D2E/DX2                !
 ! A73   A(17,18,19)           102.2342         estimate D2E/DX2                !
 ! A74   A(17,18,28)           112.999          estimate D2E/DX2                !
 ! A75   A(17,18,29)           116.1086         estimate D2E/DX2                !
 ! A76   A(19,18,28)           107.8029         estimate D2E/DX2                !
 ! A77   A(19,18,29)           105.8207         estimate D2E/DX2                !
 ! A78   A(28,18,29)           110.9063         estimate D2E/DX2                !
 ! A79   A(8,19,18)            110.8998         estimate D2E/DX2                !
 ! A80   A(3,20,17)            105.7008         estimate D2E/DX2                !
 ! A81   A(3,20,42)            112.1087         estimate D2E/DX2                !
 ! A82   A(3,20,43)            109.28           estimate D2E/DX2                !
 ! A83   A(17,20,42)           112.6755         estimate D2E/DX2                !
 ! A84   A(17,20,43)           110.008          estimate D2E/DX2                !
 ! A85   A(42,20,43)           107.0604         estimate D2E/DX2                !
 ! A86   A(7,21,44)            104.2767         estimate D2E/DX2                !
 ! A87   A(5,22,23)            102.7506         estimate D2E/DX2                !
 ! A88   A(5,22,45)            109.9085         estimate D2E/DX2                !
 ! A89   A(5,22,46)            111.7481         estimate D2E/DX2                !
 ! A90   A(23,22,45)           110.4896         estimate D2E/DX2                !
 ! A91   A(23,22,46)           113.098          estimate D2E/DX2                !
 ! A92   A(45,22,46)           108.7409         estimate D2E/DX2                !
 ! A93   A(22,23,24)           104.6274         estimate D2E/DX2                !
 ! A94   A(22,23,25)           119.0998         estimate D2E/DX2                !
 ! A95   A(22,23,47)           109.8277         estimate D2E/DX2                !
 ! A96   A(24,23,25)           108.4192         estimate D2E/DX2                !
 ! A97   A(24,23,47)           106.7436         estimate D2E/DX2                !
 ! A98   A(25,23,47)           107.4889         estimate D2E/DX2                !
 ! A99   A(4,24,23)            111.3567         estimate D2E/DX2                !
 ! A100  A(23,25,26)           114.7114         estimate D2E/DX2                !
 ! A101  A(23,25,27)           123.0015         estimate D2E/DX2                !
 ! A102  A(26,25,27)           122.2596         estimate D2E/DX2                !
 ! A103  A(25,26,48)           111.0038         estimate D2E/DX2                !
 ! A104  A(25,26,49)           110.8215         estimate D2E/DX2                !
 ! A105  A(25,26,50)           111.4818         estimate D2E/DX2                !
 ! A106  A(48,26,49)           106.5318         estimate D2E/DX2                !
 ! A107  A(48,26,50)           108.6695         estimate D2E/DX2                !
 ! A108  A(49,26,50)           108.1549         estimate D2E/DX2                !
 ! A109  A(25,27,51)           120.9568         estimate D2E/DX2                !
 ! A110  A(25,27,52)           122.8758         estimate D2E/DX2                !
 ! A111  A(51,27,52)           116.1637         estimate D2E/DX2                !
 ! A112  A(18,28,53)           109.7729         estimate D2E/DX2                !
 ! A113  A(18,28,54)           109.8755         estimate D2E/DX2                !
 ! A114  A(18,28,55)           110.9856         estimate D2E/DX2                !
 ! A115  A(53,28,54)           108.1653         estimate D2E/DX2                !
 ! A116  A(53,28,55)           109.1716         estimate D2E/DX2                !
 ! A117  A(54,28,55)           108.8137         estimate D2E/DX2                !
 ! A118  A(18,29,56)           109.8802         estimate D2E/DX2                !
 ! A119  A(18,29,57)           109.9435         estimate D2E/DX2                !
 ! A120  A(18,29,58)           111.9791         estimate D2E/DX2                !
 ! A121  A(56,29,57)           108.2501         estimate D2E/DX2                !
 ! A122  A(56,29,58)           108.7127         estimate D2E/DX2                !
 ! A123  A(57,29,58)           107.9801         estimate D2E/DX2                !
 ! A124  A(2,32,59)            111.1026         estimate D2E/DX2                !
 ! A125  A(2,32,60)            111.1403         estimate D2E/DX2                !
 ! A126  A(2,32,61)            112.1255         estimate D2E/DX2                !
 ! A127  A(59,32,60)           107.9121         estimate D2E/DX2                !
 ! A128  A(59,32,61)           107.7411         estimate D2E/DX2                !
 ! A129  A(60,32,61)           106.594          estimate D2E/DX2                !
 ! A130  A(14,62,63)           110.6217         estimate D2E/DX2                !
 ! A131  A(14,62,64)           111.2472         estimate D2E/DX2                !
 ! A132  A(14,62,65)           112.0409         estimate D2E/DX2                !
 ! A133  A(63,62,64)           107.6344         estimate D2E/DX2                !
 ! A134  A(63,62,65)           107.4153         estimate D2E/DX2                !
 ! A135  A(64,62,65)           107.6823         estimate D2E/DX2                !
 ! D1    D(6,1,2,3)              0.5051         estimate D2E/DX2                !
 ! D2    D(6,1,2,32)          -176.4275         estimate D2E/DX2                !
 ! D3    D(33,1,2,3)           177.8853         estimate D2E/DX2                !
 ! D4    D(33,1,2,32)            0.9528         estimate D2E/DX2                !
 ! D5    D(2,1,6,5)            -29.6891         estimate D2E/DX2                !
 ! D6    D(2,1,6,34)            93.0338         estimate D2E/DX2                !
 ! D7    D(2,1,6,35)          -150.6105         estimate D2E/DX2                !
 ! D8    D(33,1,6,5)           152.8743         estimate D2E/DX2                !
 ! D9    D(33,1,6,34)          -84.4028         estimate D2E/DX2                !
 ! D10   D(33,1,6,35)           31.9529         estimate D2E/DX2                !
 ! D11   D(1,2,3,4)             11.9165         estimate D2E/DX2                !
 ! D12   D(1,2,3,20)           136.0056         estimate D2E/DX2                !
 ! D13   D(1,2,3,31)          -104.8217         estimate D2E/DX2                !
 ! D14   D(32,2,3,4)          -171.001          estimate D2E/DX2                !
 ! D15   D(32,2,3,20)          -46.9119         estimate D2E/DX2                !
 ! D16   D(32,2,3,31)           72.2609         estimate D2E/DX2                !
 ! D17   D(1,2,32,59)            1.3058         estimate D2E/DX2                !
 ! D18   D(1,2,32,60)          121.4832         estimate D2E/DX2                !
 ! D19   D(1,2,32,61)         -119.3241         estimate D2E/DX2                !
 ! D20   D(3,2,32,59)         -175.7608         estimate D2E/DX2                !
 ! D21   D(3,2,32,60)          -55.5834         estimate D2E/DX2                !
 ! D22   D(3,2,32,61)           63.6093         estimate D2E/DX2                !
 ! D23   D(2,3,4,5)              5.5535         estimate D2E/DX2                !
 ! D24   D(2,3,4,7)            132.4953         estimate D2E/DX2                !
 ! D25   D(2,3,4,24)          -114.4237         estimate D2E/DX2                !
 ! D26   D(20,3,4,5)          -122.4643         estimate D2E/DX2                !
 ! D27   D(20,3,4,7)             4.4775         estimate D2E/DX2                !
 ! D28   D(20,3,4,24)          117.5585         estimate D2E/DX2                !
 ! D29   D(31,3,4,5)           124.2195         estimate D2E/DX2                !
 ! D30   D(31,3,4,7)          -108.8387         estimate D2E/DX2                !
 ! D31   D(31,3,4,24)            4.2423         estimate D2E/DX2                !
 ! D32   D(2,3,20,17)         -155.2292         estimate D2E/DX2                !
 ! D33   D(2,3,20,42)           81.6484         estimate D2E/DX2                !
 ! D34   D(2,3,20,43)          -36.879          estimate D2E/DX2                !
 ! D35   D(4,3,20,17)          -26.1723         estimate D2E/DX2                !
 ! D36   D(4,3,20,42)         -149.2947         estimate D2E/DX2                !
 ! D37   D(4,3,20,43)           92.1779         estimate D2E/DX2                !
 ! D38   D(31,3,20,17)          85.2113         estimate D2E/DX2                !
 ! D39   D(31,3,20,42)         -37.9111         estimate D2E/DX2                !
 ! D40   D(31,3,20,43)        -156.4385         estimate D2E/DX2                !
 ! D41   D(3,4,5,6)            -32.3423         estimate D2E/DX2                !
 ! D42   D(3,4,5,10)            92.8624         estimate D2E/DX2                !
 ! D43   D(3,4,5,22)          -149.8468         estimate D2E/DX2                !
 ! D44   D(7,4,5,6)           -155.0614         estimate D2E/DX2                !
 ! D45   D(7,4,5,10)           -29.8566         estimate D2E/DX2                !
 ! D46   D(7,4,5,22)            87.4342         estimate D2E/DX2                !
 ! D47   D(24,4,5,6)            89.1426         estimate D2E/DX2                !
 ! D48   D(24,4,5,10)         -145.6526         estimate D2E/DX2                !
 ! D49   D(24,4,5,22)          -28.3618         estimate D2E/DX2                !
 ! D50   D(3,4,7,8)            -89.8521         estimate D2E/DX2                !
 ! D51   D(3,4,7,17)            18.9279         estimate D2E/DX2                !
 ! D52   D(3,4,7,21)           147.9899         estimate D2E/DX2                !
 ! D53   D(5,4,7,8)             40.5666         estimate D2E/DX2                !
 ! D54   D(5,4,7,17)           149.3466         estimate D2E/DX2                !
 ! D55   D(5,4,7,21)           -81.5914         estimate D2E/DX2                !
 ! D56   D(24,4,7,8)           155.7227         estimate D2E/DX2                !
 ! D57   D(24,4,7,17)          -95.4973         estimate D2E/DX2                !
 ! D58   D(24,4,7,21)           33.5647         estimate D2E/DX2                !
 ! D59   D(3,4,24,23)          136.5328         estimate D2E/DX2                !
 ! D60   D(5,4,24,23)            8.4826         estimate D2E/DX2                !
 ! D61   D(7,4,24,23)         -111.7664         estimate D2E/DX2                !
 ! D62   D(4,5,6,1)             43.1419         estimate D2E/DX2                !
 ! D63   D(4,5,6,34)           -79.1479         estimate D2E/DX2                !
 ! D64   D(4,5,6,35)           166.008          estimate D2E/DX2                !
 ! D65   D(10,5,6,1)           -86.4149         estimate D2E/DX2                !
 ! D66   D(10,5,6,34)          151.2953         estimate D2E/DX2                !
 ! D67   D(10,5,6,35)           36.4513         estimate D2E/DX2                !
 ! D68   D(22,5,6,1)           155.2757         estimate D2E/DX2                !
 ! D69   D(22,5,6,34)           32.9859         estimate D2E/DX2                !
 ! D70   D(22,5,6,35)          -81.8582         estimate D2E/DX2                !
 ! D71   D(4,5,10,9)             9.1217         estimate D2E/DX2                !
 ! D72   D(4,5,10,16)         -169.1049         estimate D2E/DX2                !
 ! D73   D(6,5,10,9)           135.8919         estimate D2E/DX2                !
 ! D74   D(6,5,10,16)          -42.3347         estimate D2E/DX2                !
 ! D75   D(22,5,10,9)         -104.4802         estimate D2E/DX2                !
 ! D76   D(22,5,10,16)          77.2932         estimate D2E/DX2                !
 ! D77   D(4,5,22,23)           37.2178         estimate D2E/DX2                !
 ! D78   D(4,5,22,45)          -80.4051         estimate D2E/DX2                !
 ! D79   D(4,5,22,46)          158.7729         estimate D2E/DX2                !
 ! D80   D(6,5,22,23)          -81.1986         estimate D2E/DX2                !
 ! D81   D(6,5,22,45)          161.1784         estimate D2E/DX2                !
 ! D82   D(6,5,22,46)           40.3565         estimate D2E/DX2                !
 ! D83   D(10,5,22,23)         160.3491         estimate D2E/DX2                !
 ! D84   D(10,5,22,45)          42.7262         estimate D2E/DX2                !
 ! D85   D(10,5,22,46)         -78.0958         estimate D2E/DX2                !
 ! D86   D(4,7,8,9)            -33.8969         estimate D2E/DX2                !
 ! D87   D(4,7,8,19)           146.4486         estimate D2E/DX2                !
 ! D88   D(17,7,8,9)          -148.2846         estimate D2E/DX2                !
 ! D89   D(17,7,8,19)           32.0609         estimate D2E/DX2                !
 ! D90   D(21,7,8,9)            90.8179         estimate D2E/DX2                !
 ! D91   D(21,7,8,19)          -88.8366         estimate D2E/DX2                !
 ! D92   D(4,7,17,18)         -155.458          estimate D2E/DX2                !
 ! D93   D(4,7,17,20)          -34.6143         estimate D2E/DX2                !
 ! D94   D(4,7,17,30)           84.6319         estimate D2E/DX2                !
 ! D95   D(8,7,17,18)          -37.1031         estimate D2E/DX2                !
 ! D96   D(8,7,17,20)           83.7407         estimate D2E/DX2                !
 ! D97   D(8,7,17,30)         -157.0131         estimate D2E/DX2                !
 ! D98   D(21,7,17,18)          77.5379         estimate D2E/DX2                !
 ! D99   D(21,7,17,20)        -161.6184         estimate D2E/DX2                !
 ! D100  D(21,7,17,30)         -42.3722         estimate D2E/DX2                !
 ! D101  D(4,7,21,44)          -35.7415         estimate D2E/DX2                !
 ! D102  D(8,7,21,44)         -161.1303         estimate D2E/DX2                !
 ! D103  D(17,7,21,44)          89.2033         estimate D2E/DX2                !
 ! D104  D(7,8,9,10)            12.0832         estimate D2E/DX2                !
 ! D105  D(7,8,9,11)          -175.0444         estimate D2E/DX2                !
 ! D106  D(19,8,9,10)         -168.3121         estimate D2E/DX2                !
 ! D107  D(19,8,9,11)            4.5603         estimate D2E/DX2                !
 ! D108  D(7,8,19,18)          -13.1            estimate D2E/DX2                !
 ! D109  D(9,8,19,18)          167.247          estimate D2E/DX2                !
 ! D110  D(8,9,10,5)             1.0699         estimate D2E/DX2                !
 ! D111  D(8,9,10,16)          179.2341         estimate D2E/DX2                !
 ! D112  D(11,9,10,5)         -171.9384         estimate D2E/DX2                !
 ! D113  D(11,9,10,16)           6.2258         estimate D2E/DX2                !
 ! D114  D(8,9,11,12)          -42.977          estimate D2E/DX2                !
 ! D115  D(8,9,11,13)          133.4326         estimate D2E/DX2                !
 ! D116  D(10,9,11,12)         129.8601         estimate D2E/DX2                !
 ! D117  D(10,9,11,13)         -53.7304         estimate D2E/DX2                !
 ! D118  D(9,11,13,14)        -111.4097         estimate D2E/DX2                !
 ! D119  D(9,11,13,15)         125.2553         estimate D2E/DX2                !
 ! D120  D(9,11,13,36)           6.3154         estimate D2E/DX2                !
 ! D121  D(12,11,13,14)         64.9906         estimate D2E/DX2                !
 ! D122  D(12,11,13,15)        -58.3443         estimate D2E/DX2                !
 ! D123  D(12,11,13,36)       -177.2843         estimate D2E/DX2                !
 ! D124  D(11,13,14,37)        -63.0933         estimate D2E/DX2                !
 ! D125  D(11,13,14,38)         51.9856         estimate D2E/DX2                !
 ! D126  D(11,13,14,62)        173.4524         estimate D2E/DX2                !
 ! D127  D(15,13,14,37)         58.0399         estimate D2E/DX2                !
 ! D128  D(15,13,14,38)        173.1189         estimate D2E/DX2                !
 ! D129  D(15,13,14,62)        -65.4144         estimate D2E/DX2                !
 ! D130  D(36,13,14,37)        179.1208         estimate D2E/DX2                !
 ! D131  D(36,13,14,38)        -65.8002         estimate D2E/DX2                !
 ! D132  D(36,13,14,62)         55.6665         estimate D2E/DX2                !
 ! D133  D(11,13,15,39)        178.1074         estimate D2E/DX2                !
 ! D134  D(11,13,15,40)         57.4776         estimate D2E/DX2                !
 ! D135  D(11,13,15,41)        -62.4225         estimate D2E/DX2                !
 ! D136  D(14,13,15,39)         58.2199         estimate D2E/DX2                !
 ! D137  D(14,13,15,40)        -62.4099         estimate D2E/DX2                !
 ! D138  D(14,13,15,41)        177.69           estimate D2E/DX2                !
 ! D139  D(36,13,15,39)        -62.8772         estimate D2E/DX2                !
 ! D140  D(36,13,15,40)        176.493          estimate D2E/DX2                !
 ! D141  D(36,13,15,41)         56.5928         estimate D2E/DX2                !
 ! D142  D(13,14,62,63)       -176.8236         estimate D2E/DX2                !
 ! D143  D(13,14,62,64)        -57.2458         estimate D2E/DX2                !
 ! D144  D(13,14,62,65)         63.3516         estimate D2E/DX2                !
 ! D145  D(37,14,62,63)         60.7574         estimate D2E/DX2                !
 ! D146  D(37,14,62,64)       -179.6648         estimate D2E/DX2                !
 ! D147  D(37,14,62,65)        -59.0674         estimate D2E/DX2                !
 ! D148  D(38,14,62,63)        -55.3075         estimate D2E/DX2                !
 ! D149  D(38,14,62,64)         64.2702         estimate D2E/DX2                !
 ! D150  D(38,14,62,65)       -175.1324         estimate D2E/DX2                !
 ! D151  D(7,17,18,19)          31.0352         estimate D2E/DX2                !
 ! D152  D(7,17,18,28)         -84.5529         estimate D2E/DX2                !
 ! D153  D(7,17,18,29)         145.676          estimate D2E/DX2                !
 ! D154  D(20,17,18,19)        -78.7947         estimate D2E/DX2                !
 ! D155  D(20,17,18,28)        165.6172         estimate D2E/DX2                !
 ! D156  D(20,17,18,29)         35.8461         estimate D2E/DX2                !
 ! D157  D(30,17,18,19)        150.9862         estimate D2E/DX2                !
 ! D158  D(30,17,18,28)         35.3981         estimate D2E/DX2                !
 ! D159  D(30,17,18,29)        -94.3731         estimate D2E/DX2                !
 ! D160  D(7,17,20,3)           36.7255         estimate D2E/DX2                !
 ! D161  D(7,17,20,42)         159.4874         estimate D2E/DX2                !
 ! D162  D(7,17,20,43)         -81.1382         estimate D2E/DX2                !
 ! D163  D(18,17,20,3)         147.2936         estimate D2E/DX2                !
 ! D164  D(18,17,20,42)        -89.9445         estimate D2E/DX2                !
 ! D165  D(18,17,20,43)         29.4299         estimate D2E/DX2                !
 ! D166  D(30,17,20,3)         -82.5174         estimate D2E/DX2                !
 ! D167  D(30,17,20,42)         40.2445         estimate D2E/DX2                !
 ! D168  D(30,17,20,43)        159.6189         estimate D2E/DX2                !
 ! D169  D(17,18,19,8)         -11.9192         estimate D2E/DX2                !
 ! D170  D(28,18,19,8)         107.3906         estimate D2E/DX2                !
 ! D171  D(29,18,19,8)        -133.889          estimate D2E/DX2                !
 ! D172  D(17,18,28,53)        169.064          estimate D2E/DX2                !
 ! D173  D(17,18,28,54)        -72.1045         estimate D2E/DX2                !
 ! D174  D(17,18,28,55)         48.2898         estimate D2E/DX2                !
 ! D175  D(19,18,28,53)         56.8489         estimate D2E/DX2                !
 ! D176  D(19,18,28,54)        175.6804         estimate D2E/DX2                !
 ! D177  D(19,18,28,55)        -63.9254         estimate D2E/DX2                !
 ! D178  D(29,18,28,53)        -58.5668         estimate D2E/DX2                !
 ! D179  D(29,18,28,54)         60.2647         estimate D2E/DX2                !
 ! D180  D(29,18,28,55)       -179.3411         estimate D2E/DX2                !
 ! D181  D(17,18,29,56)         65.0803         estimate D2E/DX2                !
 ! D182  D(17,18,29,57)       -175.8769         estimate D2E/DX2                !
 ! D183  D(17,18,29,58)        -55.8395         estimate D2E/DX2                !
 ! D184  D(19,18,29,56)        177.6712         estimate D2E/DX2                !
 ! D185  D(19,18,29,57)        -63.286          estimate D2E/DX2                !
 ! D186  D(19,18,29,58)         56.7514         estimate D2E/DX2                !
 ! D187  D(28,18,29,56)        -65.6867         estimate D2E/DX2                !
 ! D188  D(28,18,29,57)         53.3562         estimate D2E/DX2                !
 ! D189  D(28,18,29,58)        173.3936         estimate D2E/DX2                !
 ! D190  D(5,22,23,24)         -32.9523         estimate D2E/DX2                !
 ! D191  D(5,22,23,25)        -154.2168         estimate D2E/DX2                !
 ! D192  D(5,22,23,47)          81.2908         estimate D2E/DX2                !
 ! D193  D(45,22,23,24)         84.2585         estimate D2E/DX2                !
 ! D194  D(45,22,23,25)        -37.006          estimate D2E/DX2                !
 ! D195  D(45,22,23,47)       -161.4984         estimate D2E/DX2                !
 ! D196  D(46,22,23,24)       -153.5837         estimate D2E/DX2                !
 ! D197  D(46,22,23,25)         85.1517         estimate D2E/DX2                !
 ! D198  D(46,22,23,47)        -39.3407         estimate D2E/DX2                !
 ! D199  D(22,23,24,4)          15.6032         estimate D2E/DX2                !
 ! D200  D(25,23,24,4)         143.6773         estimate D2E/DX2                !
 ! D201  D(47,23,24,4)        -100.7941         estimate D2E/DX2                !
 ! D202  D(22,23,25,26)        176.718          estimate D2E/DX2                !
 ! D203  D(22,23,25,27)         -5.1523         estimate D2E/DX2                !
 ! D204  D(24,23,25,26)         57.3789         estimate D2E/DX2                !
 ! D205  D(24,23,25,27)       -124.4915         estimate D2E/DX2                !
 ! D206  D(47,23,25,26)        -57.6639         estimate D2E/DX2                !
 ! D207  D(47,23,25,27)        120.4658         estimate D2E/DX2                !
 ! D208  D(23,25,26,48)        -58.4545         estimate D2E/DX2                !
 ! D209  D(23,25,26,49)         59.7166         estimate D2E/DX2                !
 ! D210  D(23,25,26,50)       -179.759          estimate D2E/DX2                !
 ! D211  D(27,25,26,48)        123.4004         estimate D2E/DX2                !
 ! D212  D(27,25,26,49)       -118.4285         estimate D2E/DX2                !
 ! D213  D(27,25,26,50)          2.096          estimate D2E/DX2                !
 ! D214  D(23,25,27,51)       -178.3008         estimate D2E/DX2                !
 ! D215  D(23,25,27,52)          0.9777         estimate D2E/DX2                !
 ! D216  D(26,25,27,51)         -0.3101         estimate D2E/DX2                !
 ! D217  D(26,25,27,52)        178.9684         estimate D2E/DX2                !
 --------------------------------------------------------------------------------
 Trust Radius=3.00D-01 FncErr=1.00D-07 GrdErr=1.00D-06
 Number of steps in this run=    390 maximum allowed number of steps=    390.
 GradGradGradGradGradGradGradGradGradGradGradGradGradGradGradGradGradGrad

 Stoichiometry    C26H34O5
 Framework group  C1[X(C26H34O5)]
 Deg. of freedom   189
 Full point group                 C1      NOp   1
 Largest Abelian subgroup         C1      NOp   1
 Largest concise Abelian subgroup C1      NOp   1
                         Standard orientation:                         
 ---------------------------------------------------------------------
 Center     Atomic      Atomic             Coordinates (Angstroms)
 Number     Number       Type             X           Y           Z
 ---------------------------------------------------------------------
      1          6           0        1.508202    0.111713    3.220997
      2          6           0        1.808126    1.265868    2.614324
      3          6           0        2.005069    1.339504    1.114961
      4          6           0        1.559376    0.080848    0.306327
      5          6           0        0.842498   -1.072606    1.056069
      6          6           0        1.347843   -1.204589    2.512413
      7          6           0        0.722008    0.654553   -0.867945
      8          6           0       -0.752891    0.788945   -0.545205
      9          6           0       -1.448876   -0.059180    0.258148
     10          6           0       -0.710896   -1.025098    1.077294
     11          6           0       -2.940552    0.081127    0.440900
     12          8           0       -3.443952    1.180901    0.597492
     13          6           0       -3.814665   -1.173058    0.342417
     14          6           0       -4.664939   -1.045977   -0.946422
     15          6           0       -4.664222   -1.311355    1.616041
     16          8           0       -1.296422   -1.802032    1.828846
     17          6           0        1.072872    2.148969   -1.024531
     18          6           0       -0.191452    2.725389   -1.706682
     19          8           0       -1.268900    1.849863   -1.165959
     20          6           0        1.313265    2.561282    0.441660
     21          8           0        0.833464   -0.131816   -2.040017
     22          6           0        1.278576   -2.306781    0.220875
     23          6           0        2.721626   -1.971992   -0.146652
     24          8           0        2.738717   -0.521099   -0.286661
     25          6           0        3.323871   -2.580711   -1.396655
     26          6           0        4.728895   -2.122734   -1.708023
     27          6           0        2.684148   -3.481984   -2.148463
     28          6           0       -0.176406    2.563355   -3.227994
     29          6           0       -0.576263    4.149318   -1.314404
     30          1           0        1.966732    2.294125   -1.639186
     31          1           0        3.083563    1.425337    0.918244
     32          6           0        2.033252    2.539145    3.391972
     33          1           0        1.409284    0.096511    4.305660
     34          1           0        2.311467   -1.735341    2.523851
     35          1           0        0.640529   -1.847381    3.044059
     36          1           0       -3.167354   -2.050599    0.253329
     37          1           0       -5.322634   -0.174183   -0.844509
     38          1           0       -3.996228   -0.828085   -1.791215
     39          1           0       -5.324205   -2.182884    1.558073
     40          1           0       -5.277678   -0.416238    1.763319
     41          1           0       -4.016395   -1.438500    2.488752
     42          1           0        1.910556    3.473198    0.530716
     43          1           0        0.355930    2.754211    0.938650
     44          1           0        1.759781   -0.444894   -2.033161
     45          1           0        0.662335   -2.383880   -0.679256
     46          1           0        1.185469   -3.235062    0.790884
     47          1           0        3.388034   -2.217382    0.695088
     48          1           0        4.769684   -1.034073   -1.828137
     49          1           0        5.412474   -2.372280   -0.884799
     50          1           0        5.109591   -2.590239   -2.620780
     51          1           0        3.158702   -3.917769   -3.024123
     52          1           0        1.680980   -3.830201   -1.924753
     53          1           0       -1.163086    2.805449   -3.636021
     54          1           0        0.553966    3.251613   -3.668863
     55          1           0        0.087321    1.542451   -3.509752
     56          1           0        0.198571    4.849533   -1.646201
     57          1           0       -1.518606    4.427477   -1.796207
     58          1           0       -0.705333    4.255240   -0.235073
     59          1           0        1.939946    2.365161    4.468297
     60          1           0        3.035823    2.948299    3.201215
     61          1           0        1.316867    3.323826    3.116674
     62          6           0       -5.484720   -2.296899   -1.279470
     63          1           0       -6.018991   -2.167183   -2.227872
     64          1           0       -4.840626   -3.179585   -1.378838
     65          1           0       -6.232193   -2.515509   -0.509396
 ---------------------------------------------------------------------
 Rotational constants (GHZ):      0.1844684      0.1264210      0.1153959
 Standard basis: 6-311+G(d) (5D, 7F)
 There are   784 symmetry adapted basis functions of A   symmetry.
 Integral buffers will be    131072 words long.
 Raffenetti 2 integral format.
 Two-electron integral symmetry is turned on.
   784 basis functions,  1286 primitive gaussians,   815 cartesian basis functions
   115 alpha electrons      115 beta electrons
       nuclear repulsion energy      3492.2455094450 Hartrees.
 NAtoms=   65 NActive=   65 NUniq=   65 SFac= 1.00D+00 NAtFMM=   50 NAOKFM=T Big=T
 One-electron integrals computed using PRISM.
 NBasis=   784 RedAO= T  NBF=   784
 NBsUse=   777 1.00D-06 NBFU=   777
 Harris functional with IExCor=  402 diagonalized for initial guess.
 ExpMin= 4.38D-02 ExpMax= 8.59D+03 ExpMxC= 1.30D+03 IAcc=2 IRadAn=         0 AccDes= 0.00D+00
 HarFok:  IExCor=  402 AccDes= 0.00D+00 IRadAn=         0 IDoV= 1
 ScaDFX=  1.000000  1.000000  1.000000  1.000000
 FoFCou: FMM=F IPFlag=           0 FMFlag=      100000 FMFlg1=        2001
         NFxFlg=           0 DoJE=T BraDBF=F KetDBF=T FulRan=T
         Omega=  0.000000  0.000000  1.000000  0.000000  0.000000 ICntrl=     500 IOpCl=  0
         NMat0=    1 NMatS0=    1 NMatT0=    0 NMatD0=    1 NMtDS0=    0 NMtDT0=    0
         I1Cent=           4 NGrid=           0.
 Petite list used in FoFCou.
 Initial guess orbital symmetries:
       Occupied  (A) (A) (A) (A) (A) (A) (A) (A) (A) (A) (A) (A)
                 (A) (A) (A) (A) (A) (A) (A) (A) (A) (A) (A) (A)
                 (A) (A) (A) (A) (A) (A) (A) (A) (A) (A) (A) (A)
                 (A) (A) (A) (A) (A) (A) (A) (A) (A) (A) (A) (A)
                 (A) (A) (A) (A) (A) (A) (A) (A) (A) (A) (A) (A)
                 (A) (A) (A) (A) (A) (A) (A) (A) (A) (A) (A) (A)
                 (A) (A) (A) (A) (A) (A) (A) (A) (A) (A) (A) (A)
                 (A) (A) (A) (A) (A) (A) (A) (A) (A) (A) (A) (A)
                 (A) (A) (A) (A) (A) (A) (A) (A) (A) (A) (A) (A)
                 (A) (A) (A) (A) (A) (A) (A)
       Virtual   (A) (A) (A) (A) (A) (A) (A) (A) (A) (A) (A) (A)
                 (A) (A) (A) (A) (A) (A) (A) (A) (A) (A) (A) (A)
                 (A) (A) (A) (A) (A) (A) (A) (A) (A) (A) (A) (A)
                 (A) (A) (A) (A) (A) (A) (A) (A) (A) (A) (A) (A)
                 (A) (A) (A) (A) (A) (A) (A) (A) (A) (A) (A) (A)
                 (A) (A) (A) (A) (A) (A) (A) (A) (A) (A) (A) (A)
                 (A) (A) (A) (A) (A) (A) (A) (A) (A) (A) (A) (A)
                 (A) (A) (A) (A) (A) (A) (A) (A) (A) (A) (A) (A)
                 (A) (A) (A) (A) (A) (A) (A) (A) (A) (A) (A) (A)
                 (A) (A) (A) (A) (A) (A) (A) (A) (A) (A) (A) (A)
                 (A) (A) (A) (A) (A) (A) (A) (A) (A) (A) (A) (A)
                 (A) (A) (A) (A) (A) (A) (A) (A) (A) (A) (A) (A)
                 (A) (A) (A) (A) (A) (A) (A) (A) (A) (A) (A) (A)
                 (A) (A) (A) (A) (A) (A) (A) (A) (A) (A) (A) (A)
                 (A) (A) (A) (A) (A) (A) (A) (A) (A) (A) (A) (A)
                 (A) (A) (A) (A) (A) (A) (A) (A) (A) (A) (A) (A)
                 (A) (A) (A) (A) (A) (A) (A) (A) (A) (A) (A) (A)
                 (A) (A) (A) (A) (A) (A) (A) (A) (A) (A) (A) (A)
                 (A) (A) (A) (A) (A) (A) (A) (A) (A) (A) (A) (A)
                 (A) (A) (A) (A) (A) (A) (A) (A) (A) (A) (A) (A)
                 (A) (A) (A) (A) (A) (A) (A) (A) (A) (A) (A) (A)
                 (A) (A) (A) (A) (A) (A) (A) (A) (A) (A) (A) (A)
                 (A) (A) (A) (A) (A) (A) (A) (A) (A) (A) (A) (A)
                 (A) (A) (A) (A) (A) (A) (A) (A) (A) (A) (A) (A)
                 (A) (A) (A) (A) (A) (A) (A) (A) (A) (A) (A) (A)
                 (A) (A) (A) (A) (A) (A) (A) (A) (A) (A) (A) (A)
                 (A) (A) (A) (A) (A) (A) (A) (A) (A) (A) (A) (A)
                 (A) (A) (A) (A) (A) (A) (A) (A) (A) (A) (A) (A)
                 (A) (A) (A) (A) (A) (A) (A) (A) (A) (A) (A) (A)
                 (A) (A) (A) (A) (A) (A) (A) (A) (A) (A) (A) (A)
                 (A) (A) (A) (A) (A) (A) (A) (A) (A) (A) (A) (A)
                 (A) (A) (A) (A) (A) (A) (A) (A) (A) (A) (A) (A)
                 (A) (A) (A) (A) (A) (A) (A) (A) (A) (A) (A) (A)
                 (A) (A) (A) (A) (A) (A) (A) (A) (A) (A) (A) (A)
                 (A) (A) (A) (A) (A) (A) (A) (A) (A) (A) (A) (A)
                 (A) (A) (A) (A) (A) (A) (A) (A) (A) (A) (A) (A)
                 (A) (A) (A) (A) (A) (A) (A) (A) (A) (A) (A) (A)
                 (A) (A) (A) (A) (A) (A) (A) (A) (A) (A) (A) (A)
                 (A) (A) (A) (A) (A) (A) (A) (A) (A) (A) (A) (A)
                 (A) (A) (A) (A) (A) (A) (A) (A) (A) (A) (A) (A)
                 (A) (A) (A) (A) (A) (A) (A) (A) (A) (A) (A) (A)
                 (A) (A) (A) (A) (A) (A) (A) (A) (A) (A) (A) (A)
                 (A) (A) (A) (A) (A) (A) (A) (A) (A) (A) (A) (A)
                 (A) (A) (A) (A) (A) (A) (A) (A) (A) (A) (A) (A)
                 (A) (A) (A) (A) (A) (A) (A) (A) (A) (A) (A) (A)
                 (A) (A) (A) (A) (A) (A) (A) (A) (A) (A) (A) (A)
                 (A) (A) (A) (A) (A) (A) (A) (A) (A) (A) (A) (A)
                 (A) (A) (A) (A) (A) (A) (A) (A) (A) (A) (A) (A)
                 (A) (A) (A) (A) (A) (A) (A) (A) (A) (A) (A) (A)
                 (A) (A) (A) (A) (A) (A) (A) (A) (A) (A) (A) (A)
                 (A) (A) (A) (A) (A) (A) (A) (A) (A) (A) (A) (A)
                 (A) (A) (A) (A) (A) (A) (A) (A) (A) (A) (A) (A)
                 (A) (A) (A) (A) (A) (A) (A) (A) (A) (A) (A) (A)
                 (A) (A) (A) (A) (A) (A) (A) (A) (A) (A) (A) (A)
                 (A) (A) (A) (A) (A) (A) (A) (A) (A) (A) (A) (A)
                 (A) (A)
 The electronic state of the initial guess is 1-A.
 Requested convergence on RMS density matrix=1.00D-08 within 128 cycles.
 Requested convergence on MAX density matrix=1.00D-06.
 Requested convergence on             energy=1.00D-06.
 No special actions if energy rises.
 SCF Done:  E(RB3LYP) =  -1387.64885833     A.U. after   16 cycles
             Convg  =    0.8361D-08             -V/T =  2.0043

 **********************************************************************

            Population analysis using the SCF density.

 **********************************************************************

 Orbital symmetries:
       Occupied  (A) (A) (A) (A) (A) (A) (A) (A) (A) (A) (A) (A)
                 (A) (A) (A) (A) (A) (A) (A) (A) (A) (A) (A) (A)
                 (A) (A) (A) (A) (A) (A) (A) (A) (A) (A) (A) (A)
                 (A) (A) (A) (A) (A) (A) (A) (A) (A) (A) (A) (A)
                 (A) (A) (A) (A) (A) (A) (A) (A) (A) (A) (A) (A)
                 (A) (A) (A) (A) (A) (A) (A) (A) (A) (A) (A) (A)
                 (A) (A) (A) (A) (A) (A) (A) (A) (A) (A) (A) (A)
                 (A) (A) (A) (A) (A) (A) (A) (A) (A) (A) (A) (A)
                 (A) (A) (A) (A) (A) (A) (A) (A) (A) (A) (A) (A)
                 (A) (A) (A) (A) (A) (A) (A)
       Virtual   (A) (A) (A) (A) (A) (A) (A) (A) (A) (A) (A) (A)
                 (A) (A) (A) (A) (A) (A) (A) (A) (A) (A) (A) (A)
                 (A) (A) (A) (A) (A) (A) (A) (A) (A) (A) (A) (A)
                 (A) (A) (A) (A) (A) (A) (A) (A) (A) (A) (A) (A)
                 (A) (A) (A) (A) (A) (A) (A) (A) (A) (A) (A) (A)
                 (A) (A) (A) (A) (A) (A) (A) (A) (A) (A) (A) (A)
                 (A) (A) (A) (A) (A) (A) (A) (A) (A) (A) (A) (A)
                 (A) (A) (A) (A) (A) (A) (A) (A) (A) (A) (A) (A)
                 (A) (A) (A) (A) (A) (A) (A) (A) (A) (A) (A) (A)
                 (A) (A) (A) (A) (A) (A) (A) (A) (A) (A) (A) (A)
                 (A) (A) (A) (A) (A) (A) (A) (A) (A) (A) (A) (A)
                 (A) (A) (A) (A) (A) (A) (A) (A) (A) (A) (A) (A)
                 (A) (A) (A) (A) (A) (A) (A) (A) (A) (A) (A) (A)
                 (A) (A) (A) (A) (A) (A) (A) (A) (A) (A) (A) (A)
                 (A) (A) (A) (A) (A) (A) (A) (A) (A) (A) (A) (A)
                 (A) (A) (A) (A) (A) (A) (A) (A) (A) (A) (A) (A)
                 (A) (A) (A) (A) (A) (A) (A) (A) (A) (A) (A) (A)
                 (A) (A) (A) (A) (A) (A) (A) (A) (A) (A) (A) (A)
                 (A) (A) (A) (A) (A) (A) (A) (A) (A) (A) (A) (A)
                 (A) (A) (A) (A) (A) (A) (A) (A) (A) (A) (A) (A)
                 (A) (A) (A) (A) (A) (A) (A) (A) (A) (A) (A) (A)
                 (A) (A) (A) (A) (A) (A) (A) (A) (A) (A) (A) (A)
                 (A) (A) (A) (A) (A) (A) (A) (A) (A) (A) (A) (A)
                 (A) (A) (A) (A) (A) (A) (A) (A) (A) (A) (A) (A)
                 (A) (A) (A) (A) (A) (A) (A) (A) (A) (A) (A) (A)
                 (A) (A) (A) (A) (A) (A) (A) (A) (A) (A) (A) (A)
                 (A) (A) (A) (A) (A) (A) (A) (A) (A) (A) (A) (A)
                 (A) (A) (A) (A) (A) (A) (A) (A) (A) (A) (A) (A)
                 (A) (A) (A) (A) (A) (A) (A) (A) (A) (A) (A) (A)
                 (A) (A) (A) (A) (A) (A) (A) (A) (A) (A) (A) (A)
                 (A) (A) (A) (A) (A) (A) (A) (A) (A) (A) (A) (A)
                 (A) (A) (A) (A) (A) (A) (A) (A) (A) (A) (A) (A)
                 (A) (A) (A) (A) (A) (A) (A) (A) (A) (A) (A) (A)
                 (A) (A) (A) (A) (A) (A) (A) (A) (A) (A) (A) (A)
                 (A) (A) (A) (A) (A) (A) (A) (A) (A) (A) (A) (A)
                 (A) (A) (A) (A) (A) (A) (A) (A) (A) (A) (A) (A)
                 (A) (A) (A) (A) (A) (A) (A) (A) (A) (A) (A) (A)
                 (A) (A) (A) (A) (A) (A) (A) (A) (A) (A) (A) (A)
                 (A) (A) (A) (A) (A) (A) (A) (A) (A) (A) (A) (A)
                 (A) (A) (A) (A) (A) (A) (A) (A) (A) (A) (A) (A)
                 (A) (A) (A) (A) (A) (A) (A) (A) (A) (A) (A) (A)
                 (A) (A) (A) (A) (A) (A) (A) (A) (A) (A) (A) (A)
                 (A) (A) (A) (A) (A) (A) (A) (A) (A) (A) (A) (A)
                 (A) (A) (A) (A) (A) (A) (A) (A) (A) (A) (A) (A)
                 (A) (A) (A) (A) (A) (A) (A) (A) (A) (A) (A) (A)
                 (A) (A) (A) (A) (A) (A) (A) (A) (A) (A) (A) (A)
                 (A) (A) (A) (A) (A) (A) (A) (A) (A) (A) (A) (A)
                 (A) (A) (A) (A) (A) (A) (A) (A) (A) (A) (A) (A)
                 (A) (A) (A) (A) (A) (A) (A) (A) (A) (A) (A) (A)
                 (A) (A) (A) (A) (A) (A) (A) (A) (A) (A) (A) (A)
                 (A) (A) (A) (A) (A) (A) (A) (A) (A) (A) (A) (A)
                 (A) (A) (A) (A) (A) (A) (A) (A) (A) (A) (A) (A)
                 (A) (A) (A) (A) (A) (A) (A) (A) (A) (A) (A) (A)
                 (A) (A) (A) (A) (A) (A) (A) (A) (A) (A) (A) (A)
                 (A) (A) (A) (A) (A) (A) (A) (A) (A) (A) (A) (A)
                 (A) (A)
 The electronic state is 1-A.
 Alpha  occ. eigenvalues --  -19.17745 -19.14867 -19.14102 -19.10638 -19.10375
 Alpha  occ. eigenvalues --  -10.26936 -10.26576 -10.25853 -10.25501 -10.25436
 Alpha  occ. eigenvalues --  -10.25384 -10.24474 -10.20862 -10.19994 -10.19899
 Alpha  occ. eigenvalues --  -10.19641 -10.18900 -10.18765 -10.18611 -10.18521
 Alpha  occ. eigenvalues --  -10.17849 -10.17770 -10.17712 -10.17566 -10.17296
 Alpha  occ. eigenvalues --  -10.17128 -10.16941 -10.16691 -10.16028 -10.15214
 Alpha  occ. eigenvalues --  -10.14422  -1.10424  -1.07163  -1.04206  -1.03781
 Alpha  occ. eigenvalues --   -1.03382  -0.87725  -0.84571  -0.83345  -0.82385
 Alpha  occ. eigenvalues --   -0.81175  -0.79892  -0.77639  -0.75204  -0.74120
 Alpha  occ. eigenvalues --   -0.72606  -0.71887  -0.70596  -0.70313  -0.68727
 Alpha  occ. eigenvalues --   -0.66214  -0.64996  -0.64307  -0.62671  -0.61572
 Alpha  occ. eigenvalues --   -0.60455  -0.59033  -0.57962  -0.55555  -0.54553
 Alpha  occ. eigenvalues --   -0.53722  -0.53136  -0.51767  -0.51330  -0.50250
 Alpha  occ. eigenvalues --   -0.49236  -0.48568  -0.47598  -0.47055  -0.46796
 Alpha  occ. eigenvalues --   -0.46205  -0.45382  -0.45101  -0.44473  -0.44238
 Alpha  occ. eigenvalues --   -0.44083  -0.43053  -0.42880  -0.42438  -0.42183
 Alpha  occ. eigenvalues --   -0.41830  -0.41701  -0.41234  -0.40893  -0.40259
 Alpha  occ. eigenvalues --   -0.39993  -0.39693  -0.39173  -0.38982  -0.38749
 Alpha  occ. eigenvalues --   -0.38453  -0.38289  -0.37973  -0.37781  -0.37691
 Alpha  occ. eigenvalues --   -0.37395  -0.36013  -0.35933  -0.35364  -0.35153
 Alpha  occ. eigenvalues --   -0.34795  -0.34641  -0.34446  -0.33821  -0.33124
 Alpha  occ. eigenvalues --   -0.32299  -0.31880  -0.31502  -0.29451  -0.27928
 Alpha  occ. eigenvalues --   -0.27471  -0.26047  -0.25233  -0.24583  -0.23881
 Alpha virt. eigenvalues --   -0.06237  -0.02764  -0.02037  -0.01164  -0.00096
 Alpha virt. eigenvalues --    0.00226   0.00493   0.01045   0.01556   0.01860
 Alpha virt. eigenvalues --    0.02127   0.02315   0.02947   0.03283   0.03584
 Alpha virt. eigenvalues --    0.03834   0.03978   0.04391   0.04559   0.04692
 Alpha virt. eigenvalues --    0.05175   0.05446   0.05455   0.05744   0.06403
 Alpha virt. eigenvalues --    0.06575   0.06997   0.07069   0.07163   0.07559
 Alpha virt. eigenvalues --    0.07710   0.07753   0.07952   0.08577   0.08859
 Alpha virt. eigenvalues --    0.08914   0.09156   0.09413   0.09450   0.09675
 Alpha virt. eigenvalues --    0.10202   0.10602   0.10653   0.10942   0.11003
 Alpha virt. eigenvalues --    0.11145   0.11505   0.11596   0.11784   0.12051
 Alpha virt. eigenvalues --    0.12342   0.12523   0.12752   0.13126   0.13377
 Alpha virt. eigenvalues --    0.13480   0.13586   0.14046   0.14450   0.14841
 Alpha virt. eigenvalues --    0.15048   0.15293   0.15460   0.15636   0.15719
 Alpha virt. eigenvalues --    0.16141   0.16517   0.16860   0.16929   0.17159
 Alpha virt. eigenvalues --    0.17299   0.17738   0.17773   0.18033   0.18284
 Alpha virt. eigenvalues --    0.18307   0.18554   0.18706   0.18856   0.19366
 Alpha virt. eigenvalues --    0.19443   0.19499   0.19637   0.19899   0.20087
 Alpha virt. eigenvalues --    0.20259   0.20734   0.20944   0.21080   0.21150
 Alpha virt. eigenvalues --    0.21331   0.21609   0.21708   0.21934   0.22186
 Alpha virt. eigenvalues --    0.22221   0.22391   0.22667   0.22856   0.23037
 Alpha virt. eigenvalues --    0.23174   0.23379   0.23572   0.23763   0.23887
 Alpha virt. eigenvalues --    0.23970   0.24412   0.24482   0.24754   0.24917
 Alpha virt. eigenvalues --    0.25037   0.25112   0.25667   0.25700   0.26132
 Alpha virt. eigenvalues --    0.26170   0.26338   0.26439   0.26750   0.26910
 Alpha virt. eigenvalues --    0.27251   0.27457   0.27667   0.27709   0.28086
 Alpha virt. eigenvalues --    0.28371   0.28529   0.28817   0.29108   0.29206
 Alpha virt. eigenvalues --    0.29457   0.29751   0.29828   0.30312   0.30474
 Alpha virt. eigenvalues --    0.30609   0.31064   0.31135   0.31517   0.32005
 Alpha virt. eigenvalues --    0.32433   0.32499   0.32805   0.32968   0.33522
 Alpha virt. eigenvalues --    0.33905   0.34240   0.34525   0.34784   0.35194
 Alpha virt. eigenvalues --    0.35651   0.35986   0.36220   0.36525   0.37018
 Alpha virt. eigenvalues --    0.37356   0.37565   0.37832   0.37978   0.38520
 Alpha virt. eigenvalues --    0.38788   0.39434   0.39594   0.40071   0.40385
 Alpha virt. eigenvalues --    0.40650   0.40786   0.41410   0.42022   0.42425
 Alpha virt. eigenvalues --    0.42468   0.42580   0.43043   0.43550   0.43626
 Alpha virt. eigenvalues --    0.44105   0.44590   0.45104   0.45216   0.45450
 Alpha virt. eigenvalues --    0.46044   0.46450   0.46815   0.46908   0.47290
 Alpha virt. eigenvalues --    0.47754   0.48347   0.48850   0.49123   0.49239
 Alpha virt. eigenvalues --    0.49728   0.49943   0.50252   0.50345   0.51024
 Alpha virt. eigenvalues --    0.51363   0.51773   0.52806   0.52951   0.53533
 Alpha virt. eigenvalues --    0.53869   0.54311   0.54866   0.55436   0.55648
 Alpha virt. eigenvalues --    0.56293   0.56705   0.57141   0.57339   0.57939
 Alpha virt. eigenvalues --    0.58157   0.58708   0.58796   0.59221   0.59610
 Alpha virt. eigenvalues --    0.60101   0.60298   0.60868   0.61045   0.61450
 Alpha virt. eigenvalues --    0.62062   0.62692   0.63116   0.63674   0.64417
 Alpha virt. eigenvalues --    0.64530   0.64822   0.65077   0.65566   0.65879
 Alpha virt. eigenvalues --    0.66057   0.66475   0.66817   0.67181   0.67475
 Alpha virt. eigenvalues --    0.67584   0.67731   0.68173   0.68695   0.69108
 Alpha virt. eigenvalues --    0.69519   0.69645   0.69899   0.70260   0.70492
 Alpha virt. eigenvalues --    0.70671   0.70903   0.71357   0.71427   0.71714
 Alpha virt. eigenvalues --    0.72040   0.72429   0.72594   0.72981   0.73152
 Alpha virt. eigenvalues --    0.73424   0.74009   0.74210   0.74708   0.75282
 Alpha virt. eigenvalues --    0.75481   0.75904   0.76251   0.76390   0.76712
 Alpha virt. eigenvalues --    0.76815   0.77435   0.77693   0.78104   0.78618
 Alpha virt. eigenvalues --    0.79068   0.79332   0.79579   0.80278   0.80924
 Alpha virt. eigenvalues --    0.81222   0.81426   0.81808   0.82308   0.83038
 Alpha virt. eigenvalues --    0.83203   0.83805   0.84233   0.84347   0.85645
 Alpha virt. eigenvalues --    0.86200   0.86368   0.86888   0.87868   0.88133
 Alpha virt. eigenvalues --    0.89106   0.89455   0.90424   0.91172   0.91755
 Alpha virt. eigenvalues --    0.93127   0.93467   0.94402   0.95792   0.96158
 Alpha virt. eigenvalues --    0.96675   0.97419   0.98267   1.00762   1.01218
 Alpha virt. eigenvalues --    1.01945   1.02908   1.03547   1.03756   1.05132
 Alpha virt. eigenvalues --    1.06590   1.07126   1.08246   1.08541   1.09219
 Alpha virt. eigenvalues --    1.10367   1.11535   1.12521   1.13167   1.14359
 Alpha virt. eigenvalues --    1.15214   1.15503   1.16719   1.18048   1.19125
 Alpha virt. eigenvalues --    1.19672   1.20306   1.21891   1.22426   1.23973
 Alpha virt. eigenvalues --    1.24408   1.25129   1.26334   1.26869   1.28654
 Alpha virt. eigenvalues --    1.28761   1.29053   1.30869   1.31977   1.32464
 Alpha virt. eigenvalues --    1.32971   1.33668   1.34776   1.35318   1.35593
 Alpha virt. eigenvalues --    1.36308   1.36899   1.37827   1.38755   1.39415
 Alpha virt. eigenvalues --    1.40266   1.40870   1.41706   1.43280   1.43733
 Alpha virt. eigenvalues --    1.44919   1.45361   1.46776   1.47263   1.47724
 Alpha virt. eigenvalues --    1.48352   1.49801   1.50749   1.51242   1.52609
 Alpha virt. eigenvalues --    1.53123   1.53606   1.54365   1.55044   1.55386
 Alpha virt. eigenvalues --    1.55655   1.56031   1.56762   1.57513   1.57727
 Alpha virt. eigenvalues --    1.58280   1.59006   1.59314   1.60112   1.60195
 Alpha virt. eigenvalues --    1.60826   1.61211   1.61795   1.62281   1.63025
 Alpha virt. eigenvalues --    1.63468   1.63586   1.64503   1.64854   1.64911
 Alpha virt. eigenvalues --    1.65848   1.65998   1.66171   1.66609   1.66805
 Alpha virt. eigenvalues --    1.67579   1.67627   1.68128   1.68805   1.69678
 Alpha virt. eigenvalues --    1.70174   1.70911   1.71281   1.71898   1.72568
 Alpha virt. eigenvalues --    1.73318   1.73644   1.74265   1.75028   1.75471
 Alpha virt. eigenvalues --    1.76515   1.77735   1.78377   1.78944   1.79218
 Alpha virt. eigenvalues --    1.80348   1.81334   1.82237   1.83164   1.83722
 Alpha virt. eigenvalues --    1.84852   1.85245   1.86093   1.86416   1.86879
 Alpha virt. eigenvalues --    1.88183   1.89205   1.89512   1.90329   1.91528
 Alpha virt. eigenvalues --    1.92149   1.92564   1.93528   1.94244   1.96060
 Alpha virt. eigenvalues --    1.96942   1.97780   1.99610   2.00525   2.01964
 Alpha virt. eigenvalues --    2.02963   2.04020   2.04244   2.05190   2.06319
 Alpha virt. eigenvalues --    2.06713   2.07374   2.08601   2.09006   2.09871
 Alpha virt. eigenvalues --    2.12081   2.13047   2.13784   2.14562   2.16070
 Alpha virt. eigenvalues --    2.17212   2.18190   2.18898   2.21084   2.22020
 Alpha virt. eigenvalues --    2.22682   2.22964   2.24329   2.25603   2.26729
 Alpha virt. eigenvalues --    2.28465   2.29316   2.31409   2.33020   2.33292
 Alpha virt. eigenvalues --    2.34994   2.37638   2.38528   2.39861   2.42407
 Alpha virt. eigenvalues --    2.44050   2.46854   2.48169   2.49253   2.51032
 Alpha virt. eigenvalues --    2.51658   2.52344   2.53430   2.54183   2.54481
 Alpha virt. eigenvalues --    2.54779   2.55382   2.55836   2.56475   2.56680
 Alpha virt. eigenvalues --    2.57355   2.57739   2.59002   2.60135   2.60838
 Alpha virt. eigenvalues --    2.63076   2.63340   2.64839   2.66332   2.66441
 Alpha virt. eigenvalues --    2.66734   2.67990   2.69562   2.69730   2.70431
 Alpha virt. eigenvalues --    2.70714   2.71961   2.72936   2.74274   2.74765
 Alpha virt. eigenvalues --    2.76546   2.77467   2.81710   2.83090   2.83727
 Alpha virt. eigenvalues --    2.85215   2.87124   2.88651   2.88953   2.89629
 Alpha virt. eigenvalues --    2.91160   2.92714   2.93276   2.94191   2.95049
 Alpha virt. eigenvalues --    2.96378   2.96685   2.98620   2.98844   2.99864
 Alpha virt. eigenvalues --    3.00832   3.01149   3.02393   3.03146   3.03687
 Alpha virt. eigenvalues --    3.04591   3.05817   3.06115   3.08032   3.09376
 Alpha virt. eigenvalues --    3.09749   3.10840   3.11469   3.12615   3.13648
 Alpha virt. eigenvalues --    3.14117   3.15379   3.16284   3.16406   3.17049
 Alpha virt. eigenvalues --    3.18106   3.19776   3.21312   3.21508   3.21895
 Alpha virt. eigenvalues --    3.22345   3.23549   3.24464   3.25559   3.26149
 Alpha virt. eigenvalues --    3.26250   3.26576   3.27456   3.27902   3.28451
 Alpha virt. eigenvalues --    3.29641   3.30215   3.30740   3.31776   3.32596
 Alpha virt. eigenvalues --    3.33898   3.34539   3.35820   3.37055   3.38373
 Alpha virt. eigenvalues --    3.39079   3.40390   3.41236   3.42697   3.44559
 Alpha virt. eigenvalues --    3.46314   3.47887   3.50982   3.52920   3.53638
 Alpha virt. eigenvalues --    3.54865   3.59168   3.61081   3.63209   3.73811
 Alpha virt. eigenvalues --    3.77612   3.77820   3.79944   3.87702   3.89012
 Alpha virt. eigenvalues --    3.90270   3.96602   3.98131   4.01162   4.02672
 Alpha virt. eigenvalues --    4.05710   4.05965   4.09087   4.10220   4.12470
 Alpha virt. eigenvalues --    4.15680   4.17802   4.20135   4.21938   4.23145
 Alpha virt. eigenvalues --    4.23476   4.28039   4.30145   4.33086   4.44965
 Alpha virt. eigenvalues --    4.60481   5.12531   5.16796   5.17887   5.21680
 Alpha virt. eigenvalues --    5.23645   5.29976   5.31178   5.33567   5.41969
 Alpha virt. eigenvalues --    5.42563   5.56818   5.66266   5.73572   5.79077
 Alpha virt. eigenvalues --    5.83724  23.45554  23.47368  23.51713  23.52430
 Alpha virt. eigenvalues --   23.61191  23.64206  23.65711  23.66894  23.69000
 Alpha virt. eigenvalues --   23.70397  23.73434  23.74226  23.76276  23.78472
 Alpha virt. eigenvalues --   23.78737  23.79463  23.82459  23.84496  23.85958
 Alpha virt. eigenvalues --   23.86641  23.89009  23.89651  23.95993  24.15125
 Alpha virt. eigenvalues --   24.18833  24.22044  49.99025  50.00546  50.02818
 Alpha virt. eigenvalues --   50.03288  50.06987
          Condensed to atoms (all electrons):
 Mulliken atomic charges:
              1
     1  C   -0.249433
     2  C    0.620437
     3  C   -0.141786
     4  C   -0.630947
     5  C    1.066773
     6  C   -0.730655
     7  C   -1.125453
     8  C    0.219682
     9  C    0.536038
    10  C   -0.762560
    11  C    0.065252
    12  O   -0.208613
    13  C    0.538424
    14  C   -0.311572
    15  C   -1.105878
    16  O   -0.195919
    17  C    0.011930
    18  C    0.518693
    19  O    0.186554
    20  C   -1.298096
    21  O   -0.012824
    22  C   -0.563668
    23  C   -0.516214
    24  O    0.028768
    25  C    0.917395
    26  C   -1.003441
    27  C   -0.996937
    28  C   -0.774637
    29  C   -0.667456
    30  H    0.234019
    31  H    0.273083
    32  C   -1.068678
    33  H    0.202511
    34  H    0.237068
    35  H    0.285182
    36  H    0.230512
    37  H    0.259238
    38  H    0.239213
    39  H    0.231623
    40  H    0.267035
    41  H    0.259767
    42  H    0.269159
    43  H    0.294090
    44  H    0.286519
    45  H    0.252299
    46  H    0.274430
    47  H    0.231428
    48  H    0.267823
    49  H    0.263417
    50  H    0.253592
    51  H    0.230220
    52  H    0.236395
    53  H    0.263267
    54  H    0.247723
    55  H    0.310713
    56  H    0.259313
    57  H    0.271990
    58  H    0.268130
    59  H    0.256892
    60  H    0.253982
    61  H    0.260544
    62  C   -1.040205
    63  H    0.244982
    64  H    0.239326
    65  H    0.239541
 Sum of Mulliken atomic charges =   0.00000
 Mulliken charges with hydrogens summed into heavy atoms:
              1
     1  C   -0.046923
     2  C    0.620437
     3  C    0.131297
     4  C   -0.630947
     5  C    1.066773
     6  C   -0.208405
     7  C   -1.125453
     8  C    0.219682
     9  C    0.536038
    10  C   -0.762560
    11  C    0.065252
    12  O   -0.208613
    13  C    0.768936
    14  C    0.186879
    15  C   -0.347452
    16  O   -0.195919
    17  C    0.245948
    18  C    0.518693
    19  O    0.186554
    20  C   -0.734847
    21  O    0.273695
    22  C   -0.036938
    23  C   -0.284786
    24  O    0.028768
    25  C    0.917395
    26  C   -0.218609
    27  C   -0.530322
    28  C    0.047066
    29  C    0.131977
    32  C   -0.297260
    62  C   -0.316357
 Sum of Mulliken charges with hydrogens summed into heavy atoms =   0.00000
 Electronic spatial extent (au):  <R**2>=          11743.3212
 Charge=              0.0000 electrons
 Dipole moment (field-independent basis, Debye):
    X=              5.6285    Y=              0.9920    Z=             -1.8278  Tot=              6.0004
 Quadrupole moment (field-independent basis, Debye-Ang):
   XX=           -192.9241   YY=           -179.3445   ZZ=           -187.5864
   XY=              4.0654   XZ=              4.1071   YZ=              0.2161
 Traceless Quadrupole moment (field-independent basis, Debye-Ang):
   XX=             -6.3058   YY=              7.2738   ZZ=             -0.9680
   XY=              4.0654   XZ=              4.1071   YZ=              0.2161
 Octapole moment (field-independent basis, Debye-Ang**2):
  XXX=             40.4364  YYY=             40.7503  ZZZ=             -3.9889  XYY=             32.4839
  XXY=            -30.7417  XXZ=            -27.6613  XZZ=             19.2177  YZZ=             15.0179
  YYZ=            -30.4678  XYZ=              5.4133
 Hexadecapole moment (field-independent basis, Debye-Ang**3):
 XXXX=          -8101.3174 YYYY=          -4568.6984 ZZZZ=          -3462.4996 XXXY=             19.3102
 XXXZ=            -34.5563 YYYX=            -11.2167 YYYZ=            -30.2768 ZZZX=             -8.0706
 ZZZY=             -0.9466 XXYY=          -2136.5705 XXZZ=          -1913.8116 YYZZ=          -1306.3766
 XXYZ=             -0.2309 YYXZ=             -4.7979 ZZXY=            -53.3614
 N-N= 3.492245509445D+03 E-N=-1.021752940843D+04  KE= 1.381711562992D+03
 Calling FoFJK, ICntrl=      2127 FMM=T ISym2X=0 I1Cent= 0 IOpClX= 0 NMat=1 NMatS=1 NMatT=0.
 ***** Axes restored to original set *****
 -------------------------------------------------------------------
 Center     Atomic                   Forces (Hartrees/Bohr)
 Number     Number              X              Y              Z
 -------------------------------------------------------------------
      1        6           0.000632943    0.001797097   -0.000947780
      2        6          -0.000059542   -0.001998667    0.001096059
      3        6          -0.000352743    0.000406871   -0.000310883
      4        6           0.000213872    0.001194545    0.000890295
      5        6          -0.000217634   -0.000329341    0.000123742
      6        6           0.000013910    0.000014807   -0.000228539
      7        6          -0.001825214    0.001423727    0.001692176
      8        6          -0.003275496    0.000544239   -0.000936735
      9        6           0.001301717    0.001480021    0.000916152
     10        6          -0.003348567   -0.004458319    0.003116432
     11        6          -0.003583215    0.005851337   -0.000254744
     12        8           0.003958727   -0.007280734   -0.000024595
     13        6           0.000048022    0.000234362   -0.000045226
     14        6           0.000057234    0.000734428   -0.000525963
     15        6           0.000221082    0.000138604    0.000077676
     16        8           0.003502008    0.005321163   -0.004754181
     17        6           0.000455717   -0.000000708   -0.000141283
     18        6           0.000727842    0.001476277   -0.001134023
     19        8           0.001564776   -0.004128032    0.002162264
     20        6          -0.000427636    0.000159723    0.000207933
     21        8           0.006563436   -0.000320491    0.000973065
     22        6           0.000147112   -0.000396412   -0.000534279
     23        6           0.000396688   -0.002105636    0.000288402
     24        8          -0.000213600    0.000153539    0.000970641
     25        6          -0.000417872   -0.001865988   -0.001224433
     26        6           0.000021291    0.000224010    0.000107110
     27        6           0.001022547    0.001199954    0.001381876
     28        6           0.000257137    0.000008264    0.000437492
     29        6           0.000322276   -0.000451914    0.000113327
     30        1          -0.001121745   -0.000203268    0.000628518
     31        1          -0.001235818   -0.000041753    0.000618000
     32        6           0.000009635    0.000426456   -0.000039481
     33        1           0.000008234    0.000002740   -0.000847088
     34        1          -0.001523552    0.000664804    0.000124576
     35        1           0.001737885    0.000733492   -0.000296729
     36        1          -0.000678554    0.001002701    0.000074241
     37        1           0.000747671   -0.001249988   -0.000523264
     38        1          -0.001030918   -0.000066129    0.000947980
     39        1           0.001016273    0.001305470    0.000365778
     40        1           0.000456665   -0.001662895    0.000157473
     41        1          -0.001558181    0.000120672   -0.000881525
     42        1          -0.000991083   -0.001212787   -0.000106851
     43        1           0.001502834   -0.000038747   -0.000556132
     44        1          -0.005167963    0.000458411   -0.002955909
     45        1           0.000583878   -0.000427511    0.001584930
     46        1           0.000123864    0.001299971   -0.000714857
     47        1          -0.000786573    0.000527942   -0.001279413
     48        1           0.000351914   -0.001694211    0.000008783
     49        1          -0.000933827    0.000376408   -0.001276119
     50        1          -0.000396025    0.000780977    0.001382285
     51        1          -0.000478523    0.000305900    0.000834808
     52        1           0.000945438    0.000410902   -0.000329876
     53        1           0.001543703   -0.000355120    0.000290424
     54        1          -0.001047125   -0.001043772    0.000331566
     55        1          -0.000638349    0.001909960   -0.000314115
     56        1          -0.001173708   -0.000695442    0.000558804
     57        1           0.001479016   -0.000159922    0.000792890
     58        1           0.000073358    0.000237516   -0.001751881
     59        1           0.000216688    0.000498640   -0.001633799
     60        1          -0.001430420   -0.000554926    0.000388616
     61        1           0.001143247   -0.001180034    0.000622229
     62        6           0.000169945   -0.000171454    0.000470391
     63        1           0.000672527   -0.000387822    0.001382984
     64        1          -0.001156474    0.000933239   -0.000061600
[...]
                 (A) (A) (A) (A) (A) (A) (A) (A) (A) (A) (A) (A)
                 (A) (A) (A) (A) (A) (A) (A) (A) (A) (A) (A) (A)
                 (A) (A)
 The electronic state is 1-A.
 Alpha  occ. eigenvalues --  -19.17498 -19.14632 -19.13954 -19.10882 -19.10619
 Alpha  occ. eigenvalues --  -10.26450 -10.26448 -10.25803 -10.25740 -10.25298
 Alpha  occ. eigenvalues --  -10.25259 -10.24296 -10.20741 -10.19867 -10.19743
 Alpha  occ. eigenvalues --  -10.19433 -10.18661 -10.18594 -10.18359 -10.18308
 Alpha  occ. eigenvalues --  -10.17701 -10.17667 -10.17557 -10.17481 -10.17078
 Alpha  occ. eigenvalues --  -10.16995 -10.16925 -10.16873 -10.16620 -10.15509
 Alpha  occ. eigenvalues --  -10.14544  -1.10166  -1.06868  -1.04586  -1.03931
 Alpha  occ. eigenvalues --   -1.03678  -0.87665  -0.84580  -0.83360  -0.82403
 Alpha  occ. eigenvalues --   -0.81153  -0.80471  -0.77621  -0.75157  -0.74062
 Alpha  occ. eigenvalues --   -0.72663  -0.72199  -0.70660  -0.70325  -0.68703
 Alpha  occ. eigenvalues --   -0.66495  -0.65312  -0.64255  -0.62458  -0.61472
 Alpha  occ. eigenvalues --   -0.60428  -0.59235  -0.57923  -0.55812  -0.54603
 Alpha  occ. eigenvalues --   -0.53739  -0.53182  -0.51724  -0.51295  -0.50218
 Alpha  occ. eigenvalues --   -0.49231  -0.48682  -0.47588  -0.47133  -0.46725
 Alpha  occ. eigenvalues --   -0.46223  -0.45681  -0.45350  -0.44564  -0.44223
 Alpha  occ. eigenvalues --   -0.44147  -0.43248  -0.42953  -0.42542  -0.42242
 Alpha  occ. eigenvalues --   -0.42133  -0.41642  -0.41290  -0.40875  -0.40203
 Alpha  occ. eigenvalues --   -0.39895  -0.39268  -0.38982  -0.38933  -0.38706
 Alpha  occ. eigenvalues --   -0.38444  -0.38353  -0.38204  -0.37903  -0.37694
 Alpha  occ. eigenvalues --   -0.37303  -0.36459  -0.35953  -0.35739  -0.35302
 Alpha  occ. eigenvalues --   -0.35015  -0.34584  -0.34455  -0.33808  -0.33025
 Alpha  occ. eigenvalues --   -0.32564  -0.32237  -0.31950  -0.29330  -0.27768
 Alpha  occ. eigenvalues --   -0.27441  -0.26060  -0.25238  -0.24471  -0.24065
 Alpha virt. eigenvalues --   -0.05840  -0.02287  -0.01934  -0.01117  -0.00106
 Alpha virt. eigenvalues --    0.00278   0.00599   0.00952   0.01591   0.01899
 Alpha virt. eigenvalues --    0.02091   0.02284   0.02777   0.03349   0.03414
 Alpha virt. eigenvalues --    0.03751   0.03946   0.04350   0.04516   0.04744
 Alpha virt. eigenvalues --    0.05116   0.05234   0.05515   0.05873   0.06448
 Alpha virt. eigenvalues --    0.06689   0.06879   0.07043   0.07093   0.07575
 Alpha virt. eigenvalues --    0.07735   0.07788   0.08109   0.08786   0.08861
 Alpha virt. eigenvalues --    0.08877   0.09245   0.09588   0.09684   0.09892
 Alpha virt. eigenvalues --    0.10115   0.10570   0.10674   0.10790   0.11047
 Alpha virt. eigenvalues --    0.11140   0.11312   0.11561   0.11708   0.12099
 Alpha virt. eigenvalues --    0.12517   0.12616   0.12804   0.13158   0.13332
 Alpha virt. eigenvalues --    0.13677   0.13919   0.13941   0.14513   0.14779
 Alpha virt. eigenvalues --    0.15090   0.15344   0.15504   0.15700   0.15792
 Alpha virt. eigenvalues --    0.16262   0.16719   0.16917   0.17110   0.17291
 Alpha virt. eigenvalues --    0.17345   0.17747   0.17884   0.18100   0.18344
 Alpha virt. eigenvalues --    0.18414   0.18584   0.18725   0.18946   0.19258
 Alpha virt. eigenvalues --    0.19404   0.19666   0.19756   0.19897   0.20214
 Alpha virt. eigenvalues --    0.20477   0.20795   0.20878   0.20984   0.21236
 Alpha virt. eigenvalues --    0.21436   0.21484   0.21885   0.22068   0.22250
 Alpha virt. eigenvalues --    0.22335   0.22430   0.22822   0.22972   0.23061
 Alpha virt. eigenvalues --    0.23220   0.23493   0.23569   0.23883   0.24040
 Alpha virt. eigenvalues --    0.24210   0.24373   0.24569   0.24682   0.24843
 Alpha virt. eigenvalues --    0.25107   0.25137   0.25260   0.25783   0.26128
 Alpha virt. eigenvalues --    0.26140   0.26216   0.26738   0.26755   0.27007
 Alpha virt. eigenvalues --    0.27310   0.27420   0.27615   0.28024   0.28094
 Alpha virt. eigenvalues --    0.28418   0.28769   0.28953   0.29044   0.29439
 Alpha virt. eigenvalues --    0.29642   0.29889   0.30161   0.30441   0.30595
 Alpha virt. eigenvalues --    0.30719   0.31207   0.31354   0.31726   0.31846
 Alpha virt. eigenvalues --    0.32146   0.32575   0.32994   0.33112   0.33496
 Alpha virt. eigenvalues --    0.34112   0.34187   0.34728   0.34950   0.35168
 Alpha virt. eigenvalues --    0.35907   0.36028   0.36476   0.36690   0.36940
 Alpha virt. eigenvalues --    0.37309   0.37646   0.38073   0.38581   0.39168
 Alpha virt. eigenvalues --    0.39365   0.39727   0.40025   0.40371   0.40667
 Alpha virt. eigenvalues --    0.40774   0.41346   0.41640   0.42078   0.42336
 Alpha virt. eigenvalues --    0.42709   0.42842   0.43464   0.43557   0.43891
 Alpha virt. eigenvalues --    0.44620   0.45130   0.45301   0.45533   0.45887
 Alpha virt. eigenvalues --    0.46178   0.46596   0.46845   0.47246   0.47473
 Alpha virt. eigenvalues --    0.47639   0.48078   0.48180   0.48702   0.49232
 Alpha virt. eigenvalues --    0.49738   0.50041   0.50303   0.50423   0.51240
 Alpha virt. eigenvalues --    0.51731   0.52339   0.52665   0.53354   0.53988
 Alpha virt. eigenvalues --    0.54599   0.54820   0.55091   0.55498   0.56093
 Alpha virt. eigenvalues --    0.56301   0.56898   0.57306   0.57674   0.58084
 Alpha virt. eigenvalues --    0.58557   0.58996   0.59390   0.59548   0.59824
 Alpha virt. eigenvalues --    0.60245   0.60707   0.60896   0.61325   0.61967
 Alpha virt. eigenvalues --    0.62444   0.62893   0.63616   0.63721   0.64057
 Alpha virt. eigenvalues --    0.64628   0.64859   0.65490   0.65710   0.66232
 Alpha virt. eigenvalues --    0.66296   0.66781   0.66894   0.67244   0.67544
 Alpha virt. eigenvalues --    0.67919   0.68103   0.68468   0.68857   0.69128
 Alpha virt. eigenvalues --    0.69314   0.69801   0.69922   0.70197   0.70273
 Alpha virt. eigenvalues --    0.70830   0.71147   0.71431   0.71852   0.72082
 Alpha virt. eigenvalues --    0.72375   0.72419   0.72753   0.73152   0.73424
 Alpha virt. eigenvalues --    0.74022   0.74187   0.74340   0.74885   0.75199
 Alpha virt. eigenvalues --    0.75549   0.75941   0.76372   0.76429   0.76501
 Alpha virt. eigenvalues --    0.77085   0.77607   0.77739   0.78435   0.78864
 Alpha virt. eigenvalues --    0.79296   0.79614   0.79998   0.80046   0.80366
 Alpha virt. eigenvalues --    0.80957   0.81776   0.82328   0.82690   0.82961
 Alpha virt. eigenvalues --    0.83189   0.84130   0.84331   0.84626   0.85097
 Alpha virt. eigenvalues --    0.85888   0.86697   0.87266   0.88079   0.88649
 Alpha virt. eigenvalues --    0.89565   0.90323   0.90659   0.91467   0.92515
 Alpha virt. eigenvalues --    0.93294   0.93625   0.95618   0.96219   0.96385
 Alpha virt. eigenvalues --    0.96751   0.97717   0.98994   1.00300   1.00941
 Alpha virt. eigenvalues --    1.01352   1.01792   1.03230   1.03485   1.05711
 Alpha virt. eigenvalues --    1.06583   1.07056   1.08926   1.09320   1.10217
 Alpha virt. eigenvalues --    1.10658   1.11181   1.12775   1.13528   1.14434
 Alpha virt. eigenvalues --    1.15179   1.16332   1.17279   1.17614   1.19802
 Alpha virt. eigenvalues --    1.20471   1.22020   1.22370   1.22718   1.23067
 Alpha virt. eigenvalues --    1.23609   1.25870   1.26141   1.27626   1.27925
 Alpha virt. eigenvalues --    1.29321   1.29627   1.30583   1.31430   1.31993
 Alpha virt. eigenvalues --    1.32635   1.33475   1.33634   1.34755   1.35867
 Alpha virt. eigenvalues --    1.36841   1.37798   1.38985   1.39080   1.40183
 Alpha virt. eigenvalues --    1.40632   1.41231   1.42104   1.43109   1.44257
 Alpha virt. eigenvalues --    1.45128   1.45222   1.47003   1.47939   1.48168
 Alpha virt. eigenvalues --    1.49193   1.50290   1.50744   1.51525   1.52314
 Alpha virt. eigenvalues --    1.52896   1.54339   1.54468   1.54807   1.55324
 Alpha virt. eigenvalues --    1.55694   1.56852   1.57551   1.57816   1.58186
 Alpha virt. eigenvalues --    1.58682   1.58986   1.59667   1.60017   1.60482
 Alpha virt. eigenvalues --    1.61186   1.61538   1.61913   1.62642   1.62872
 Alpha virt. eigenvalues --    1.63554   1.63894   1.64315   1.64881   1.65130
 Alpha virt. eigenvalues --    1.65543   1.66146   1.66758   1.66835   1.67051
 Alpha virt. eigenvalues --    1.67544   1.67887   1.68495   1.69287   1.69650
 Alpha virt. eigenvalues --    1.69905   1.70315   1.71313   1.72016   1.72886
 Alpha virt. eigenvalues --    1.73210   1.74302   1.74427   1.74952   1.75500
 Alpha virt. eigenvalues --    1.76748   1.77156   1.78412   1.79223   1.80042
 Alpha virt. eigenvalues --    1.80349   1.80776   1.82281   1.83513   1.83955
 Alpha virt. eigenvalues --    1.84282   1.85527   1.86113   1.86904   1.87165
 Alpha virt. eigenvalues --    1.87701   1.88692   1.89669   1.91475   1.92317
 Alpha virt. eigenvalues --    1.92672   1.93347   1.94074   1.95006   1.96264
 Alpha virt. eigenvalues --    1.96702   1.98416   1.99240   2.00717   2.02662
 Alpha virt. eigenvalues --    2.03218   2.03590   2.03848   2.04364   2.05332
 Alpha virt. eigenvalues --    2.07106   2.07826   2.08551   2.09181   2.10192
 Alpha virt. eigenvalues --    2.12237   2.13536   2.13706   2.16064   2.16548
 Alpha virt. eigenvalues --    2.17904   2.18634   2.19013   2.21038   2.22574
 Alpha virt. eigenvalues --    2.22921   2.23766   2.24978   2.26429   2.27308
 Alpha virt. eigenvalues --    2.27926   2.30102   2.31965   2.33095   2.34912
 Alpha virt. eigenvalues --    2.35868   2.37273   2.39014   2.40437   2.42770
 Alpha virt. eigenvalues --    2.44209   2.45318   2.47836   2.49679   2.51012
 Alpha virt. eigenvalues --    2.51607   2.52206   2.53537   2.54451   2.54752
 Alpha virt. eigenvalues --    2.55214   2.55512   2.55958   2.56401   2.56875
 Alpha virt. eigenvalues --    2.57742   2.58031   2.59732   2.60391   2.61157
 Alpha virt. eigenvalues --    2.63134   2.63920   2.65232   2.65830   2.66830
 Alpha virt. eigenvalues --    2.67080   2.68045   2.69406   2.69939   2.70613
 Alpha virt. eigenvalues --    2.71510   2.72083   2.73222   2.74118   2.74557
 Alpha virt. eigenvalues --    2.75588   2.77365   2.81946   2.84295   2.84791
 Alpha virt. eigenvalues --    2.86104   2.86794   2.88243   2.89133   2.89963
 Alpha virt. eigenvalues --    2.91043   2.91869   2.93321   2.93703   2.95108
 Alpha virt. eigenvalues --    2.96438   2.97175   2.98492   2.99127   2.99778
 Alpha virt. eigenvalues --    3.00611   3.01551   3.03145   3.03500   3.04749
 Alpha virt. eigenvalues --    3.05148   3.06583   3.07605   3.09357   3.09897
 Alpha virt. eigenvalues --    3.10268   3.11580   3.12377   3.13096   3.13914
 Alpha virt. eigenvalues --    3.14777   3.16012   3.16431   3.16647   3.17079
 Alpha virt. eigenvalues --    3.19112   3.19902   3.20845   3.21455   3.21638
 Alpha virt. eigenvalues --    3.22519   3.23906   3.25198   3.25765   3.26051
 Alpha virt. eigenvalues --    3.26714   3.27009   3.27547   3.27959   3.28918
 Alpha virt. eigenvalues --    3.30151   3.30979   3.31676   3.33047   3.33292
 Alpha virt. eigenvalues --    3.34453   3.35196   3.36494   3.37921   3.38635
 Alpha virt. eigenvalues --    3.39896   3.41442   3.41629   3.43099   3.45371
 Alpha virt. eigenvalues --    3.47009   3.47917   3.51282   3.52509   3.53762
 Alpha virt. eigenvalues --    3.55270   3.59725   3.61308   3.64898   3.74704
 Alpha virt. eigenvalues --    3.77823   3.78159   3.81588   3.88104   3.89645
 Alpha virt. eigenvalues --    3.90338   3.97165   3.98662   4.01599   4.03265
 Alpha virt. eigenvalues --    4.05767   4.05991   4.09203   4.10490   4.12953
 Alpha virt. eigenvalues --    4.16594   4.18000   4.19838   4.21838   4.22932
 Alpha virt. eigenvalues --    4.23794   4.27352   4.28990   4.33106   4.45389
 Alpha virt. eigenvalues --    4.61528   5.14875   5.16373   5.17836   5.21829
 Alpha virt. eigenvalues --    5.24137   5.27700   5.31631   5.32461   5.42570
 Alpha virt. eigenvalues --    5.42735   5.56932   5.66812   5.74095   5.79005
 Alpha virt. eigenvalues --    5.84199  23.45423  23.47644  23.51091  23.52304
 Alpha virt. eigenvalues --   23.59683  23.65031  23.66198  23.67268  23.69468
 Alpha virt. eigenvalues --   23.71122  23.73976  23.74847  23.76701  23.78920
 Alpha virt. eigenvalues --   23.79356  23.79915  23.82763  23.84974  23.86799
 Alpha virt. eigenvalues --   23.87043  23.89434  23.90959  23.97020  24.19093
 Alpha virt. eigenvalues --   24.20021  24.23571  49.99316  50.00462  50.02168
 Alpha virt. eigenvalues --   50.03096  50.07834
          Condensed to atoms (all electrons):
 Mulliken atomic charges:
              1
     1  C   -0.187816
     2  C    0.641770
     3  C   -0.287293
     4  C   -0.889696
     5  C    1.241083
     6  C   -0.747858
     7  C   -1.046981
     8  C    0.369071
     9  C    0.721894
    10  C   -0.523073
    11  C   -0.315099
    12  O   -0.167519
    13  C    0.309024
    14  C   -0.196617
    15  C   -1.104202
    16  O   -0.197153
    17  C   -0.140287
    18  C    0.579700
    19  O    0.172907
    20  C   -1.239473
    21  O   -0.016823
    22  C   -0.524309
    23  C   -0.507351
    24  O    0.046678
    25  C    0.889215
    26  C   -1.005982
    27  C   -1.012777
    28  C   -0.792014
    29  C   -0.646588
    30  H    0.234167
    31  H    0.274925
    32  C   -1.073809
    33  H    0.200645
    34  H    0.238097
    35  H    0.283120
    36  H    0.267245
    37  H    0.250558
    38  H    0.265825
    39  H    0.237595
    40  H    0.270994
    41  H    0.259581
    42  H    0.266808
    43  H    0.288730
    44  H    0.288658
    45  H    0.252482
    46  H    0.275725
    47  H    0.233438
    48  H    0.268634
    49  H    0.263994
    50  H    0.254798
    51  H    0.229916
    52  H    0.237111
    53  H    0.262114
    54  H    0.249407
    55  H    0.306177
    56  H    0.261375
    57  H    0.268743
    58  H    0.266241
    59  H    0.257303
    60  H    0.252721
    61  H    0.259622
    62  C   -1.111558
    63  H    0.244180
    64  H    0.246304
    65  H    0.245705
 Sum of Mulliken atomic charges =   0.00000
 Mulliken charges with hydrogens summed into heavy atoms:
              1
     1  C    0.012829
     2  C    0.641770
     3  C   -0.012368
     4  C   -0.889696
     5  C    1.241083
     6  C   -0.226640
     7  C   -1.046981
     8  C    0.369071
     9  C    0.721894
    10  C   -0.523073
    11  C   -0.315099
    12  O   -0.167519
    13  C    0.576269
    14  C    0.319766
    15  C   -0.336033
    16  O   -0.197153
    17  C    0.093880
    18  C    0.579700
    19  O    0.172907
    20  C   -0.683935
    21  O    0.271835
    22  C    0.003897
    23  C   -0.273913
    24  O    0.046678
    25  C    0.889215
    26  C   -0.218556
    27  C   -0.545750
    28  C    0.025683
    29  C    0.149772
    32  C   -0.304163
    62  C   -0.375369
 Sum of Mulliken charges with hydrogens summed into heavy atoms =   0.00000
 Electronic spatial extent (au):  <R**2>=          11491.4746
 Charge=              0.0000 electrons
 Dipole moment (field-independent basis, Debye):
    X=              4.9749    Y=              0.9090    Z=             -2.9818  Tot=              5.8709
 Quadrupole moment (field-independent basis, Debye-Ang):
   XX=           -190.8254   YY=           -179.2179   ZZ=           -189.4592
   XY=              3.7131   XZ=              6.6457   YZ=             -1.9454
 Traceless Quadrupole moment (field-independent basis, Debye-Ang):
   XX=             -4.3246   YY=              7.2829   ZZ=             -2.9583
   XY=              3.7131   XZ=              6.6457   YZ=             -1.9454
 Octapole moment (field-independent basis, Debye-Ang**2):
  XXX=             30.8507  YYY=             28.1135  ZZZ=            -16.1113  XYY=             23.7307
  XXY=            -35.7595  XXZ=            -30.7126  XZZ=             23.1848  YZZ=             22.4206
  YYZ=            -31.0102  XYZ=             11.2545
 Hexadecapole moment (field-independent basis, Debye-Ang**3):
 XXXX=          -7752.3935 YYYY=          -4546.6098 ZZZZ=          -3451.5929 XXXY=             20.9089
 XXXZ=             -1.8469 YYYX=            -18.2041 YYYZ=             -9.3153 ZZZX=             15.5576
 ZZZY=             -3.1658 XXYY=          -2062.2153 XXZZ=          -1867.1455 YYZZ=          -1312.8738
 XXYZ=            -14.9214 YYXZ=            -10.4168 ZZXY=            -43.4609
 N-N= 3.505116683413D+03 E-N=-1.024340559340D+04  KE= 1.381921346585D+03
 1\1\GINC-B0805\FOpt\RB3LYP\6-311+G(d)\C26H34O5\CAOFEI\14-Apr-2021\0\\#
  opt b3lyp/6-311+g(d) geom=connectivity\\Title Card Required\\0,1\C,1.
 6911328367,0.1502157585,3.215670609\C,1.9383984335,1.2907323517,2.5681
 06654\C,2.0207947509,1.3378613898,1.0589915395\C,1.5336484185,0.061904
 6248,0.3032178821\C,0.8868775469,-1.0874711291,1.1243216945\C,1.490747
 4525,-1.1782838332,2.5457153556\C,0.6046239206,0.6131683821,-0.8124205
 766\C,-0.8401127536,0.7340776934,-0.3802387945\C,-1.4528993178,-0.0839
 273491,0.5031228976\C,-0.6607703814,-1.0624076181,1.2476287364\C,-2.92
 12503473,0.0774163006,0.8506145172\O,-3.3158290751,1.1083286143,1.3500
 8352\C,-3.8492070887,-1.0803951046,0.4978356173\C,-4.1210982285,-1.031
 5623532,-1.0286117842\C,-5.1273867533,-1.0445755618,1.3380355157\O,-1.
 1912681108,-1.8590282522,2.0108321345\C,0.9221124137,2.1088940235,-1.0
 110062576\C,-0.3955623942,2.6668523627,-1.6006881251\O,-1.4208419685,1
 .7731923648,-0.982941674\C,1.2692456972,2.5417856079,0.424563012\O,0.6
 343938808,-0.1752500452,-1.9896954568\C,1.291570641,-2.3358931112,0.29
 69224061\C,2.6970543464,-1.9861227819,-0.1763948584\O,2.6719150846,-0.
 5397880573,-0.3648331498\C,3.2362781374,-2.6333225882,-1.4341997259\C,
 4.6077242675,-2.1623498636,-1.8480307046\C,2.5768340523,-3.5835950163,
 -2.0987037014\C,-0.4878059569,2.5091119185,-3.1172293032\C,-0.76274574
 81,4.0850241818,-1.1817561125\H,1.7620574029,2.2557462042,-1.694162917
 4\H,3.0798285525,1.4307425813,0.7855950554\C,2.2157267163,2.5789275466
 ,3.2995790872\H,1.6716230545,0.1540996018,4.3035283943\H,2.4555480674,
 -1.6999591519,2.5003363173\H,0.8376727872,-1.8178544409,3.1422093967\H
 ,-3.2976689681,-2.0018610816,0.7122847314\H,-4.7049871175,-0.131677256
 4,-1.2544544692\H,-3.1699807235,-0.9202824546,-1.5603223935\H,-5.75379
 92901,-1.9155376186,1.1327835518\H,-5.7112215358,-0.1441608178,1.13350
 45837\H,-4.8924340127,-1.0482465117,2.4047469749\H,1.8614926307,3.4579
 955978,0.4565131455\H,0.3542528312,2.7339134392,0.990413281\H,1.548382
 0222,-0.4913094206,-2.0775282979\H,0.6165317663,-2.459647905,-0.551682
 3386\H,1.2582878809,-3.2441362336,0.9007324596\H,3.4200170857,-2.18470
 59716,0.6272141178\H,4.6196877024,-1.0830954934,-2.023376941\H,5.34143
 84069,-2.3562071836,-1.0569292841\H,4.9477893867,-2.6651344861,-2.7553
 279487\H,3.0072857473,-4.0539431337,-2.9774955987\H,1.5983938328,-3.93
 96350815,-1.7981530979\H,-1.4971053647,2.7533240772,-3.4568370968\H,0.
 2081526738,3.1963854192,-3.6071095035\H,-0.2477197631,1.4929167461,-3.
 4256764045\H,-0.0162351266,4.7900959423,-1.5583475374\H,-1.7314469392,
 4.3626973242,-1.6026238808\H,-0.8260761767,4.1927083553,-0.0994073669\
 H,2.2148497412,2.4272376519,4.3807305881\H,3.1933458459,2.9902621145,3
 .0191976994\H,1.4742267072,3.351916243,3.0727969763\C,-4.8424588642,-2
 .2692816562,-1.5688747423\H,-4.955915804,-2.206016876,-2.6550733782\H,
 -4.2820832706,-3.1835864658,-1.3486304801\H,-5.8431036412,-2.383250513
 4,-1.1447425499\\Version=EM64L-G09RevB.01\State=1-A\HF=-1387.6503192\R
 MSD=5.368e-09\RMSF=4.757e-06\Dipole=1.9903007,0.4107262,-1.0977686\Qua
 drupole=-2.9376479,5.3836254,-2.4459776,2.5022671,5.2960308,-0.5146616
 \PG=C01 [X(C26H34O5)]\\@


 KNOWLEDGE IS OF TWO KINDS:  WE KNOW A SUBJECT OURSELVES OR WE KNOW 
 WHERE WE CAN FIND INFORMATION UPON IT.

                                    -- SAMUEL JOHNSON
 Job cpu time:  1 days 12 hours 13 minutes 29.8 seconds.
 File lengths (MBytes):  RWF=    372 Int=      0 D2E=      0 Chk=     38 Scr=      1
 Normal termination of Gaussian 09 at Wed Apr 14 00:40:59 2021.
