 Entering Gaussian System, Link 0=g09
 Initial command:
 /public/software/g09/g09/l1.exe /tmp/Gau-29557.inp -scrdir=/tmp/
 Entering Link 1 = /public/software/g09/g09/l1.exe PID=     29558.
  
 Copyright (c) 1988,1990,1992,1993,1995,1998,2003,2009,2010,
            Gaussian, Inc.  All Rights Reserved.
  
 This is part of the Gaussian(R) 09 program.  It is based on
 the Gaussian(R) 03 system (copyright 2003, Gaussian, Inc.),
 the Gaussian(R) 98 system (copyright 1998, Gaussian, Inc.),
 the Gaussian(R) 94 system (copyright 1995, Gaussian, Inc.),
 the Gaussian 92(TM) system (copyright 1992, Gaussian, Inc.),
 the Gaussian 90(TM) system (copyright 1990, Gaussian, Inc.),
 the Gaussian 88(TM) system (copyright 1988, Gaussian, Inc.),
 the Gaussian 86(TM) system (copyright 1986, Carnegie Mellon
 University), and the Gaussian 82(TM) system (copyright 1983,
 Carnegie Mellon University). Gaussian is a federally registered
 trademark of Gaussian, Inc.
  
 This software contains proprietary and confidential information,
 including trade secrets, belonging to Gaussian, Inc.
  
 This software is provided under written license and may be
 used, copied, transmitted, or stored only in accord with that
 written license.
  
 The following legend is applicable only to US Government
 contracts under FAR:
  
                    RESTRICTED RIGHTS LEGEND
  
 Use, reproduction and disclosure by the US Government is
 subject to restrictions as set forth in subparagraphs (a)
 and (c) of the Commercial Computer Software - Restricted
 Rights clause in FAR 52.227-19.
  
 Gaussian, Inc.
 340 Quinnipiac St., Bldg. 40, Wallingford CT 06492
  
  
 ---------------------------------------------------------------
 Warning -- This program may not be used in any manner that
 competes with the business of Gaussian, Inc. or will provide
 assistance to any competitor of Gaussian, Inc.  The licensee
 of this program is prohibited from giving any competitor of
 Gaussian, Inc. access to this program.  By using this program,
 the user acknowledges that Gaussian, Inc. is engaged in the
 business of creating and licensing software in the field of
 computational chemistry and represents and warrants to the
 licensee that it is not a competitor of Gaussian, Inc. and that
 it will not use this program in any manner prohibited above.
 ---------------------------------------------------------------
  

 Cite this work as:
 Gaussian 09, Revision B.01,
 M. J. Frisch, G. W. Trucks, H. B. Schlegel, G. E. Scuseria, 
 M. A. Robb, J. R. Cheeseman, G. Scalmani, V. Barone, B. Mennucci, 
 G. A. Petersson, H. Nakatsuji, M. Caricato, X. Li, H. P. Hratchian, 
 A. F. Izmaylov, J. Bloino, G. Zheng, J. L. Sonnenberg, M. Hada, 
 M. Ehara, K. Toyota, R. Fukuda, J. Hasegawa, M. Ishida, T. Nakajima, 
 Y. Honda, O. Kitao, H. Nakai, T. Vreven, J. A. Montgomery, Jr., 
 J. E. Peralta, F. Ogliaro, M. Bearpark, J. J. Heyd, E. Brothers, 
 K. N. Kudin, V. N. Staroverov, T. Keith, R. Kobayashi, J. Normand, 
 K. Raghavachari, A. Rendell, J. C. Burant, S. S. Iyengar, J. Tomasi, 
 M. Cossi, N. Rega, J. M. Millam, M. Klene, J. E. Knox, J. B. Cross, 
 V. Bakken, C. Adamo, J. Jaramillo, R. Gomperts, R. E. Stratmann, 
 O. Yazyev, A. J. Austin, R. Cammi, C. Pomelli, J. W. Ochterski, 
 R. L. Martin, K. Morokuma, V. G. Zakrzewski, G. A. Voth, 
 P. Salvador, J. J. Dannenberg, S. Dapprich, A. D. Daniels, 
 O. Farkas, J. B. Foresman, J. V. Ortiz, J. Cioslowski, 
 and D. J. Fox, Gaussian, Inc., Wallingford CT, 2010.
 
 ******************************************
 Gaussian 09:  EM64L-G09RevB.01 12-Aug-2010
                13-Apr-2021 
 ******************************************
 %mem=600MW
 %nprocshared=10
 Will use up to   10 processors via shared memory.
 ----------------------------------------
 # opt b3lyp/6-311+g(d) geom=connectivity
 ----------------------------------------
 1/14=-1,18=20,19=15,26=3,38=1,57=2/1,3;
 2/9=110,12=2,17=6,18=5,40=1/2;
 3/5=4,6=6,7=11,11=2,16=1,25=1,30=1,71=1,74=-5/1,2,3;
 4//1;
 5/5=2,38=5/2;
 6/7=2,8=2,9=2,10=2,28=1/1;
 7//1,2,3,16;
 1/14=-1,18=20,19=15/3(2);
 2/9=110/2;
 99//99;
 2/9=110/2;
 3/5=4,6=6,7=11,11=2,16=1,25=1,30=1,71=1,74=-5/1,2,3;
 4/5=5,16=3/1;
 5/5=2,38=5/2;
 7//1,2,3,16;
 1/14=-1,18=20,19=15/3(-5);
 2/9=110/2;
 6/7=2,8=2,9=2,10=2,19=2,28=1/1;
 99/9=1/99;
 -------------------
 Title Card Required
 -------------------
 Symbolic Z-matrix:
 Charge =  0 Multiplicity = 1
 C                     1.74874   0.98662   2.84812 
 C                     2.2222    1.91457   2.00744 
 C                     1.81926   1.88254   0.55047 
 C                     1.51703   0.46822  -0.04684 
 C                     1.24574  -0.66983   0.98342 
 C                     0.85143  -0.13363   2.3923 
 C                     0.34579   0.72314  -1.06541 
 C                    -1.00503   0.25651  -0.55202 
 C                    -1.18292  -0.90266   0.1294 
 C                     0.07175  -1.596     0.54527 
 C                    -2.48932  -1.47887   0.57733 
 O                    -2.5309   -2.15706   1.59434 
 C                    -3.75596  -1.23322  -0.25133 
 C                    -4.69027  -0.20426   0.44392 
 C                    -4.45316  -2.57716  -0.52284 
 O                     0.15328  -2.80615   0.64902 
 C                     0.10961   2.24726  -1.15275 
 C                    -1.39138   2.35512  -1.50269 
 O                    -1.96586   1.13725  -0.86827 
 C                     0.5588    2.73268   0.23723 
 O                     0.57934   0.08727  -2.30634 
 C                     2.5792   -1.44485   1.04779 
 C                     3.41722  -0.99793  -0.16903 
 O                     2.6275    0.02397  -0.83417 
 C                     3.77738  -2.08438  -1.16186 
 C                     2.65847  -2.88773  -1.77858 
 C                     5.06435  -2.31074  -1.44462 
 C                    -1.646     2.25045  -3.00826 
 C                    -2.13796   3.53828  -0.89545 
 H                     0.72936   2.68892  -1.9389 
 H                     2.64108   2.27604  -0.06243 
 C                     3.11653   3.04372   2.44794 
 H                     2.00661   1.03018   3.90524 
 H                     0.88972  -0.97256   3.09593 
 H                    -0.19731   0.1943    2.3853 
 H                    -3.46276  -0.79253  -1.20967 
 H                    -4.13156   0.72843   0.59004 
 H                    -5.49231   0.03306  -0.26912 
 H                    -3.82255  -3.22732  -1.13946 
 H                    -5.39727  -2.41583  -1.05671 
 H                    -4.66212  -3.10556   0.41055 
 H                    -0.21219   2.52945   0.99013 
 H                     0.76522   3.80695   0.27005 
 H                     1.54416  -0.08669  -2.30821 
 H                     3.11647  -1.20684   1.96918 
 H                     2.37167  -2.51695   1.04778 
 H                     4.34329  -0.51651   0.16677 
 H                     1.91646  -2.24317  -2.26321 
 H                     2.10947  -3.46279  -1.02364 
 H                     3.0457   -3.58557  -2.5266 
 H                     5.36947  -3.09591  -2.13178 
 H                     5.86211  -1.72487  -0.99399 
 H                    -2.71744   2.13129  -3.1994 
 H                    -1.30752   3.16427  -3.50976 
 H                    -1.10875   1.40069  -3.4356 
 H                    -1.7474    4.47585  -1.30595 
 H                    -2.03823   3.56803   0.19247 
 H                    -3.20324   3.47753  -1.13984 
 H                     3.32151   2.99905   3.52223 
 H                     4.07743   3.01922   1.91535 
 H                     2.66599   4.02236   2.23139 
 C                    -5.3107   -0.64582   1.77417 
 H                    -5.91861   0.1644    2.1942 
 H                    -4.54401  -0.91583   2.50583 
 H                    -5.96414  -1.51554   1.64639 
 

 GradGradGradGradGradGradGradGradGradGradGradGradGradGradGradGradGradGrad
 Berny optimization.
 Initialization pass.
                           ----------------------------
                           !    Initial Parameters    !
                           ! (Angstroms and Degrees)  !
 --------------------------                            --------------------------
 ! Name  Definition              Value          Derivative Info.                !
 --------------------------------------------------------------------------------
 ! R1    R(1,2)                  1.3386         estimate D2E/DX2                !
 ! R2    R(1,6)                  1.506          estimate D2E/DX2                !
 ! R3    R(1,33)                 1.089          estimate D2E/DX2                !
 ! R4    R(2,3)                  1.512          estimate D2E/DX2                !
 ! R5    R(2,32)                 1.5063         estimate D2E/DX2                !
 ! R6    R(3,4)                  1.5647         estimate D2E/DX2                !
 ! R7    R(3,20)                 1.5523         estimate D2E/DX2                !
 ! R8    R(3,31)                 1.0981         estimate D2E/DX2                !
 ! R9    R(4,5)                  1.5589         estimate D2E/DX2                !
 ! R10   R(4,7)                  1.573          estimate D2E/DX2                !
 ! R11   R(4,24)                 1.4319         estimate D2E/DX2                !
 ! R12   R(5,6)                  1.5582         estimate D2E/DX2                !
 ! R13   R(5,10)                 1.5582         estimate D2E/DX2                !
 ! R14   R(5,22)                 1.5437         estimate D2E/DX2                !
 ! R15   R(6,34)                 1.0956         estimate D2E/DX2                !
 ! R16   R(6,35)                 1.0988         estimate D2E/DX2                !
 ! R17   R(7,8)                  1.5186         estimate D2E/DX2                !
 ! R18   R(7,17)                 1.5448         estimate D2E/DX2                !
 ! R19   R(7,21)                 1.4138         estimate D2E/DX2                !
 ! R20   R(8,9)                  1.3563         estimate D2E/DX2                !
 ! R21   R(8,19)                 1.3412         estimate D2E/DX2                !
 ! R22   R(9,10)                 1.4926         estimate D2E/DX2                !
 ! R23   R(9,11)                 1.4964         estimate D2E/DX2                !
 ! R24   R(10,16)                1.2173         estimate D2E/DX2                !
 ! R25   R(11,12)                1.2231         estimate D2E/DX2                !
 ! R26   R(11,13)                1.5334         estimate D2E/DX2                !
 ! R27   R(13,14)                1.554          estimate D2E/DX2                !
 ! R28   R(13,15)                1.5382         estimate D2E/DX2                !
 ! R29   R(13,36)                1.0948         estimate D2E/DX2                !
 ! R30   R(14,37)                1.097          estimate D2E/DX2                !
 ! R31   R(14,38)                1.0991         estimate D2E/DX2                !
 ! R32   R(14,62)                1.5328         estimate D2E/DX2                !
 ! R33   R(15,39)                1.0957         estimate D2E/DX2                !
 ! R34   R(15,40)                1.0965         estimate D2E/DX2                !
 ! R35   R(15,41)                1.0927         estimate D2E/DX2                !
 ! R36   R(17,18)                1.545          estimate D2E/DX2                !
 ! R37   R(17,20)                1.5393         estimate D2E/DX2                !
 ! R38   R(17,30)                1.0942         estimate D2E/DX2                !
 ! R39   R(18,19)                1.4885         estimate D2E/DX2                !
 ! R40   R(18,28)                1.5305         estimate D2E/DX2                !
 ! R41   R(18,29)                1.5251         estimate D2E/DX2                !
 ! R42   R(20,42)                1.0966         estimate D2E/DX2                !
 ! R43   R(20,43)                1.0944         estimate D2E/DX2                !
 ! R44   R(21,44)                0.9804         estimate D2E/DX2                !
 ! R45   R(22,23)                1.5436         estimate D2E/DX2                !
 ! R46   R(22,45)                1.0928         estimate D2E/DX2                !
 ! R47   R(22,46)                1.092          estimate D2E/DX2                !
 ! R48   R(23,24)                1.4527         estimate D2E/DX2                !
 ! R49   R(23,25)                1.5152         estimate D2E/DX2                !
 ! R50   R(23,47)                1.0964         estimate D2E/DX2                !
 ! R51   R(24,44)                1.8327         estimate D2E/DX2                !
 ! R52   R(25,26)                1.5092         estimate D2E/DX2                !
 ! R53   R(25,27)                1.337          estimate D2E/DX2                !
 ! R54   R(26,48)                1.0959         estimate D2E/DX2                !
 ! R55   R(26,49)                1.0964         estimate D2E/DX2                !
 ! R56   R(26,50)                1.0938         estimate D2E/DX2                !
 ! R57   R(27,51)                1.0871         estimate D2E/DX2                !
 ! R58   R(27,52)                1.0875         estimate D2E/DX2                !
 ! R59   R(28,53)                1.0949         estimate D2E/DX2                !
 ! R60   R(28,54)                1.096          estimate D2E/DX2                !
 ! R61   R(28,55)                1.0924         estimate D2E/DX2                !
 ! R62   R(29,56)                1.0955         estimate D2E/DX2                !
 ! R63   R(29,57)                1.0929         estimate D2E/DX2                !
 ! R64   R(29,58)                1.0946         estimate D2E/DX2                !
 ! R65   R(32,59)                1.0946         estimate D2E/DX2                !
 ! R66   R(32,60)                1.0989         estimate D2E/DX2                !
 ! R67   R(32,61)                1.0989         estimate D2E/DX2                !
 ! R68   R(62,63)                1.0966         estimate D2E/DX2                !
 ! R69   R(62,64)                1.0936         estimate D2E/DX2                !
 ! R70   R(62,65)                1.0953         estimate D2E/DX2                !
 ! A1    A(2,1,6)              122.4329         estimate D2E/DX2                !
 ! A2    A(2,1,33)             119.8778         estimate D2E/DX2                !
 ! A3    A(6,1,33)             117.6885         estimate D2E/DX2                !
 ! A4    A(1,2,3)              119.7498         estimate D2E/DX2                !
 ! A5    A(1,2,32)             123.0916         estimate D2E/DX2                !
 ! A6    A(3,2,32)             117.1232         estimate D2E/DX2                !
 ! A7    A(2,3,4)              116.005          estimate D2E/DX2                !
 ! A8    A(2,3,20)             113.5306         estimate D2E/DX2                !
 ! A9    A(2,3,31)             109.3171         estimate D2E/DX2                !
 ! A10   A(4,3,20)             105.1383         estimate D2E/DX2                !
 ! A11   A(4,3,31)             104.7964         estimate D2E/DX2                !
 ! A12   A(20,3,31)            107.3862         estimate D2E/DX2                !
 ! A13   A(3,4,5)              116.1795         estimate D2E/DX2                !
 ! A14   A(3,4,7)              104.1534         estimate D2E/DX2                !
 ! A15   A(3,4,24)             109.9089         estimate D2E/DX2                !
 ! A16   A(5,4,7)              114.6252         estimate D2E/DX2                !
 ! A17   A(5,4,24)             105.7745         estimate D2E/DX2                !
 ! A18   A(7,4,24)             105.7642         estimate D2E/DX2                !
 ! A19   A(4,5,6)              112.9784         estimate D2E/DX2                !
 ! A20   A(4,5,10)             112.2839         estimate D2E/DX2                !
 ! A21   A(4,5,22)             104.1083         estimate D2E/DX2                !
 ! A22   A(6,5,10)             105.5526         estimate D2E/DX2                !
 ! A23   A(6,5,22)             110.7118         estimate D2E/DX2                !
 ! A24   A(10,5,22)            111.3539         estimate D2E/DX2                !
 ! A25   A(1,6,5)              112.264          estimate D2E/DX2                !
 ! A26   A(1,6,34)             110.7561         estimate D2E/DX2                !
 ! A27   A(1,6,35)             110.4023         estimate D2E/DX2                !
 ! A28   A(5,6,34)             107.9597         estimate D2E/DX2                !
 ! A29   A(5,6,35)             109.783          estimate D2E/DX2                !
 ! A30   A(34,6,35)            105.4239         estimate D2E/DX2                !
 ! A31   A(4,7,8)              113.181          estimate D2E/DX2                !
 ! A32   A(4,7,17)             108.0802         estimate D2E/DX2                !
 ! A33   A(4,7,21)             111.8684         estimate D2E/DX2                !
 ! A34   A(8,7,17)             100.7362         estimate D2E/DX2                !
 ! A35   A(8,7,21)             107.7872         estimate D2E/DX2                !
 ! A36   A(17,7,21)            114.7952         estimate D2E/DX2                !
 ! A37   A(7,8,9)              123.307          estimate D2E/DX2                !
 ! A38   A(7,8,19)             110.8396         estimate D2E/DX2                !
 ! A39   A(9,8,19)             125.8532         estimate D2E/DX2                !
 ! A40   A(8,9,10)             115.2598         estimate D2E/DX2                !
 ! A41   A(8,9,11)             126.4383         estimate D2E/DX2                !
 ! A42   A(10,9,11)            118.1368         estimate D2E/DX2                !
 ! A43   A(5,10,9)             115.8213         estimate D2E/DX2                !
 ! A44   A(5,10,16)            121.0947         estimate D2E/DX2                !
 ! A45   A(9,10,16)            122.8078         estimate D2E/DX2                !
 ! A46   A(9,11,12)            119.4773         estimate D2E/DX2                !
 ! A47   A(9,11,13)            119.8465         estimate D2E/DX2                !
 ! A48   A(12,11,13)           120.6693         estimate D2E/DX2                !
 ! A49   A(11,13,14)           111.1568         estimate D2E/DX2                !
 ! A50   A(11,13,15)           109.2582         estimate D2E/DX2                !
 ! A51   A(11,13,36)           108.4396         estimate D2E/DX2                !
 ! A52   A(14,13,15)           112.6418         estimate D2E/DX2                !
 ! A53   A(14,13,36)           106.6248         estimate D2E/DX2                !
 ! A54   A(15,13,36)           108.5768         estimate D2E/DX2                !
 ! A55   A(13,14,37)           108.441          estimate D2E/DX2                !
 ! A56   A(13,14,38)           106.9445         estimate D2E/DX2                !
 ! A57   A(13,14,62)           116.1595         estimate D2E/DX2                !
 ! A58   A(37,14,38)           105.9313         estimate D2E/DX2                !
 ! A59   A(37,14,62)           109.6021         estimate D2E/DX2                !
 ! A60   A(38,14,62)           109.26           estimate D2E/DX2                !
 ! A61   A(13,15,39)           110.9108         estimate D2E/DX2                !
 ! A62   A(13,15,40)           110.3437         estimate D2E/DX2                !
 ! A63   A(13,15,41)           111.0016         estimate D2E/DX2                !
 ! A64   A(39,15,40)           107.9883         estimate D2E/DX2                !
 ! A65   A(39,15,41)           107.6873         estimate D2E/DX2                !
 ! A66   A(40,15,41)           108.8064         estimate D2E/DX2                !
 ! A67   A(7,17,18)            103.3098         estimate D2E/DX2                !
 ! A68   A(7,17,20)            102.4428         estimate D2E/DX2                !
 ! A69   A(7,17,30)            110.6266         estimate D2E/DX2                !
 ! A70   A(18,17,20)           117.7756         estimate D2E/DX2                !
 ! A71   A(18,17,30)           111.0606         estimate D2E/DX2                !
 ! A72   A(20,17,30)           110.8684         estimate D2E/DX2                !
 ! A73   A(17,18,19)           102.7843         estimate D2E/DX2                !
 ! A74   A(17,18,28)           112.3119         estimate D2E/DX2                !
 ! A75   A(17,18,29)           116.0749         estimate D2E/DX2                !
 ! A76   A(19,18,28)           107.4035         estimate D2E/DX2                !
 ! A77   A(19,18,29)           106.0273         estimate D2E/DX2                !
 ! A78   A(28,18,29)           111.3026         estimate D2E/DX2                !
 ! A79   A(8,19,18)            111.1789         estimate D2E/DX2                !
 ! A80   A(3,20,17)            104.2682         estimate D2E/DX2                !
 ! A81   A(3,20,42)            109.3202         estimate D2E/DX2                !
 ! A82   A(3,20,43)            112.2332         estimate D2E/DX2                !
 ! A83   A(17,20,42)           110.8767         estimate D2E/DX2                !
 ! A84   A(17,20,43)           113.0584         estimate D2E/DX2                !
 ! A85   A(42,20,43)           107.0931         estimate D2E/DX2                !
 ! A86   A(7,21,44)            104.1259         estimate D2E/DX2                !
 ! A87   A(5,22,23)            106.9021         estimate D2E/DX2                !
 ! A88   A(5,22,45)            110.5176         estimate D2E/DX2                !
 ! A89   A(5,22,46)            109.1928         estimate D2E/DX2                !
 ! A90   A(23,22,45)           109.5522         estimate D2E/DX2                !
 ! A91   A(23,22,46)           112.7949         estimate D2E/DX2                !
 ! A92   A(45,22,46)           107.8945         estimate D2E/DX2                !
 ! A93   A(22,23,24)           105.633          estimate D2E/DX2                !
 ! A94   A(22,23,25)           115.9748         estimate D2E/DX2                !
 ! A95   A(22,23,47)           110.1364         estimate D2E/DX2                !
 ! A96   A(24,23,25)           109.4872         estimate D2E/DX2                !
 ! A97   A(24,23,47)           106.8892         estimate D2E/DX2                !
 ! A98   A(25,23,47)           108.3459         estimate D2E/DX2                !
 ! A99   A(4,24,23)            112.8346         estimate D2E/DX2                !
 ! A100  A(23,25,26)           118.2428         estimate D2E/DX2                !
 ! A101  A(23,25,27)           119.261          estimate D2E/DX2                !
 ! A102  A(26,25,27)           122.4885         estimate D2E/DX2                !
 ! A103  A(25,26,48)           111.6931         estimate D2E/DX2                !
 ! A104  A(25,26,49)           111.6584         estimate D2E/DX2                !
 ! A105  A(25,26,50)           110.8904         estimate D2E/DX2                !
 ! A106  A(48,26,49)           105.9009         estimate D2E/DX2                !
 ! A107  A(48,26,50)           108.211          estimate D2E/DX2                !
 ! A108  A(49,26,50)           108.2716         estimate D2E/DX2                !
 ! A109  A(25,27,51)           121.7456         estimate D2E/DX2                !
 ! A110  A(25,27,52)           121.8216         estimate D2E/DX2                !
 ! A111  A(51,27,52)           116.4312         estimate D2E/DX2                !
 ! A112  A(18,28,53)           109.9975         estimate D2E/DX2                !
 ! A113  A(18,28,54)           109.9822         estimate D2E/DX2                !
 ! A114  A(18,28,55)           110.867          estimate D2E/DX2                !
 ! A115  A(53,28,54)           108.2456         estimate D2E/DX2                !
 ! A116  A(53,28,55)           109.1669         estimate D2E/DX2                !
 ! A117  A(54,28,55)           108.5243         estimate D2E/DX2                !
 ! A118  A(18,29,56)           109.891          estimate D2E/DX2                !
 ! A119  A(18,29,57)           111.8886         estimate D2E/DX2                !
 ! A120  A(18,29,58)           110.1472         estimate D2E/DX2                !
 ! A121  A(56,29,57)           108.4932         estimate D2E/DX2                !
 ! A122  A(56,29,58)           108.1067         estimate D2E/DX2                !
 ! A123  A(57,29,58)           108.2139         estimate D2E/DX2                !
 ! A124  A(2,32,59)            111.5689         estimate D2E/DX2                !
 ! A125  A(2,32,60)            111.1445         estimate D2E/DX2                !
 ! A126  A(2,32,61)            111.5017         estimate D2E/DX2                !
 ! A127  A(59,32,60)           108.1203         estimate D2E/DX2                !
 ! A128  A(59,32,61)           107.8501         estimate D2E/DX2                !
 ! A129  A(60,32,61)           106.4307         estimate D2E/DX2                !
 ! A130  A(14,62,63)           110.1192         estimate D2E/DX2                !
 ! A131  A(14,62,64)           111.5905         estimate D2E/DX2                !
 ! A132  A(14,62,65)           111.6522         estimate D2E/DX2                !
 ! A133  A(63,62,64)           108.3488         estimate D2E/DX2                !
 ! A134  A(63,62,65)           107.4965         estimate D2E/DX2                !
 ! A135  A(64,62,65)           107.4719         estimate D2E/DX2                !
 ! D1    D(6,1,2,3)              2.013          estimate D2E/DX2                !
 ! D2    D(6,1,2,32)           179.7847         estimate D2E/DX2                !
 ! D3    D(33,1,2,3)          -177.6359         estimate D2E/DX2                !
 ! D4    D(33,1,2,32)            0.1358         estimate D2E/DX2                !
 ! D5    D(2,1,6,5)             37.2217         estimate D2E/DX2                !
 ! D6    D(2,1,6,34)           157.9835         estimate D2E/DX2                !
 ! D7    D(2,1,6,35)           -85.6305         estimate D2E/DX2                !
 ! D8    D(33,1,6,5)          -143.122          estimate D2E/DX2                !
 ! D9    D(33,1,6,34)          -22.3603         estimate D2E/DX2                !
 ! D10   D(33,1,6,35)           94.0257         estimate D2E/DX2                !
 ! D11   D(1,2,3,4)            -30.4453         estimate D2E/DX2                !
 ! D12   D(1,2,3,20)            91.5163         estimate D2E/DX2                !
 ! D13   D(1,2,3,31)          -148.6165         estimate D2E/DX2                !
 ! D14   D(32,2,3,4)           151.6522         estimate D2E/DX2                !
 ! D15   D(32,2,3,20)          -86.3862         estimate D2E/DX2                !
 ! D16   D(32,2,3,31)           33.481          estimate D2E/DX2                !
 ! D17   D(1,2,32,59)            0.1351         estimate D2E/DX2                !
 ! D18   D(1,2,32,60)          120.8962         estimate D2E/DX2                !
 ! D19   D(1,2,32,61)         -120.528          estimate D2E/DX2                !
 ! D20   D(3,2,32,59)          177.9615         estimate D2E/DX2                !
 ! D21   D(3,2,32,60)          -61.2774         estimate D2E/DX2                !
 ! D22   D(3,2,32,61)           57.2984         estimate D2E/DX2                !
 ! D23   D(2,3,4,5)             17.6867         estimate D2E/DX2                !
 ! D24   D(2,3,4,7)            144.7589         estimate D2E/DX2                !
 ! D25   D(2,3,4,24)          -102.3287         estimate D2E/DX2                !
 ! D26   D(20,3,4,5)          -108.6239         estimate D2E/DX2                !
 ! D27   D(20,3,4,7)            18.4483         estimate D2E/DX2                !
 ! D28   D(20,3,4,24)          131.3607         estimate D2E/DX2                !
 ! D29   D(31,3,4,5)           138.3201         estimate D2E/DX2                !
 ! D30   D(31,3,4,7)           -94.6077         estimate D2E/DX2                !
 ! D31   D(31,3,4,24)           18.3047         estimate D2E/DX2                !
 ! D32   D(2,3,20,17)         -164.4829         estimate D2E/DX2                !
 ! D33   D(2,3,20,42)          -45.8757         estimate D2E/DX2                !
 ! D34   D(2,3,20,43)           72.7962         estimate D2E/DX2                !
 ! D35   D(4,3,20,17)          -36.6608         estimate D2E/DX2                !
 ! D36   D(4,3,20,42)           81.9464         estimate D2E/DX2                !
 ! D37   D(4,3,20,43)         -159.3817         estimate D2E/DX2                !
 ! D38   D(31,3,20,17)          74.5587         estimate D2E/DX2                !
 ! D39   D(31,3,20,42)        -166.8341         estimate D2E/DX2                !
 ! D40   D(31,3,20,43)         -48.1622         estimate D2E/DX2                !
 ! D41   D(3,4,5,6)             19.3492         estimate D2E/DX2                !
 ! D42   D(3,4,5,10)           138.5916         estimate D2E/DX2                !
 ! D43   D(3,4,5,22)          -100.8276         estimate D2E/DX2                !
 ! D44   D(7,4,5,6)           -102.3238         estimate D2E/DX2                !
 ! D45   D(7,4,5,10)            16.9186         estimate D2E/DX2                !
 ! D46   D(7,4,5,22)           137.4995         estimate D2E/DX2                !
 ! D47   D(24,4,5,6)           141.5697         estimate D2E/DX2                !
 ! D48   D(24,4,5,10)          -99.1879         estimate D2E/DX2                !
 ! D49   D(24,4,5,22)           21.393          estimate D2E/DX2                !
 ! D50   D(3,4,7,8)           -104.5714         estimate D2E/DX2                !
 ! D51   D(3,4,7,17)             6.0977         estimate D2E/DX2                !
 ! D52   D(3,4,7,21)           133.427          estimate D2E/DX2                !
 ! D53   D(5,4,7,8)             23.4609         estimate D2E/DX2                !
 ! D54   D(5,4,7,17)           134.13           estimate D2E/DX2                !
 ! D55   D(5,4,7,21)           -98.5407         estimate D2E/DX2                !
 ! D56   D(24,4,7,8)           139.5733         estimate D2E/DX2                !
 ! D57   D(24,4,7,17)         -109.7576         estimate D2E/DX2                !
 ! D58   D(24,4,7,21)           17.5717         estimate D2E/DX2                !
 ! D59   D(3,4,24,23)          104.9734         estimate D2E/DX2                !
 ! D60   D(5,4,24,23)          -21.1767         estimate D2E/DX2                !
 ! D61   D(7,4,24,23)         -143.1589         estimate D2E/DX2                !
 ! D62   D(4,5,6,1)            -45.7415         estimate D2E/DX2                !
 ! D63   D(4,5,6,34)          -168.1029         estimate D2E/DX2                !
 ! D64   D(4,5,6,35)            77.4592         estimate D2E/DX2                !
 ! D65   D(10,5,6,1)          -168.8034         estimate D2E/DX2                !
 ! D66   D(10,5,6,34)           68.8352         estimate D2E/DX2                !
 ! D67   D(10,5,6,35)          -45.6027         estimate D2E/DX2                !
 ! D68   D(22,5,6,1)            70.5785         estimate D2E/DX2                !
 ! D69   D(22,5,6,34)          -51.7829         estimate D2E/DX2                !
 ! D70   D(22,5,6,35)         -166.2208         estimate D2E/DX2                !
 ! D71   D(4,5,10,9)           -49.3929         estimate D2E/DX2                !
 ! D72   D(4,5,10,16)          136.4795         estimate D2E/DX2                !
 ! D73   D(6,5,10,9)            74.11           estimate D2E/DX2                !
 ! D74   D(6,5,10,16)         -100.0175         estimate D2E/DX2                !
 ! D75   D(22,5,10,9)         -165.6926         estimate D2E/DX2                !
 ! D76   D(22,5,10,16)          20.1799         estimate D2E/DX2                !
 ! D77   D(4,5,22,23)          -14.6688         estimate D2E/DX2                !
 ! D78   D(4,5,22,45)          104.4867         estimate D2E/DX2                !
 ! D79   D(4,5,22,46)         -136.9808         estimate D2E/DX2                !
 ! D80   D(6,5,22,23)         -136.3618         estimate D2E/DX2                !
 ! D81   D(6,5,22,45)          -17.2063         estimate D2E/DX2                !
 ! D82   D(6,5,22,46)          101.3261         estimate D2E/DX2                !
 ! D83   D(10,5,22,23)         106.5344         estimate D2E/DX2                !
 ! D84   D(10,5,22,45)        -134.3101         estimate D2E/DX2                !
 ! D85   D(10,5,22,46)         -15.7776         estimate D2E/DX2                !
 ! D86   D(4,7,8,9)            -40.7141         estimate D2E/DX2                !
 ! D87   D(4,7,8,19)           139.4173         estimate D2E/DX2                !
 ! D88   D(17,7,8,9)          -155.8527         estimate D2E/DX2                !
 ! D89   D(17,7,8,19)           24.2786         estimate D2E/DX2                !
 ! D90   D(21,7,8,9)            83.543          estimate D2E/DX2                !
 ! D91   D(21,7,8,19)          -96.3257         estimate D2E/DX2                !
 ! D92   D(4,7,17,18)         -151.1045         estimate D2E/DX2                !
 ! D93   D(4,7,17,20)          -28.2444         estimate D2E/DX2                !
 ! D94   D(4,7,17,30)           89.9738         estimate D2E/DX2                !
 ! D95   D(8,7,17,18)          -32.1993         estimate D2E/DX2                !
 ! D96   D(8,7,17,20)           90.6608         estimate D2E/DX2                !
 ! D97   D(8,7,17,30)         -151.121          estimate D2E/DX2                !
 ! D98   D(21,7,17,18)          83.274          estimate D2E/DX2                !
 ! D99   D(21,7,17,20)        -153.8659         estimate D2E/DX2                !
 ! D100  D(21,7,17,30)         -35.6477         estimate D2E/DX2                !
 ! D101  D(4,7,21,44)          -18.9489         estimate D2E/DX2                !
 ! D102  D(8,7,21,44)         -143.9936         estimate D2E/DX2                !
 ! D103  D(17,7,21,44)         104.678          estimate D2E/DX2                !
 ! D104  D(7,8,9,10)             9.6496         estimate D2E/DX2                !
 ! D105  D(7,8,9,11)          -175.139          estimate D2E/DX2                !
 ! D106  D(19,8,9,10)         -170.5019         estimate D2E/DX2                !
 ! D107  D(19,8,9,11)            4.7095         estimate D2E/DX2                !
 ! D108  D(7,8,19,18)           -5.5767         estimate D2E/DX2                !
 ! D109  D(9,8,19,18)          174.5588         estimate D2E/DX2                !
 ! D110  D(8,9,10,5)            36.8558         estimate D2E/DX2                !
 ! D111  D(8,9,10,16)         -149.1276         estimate D2E/DX2                !
 ! D112  D(11,9,10,5)         -138.7763         estimate D2E/DX2                !
 ! D113  D(11,9,10,16)          35.2403         estimate D2E/DX2                !
 ! D114  D(8,9,11,12)         -149.5579         estimate D2E/DX2                !
 ! D115  D(8,9,11,13)           31.3892         estimate D2E/DX2                !
 ! D116  D(10,9,11,12)          25.5307         estimate D2E/DX2                !
 ! D117  D(10,9,11,13)        -153.5223         estimate D2E/DX2                !
 ! D118  D(9,11,13,14)        -106.0913         estimate D2E/DX2                !
 ! D119  D(9,11,13,15)         128.986          estimate D2E/DX2                !
 ! D120  D(9,11,13,36)          10.808          estimate D2E/DX2                !
 ! D121  D(12,11,13,14)         74.8672         estimate D2E/DX2                !
 ! D122  D(12,11,13,15)        -50.0555         estimate D2E/DX2                !
 ! D123  D(12,11,13,36)       -168.2335         estimate D2E/DX2                !
 ! D124  D(11,13,14,37)         57.8609         estimate D2E/DX2                !
 ! D125  D(11,13,14,38)        171.6936         estimate D2E/DX2                !
 ! D126  D(11,13,14,62)        -66.042          estimate D2E/DX2                !
 ! D127  D(15,13,14,37)       -179.1402         estimate D2E/DX2                !
 ! D128  D(15,13,14,38)        -65.3075         estimate D2E/DX2                !
 ! D129  D(15,13,14,62)         56.9569         estimate D2E/DX2                !
 ! D130  D(36,13,14,37)        -60.142          estimate D2E/DX2                !
 ! D131  D(36,13,14,38)         53.6907         estimate D2E/DX2                !
 ! D132  D(36,13,14,62)        175.9551         estimate D2E/DX2                !
 ! D133  D(11,13,15,39)        -64.183          estimate D2E/DX2                !
 ! D134  D(11,13,15,40)        176.1963         estimate D2E/DX2                !
 ! D135  D(11,13,15,41)         55.4911         estimate D2E/DX2                !
 ! D136  D(14,13,15,39)        171.7633         estimate D2E/DX2                !
 ! D137  D(14,13,15,40)         52.1425         estimate D2E/DX2                !
 ! D138  D(14,13,15,41)        -68.5627         estimate D2E/DX2                !
 ! D139  D(36,13,15,39)         53.9092         estimate D2E/DX2                !
 ! D140  D(36,13,15,40)        -65.7115         estimate D2E/DX2                !
 ! D141  D(36,13,15,41)        173.5832         estimate D2E/DX2                !
 ! D142  D(13,14,62,63)        177.9115         estimate D2E/DX2                !
 ! D143  D(13,14,62,64)         57.5452         estimate D2E/DX2                !
 ! D144  D(13,14,62,65)        -62.7533         estimate D2E/DX2                !
 ! D145  D(37,14,62,63)         54.611          estimate D2E/DX2                !
 ! D146  D(37,14,62,64)        -65.7553         estimate D2E/DX2                !
 ! D147  D(37,14,62,65)        173.9462         estimate D2E/DX2                !
 ! D148  D(38,14,62,63)        -61.0522         estimate D2E/DX2                !
 ! D149  D(38,14,62,64)        178.5816         estimate D2E/DX2                !
 ! D150  D(38,14,62,65)         58.283          estimate D2E/DX2                !
 ! D151  D(7,17,18,19)          29.8317         estimate D2E/DX2                !
 ! D152  D(7,17,18,28)         -85.2962         estimate D2E/DX2                !
 ! D153  D(7,17,18,29)         145.0603         estimate D2E/DX2                !
 ! D154  D(20,17,18,19)        -82.1831         estimate D2E/DX2                !
 ! D155  D(20,17,18,28)        162.689          estimate D2E/DX2                !
 ! D156  D(20,17,18,29)         33.0455         estimate D2E/DX2                !
 ! D157  D(30,17,18,19)        148.4524         estimate D2E/DX2                !
 ! D158  D(30,17,18,28)         33.3246         estimate D2E/DX2                !
 ! D159  D(30,17,18,29)        -96.3189         estimate D2E/DX2                !
 ! D160  D(7,17,20,3)           39.6198         estimate D2E/DX2                !
 ! D161  D(7,17,20,42)         -77.9195         estimate D2E/DX2                !
 ! D162  D(7,17,20,43)         161.7992         estimate D2E/DX2                !
 ! D163  D(18,17,20,3)         152.1189         estimate D2E/DX2                !
 ! D164  D(18,17,20,42)         34.5796         estimate D2E/DX2                !
 ! D165  D(18,17,20,43)        -85.7017         estimate D2E/DX2                !
 ! D166  D(30,17,20,3)         -78.4271         estimate D2E/DX2                !
 ! D167  D(30,17,20,42)        164.0337         estimate D2E/DX2                !
 ! D168  D(30,17,20,43)         43.7524         estimate D2E/DX2                !
 ! D169  D(17,18,19,8)         -15.7593         estimate D2E/DX2                !
 ! D170  D(28,18,19,8)         102.8673         estimate D2E/DX2                !
 ! D171  D(29,18,19,8)        -138.0441         estimate D2E/DX2                !
 ! D172  D(17,18,28,53)        168.8141         estimate D2E/DX2                !
 ! D173  D(17,18,28,54)        -72.0522         estimate D2E/DX2                !
 ! D174  D(17,18,28,55)         47.9743         estimate D2E/DX2                !
 ! D175  D(19,18,28,53)         56.5241         estimate D2E/DX2                !
 ! D176  D(19,18,28,54)        175.6578         estimate D2E/DX2                !
 ! D177  D(19,18,28,55)        -64.3157         estimate D2E/DX2                !
 ! D178  D(29,18,28,53)        -59.1204         estimate D2E/DX2                !
 ! D179  D(29,18,28,54)         60.0133         estimate D2E/DX2                !
 ! D180  D(29,18,28,55)       -179.9602         estimate D2E/DX2                !
 ! D181  D(17,18,29,56)         65.4244         estimate D2E/DX2                !
 ! D182  D(17,18,29,57)        -55.1654         estimate D2E/DX2                !
 ! D183  D(17,18,29,58)       -175.5769         estimate D2E/DX2                !
 ! D184  D(19,18,29,56)        178.8083         estimate D2E/DX2                !
 ! D185  D(19,18,29,57)         58.2185         estimate D2E/DX2                !
 ! D186  D(19,18,29,58)        -62.1929         estimate D2E/DX2                !
 ! D187  D(28,18,29,56)        -64.7024         estimate D2E/DX2                !
 ! D188  D(28,18,29,57)        174.7078         estimate D2E/DX2                !
 ! D189  D(28,18,29,58)         54.2964         estimate D2E/DX2                !
 ! D190  D(5,22,23,24)           2.9254         estimate D2E/DX2                !
 ! D191  D(5,22,23,25)        -118.5184         estimate D2E/DX2                !
 ! D192  D(5,22,23,47)         118.0082         estimate D2E/DX2                !
 ! D193  D(45,22,23,24)       -116.8532         estimate D2E/DX2                !
 ! D194  D(45,22,23,25)        121.703          estimate D2E/DX2                !
 ! D195  D(45,22,23,47)         -1.7705         estimate D2E/DX2                !
 ! D196  D(46,22,23,24)        122.9519         estimate D2E/DX2                !
 ! D197  D(46,22,23,25)          1.508          estimate D2E/DX2                !
 ! D198  D(46,22,23,47)       -121.9654         estimate D2E/DX2                !
 ! D199  D(22,23,24,4)          11.6601         estimate D2E/DX2                !
 ! D200  D(25,23,24,4)         137.2132         estimate D2E/DX2                !
 ! D201  D(47,23,24,4)        -105.6338         estimate D2E/DX2                !
 ! D202  D(22,23,25,26)         56.0963         estimate D2E/DX2                !
 ! D203  D(22,23,25,27)       -122.9198         estimate D2E/DX2                !
 ! D204  D(24,23,25,26)        -63.2684         estimate D2E/DX2                !
 ! D205  D(24,23,25,27)        117.7155         estimate D2E/DX2                !
 ! D206  D(47,23,25,26)       -179.5015         estimate D2E/DX2                !
 ! D207  D(47,23,25,27)          1.4825         estimate D2E/DX2                !
 ! D208  D(23,25,26,48)         55.1433         estimate D2E/DX2                !
 ! D209  D(23,25,26,49)        -63.2309         estimate D2E/DX2                !
 ! D210  D(23,25,26,50)        175.9295         estimate D2E/DX2                !
 ! D211  D(27,25,26,48)       -125.8743         estimate D2E/DX2                !
 ! D212  D(27,25,26,49)        115.7515         estimate D2E/DX2                !
 ! D213  D(27,25,26,50)         -5.0882         estimate D2E/DX2                !
 ! D214  D(23,25,27,51)        178.4685         estimate D2E/DX2                !
 ! D215  D(23,25,27,52)         -1.0451         estimate D2E/DX2                !
 ! D216  D(26,25,27,51)         -0.5039         estimate D2E/DX2                !
 ! D217  D(26,25,27,52)        179.9825         estimate D2E/DX2                !
 --------------------------------------------------------------------------------
 Trust Radius=3.00D-01 FncErr=1.00D-07 GrdErr=1.00D-06
 Number of steps in this run=    390 maximum allowed number of steps=    390.
 GradGradGradGradGradGradGradGradGradGradGradGradGradGradGradGradGradGrad

 Stoichiometry    C26H34O5
 Framework group  C1[X(C26H34O5)]
 Deg. of freedom   189
 Full point group                 C1      NOp   1
 Largest Abelian subgroup         C1      NOp   1
 Largest concise Abelian subgroup C1      NOp   1
                         Standard orientation:                         
 ---------------------------------------------------------------------
 Center     Atomic      Atomic             Coordinates (Angstroms)
 Number     Number       Type             X           Y           Z
 ---------------------------------------------------------------------
      1          6           0        1.748737    0.986624    2.848115
      2          6           0        2.222196    1.914565    2.007438
      3          6           0        1.819262    1.882542    0.550469
      4          6           0        1.517033    0.468218   -0.046837
      5          6           0        1.245744   -0.669826    0.983420
      6          6           0        0.851430   -0.133627    2.392298
      7          6           0        0.345789    0.723141   -1.065406
      8          6           0       -1.005034    0.256512   -0.552022
      9          6           0       -1.182920   -0.902661    0.129396
     10          6           0        0.071753   -1.595999    0.545267
     11          6           0       -2.489319   -1.478870    0.577326
     12          8           0       -2.530903   -2.157057    1.594340
     13          6           0       -3.755958   -1.233219   -0.251326
     14          6           0       -4.690269   -0.204259    0.443922
     15          6           0       -4.453158   -2.577159   -0.522837
     16          8           0        0.153281   -2.806153    0.649022
     17          6           0        0.109611    2.247261   -1.152747
     18          6           0       -1.391384    2.355123   -1.502694
     19          8           0       -1.965861    1.137247   -0.868265
     20          6           0        0.558797    2.732680    0.237229
     21          8           0        0.579339    0.087273   -2.306341
     22          6           0        2.579198   -1.444851    1.047789
     23          6           0        3.417222   -0.997926   -0.169026
     24          8           0        2.627501    0.023966   -0.834170
     25          6           0        3.777383   -2.084384   -1.161864
     26          6           0        2.658468   -2.887725   -1.778575
     27          6           0        5.064351   -2.310739   -1.444623
     28          6           0       -1.645998    2.250447   -3.008255
     29          6           0       -2.137957    3.538279   -0.895445
     30          1           0        0.729359    2.688918   -1.938901
     31          1           0        2.641077    2.276041   -0.062431
     32          6           0        3.116531    3.043722    2.447944
     33          1           0        2.006609    1.030176    3.905237
     34          1           0        0.889722   -0.972558    3.095932
     35          1           0       -0.197312    0.194296    2.385299
     36          1           0       -3.462758   -0.792526   -1.209670
     37          1           0       -4.131559    0.728426    0.590036
     38          1           0       -5.492312    0.033061   -0.269124
     39          1           0       -3.822554   -3.227323   -1.139464
     40          1           0       -5.397269   -2.415830   -1.056710
     41          1           0       -4.662119   -3.105559    0.410552
     42          1           0       -0.212194    2.529453    0.990129
     43          1           0        0.765219    3.806946    0.270052
     44          1           0        1.544155   -0.086686   -2.308211
     45          1           0        3.116474   -1.206837    1.969182
     46          1           0        2.371665   -2.516947    1.047783
     47          1           0        4.343293   -0.516509    0.166770
     48          1           0        1.916464   -2.243170   -2.263206
     49          1           0        2.109468   -3.462794   -1.023636
     50          1           0        3.045698   -3.585574   -2.526603
     51          1           0        5.369473   -3.095909   -2.131781
     52          1           0        5.862109   -1.724871   -0.993993
     53          1           0       -2.717442    2.131285   -3.199400
     54          1           0       -1.307524    3.164268   -3.509763
     55          1           0       -1.108754    1.400686   -3.435597
     56          1           0       -1.747404    4.475848   -1.305945
     57          1           0       -2.038232    3.568026    0.192472
     58          1           0       -3.203238    3.477525   -1.139844
     59          1           0        3.321513    2.999051    3.522234
     60          1           0        4.077431    3.019217    1.915349
     61          1           0        2.665986    4.022361    2.231393
     62          6           0       -5.310697   -0.645822    1.774169
     63          1           0       -5.918605    0.164396    2.194204
     64          1           0       -4.544006   -0.915831    2.505829
     65          1           0       -5.964140   -1.515541    1.646386
 ---------------------------------------------------------------------
 Rotational constants (GHZ):      0.2077407      0.1284567      0.1117465
 Standard basis: 6-311+G(d) (5D, 7F)
 There are   784 symmetry adapted basis functions of A   symmetry.
 Integral buffers will be    131072 words long.
 Raffenetti 2 integral format.
 Two-electron integral symmetry is turned on.
   784 basis functions,  1286 primitive gaussians,   815 cartesian basis functions
   115 alpha electrons      115 beta electrons
       nuclear repulsion energy      3517.8099151800 Hartrees.
 NAtoms=   65 NActive=   65 NUniq=   65 SFac= 1.00D+00 NAtFMM=   50 NAOKFM=T Big=T
 One-electron integrals computed using PRISM.
 NBasis=   784 RedAO= T  NBF=   784
 NBsUse=   778 1.00D-06 NBFU=   778
 Harris functional with IExCor=  402 diagonalized for initial guess.
 ExpMin= 4.38D-02 ExpMax= 8.59D+03 ExpMxC= 1.30D+03 IAcc=2 IRadAn=         0 AccDes= 0.00D+00
 HarFok:  IExCor=  402 AccDes= 0.00D+00 IRadAn=         0 IDoV= 1
 ScaDFX=  1.000000  1.000000  1.000000  1.000000
 FoFCou: FMM=F IPFlag=           0 FMFlag=      100000 FMFlg1=        2001
         NFxFlg=           0 DoJE=T BraDBF=F KetDBF=T FulRan=T
         Omega=  0.000000  0.000000  1.000000  0.000000  0.000000 ICntrl=     500 IOpCl=  0
         NMat0=    1 NMatS0=    1 NMatT0=    0 NMatD0=    1 NMtDS0=    0 NMtDT0=    0
         I1Cent=           4 NGrid=           0.
 Petite list used in FoFCou.
 Initial guess orbital symmetries:
       Occupied  (A) (A) (A) (A) (A) (A) (A) (A) (A) (A) (A) (A)
                 (A) (A) (A) (A) (A) (A) (A) (A) (A) (A) (A) (A)
                 (A) (A) (A) (A) (A) (A) (A) (A) (A) (A) (A) (A)
                 (A) (A) (A) (A) (A) (A) (A) (A) (A) (A) (A) (A)
                 (A) (A) (A) (A) (A) (A) (A) (A) (A) (A) (A) (A)
                 (A) (A) (A) (A) (A) (A) (A) (A) (A) (A) (A) (A)
                 (A) (A) (A) (A) (A) (A) (A) (A) (A) (A) (A) (A)
                 (A) (A) (A) (A) (A) (A) (A) (A) (A) (A) (A) (A)
                 (A) (A) (A) (A) (A) (A) (A) (A) (A) (A) (A) (A)
                 (A) (A) (A) (A) (A) (A) (A)
       Virtual   (A) (A) (A) (A) (A) (A) (A) (A) (A) (A) (A) (A)
                 (A) (A) (A) (A) (A) (A) (A) (A) (A) (A) (A) (A)
                 (A) (A) (A) (A) (A) (A) (A) (A) (A) (A) (A) (A)
                 (A) (A) (A) (A) (A) (A) (A) (A) (A) (A) (A) (A)
                 (A) (A) (A) (A) (A) (A) (A) (A) (A) (A) (A) (A)
                 (A) (A) (A) (A) (A) (A) (A) (A) (A) (A) (A) (A)
                 (A) (A) (A) (A) (A) (A) (A) (A) (A) (A) (A) (A)
                 (A) (A) (A) (A) (A) (A) (A) (A) (A) (A) (A) (A)
                 (A) (A) (A) (A) (A) (A) (A) (A) (A) (A) (A) (A)
                 (A) (A) (A) (A) (A) (A) (A) (A) (A) (A) (A) (A)
                 (A) (A) (A) (A) (A) (A) (A) (A) (A) (A) (A) (A)
                 (A) (A) (A) (A) (A) (A) (A) (A) (A) (A) (A) (A)
                 (A) (A) (A) (A) (A) (A) (A) (A) (A) (A) (A) (A)
                 (A) (A) (A) (A) (A) (A) (A) (A) (A) (A) (A) (A)
                 (A) (A) (A) (A) (A) (A) (A) (A) (A) (A) (A) (A)
                 (A) (A) (A) (A) (A) (A) (A) (A) (A) (A) (A) (A)
                 (A) (A) (A) (A) (A) (A) (A) (A) (A) (A) (A) (A)
                 (A) (A) (A) (A) (A) (A) (A) (A) (A) (A) (A) (A)
                 (A) (A) (A) (A) (A) (A) (A) (A) (A) (A) (A) (A)
                 (A) (A) (A) (A) (A) (A) (A) (A) (A) (A) (A) (A)
                 (A) (A) (A) (A) (A) (A) (A) (A) (A) (A) (A) (A)
                 (A) (A) (A) (A) (A) (A) (A) (A) (A) (A) (A) (A)
                 (A) (A) (A) (A) (A) (A) (A) (A) (A) (A) (A) (A)
                 (A) (A) (A) (A) (A) (A) (A) (A) (A) (A) (A) (A)
                 (A) (A) (A) (A) (A) (A) (A) (A) (A) (A) (A) (A)
                 (A) (A) (A) (A) (A) (A) (A) (A) (A) (A) (A) (A)
                 (A) (A) (A) (A) (A) (A) (A) (A) (A) (A) (A) (A)
                 (A) (A) (A) (A) (A) (A) (A) (A) (A) (A) (A) (A)
                 (A) (A) (A) (A) (A) (A) (A) (A) (A) (A) (A) (A)
                 (A) (A) (A) (A) (A) (A) (A) (A) (A) (A) (A) (A)
                 (A) (A) (A) (A) (A) (A) (A) (A) (A) (A) (A) (A)
                 (A) (A) (A) (A) (A) (A) (A) (A) (A) (A) (A) (A)
                 (A) (A) (A) (A) (A) (A) (A) (A) (A) (A) (A) (A)
                 (A) (A) (A) (A) (A) (A) (A) (A) (A) (A) (A) (A)
                 (A) (A) (A) (A) (A) (A) (A) (A) (A) (A) (A) (A)
                 (A) (A) (A) (A) (A) (A) (A) (A) (A) (A) (A) (A)
                 (A) (A) (A) (A) (A) (A) (A) (A) (A) (A) (A) (A)
                 (A) (A) (A) (A) (A) (A) (A) (A) (A) (A) (A) (A)
                 (A) (A) (A) (A) (A) (A) (A) (A) (A) (A) (A) (A)
                 (A) (A) (A) (A) (A) (A) (A) (A) (A) (A) (A) (A)
                 (A) (A) (A) (A) (A) (A) (A) (A) (A) (A) (A) (A)
                 (A) (A) (A) (A) (A) (A) (A) (A) (A) (A) (A) (A)
                 (A) (A) (A) (A) (A) (A) (A) (A) (A) (A) (A) (A)
                 (A) (A) (A) (A) (A) (A) (A) (A) (A) (A) (A) (A)
                 (A) (A) (A) (A) (A) (A) (A) (A) (A) (A) (A) (A)
                 (A) (A) (A) (A) (A) (A) (A) (A) (A) (A) (A) (A)
                 (A) (A) (A) (A) (A) (A) (A) (A) (A) (A) (A) (A)
                 (A) (A) (A) (A) (A) (A) (A) (A) (A) (A) (A) (A)
                 (A) (A) (A) (A) (A) (A) (A) (A) (A) (A) (A) (A)
                 (A) (A) (A) (A) (A) (A) (A) (A) (A) (A) (A) (A)
                 (A) (A) (A) (A) (A) (A) (A) (A) (A) (A) (A) (A)
                 (A) (A) (A) (A) (A) (A) (A) (A) (A) (A) (A) (A)
                 (A) (A) (A) (A) (A) (A) (A) (A) (A) (A) (A) (A)
                 (A) (A) (A) (A) (A) (A) (A) (A) (A) (A) (A) (A)
                 (A) (A) (A) (A) (A) (A) (A) (A) (A) (A) (A) (A)
                 (A) (A) (A)
 The electronic state of the initial guess is 1-A.
 Requested convergence on RMS density matrix=1.00D-08 within 128 cycles.
 Requested convergence on MAX density matrix=1.00D-06.
 Requested convergence on             energy=1.00D-06.
 No special actions if energy rises.
 SCF Done:  E(RB3LYP) =  -1387.64669622     A.U. after   18 cycles
             Convg  =    0.5803D-08             -V/T =  2.0043

 **********************************************************************

            Population analysis using the SCF density.

 **********************************************************************

 Orbital symmetries:
       Occupied  (A) (A) (A) (A) (A) (A) (A) (A) (A) (A) (A) (A)
                 (A) (A) (A) (A) (A) (A) (A) (A) (A) (A) (A) (A)
                 (A) (A) (A) (A) (A) (A) (A) (A) (A) (A) (A) (A)
                 (A) (A) (A) (A) (A) (A) (A) (A) (A) (A) (A) (A)
                 (A) (A) (A) (A) (A) (A) (A) (A) (A) (A) (A) (A)
                 (A) (A) (A) (A) (A) (A) (A) (A) (A) (A) (A) (A)
                 (A) (A) (A) (A) (A) (A) (A) (A) (A) (A) (A) (A)
                 (A) (A) (A) (A) (A) (A) (A) (A) (A) (A) (A) (A)
                 (A) (A) (A) (A) (A) (A) (A) (A) (A) (A) (A) (A)
                 (A) (A) (A) (A) (A) (A) (A)
       Virtual   (A) (A) (A) (A) (A) (A) (A) (A) (A) (A) (A) (A)
                 (A) (A) (A) (A) (A) (A) (A) (A) (A) (A) (A) (A)
                 (A) (A) (A) (A) (A) (A) (A) (A) (A) (A) (A) (A)
                 (A) (A) (A) (A) (A) (A) (A) (A) (A) (A) (A) (A)
                 (A) (A) (A) (A) (A) (A) (A) (A) (A) (A) (A) (A)
                 (A) (A) (A) (A) (A) (A) (A) (A) (A) (A) (A) (A)
                 (A) (A) (A) (A) (A) (A) (A) (A) (A) (A) (A) (A)
                 (A) (A) (A) (A) (A) (A) (A) (A) (A) (A) (A) (A)
                 (A) (A) (A) (A) (A) (A) (A) (A) (A) (A) (A) (A)
                 (A) (A) (A) (A) (A) (A) (A) (A) (A) (A) (A) (A)
                 (A) (A) (A) (A) (A) (A) (A) (A) (A) (A) (A) (A)
                 (A) (A) (A) (A) (A) (A) (A) (A) (A) (A) (A) (A)
                 (A) (A) (A) (A) (A) (A) (A) (A) (A) (A) (A) (A)
                 (A) (A) (A) (A) (A) (A) (A) (A) (A) (A) (A) (A)
                 (A) (A) (A) (A) (A) (A) (A) (A) (A) (A) (A) (A)
                 (A) (A) (A) (A) (A) (A) (A) (A) (A) (A) (A) (A)
                 (A) (A) (A) (A) (A) (A) (A) (A) (A) (A) (A) (A)
                 (A) (A) (A) (A) (A) (A) (A) (A) (A) (A) (A) (A)
                 (A) (A) (A) (A) (A) (A) (A) (A) (A) (A) (A) (A)
                 (A) (A) (A) (A) (A) (A) (A) (A) (A) (A) (A) (A)
                 (A) (A) (A) (A) (A) (A) (A) (A) (A) (A) (A) (A)
                 (A) (A) (A) (A) (A) (A) (A) (A) (A) (A) (A) (A)
                 (A) (A) (A) (A) (A) (A) (A) (A) (A) (A) (A) (A)
                 (A) (A) (A) (A) (A) (A) (A) (A) (A) (A) (A) (A)
                 (A) (A) (A) (A) (A) (A) (A) (A) (A) (A) (A) (A)
                 (A) (A) (A) (A) (A) (A) (A) (A) (A) (A) (A) (A)
                 (A) (A) (A) (A) (A) (A) (A) (A) (A) (A) (A) (A)
                 (A) (A) (A) (A) (A) (A) (A) (A) (A) (A) (A) (A)
                 (A) (A) (A) (A) (A) (A) (A) (A) (A) (A) (A) (A)
                 (A) (A) (A) (A) (A) (A) (A) (A) (A) (A) (A) (A)
                 (A) (A) (A) (A) (A) (A) (A) (A) (A) (A) (A) (A)
                 (A) (A) (A) (A) (A) (A) (A) (A) (A) (A) (A) (A)
                 (A) (A) (A) (A) (A) (A) (A) (A) (A) (A) (A) (A)
                 (A) (A) (A) (A) (A) (A) (A) (A) (A) (A) (A) (A)
                 (A) (A) (A) (A) (A) (A) (A) (A) (A) (A) (A) (A)
                 (A) (A) (A) (A) (A) (A) (A) (A) (A) (A) (A) (A)
                 (A) (A) (A) (A) (A) (A) (A) (A) (A) (A) (A) (A)
                 (A) (A) (A) (A) (A) (A) (A) (A) (A) (A) (A) (A)
                 (A) (A) (A) (A) (A) (A) (A) (A) (A) (A) (A) (A)
                 (A) (A) (A) (A) (A) (A) (A) (A) (A) (A) (A) (A)
                 (A) (A) (A) (A) (A) (A) (A) (A) (A) (A) (A) (A)
                 (A) (A) (A) (A) (A) (A) (A) (A) (A) (A) (A) (A)
                 (A) (A) (A) (A) (A) (A) (A) (A) (A) (A) (A) (A)
                 (A) (A) (A) (A) (A) (A) (A) (A) (A) (A) (A) (A)
                 (A) (A) (A) (A) (A) (A) (A) (A) (A) (A) (A) (A)
                 (A) (A) (A) (A) (A) (A) (A) (A) (A) (A) (A) (A)
                 (A) (A) (A) (A) (A) (A) (A) (A) (A) (A) (A) (A)
                 (A) (A) (A) (A) (A) (A) (A) (A) (A) (A) (A) (A)
                 (A) (A) (A) (A) (A) (A) (A) (A) (A) (A) (A) (A)
                 (A) (A) (A) (A) (A) (A) (A) (A) (A) (A) (A) (A)
                 (A) (A) (A) (A) (A) (A) (A) (A) (A) (A) (A) (A)
                 (A) (A) (A) (A) (A) (A) (A) (A) (A) (A) (A) (A)
                 (A) (A) (A) (A) (A) (A) (A) (A) (A) (A) (A) (A)
                 (A) (A) (A) (A) (A) (A) (A) (A) (A) (A) (A) (A)
                 (A) (A) (A) (A) (A) (A) (A) (A) (A) (A) (A) (A)
                 (A) (A) (A)
 The electronic state is 1-A.
 Alpha  occ. eigenvalues --  -19.18255 -19.14965 -19.13635 -19.11302 -19.10152
 Alpha  occ. eigenvalues --  -10.26693 -10.26528 -10.26367 -10.25847 -10.25784
 Alpha  occ. eigenvalues --  -10.25531 -10.23831 -10.20875 -10.20083 -10.19844
 Alpha  occ. eigenvalues --  -10.19523 -10.19127 -10.18850 -10.18801 -10.18562
 Alpha  occ. eigenvalues --  -10.18393 -10.17978 -10.17836 -10.17570 -10.17488
 Alpha  occ. eigenvalues --  -10.17372 -10.16840 -10.16507 -10.16247 -10.15141
 Alpha  occ. eigenvalues --  -10.14611  -1.10580  -1.07428  -1.04760  -1.03624
 Alpha  occ. eigenvalues --   -1.03119  -0.88119  -0.85030  -0.83105  -0.82225
 Alpha  occ. eigenvalues --   -0.80943  -0.80116  -0.77911  -0.74778  -0.74138
 Alpha  occ. eigenvalues --   -0.73158  -0.72059  -0.71237  -0.69588  -0.69047
 Alpha  occ. eigenvalues --   -0.66216  -0.65234  -0.64226  -0.62836  -0.61733
 Alpha  occ. eigenvalues --   -0.60083  -0.59524  -0.57765  -0.55945  -0.54376
 Alpha  occ. eigenvalues --   -0.54210  -0.52949  -0.51976  -0.50780  -0.50132
 Alpha  occ. eigenvalues --   -0.49008  -0.48363  -0.48096  -0.47651  -0.47131
 Alpha  occ. eigenvalues --   -0.46031  -0.45577  -0.45375  -0.45055  -0.44260
 Alpha  occ. eigenvalues --   -0.44057  -0.43408  -0.43248  -0.42374  -0.42097
 Alpha  occ. eigenvalues --   -0.41907  -0.41550  -0.41231  -0.40847  -0.40515
 Alpha  occ. eigenvalues --   -0.40326  -0.39799  -0.39635  -0.39055  -0.38807
 Alpha  occ. eigenvalues --   -0.38543  -0.38265  -0.37803  -0.37437  -0.36999
 Alpha  occ. eigenvalues --   -0.36869  -0.36785  -0.36395  -0.35932  -0.35530
 Alpha  occ. eigenvalues --   -0.34780  -0.34591  -0.34180  -0.34156  -0.33280
 Alpha  occ. eigenvalues --   -0.32616  -0.32238  -0.31857  -0.29055  -0.28888
 Alpha  occ. eigenvalues --   -0.26303  -0.26097  -0.25554  -0.24837  -0.23750
 Alpha virt. eigenvalues --   -0.06146  -0.03530  -0.01577  -0.01033  -0.00556
 Alpha virt. eigenvalues --   -0.00260   0.00207   0.00576   0.01578   0.01707
 Alpha virt. eigenvalues --    0.01886   0.02274   0.02855   0.03225   0.03285
 Alpha virt. eigenvalues --    0.03558   0.03969   0.04374   0.04484   0.04718
 Alpha virt. eigenvalues --    0.05081   0.05407   0.05801   0.05956   0.06261
 Alpha virt. eigenvalues --    0.06639   0.06775   0.06843   0.07177   0.07361
 Alpha virt. eigenvalues --    0.07623   0.07729   0.08280   0.08641   0.08687
 Alpha virt. eigenvalues --    0.08990   0.09313   0.09346   0.09594   0.10067
 Alpha virt. eigenvalues --    0.10347   0.10502   0.10763   0.10966   0.11322
 Alpha virt. eigenvalues --    0.11451   0.11659   0.11798   0.11981   0.12310
 Alpha virt. eigenvalues --    0.12612   0.12719   0.12894   0.13173   0.13509
 Alpha virt. eigenvalues --    0.13689   0.13829   0.14100   0.14347   0.14504
 Alpha virt. eigenvalues --    0.14815   0.15038   0.15205   0.15675   0.15927
 Alpha virt. eigenvalues --    0.16148   0.16475   0.16810   0.17108   0.17131
 Alpha virt. eigenvalues --    0.17396   0.17502   0.17696   0.17837   0.18180
 Alpha virt. eigenvalues --    0.18413   0.18526   0.18809   0.18974   0.19318
 Alpha virt. eigenvalues --    0.19365   0.19572   0.19904   0.20028   0.20286
 Alpha virt. eigenvalues --    0.20422   0.20499   0.20653   0.20801   0.20924
 Alpha virt. eigenvalues --    0.21132   0.21434   0.21648   0.21799   0.21958
 Alpha virt. eigenvalues --    0.22098   0.22210   0.22322   0.22640   0.22933
 Alpha virt. eigenvalues --    0.23009   0.23146   0.23406   0.23546   0.23611
 Alpha virt. eigenvalues --    0.23936   0.24315   0.24530   0.24819   0.24956
 Alpha virt. eigenvalues --    0.25042   0.25324   0.25511   0.25606   0.25875
 Alpha virt. eigenvalues --    0.26170   0.26356   0.26651   0.26777   0.27047
 Alpha virt. eigenvalues --    0.27066   0.27419   0.27686   0.28098   0.28173
 Alpha virt. eigenvalues --    0.28462   0.28614   0.28836   0.28962   0.29261
 Alpha virt. eigenvalues --    0.29628   0.29922   0.30022   0.30283   0.30776
 Alpha virt. eigenvalues --    0.31007   0.31310   0.31487   0.32021   0.32181
 Alpha virt. eigenvalues --    0.32493   0.32516   0.32938   0.33075   0.33485
 Alpha virt. eigenvalues --    0.33665   0.33960   0.34159   0.34847   0.34943
 Alpha virt. eigenvalues --    0.35092   0.35484   0.35581   0.36196   0.36436
 Alpha virt. eigenvalues --    0.36645   0.37736   0.37980   0.38257   0.38488
 Alpha virt. eigenvalues --    0.38799   0.39230   0.39371   0.39759   0.39940
 Alpha virt. eigenvalues --    0.40371   0.41076   0.41157   0.41530   0.42053
 Alpha virt. eigenvalues --    0.42366   0.42643   0.43010   0.43496   0.43898
 Alpha virt. eigenvalues --    0.44139   0.44541   0.44714   0.45026   0.45615
 Alpha virt. eigenvalues --    0.46004   0.46198   0.46619   0.47007   0.47364
 Alpha virt. eigenvalues --    0.47742   0.48298   0.48761   0.48789   0.49493
 Alpha virt. eigenvalues --    0.49757   0.50076   0.50517   0.51055   0.51689
 Alpha virt. eigenvalues --    0.52175   0.52550   0.52948   0.53124   0.53620
 Alpha virt. eigenvalues --    0.53999   0.54365   0.54846   0.55099   0.55607
 Alpha virt. eigenvalues --    0.55855   0.56399   0.56931   0.57155   0.57272
 Alpha virt. eigenvalues --    0.57853   0.58394   0.58807   0.59334   0.60002
 Alpha virt. eigenvalues --    0.60099   0.60162   0.60784   0.61329   0.61536
 Alpha virt. eigenvalues --    0.62175   0.62509   0.63329   0.63566   0.63803
 Alpha virt. eigenvalues --    0.64235   0.64723   0.65069   0.65991   0.66136
 Alpha virt. eigenvalues --    0.66413   0.66750   0.66843   0.67165   0.67932
 Alpha virt. eigenvalues --    0.68321   0.68488   0.68771   0.69034   0.69184
 Alpha virt. eigenvalues --    0.69432   0.69951   0.70265   0.70426   0.70553
 Alpha virt. eigenvalues --    0.70754   0.71005   0.71323   0.71640   0.71853
 Alpha virt. eigenvalues --    0.72011   0.72579   0.73023   0.73188   0.73561
 Alpha virt. eigenvalues --    0.73902   0.74273   0.74420   0.74674   0.75097
 Alpha virt. eigenvalues --    0.75263   0.75896   0.76321   0.76798   0.77132
 Alpha virt. eigenvalues --    0.77475   0.77747   0.78202   0.78718   0.78940
 Alpha virt. eigenvalues --    0.79200   0.79921   0.80278   0.80689   0.80928
 Alpha virt. eigenvalues --    0.81209   0.81704   0.81857   0.82219   0.82897
 Alpha virt. eigenvalues --    0.83123   0.83500   0.83614   0.84062   0.84730
 Alpha virt. eigenvalues --    0.85097   0.85373   0.86565   0.87034   0.87502
 Alpha virt. eigenvalues --    0.88344   0.89587   0.90784   0.91259   0.91806
 Alpha virt. eigenvalues --    0.92560   0.94004   0.95290   0.95674   0.96305
 Alpha virt. eigenvalues --    0.97150   0.97638   0.98121   0.99196   0.99416
 Alpha virt. eigenvalues --    1.00262   1.01334   1.01940   1.03433   1.04533
 Alpha virt. eigenvalues --    1.05473   1.06536   1.07097   1.07878   1.09042
 Alpha virt. eigenvalues --    1.09292   1.10404   1.11657   1.14162   1.14598
 Alpha virt. eigenvalues --    1.15284   1.15612   1.17437   1.18405   1.19931
 Alpha virt. eigenvalues --    1.19950   1.20840   1.21475   1.23124   1.24022
 Alpha virt. eigenvalues --    1.24173   1.25947   1.26137   1.27370   1.27488
 Alpha virt. eigenvalues --    1.28090   1.29082   1.29364   1.30185   1.30729
 Alpha virt. eigenvalues --    1.31646   1.32723   1.33696   1.34482   1.35248
 Alpha virt. eigenvalues --    1.36124   1.36471   1.37291   1.38121   1.38490
 Alpha virt. eigenvalues --    1.38558   1.40939   1.41157   1.42035   1.42448
 Alpha virt. eigenvalues --    1.43056   1.44742   1.45646   1.46447   1.47527
 Alpha virt. eigenvalues --    1.48188   1.49338   1.49785   1.51129   1.51833
 Alpha virt. eigenvalues --    1.52812   1.52922   1.54222   1.54670   1.55492
 Alpha virt. eigenvalues --    1.56133   1.56470   1.57909   1.58101   1.58755
 Alpha virt. eigenvalues --    1.58875   1.59113   1.59873   1.60293   1.60552
 Alpha virt. eigenvalues --    1.61120   1.61377   1.61975   1.62245   1.62658
 Alpha virt. eigenvalues --    1.63021   1.63849   1.64182   1.64682   1.65151
 Alpha virt. eigenvalues --    1.66142   1.66261   1.66585   1.66788   1.67579
 Alpha virt. eigenvalues --    1.68355   1.68666   1.69216   1.69500   1.70512
 Alpha virt. eigenvalues --    1.70621   1.71113   1.71330   1.72315   1.72805
 Alpha virt. eigenvalues --    1.72955   1.73363   1.74509   1.75248   1.75748
 Alpha virt. eigenvalues --    1.77117   1.77490   1.77940   1.78657   1.80098
 Alpha virt. eigenvalues --    1.80608   1.80813   1.81589   1.82325   1.83000
 Alpha virt. eigenvalues --    1.84171   1.84889   1.85563   1.86108   1.86442
 Alpha virt. eigenvalues --    1.88141   1.88444   1.89505   1.90256   1.91241
 Alpha virt. eigenvalues --    1.92402   1.93246   1.94355   1.94572   1.96402
 Alpha virt. eigenvalues --    1.97252   1.98496   2.00143   2.01032   2.01392
 Alpha virt. eigenvalues --    2.02451   2.02727   2.03990   2.04625   2.04714
 Alpha virt. eigenvalues --    2.06119   2.06633   2.08275   2.08408   2.09589
 Alpha virt. eigenvalues --    2.10418   2.12668   2.13296   2.14990   2.15483
 Alpha virt. eigenvalues --    2.16888   2.17604   2.18900   2.19859   2.20012
 Alpha virt. eigenvalues --    2.21265   2.22391   2.23240   2.24433   2.25793
 Alpha virt. eigenvalues --    2.26792   2.28230   2.30029   2.30678   2.32445
 Alpha virt. eigenvalues --    2.33120   2.33588   2.35494   2.36179   2.38322
 Alpha virt. eigenvalues --    2.39981   2.43434   2.46825   2.47957   2.49275
 Alpha virt. eigenvalues --    2.50939   2.51714   2.53447   2.53990   2.54541
 Alpha virt. eigenvalues --    2.55145   2.55581   2.55834   2.56544   2.57197
 Alpha virt. eigenvalues --    2.57645   2.58877   2.59026   2.59494   2.60843
 Alpha virt. eigenvalues --    2.61977   2.63016   2.63529   2.64201   2.65388
 Alpha virt. eigenvalues --    2.66049   2.67308   2.68437   2.68904   2.70583
 Alpha virt. eigenvalues --    2.71514   2.72091   2.73181   2.73697   2.74968
 Alpha virt. eigenvalues --    2.75545   2.76373   2.78665   2.79660   2.80422
 Alpha virt. eigenvalues --    2.85772   2.85858   2.87610   2.89101   2.90701
 Alpha virt. eigenvalues --    2.90922   2.91695   2.93051   2.94081   2.94597
 Alpha virt. eigenvalues --    2.95535   2.96239   2.97064   2.97665   2.98202
 Alpha virt. eigenvalues --    2.99159   3.00097   3.00988   3.01535   3.03296
 Alpha virt. eigenvalues --    3.03640   3.04268   3.05119   3.05976   3.06559
 Alpha virt. eigenvalues --    3.07865   3.09360   3.10434   3.11429   3.13104
 Alpha virt. eigenvalues --    3.14137   3.14502   3.16825   3.17521   3.18336
 Alpha virt. eigenvalues --    3.18701   3.19442   3.20022   3.21226   3.22033
 Alpha virt. eigenvalues --    3.22649   3.23209   3.23722   3.24731   3.25671
 Alpha virt. eigenvalues --    3.25973   3.26832   3.27708   3.28184   3.30435
 Alpha virt. eigenvalues --    3.30673   3.31637   3.32164   3.32399   3.33283
 Alpha virt. eigenvalues --    3.34872   3.35553   3.36311   3.37436   3.38383
 Alpha virt. eigenvalues --    3.38763   3.39900   3.41041   3.42187   3.42879
 Alpha virt. eigenvalues --    3.45368   3.46363   3.48430   3.50573   3.51562
 Alpha virt. eigenvalues --    3.52847   3.53648   3.58918   3.59970   3.64434
 Alpha virt. eigenvalues --    3.75350   3.77037   3.78060   3.82135   3.84919
 Alpha virt. eigenvalues --    3.88079   3.91907   3.94012   3.96972   4.01469
 Alpha virt. eigenvalues --    4.04256   4.05601   4.07372   4.08124   4.09890
 Alpha virt. eigenvalues --    4.11693   4.15176   4.16114   4.18178   4.20025
 Alpha virt. eigenvalues --    4.21277   4.24038   4.27703   4.28653   4.33973
 Alpha virt. eigenvalues --    4.44712   4.53944   5.14455   5.15724   5.17925
 Alpha virt. eigenvalues --    5.22001   5.25511   5.30540   5.31319   5.32840
 Alpha virt. eigenvalues --    5.42599   5.43682   5.55888   5.71921   5.72285
 Alpha virt. eigenvalues --    5.79308   5.81820  23.45428  23.47722  23.52010
 Alpha virt. eigenvalues --   23.54094  23.59840  23.62758  23.64917  23.66608
 Alpha virt. eigenvalues --   23.68485  23.70137  23.72233  23.73218  23.76225
 Alpha virt. eigenvalues --   23.78818  23.79090  23.80238  23.82504  23.85027
 Alpha virt. eigenvalues --   23.85819  23.88580  23.89473  23.91313  23.96333
 Alpha virt. eigenvalues --   24.17010  24.20524  24.21597  49.97844  49.99650
 Alpha virt. eigenvalues --   50.01873  50.03826  50.06131
          Condensed to atoms (all electrons):
 Mulliken atomic charges:
              1
     1  C   -0.844753
     2  C    1.001959
     3  C   -0.321571
     4  C   -0.029526
     5  C    1.293555
     6  C   -0.909834
     7  C   -0.915681
     8  C    0.162646
     9  C    0.266281
    10  C   -0.531017
    11  C   -0.348965
    12  O   -0.184193
    13  C    0.398490
    14  C   -0.214047
    15  C   -1.066377
    16  O   -0.173875
    17  C   -0.624310
    18  C    0.767523
    19  O    0.210654
    20  C   -1.174044
    21  O   -0.061741
    22  C   -0.448514
    23  C   -0.173690
    24  O   -0.046173
    25  C    0.916840
    26  C   -1.151128
    27  C   -0.954920
    28  C   -0.730458
    29  C   -0.633903
    30  H    0.246383
    31  H    0.257151
    32  C   -1.137339
    33  H    0.211981
    34  H    0.272719
    35  H    0.279742
    36  H    0.222482
    37  H    0.229129
    38  H    0.216844
    39  H    0.253648
    40  H    0.238827
    41  H    0.283108
    42  H    0.284818
    43  H    0.259770
    44  H    0.292881
    45  H    0.254682
    46  H    0.298476
    47  H    0.209391
    48  H    0.268984
    49  H    0.296273
    50  H    0.253647
    51  H    0.228991
    52  H    0.214605
    53  H    0.265229
    54  H    0.249358
    55  H    0.317805
    56  H    0.265565
    57  H    0.264829
    58  H    0.275109
    59  H    0.251563
    60  H    0.259909
    61  H    0.245593
    62  C   -1.056070
    63  H    0.234310
    64  H    0.266727
    65  H    0.243653
 Sum of Mulliken atomic charges =   0.00000
 Mulliken charges with hydrogens summed into heavy atoms:
              1
     1  C   -0.632771
     2  C    1.001959
     3  C   -0.064420
     4  C   -0.029526
     5  C    1.293555
     6  C   -0.357374
     7  C   -0.915681
     8  C    0.162646
     9  C    0.266281
    10  C   -0.531017
    11  C   -0.348965
    12  O   -0.184193
    13  C    0.620972
    14  C    0.231926
    15  C   -0.290794
    16  O   -0.173875
    17  C   -0.377927
    18  C    0.767523
    19  O    0.210654
    20  C   -0.629456
    21  O    0.231140
    22  C    0.104645
    23  C    0.035701
    24  O   -0.046173
    25  C    0.916840
    26  C   -0.332225
    27  C   -0.511324
    28  C    0.101934
    29  C    0.171599
    32  C   -0.380273
    62  C   -0.311381
 Sum of Mulliken charges with hydrogens summed into heavy atoms =   0.00000
 Electronic spatial extent (au):  <R**2>=          11490.0817
 Charge=              0.0000 electrons
 Dipole moment (field-independent basis, Debye):
    X=              2.2877    Y=              6.5933    Z=             -1.1191  Tot=              7.0681
 Quadrupole moment (field-independent basis, Debye-Ang):
   XX=           -183.7075   YY=           -190.0725   ZZ=           -189.9750
   XY=             -6.7968   XZ=              9.7316   YZ=              5.1136
 Traceless Quadrupole moment (field-independent basis, Debye-Ang):
   XX=              4.2108   YY=             -2.1542   ZZ=             -2.0566
   XY=             -6.7968   XZ=              9.7316   YZ=              5.1136
 Octapole moment (field-independent basis, Debye-Ang**2):
  XXX=             12.3448  YYY=             67.6767  ZZZ=              2.3831  XYY=             15.9560
  XXY=              5.3680  XXZ=            -18.6334  XZZ=             15.3535  YZZ=             12.0241
  YYZ=            -42.9219  XYZ=              2.3359
 Hexadecapole moment (field-independent basis, Debye-Ang**3):
 XXXX=          -8563.7590 YYYY=          -4431.8171 ZZZZ=          -2764.5333 XXXY=            -28.1474
 XXXZ=             65.2334 YYYX=            -40.9287 YYYZ=             14.3643 ZZZX=             56.7465
 ZZZY=            -16.4130 XXYY=          -2170.4108 XXZZ=          -1935.2116 YYZZ=          -1179.8206
 XXYZ=             67.8476 YYXZ=              7.1263 ZZXY=            -51.0373
 N-N= 3.517809915180D+03 E-N=-1.026844460346D+04  KE= 1.381707734538D+03
 Calling FoFJK, ICntrl=      2127 FMM=T ISym2X=0 I1Cent= 0 IOpClX= 0 NMat=1 NMatS=1 NMatT=0.
 ***** Axes restored to original set *****
 -------------------------------------------------------------------
 Center     Atomic                   Forces (Hartrees/Bohr)
 Number     Number              X              Y              Z
 -------------------------------------------------------------------
      1        6           0.000747992    0.001727299   -0.001923891
      2        6          -0.000885631   -0.001475122    0.001657933
      3        6          -0.000107972    0.000322728   -0.000139430
      4        6          -0.000530228    0.001020770    0.000207177
      5        6           0.000198291   -0.000532931    0.000272648
      6        6          -0.000284967   -0.000198447   -0.000078974
      7        6          -0.002151678    0.001111781    0.001681857
      8        6          -0.002718687   -0.001397783    0.000288957
      9        6           0.001105066    0.001931837   -0.000514984
     10        6          -0.000236785   -0.008031195    0.001218647
     11        6          -0.000355296   -0.004199193    0.005744257
     12        8           0.000029120    0.005145623   -0.006891391
     13        6           0.000169076   -0.000126537   -0.000238586
     14        6           0.000161000    0.000501317    0.000221478
     15        6           0.000291134   -0.000113830    0.000275145
     16        8          -0.000519555    0.009482383   -0.001252398
     17        6           0.000305308    0.000171592   -0.000295707
     18        6          -0.000028993    0.001290658   -0.000769003
     19        8           0.002287339   -0.002662132    0.001232799
     20        6          -0.000344608    0.000029585    0.000366711
     21        8           0.005967060    0.000695395    0.001114202
     22        6          -0.000053845   -0.000166090   -0.000050571
     23        6           0.001684546   -0.001541600    0.000922853
     24        8           0.000202739   -0.000159191    0.000858055
     25        6           0.001399847   -0.000390841   -0.000618138
     26        6          -0.000068978    0.000071730    0.000513747
     27        6          -0.001136940    0.000181234    0.000342539
     28        6           0.000356119    0.000155719    0.000359768
     29        6           0.000487325   -0.000261250   -0.000128093
     30        1          -0.000757261   -0.000627673    0.000827360
     31        1          -0.000878685   -0.000361399    0.000994398
     32        6           0.000149100    0.000339062   -0.000100435
     33        1          -0.000181448   -0.000094159   -0.000871017
     34        1          -0.000352391    0.001270401   -0.000854317
     35        1           0.001509801   -0.000445080    0.000458258
     36        1          -0.000221559   -0.000618117    0.001201962
     37        1          -0.001080710   -0.001128007   -0.000420654
     38        1           0.001161931   -0.000013094    0.000708665
     39        1          -0.001140690    0.000657073    0.000892162
     40        1           0.001247538   -0.000403958    0.000672730
     41        1          -0.000132822    0.000310973   -0.001899760
     42        1           0.001206184    0.000575814   -0.000899507
     43        1          -0.000398859   -0.001512463   -0.000018211
     44        1          -0.004946499   -0.000420223   -0.002335965
     45        1          -0.000608019   -0.000692664   -0.001351235
     46        1           0.001065582    0.001694976    0.000178031
     47        1          -0.001486536   -0.000385196   -0.000554280
     48        1           0.001348479   -0.001907962    0.000108605
     49        1           0.001046669    0.000679777   -0.001435266
     50        1          -0.000838737    0.000996695    0.001069541
     51        1          -0.000233856    0.000691117    0.000661193
     52        1          -0.000798383   -0.000490677   -0.000448853
     53        1           0.001574693    0.000234054   -0.000069339
     54        1          -0.000532669   -0.001380642    0.000396755
     55        1          -0.001233389    0.001523367    0.000026169
     56        1          -0.000757422   -0.001076945    0.000750200
     57        1          -0.000381698    0.000310808   -0.001661985
     58        1           0.001557083    0.000410626    0.000407467
     59        1          -0.000173147    0.000275968   -0.001664326
     60        1          -0.001369564    0.000067574    0.000898938
     61        1           0.000761559   -0.001376414    0.000443046
     62        6           0.000002196   -0.000273231   -0.000295084
     63        1           0.000792030   -0.001230417   -0.000378820
[...]
                 (A) (A) (A) (A) (A) (A) (A) (A) (A) (A) (A) (A)
                 (A) (A) (A) (A) (A) (A) (A) (A) (A) (A) (A) (A)
                 (A) (A) (A) (A) (A) (A) (A) (A) (A) (A) (A) (A)
                 (A) (A) (A)
 The electronic state is 1-A.
 Alpha  occ. eigenvalues --  -19.18054 -19.15027 -19.13580 -19.11245 -19.10224
 Alpha  occ. eigenvalues --  -10.26386 -10.26365 -10.26284 -10.25796 -10.25778
 Alpha  occ. eigenvalues --  -10.25470 -10.23812 -10.20686 -10.19983 -10.19809
 Alpha  occ. eigenvalues --  -10.19435 -10.19215 -10.19026 -10.18569 -10.18294
 Alpha  occ. eigenvalues --  -10.18254 -10.17893 -10.17738 -10.17404 -10.17346
 Alpha  occ. eigenvalues --  -10.17276 -10.17031 -10.16973 -10.16382 -10.15070
 Alpha  occ. eigenvalues --  -10.14511  -1.10424  -1.07542  -1.05006  -1.03744
 Alpha  occ. eigenvalues --   -1.03490  -0.88147  -0.85007  -0.83206  -0.82380
 Alpha  occ. eigenvalues --   -0.81101  -0.80144  -0.77892  -0.74835  -0.74151
 Alpha  occ. eigenvalues --   -0.73178  -0.72110  -0.71258  -0.70075  -0.69220
 Alpha  occ. eigenvalues --   -0.66179  -0.65191  -0.64403  -0.62800  -0.61753
 Alpha  occ. eigenvalues --   -0.60042  -0.59511  -0.57922  -0.56213  -0.54346
 Alpha  occ. eigenvalues --   -0.54244  -0.52877  -0.52109  -0.50821  -0.50407
 Alpha  occ. eigenvalues --   -0.49124  -0.48416  -0.48086  -0.47631  -0.47099
 Alpha  occ. eigenvalues --   -0.46136  -0.45426  -0.45380  -0.45117  -0.44270
 Alpha  occ. eigenvalues --   -0.44080  -0.43435  -0.43241  -0.42506  -0.42222
 Alpha  occ. eigenvalues --   -0.42092  -0.41749  -0.41437  -0.41015  -0.40696
 Alpha  occ. eigenvalues --   -0.40270  -0.39986  -0.39661  -0.38994  -0.38805
 Alpha  occ. eigenvalues --   -0.38593  -0.38376  -0.37809  -0.37609  -0.37387
 Alpha  occ. eigenvalues --   -0.36920  -0.36868  -0.36366  -0.35958  -0.35586
 Alpha  occ. eigenvalues --   -0.34826  -0.34667  -0.34156  -0.34109  -0.33165
 Alpha  occ. eigenvalues --   -0.32508  -0.32267  -0.31872  -0.29543  -0.28884
 Alpha  occ. eigenvalues --   -0.26468  -0.25962  -0.25489  -0.24708  -0.23800
 Alpha virt. eigenvalues --   -0.05813  -0.03289  -0.01575  -0.01182  -0.00641
 Alpha virt. eigenvalues --   -0.00182   0.00261   0.00501   0.01537   0.01738
 Alpha virt. eigenvalues --    0.01844   0.02226   0.02879   0.03231   0.03282
 Alpha virt. eigenvalues --    0.03456   0.04039   0.04427   0.04491   0.04741
 Alpha virt. eigenvalues --    0.05069   0.05327   0.05821   0.05941   0.06173
 Alpha virt. eigenvalues --    0.06546   0.06713   0.06809   0.07302   0.07470
 Alpha virt. eigenvalues --    0.07700   0.07764   0.08362   0.08504   0.08764
 Alpha virt. eigenvalues --    0.08918   0.09154   0.09269   0.09556   0.09637
 Alpha virt. eigenvalues --    0.10168   0.10414   0.10558   0.10814   0.11143
 Alpha virt. eigenvalues --    0.11323   0.11502   0.11965   0.12005   0.12378
 Alpha virt. eigenvalues --    0.12589   0.12715   0.12780   0.12898   0.13488
 Alpha virt. eigenvalues --    0.13846   0.13992   0.14132   0.14271   0.14610
 Alpha virt. eigenvalues --    0.14781   0.14989   0.15241   0.15343   0.16035
 Alpha virt. eigenvalues --    0.16179   0.16413   0.16667   0.16932   0.17021
 Alpha virt. eigenvalues --    0.17380   0.17472   0.17758   0.17821   0.17967
 Alpha virt. eigenvalues --    0.18214   0.18793   0.18899   0.19092   0.19259
 Alpha virt. eigenvalues --    0.19341   0.19465   0.19860   0.20030   0.20160
 Alpha virt. eigenvalues --    0.20339   0.20407   0.20518   0.20933   0.20962
 Alpha virt. eigenvalues --    0.21126   0.21329   0.21707   0.21872   0.22017
 Alpha virt. eigenvalues --    0.22142   0.22227   0.22317   0.22729   0.22858
 Alpha virt. eigenvalues --    0.23104   0.23275   0.23593   0.23664   0.23816
 Alpha virt. eigenvalues --    0.23865   0.24246   0.24486   0.24757   0.24864
 Alpha virt. eigenvalues --    0.25255   0.25338   0.25588   0.25666   0.26039
 Alpha virt. eigenvalues --    0.26101   0.26338   0.26707   0.27009   0.27129
 Alpha virt. eigenvalues --    0.27252   0.27395   0.27547   0.28067   0.28173
 Alpha virt. eigenvalues --    0.28522   0.28724   0.29155   0.29380   0.29605
 Alpha virt. eigenvalues --    0.29736   0.30040   0.30282   0.30350   0.30544
 Alpha virt. eigenvalues --    0.31146   0.31510   0.31607   0.31677   0.32182
 Alpha virt. eigenvalues --    0.32346   0.32672   0.32976   0.33008   0.33423
 Alpha virt. eigenvalues --    0.33611   0.33948   0.34452   0.34698   0.35001
 Alpha virt. eigenvalues --    0.35092   0.35589   0.35745   0.36072   0.36419
 Alpha virt. eigenvalues --    0.36764   0.37544   0.37840   0.38049   0.38458
 Alpha virt. eigenvalues --    0.38610   0.38887   0.39407   0.39687   0.39971
 Alpha virt. eigenvalues --    0.40430   0.40698   0.41235   0.41384   0.42010
 Alpha virt. eigenvalues --    0.42201   0.42626   0.43031   0.43469   0.43798
 Alpha virt. eigenvalues --    0.44348   0.44462   0.45040   0.45309   0.45320
 Alpha virt. eigenvalues --    0.45757   0.46050   0.46473   0.46800   0.47120
 Alpha virt. eigenvalues --    0.47257   0.47608   0.48200   0.48837   0.49409
 Alpha virt. eigenvalues --    0.49830   0.50278   0.51050   0.51167   0.51613
 Alpha virt. eigenvalues --    0.51698   0.52043   0.52490   0.53060   0.53563
 Alpha virt. eigenvalues --    0.54015   0.54780   0.55186   0.55225   0.55738
 Alpha virt. eigenvalues --    0.55878   0.56140   0.56510   0.56966   0.57254
 Alpha virt. eigenvalues --    0.57948   0.58386   0.58918   0.59481   0.59898
 Alpha virt. eigenvalues --    0.60043   0.60112   0.60512   0.61085   0.61392
 Alpha virt. eigenvalues --    0.61919   0.62380   0.62666   0.63653   0.63731
 Alpha virt. eigenvalues --    0.64031   0.64369   0.65204   0.65558   0.65749
 Alpha virt. eigenvalues --    0.66456   0.66892   0.67040   0.67420   0.67502
 Alpha virt. eigenvalues --    0.68143   0.68510   0.68624   0.68733   0.69126
 Alpha virt. eigenvalues --    0.69419   0.69483   0.70124   0.70343   0.70584
 Alpha virt. eigenvalues --    0.71115   0.71277   0.71547   0.72022   0.72245
 Alpha virt. eigenvalues --    0.72309   0.72566   0.72838   0.73058   0.73221
 Alpha virt. eigenvalues --    0.73712   0.73989   0.74247   0.74479   0.74837
 Alpha virt. eigenvalues --    0.75391   0.75750   0.76366   0.77044   0.77271
 Alpha virt. eigenvalues --    0.77551   0.77721   0.78182   0.78396   0.78847
 Alpha virt. eigenvalues --    0.79061   0.79468   0.80314   0.80739   0.80884
 Alpha virt. eigenvalues --    0.81384   0.81598   0.81835   0.82197   0.82820
 Alpha virt. eigenvalues --    0.83308   0.83431   0.84390   0.84740   0.85191
 Alpha virt. eigenvalues --    0.85653   0.85921   0.86676   0.87207   0.87948
 Alpha virt. eigenvalues --    0.88720   0.89663   0.90316   0.91034   0.91599
 Alpha virt. eigenvalues --    0.92451   0.93551   0.94359   0.95231   0.96174
 Alpha virt. eigenvalues --    0.96501   0.96975   0.98100   0.98441   0.98685
 Alpha virt. eigenvalues --    1.00361   1.00883   1.01953   1.03665   1.04617
 Alpha virt. eigenvalues --    1.05459   1.05983   1.07010   1.08175   1.08762
 Alpha virt. eigenvalues --    1.09875   1.10147   1.10963   1.14577   1.14931
 Alpha virt. eigenvalues --    1.15596   1.15781   1.17410   1.18223   1.19321
 Alpha virt. eigenvalues --    1.19740   1.19931   1.21343   1.22043   1.23775
 Alpha virt. eigenvalues --    1.24192   1.25178   1.26199   1.26964   1.27802
 Alpha virt. eigenvalues --    1.28212   1.29157   1.29248   1.30210   1.31139
 Alpha virt. eigenvalues --    1.31386   1.32531   1.33098   1.34193   1.35304
 Alpha virt. eigenvalues --    1.35967   1.36528   1.36634   1.37995   1.38479
 Alpha virt. eigenvalues --    1.38963   1.39879   1.40619   1.41500   1.42003
 Alpha virt. eigenvalues --    1.43290   1.43923   1.45626   1.46610   1.47402
 Alpha virt. eigenvalues --    1.47561   1.48820   1.49501   1.51033   1.51595
 Alpha virt. eigenvalues --    1.51954   1.52871   1.53777   1.54228   1.54692
 Alpha virt. eigenvalues --    1.55319   1.56448   1.57889   1.58203   1.58493
 Alpha virt. eigenvalues --    1.59043   1.59286   1.59740   1.60035   1.60593
 Alpha virt. eigenvalues --    1.60736   1.60882   1.61561   1.61988   1.62521
 Alpha virt. eigenvalues --    1.62989   1.63312   1.64284   1.64461   1.64924
 Alpha virt. eigenvalues --    1.65772   1.65937   1.66294   1.67067   1.67936
 Alpha virt. eigenvalues --    1.68675   1.68806   1.69215   1.69825   1.70338
 Alpha virt. eigenvalues --    1.70815   1.71466   1.71753   1.72427   1.72669
 Alpha virt. eigenvalues --    1.73122   1.73337   1.74283   1.74365   1.75413
 Alpha virt. eigenvalues --    1.77058   1.77440   1.77931   1.78409   1.79261
 Alpha virt. eigenvalues --    1.80276   1.80986   1.81140   1.81871   1.82599
 Alpha virt. eigenvalues --    1.83090   1.84775   1.85661   1.86025   1.86203
 Alpha virt. eigenvalues --    1.88182   1.88614   1.89760   1.90406   1.91710
 Alpha virt. eigenvalues --    1.92491   1.93311   1.93496   1.94500   1.95430
 Alpha virt. eigenvalues --    1.97124   1.98616   1.99782   2.00953   2.01678
 Alpha virt. eigenvalues --    2.02085   2.03092   2.04732   2.05233   2.05775
 Alpha virt. eigenvalues --    2.06798   2.07449   2.07945   2.09403   2.09791
 Alpha virt. eigenvalues --    2.10564   2.12716   2.13839   2.14749   2.15789
 Alpha virt. eigenvalues --    2.16762   2.17777   2.19284   2.19843   2.20453
 Alpha virt. eigenvalues --    2.21619   2.22389   2.23885   2.25138   2.26757
 Alpha virt. eigenvalues --    2.27728   2.28187   2.29321   2.31288   2.31609
 Alpha virt. eigenvalues --    2.33020   2.34837   2.35823   2.36735   2.38669
 Alpha virt. eigenvalues --    2.40050   2.43815   2.46954   2.48866   2.49221
 Alpha virt. eigenvalues --    2.50967   2.51840   2.53182   2.53746   2.54373
 Alpha virt. eigenvalues --    2.54889   2.55266   2.56060   2.56604   2.57407
 Alpha virt. eigenvalues --    2.57709   2.58426   2.58999   2.59561   2.59684
 Alpha virt. eigenvalues --    2.60795   2.61747   2.63926   2.64644   2.65664
 Alpha virt. eigenvalues --    2.66498   2.67097   2.68175   2.68994   2.70212
 Alpha virt. eigenvalues --    2.71589   2.71935   2.73424   2.74238   2.74386
 Alpha virt. eigenvalues --    2.75834   2.76257   2.78404   2.79247   2.80620
 Alpha virt. eigenvalues --    2.85365   2.86023   2.87687   2.89184   2.90787
 Alpha virt. eigenvalues --    2.91044   2.92207   2.93300   2.94232   2.94562
 Alpha virt. eigenvalues --    2.95366   2.96659   2.97255   2.98131   2.98654
 Alpha virt. eigenvalues --    2.98984   3.00314   3.01879   3.02534   3.02689
 Alpha virt. eigenvalues --    3.03346   3.04004   3.04812   3.05145   3.06746
 Alpha virt. eigenvalues --    3.08025   3.09421   3.10519   3.11428   3.12090
 Alpha virt. eigenvalues --    3.14105   3.15622   3.16847   3.17874   3.18395
 Alpha virt. eigenvalues --    3.19528   3.20118   3.20227   3.21175   3.22195
 Alpha virt. eigenvalues --    3.22989   3.23865   3.24105   3.24789   3.25606
 Alpha virt. eigenvalues --    3.26445   3.26990   3.27371   3.29270   3.30908
 Alpha virt. eigenvalues --    3.31063   3.31546   3.32333   3.33394   3.33541
 Alpha virt. eigenvalues --    3.35697   3.36080   3.36667   3.37944   3.38887
 Alpha virt. eigenvalues --    3.39458   3.40141   3.40605   3.41648   3.43682
 Alpha virt. eigenvalues --    3.45910   3.47094   3.47961   3.51316   3.52320
 Alpha virt. eigenvalues --    3.52925   3.53643   3.59272   3.60930   3.64509
 Alpha virt. eigenvalues --    3.75930   3.77213   3.78752   3.83769   3.85659
 Alpha virt. eigenvalues --    3.88777   3.92908   3.94425   3.98266   4.02217
 Alpha virt. eigenvalues --    4.02759   4.05597   4.07647   4.08579   4.10107
 Alpha virt. eigenvalues --    4.11607   4.15392   4.15789   4.17824   4.19927
 Alpha virt. eigenvalues --    4.21182   4.24683   4.27767   4.28645   4.34047
 Alpha virt. eigenvalues --    4.45034   4.53979   5.14299   5.15917   5.16667
 Alpha virt. eigenvalues --    5.20579   5.24787   5.29553   5.31384   5.32966
 Alpha virt. eigenvalues --    5.42781   5.44224   5.55822   5.72213   5.72746
 Alpha virt. eigenvalues --    5.79045   5.81845  23.44836  23.49324  23.52830
 Alpha virt. eigenvalues --   23.53975  23.60190  23.63000  23.65244  23.67024
 Alpha virt. eigenvalues --   23.67773  23.70599  23.72506  23.73635  23.76109
 Alpha virt. eigenvalues --   23.79054  23.79305  23.79628  23.83954  23.84333
 Alpha virt. eigenvalues --   23.85900  23.88950  23.89304  23.91471  23.96081
 Alpha virt. eigenvalues --   24.19025  24.21049  24.22969  49.97501  49.99744
 Alpha virt. eigenvalues --   50.01824  50.03782  50.06291
          Condensed to atoms (all electrons):
 Mulliken atomic charges:
              1
     1  C   -0.823049
     2  C    1.004729
     3  C   -0.075194
     4  C    0.422975
     5  C    1.129056
     6  C   -1.284994
     7  C   -0.981482
     8  C    0.247005
     9  C    0.328056
    10  C   -0.596498
    11  C   -0.300451
    12  O   -0.188794
    13  C    0.407296
    14  C   -0.216936
    15  C   -1.078214
    16  O   -0.142328
    17  C   -0.537918
    18  C    0.797448
    19  O    0.211459
    20  C   -1.378696
    21  O   -0.053012
    22  C   -0.544602
    23  C   -0.214572
    24  O    0.040622
    25  C    0.744601
    26  C   -1.101161
    27  C   -1.000275
    28  C   -0.705008
    29  C   -0.643268
    30  H    0.242547
    31  H    0.261801
    32  C   -1.176733
    33  H    0.209057
    34  H    0.273307
    35  H    0.279350
    36  H    0.223741
    37  H    0.230041
    38  H    0.217091
    39  H    0.255317
    40  H    0.239931
    41  H    0.281678
    42  H    0.287471
    43  H    0.262716
    44  H    0.278917
    45  H    0.258966
    46  H    0.310292
    47  H    0.238791
    48  H    0.266245
    49  H    0.289894
    50  H    0.259965
    51  H    0.228784
    52  H    0.214329
    53  H    0.266220
    54  H    0.250714
    55  H    0.316028
    56  H    0.265805
    57  H    0.264746
    58  H    0.274974
    59  H    0.250506
    60  H    0.261692
    61  H    0.247733
    62  C   -1.042598
    63  H    0.234423
    64  H    0.266261
    65  H    0.243201
 Sum of Mulliken atomic charges =   0.00000
 Mulliken charges with hydrogens summed into heavy atoms:
              1
     1  C   -0.613992
     2  C    1.004729
     3  C    0.186607
     4  C    0.422975
     5  C    1.129056
     6  C   -0.732337
     7  C   -0.981482
     8  C    0.247005
     9  C    0.328056
    10  C   -0.596498
    11  C   -0.300451
    12  O   -0.188794
    13  C    0.631037
    14  C    0.230196
    15  C   -0.301288
    16  O   -0.142328
    17  C   -0.295371
    18  C    0.797448
    19  O    0.211459
    20  C   -0.828509
    21  O    0.225906
    22  C    0.024656
    23  C    0.024219
    24  O    0.040622
    25  C    0.744601
    26  C   -0.285056
    27  C   -0.557161
    28  C    0.127954
    29  C    0.162256
    32  C   -0.416802
    62  C   -0.298713
 Sum of Mulliken charges with hydrogens summed into heavy atoms =   0.00000
 Electronic spatial extent (au):  <R**2>=          11781.4356
 Charge=              0.0000 electrons
 Dipole moment (field-independent basis, Debye):
    X=              2.5566    Y=              6.5034    Z=             -0.6435  Tot=              7.0174
 Quadrupole moment (field-independent basis, Debye-Ang):
   XX=           -182.7055   YY=           -191.1378   ZZ=           -189.0183
   XY=             -8.7095   XZ=              8.7893   YZ=              5.1666
 Traceless Quadrupole moment (field-independent basis, Debye-Ang):
   XX=              4.9150   YY=             -3.5173   ZZ=             -1.3978
   XY=             -8.7095   XZ=              8.7893   YZ=              5.1666
 Octapole moment (field-independent basis, Debye-Ang**2):
  XXX=             14.4159  YYY=             78.7014  ZZZ=              0.1412  XYY=             14.4986
  XXY=             -0.7455  XXZ=            -20.9717  XZZ=             18.7745  YZZ=              4.3683
  YYZ=            -35.5038  XYZ=              4.2418
 Hexadecapole moment (field-independent basis, Debye-Ang**3):
 XXXX=          -9281.3629 YYYY=          -4214.0474 ZZZZ=          -2661.8282 XXXY=            -80.5066
 XXXZ=             70.5012 YYYX=            -49.2307 YYYZ=              0.1203 ZZZX=             33.1139
 ZZZY=            -12.6771 XXYY=          -2243.7960 XXZZ=          -2024.1077 YYZZ=          -1128.1519
 XXYZ=             90.0443 YYXZ=             12.0618 ZZXY=            -57.1478
 N-N= 3.501879149579D+03 E-N=-1.023669598832D+04  KE= 1.381922263309D+03
 1\1\GINC-B0800\FOpt\RB3LYP\6-311+G(d)\C26H34O5\CAOFEI\14-Apr-2021\0\\#
  opt b3lyp/6-311+g(d) geom=connectivity\\Title Card Required\\0,1\C,1.
 8074914639,0.8402769462,2.737578731\C,2.2663758514,1.7569730919,1.8815
 191778\C,1.8011048375,1.7433791259,0.4441827917\C,1.4143992456,0.34586
 10001,-0.1428635266\C,1.1462483003,-0.7895482314,0.9007568239\C,0.8467
 376051,-0.2407445071,2.3241945976\C,0.2202882058,0.6481718983,-1.10909
 54989\C,-1.1291943131,0.2474773673,-0.5357821427\C,-1.3269665641,-0.88
 94095984,0.1680263205\C,-0.0907292317,-1.6500087899,0.5132078705\C,-2.
 6375763563,-1.3933676975,0.6874931458\O,-2.6711403539,-1.9888353522,1.
 7486832343\C,-3.9113143959,-1.1766469326,-0.1347981915\C,-4.83203134,-
 0.1060014827,0.509660433\C,-4.6197613967,-2.5251660339,-0.3385678602\O
 ,-0.0625836338,-2.8590925957,0.5791594669\C,0.0508651517,2.1783543391,
 -1.1960174024\C,-1.4541769501,2.3571195863,-1.4881468559\O,-2.06016316
 29,1.1647646884,-0.8274634677\C,0.5732069251,2.6484514447,0.1726776324
 \O,0.3633714117,0.0060676761,-2.3629301656\C,2.4438533977,-1.630916381
 7,0.8760864193\C,3.3643627605,-0.96557023,-0.1627702605\O,2.4772810976
 ,-0.1531380563,-0.9653166652\C,4.1418687504,-1.911715956,-1.0463241487
 \C,3.3704154619,-2.7372377628,-2.0426106212\C,5.4646162894,-2.01086707
 35,-0.8998923459\C,-1.7728829769,2.2709670792,-2.9802240492\C,-2.11566
 64085,3.5747732193,-0.8563852703\H,0.6595857025,2.5850342742,-2.006318
 6821\H,2.6153247459,2.0996720574,-0.1980962376\C,3.2120162159,2.857045
 9285,2.2814634798\H,2.1162117826,0.87017659,3.7801655412\H,0.878489795
 4,-1.0782549577,3.0258702528\H,-0.1826591388,0.1341696583,2.3705697996
 \H,-3.6218118978,-0.7887877445,-1.1148656994\H,-4.2657697048,0.8260693
 209,0.6043656785\H,-5.628737408,0.1039361986,-0.2149523296\H,-3.993752
 9242,-3.2158482899,-0.910006293\H,-5.5534454716,-2.3833565795,-0.89159
 09428\H,-4.8498845868,-3.0020905183,0.6145299053\H,-0.1751802954,2.489
 9924542,0.9549108964\H,0.8304713069,3.709626333,0.1884317488\H,1.27284
 71387,-0.3364484006,-2.391979311\H,2.9316065694,-1.6570338417,1.851202
 6748\H,2.1980314349,-2.6588268813,0.6096632792\H,4.0683511102,-0.29349
 0693,0.3403029781\H,2.9806259934,-2.1118133782,-2.8518822048\H,2.50957
 21666,-3.2347246803,-1.5868261179\H,4.0052886009,-3.5018391435,-2.4938
 123\H,6.0517069755,-2.7214686652,-1.4731127074\H,6.0101472549,-1.39030
 67704,-0.1950885191\H,-2.853752877,2.2204187901,-3.1317209289\H,-1.400
 3264619,3.1615557742,-3.494462731\H,-1.3107153214,1.3947702255,-3.4344
 656428\H,-1.6923522985,4.4909110276,-1.2771160141\H,-1.982795739,3.600
 8486939,0.2255426223\H,-3.1876242237,3.5742151775,-1.0657834794\H,3.46
 99567312,2.8021433747,3.3412271492\H,4.1425383884,2.8106436805,1.70334
 30806\H,2.7800512256,3.847162947,2.0941361429\C,-5.4604413951,-0.46422
 6577,1.8591787928\H,-6.0656782662,0.3713796383,2.2243631229\H,-4.70504
 65193,-0.6889604301,2.6141505713\H,-6.118687281,-1.3338273739,1.786895
 2527\\Version=EM64L-G09RevB.01\State=1-A\HF=-1387.6484597\RMSD=6.435e-
 09\RMSF=3.621e-06\Dipole=1.0767911,2.4863733,-0.5300024\Quadrupole=3.6
 131185,-1.454913,-2.1582055,-5.8802402,7.1341011,3.8255286\PG=C01 [X(C
 26H34O5)]\\@


 OLD AGE AND TREACHERY WILL ALWAYS PREVAIL OVER YOUTH AND SKILL.
 Job cpu time:  1 days 23 hours 25 minutes 17.5 seconds.
 File lengths (MBytes):  RWF=    372 Int=      0 D2E=      0 Chk=     38 Scr=      1
 Normal termination of Gaussian 09 at Wed Apr 14 01:02:07 2021.
