 Entering Gaussian System, Link 0=g09
 Initial command:
 /public/software/g09/g09/l1.exe /tmp/Gau-31641.inp -scrdir=/tmp/
 Entering Link 1 = /public/software/g09/g09/l1.exe PID=     31642.
  
 Copyright (c) 1988,1990,1992,1993,1995,1998,2003,2009,2010,
            Gaussian, Inc.  All Rights Reserved.
  
 This is part of the Gaussian(R) 09 program.  It is based on
 the Gaussian(R) 03 system (copyright 2003, Gaussian, Inc.),
 the Gaussian(R) 98 system (copyright 1998, Gaussian, Inc.),
 the Gaussian(R) 94 system (copyright 1995, Gaussian, Inc.),
 the Gaussian 92(TM) system (copyright 1992, Gaussian, Inc.),
 the Gaussian 90(TM) system (copyright 1990, Gaussian, Inc.),
 the Gaussian 88(TM) system (copyright 1988, Gaussian, Inc.),
 the Gaussian 86(TM) system (copyright 1986, Carnegie Mellon
 University), and the Gaussian 82(TM) system (copyright 1983,
 Carnegie Mellon University). Gaussian is a federally registered
 trademark of Gaussian, Inc.
  
 This software contains proprietary and confidential information,
 including trade secrets, belonging to Gaussian, Inc.
  
 This software is provided under written license and may be
 used, copied, transmitted, or stored only in accord with that
 written license.
  
 The following legend is applicable only to US Government
 contracts under FAR:
  
                    RESTRICTED RIGHTS LEGEND
  
 Use, reproduction and disclosure by the US Government is
 subject to restrictions as set forth in subparagraphs (a)
 and (c) of the Commercial Computer Software - Restricted
 Rights clause in FAR 52.227-19.
  
 Gaussian, Inc.
 340 Quinnipiac St., Bldg. 40, Wallingford CT 06492
  
  
 ---------------------------------------------------------------
 Warning -- This program may not be used in any manner that
 competes with the business of Gaussian, Inc. or will provide
 assistance to any competitor of Gaussian, Inc.  The licensee
 of this program is prohibited from giving any competitor of
 Gaussian, Inc. access to this program.  By using this program,
 the user acknowledges that Gaussian, Inc. is engaged in the
 business of creating and licensing software in the field of
 computational chemistry and represents and warrants to the
 licensee that it is not a competitor of Gaussian, Inc. and that
 it will not use this program in any manner prohibited above.
 ---------------------------------------------------------------
  

 Cite this work as:
 Gaussian 09, Revision B.01,
 M. J. Frisch, G. W. Trucks, H. B. Schlegel, G. E. Scuseria, 
 M. A. Robb, J. R. Cheeseman, G. Scalmani, V. Barone, B. Mennucci, 
 G. A. Petersson, H. Nakatsuji, M. Caricato, X. Li, H. P. Hratchian, 
 A. F. Izmaylov, J. Bloino, G. Zheng, J. L. Sonnenberg, M. Hada, 
 M. Ehara, K. Toyota, R. Fukuda, J. Hasegawa, M. Ishida, T. Nakajima, 
 Y. Honda, O. Kitao, H. Nakai, T. Vreven, J. A. Montgomery, Jr., 
 J. E. Peralta, F. Ogliaro, M. Bearpark, J. J. Heyd, E. Brothers, 
 K. N. Kudin, V. N. Staroverov, T. Keith, R. Kobayashi, J. Normand, 
 K. Raghavachari, A. Rendell, J. C. Burant, S. S. Iyengar, J. Tomasi, 
 M. Cossi, N. Rega, J. M. Millam, M. Klene, J. E. Knox, J. B. Cross, 
 V. Bakken, C. Adamo, J. Jaramillo, R. Gomperts, R. E. Stratmann, 
 O. Yazyev, A. J. Austin, R. Cammi, C. Pomelli, J. W. Ochterski, 
 R. L. Martin, K. Morokuma, V. G. Zakrzewski, G. A. Voth, 
 P. Salvador, J. J. Dannenberg, S. Dapprich, A. D. Daniels, 
 O. Farkas, J. B. Foresman, J. V. Ortiz, J. Cioslowski, 
 and D. J. Fox, Gaussian, Inc., Wallingford CT, 2010.
 
 ******************************************
 Gaussian 09:  EM64L-G09RevB.01 12-Aug-2010
                13-Apr-2021 
 ******************************************
 %mem=600MW
 %nprocshared=10
 Will use up to   10 processors via shared memory.
 ----------------------------------------
 # opt b3lyp/6-311+g(d) geom=connectivity
 ----------------------------------------
 1/14=-1,18=20,19=15,26=3,38=1,57=2/1,3;
 2/9=110,12=2,17=6,18=5,40=1/2;
 3/5=4,6=6,7=11,11=2,16=1,25=1,30=1,71=1,74=-5/1,2,3;
 4//1;
 5/5=2,38=5/2;
 6/7=2,8=2,9=2,10=2,28=1/1;
 7//1,2,3,16;
 1/14=-1,18=20,19=15/3(2);
 2/9=110/2;
 99//99;
 2/9=110/2;
 3/5=4,6=6,7=11,11=2,16=1,25=1,30=1,71=1,74=-5/1,2,3;
 4/5=5,16=3/1;
 5/5=2,38=5/2;
 7//1,2,3,16;
 1/14=-1,18=20,19=15/3(-5);
 2/9=110/2;
 6/7=2,8=2,9=2,10=2,19=2,28=1/1;
 99/9=1/99;
 -------------------
 Title Card Required
 -------------------
 Symbolic Z-matrix:
 Charge =  0 Multiplicity = 1
 C                     2.36305   0.45367   2.6871 
 C                     3.05602   1.11355   1.75091 
 C                     2.47849   1.26909   0.3624 
 C                     1.54511   0.11114  -0.1235 
 C                     0.9696   -0.82293   0.98082 
 C                     1.02698  -0.18051   2.40079 
 C                     0.45159   0.83268  -0.9818 
 C                    -0.88392   0.95556  -0.26239 
 C                    -1.44497  -0.07586   0.43954 
 C                    -0.53108  -1.19689   0.74567 
 C                    -2.86877   0.0015    0.92203 
 O                    -3.39141   1.09676   1.07531 
 C                    -3.65395  -1.28773   1.16747 
 C                    -3.93146  -2.00454  -0.18342 
 C                    -4.92922  -1.005     1.96887 
 O                    -0.90504  -2.34136   0.97893 
 C                     0.84332   2.31906  -1.1163 
 C                    -0.52188   3.02645  -1.26292 
 O                    -1.43566   2.14037  -0.49101 
 C                     1.64545   2.56624   0.17466 
 O                     0.21771   0.16558  -2.20631 
 C                     1.87391  -2.07393   0.91824 
 C                     2.63954  -2.0067   -0.42005 
 O                     2.25777  -0.74335  -1.02611 
 C                     2.37442  -3.13735  -1.39333 
 C                     0.94872  -3.39604  -1.81551 
 C                     3.39861  -3.87747  -1.82984 
 C                    -1.0196    3.04365  -2.71009 
 C                    -0.64139   4.40449  -0.62028 
 H                     1.46757   2.47654  -2.00092 
 H                     3.29587   1.29502  -0.37034 
 C                     4.38783   1.76382   2.01935 
 H                     2.75847   0.37005   3.69818 
 H                     0.80436  -0.96259   3.13557 
 H                     0.22505   0.56352   2.50381 
 H                    -3.0085   -1.96605   1.73501 
 H                    -2.9709   -2.26058  -0.64337 
 H                    -4.42251  -2.95961   0.0465 
 H                    -4.68965  -0.58832   2.9529 
 H                    -5.49249  -1.93364   2.11875 
 H                    -5.57413  -0.28193   1.46319 
 H                     0.97463   2.69574   1.03248 
 H                     2.27596   3.45912   0.12259 
 H                     1.01941  -0.38331  -2.33508 
 H                     1.25882  -2.97105   1.01111 
 H                     2.58666  -2.06774   1.74648 
 H                     3.71903  -1.95764  -0.23467 
 H                     0.48299  -2.49789  -2.23646 
 H                     0.32316  -3.68988  -0.96436 
 H                     0.90147  -4.18982  -2.5665 
 H                     3.25231  -4.71345  -2.50916 
 H                     4.4218   -3.67995  -1.51874 
 H                    -2.06543   3.36527  -2.74023 
 H                    -0.42496   3.74898  -3.3019 
 H                    -0.93709   2.0532   -3.16348 
 H                     0.02517   5.11111  -1.12691 
 H                    -0.38504   4.38275   0.44179 
 H                    -1.66747   4.77293  -0.71371 
 H                     4.70572   1.61798   3.05658 
 H                     5.16796   1.35557   1.36195 
 H                     4.35327   2.84515   1.82684 
 C                    -4.79094  -1.21471  -1.17754 
 H                    -4.90403  -1.77379  -2.1136 
 H                    -4.34164  -0.24501  -1.4207 
 H                    -5.79547  -1.02204  -0.78535 
 

 GradGradGradGradGradGradGradGradGradGradGradGradGradGradGradGradGradGrad
 Berny optimization.
 Initialization pass.
                           ----------------------------
                           !    Initial Parameters    !
                           ! (Angstroms and Degrees)  !
 --------------------------                            --------------------------
 ! Name  Definition              Value          Derivative Info.                !
 --------------------------------------------------------------------------------
 ! R1    R(1,2)                  1.3387         estimate D2E/DX2                !
 ! R2    R(1,6)                  1.5064         estimate D2E/DX2                !
 ! R3    R(1,33)                 1.0889         estimate D2E/DX2                !
 ! R4    R(2,3)                  1.5118         estimate D2E/DX2                !
 ! R5    R(2,32)                 1.5062         estimate D2E/DX2                !
 ! R6    R(3,4)                  1.5647         estimate D2E/DX2                !
 ! R7    R(3,20)                 1.553          estimate D2E/DX2                !
 ! R8    R(3,31)                 1.098          estimate D2E/DX2                !
 ! R9    R(4,5)                  1.5567         estimate D2E/DX2                !
 ! R10   R(4,7)                  1.5662         estimate D2E/DX2                !
 ! R11   R(4,24)                 1.4327         estimate D2E/DX2                !
 ! R12   R(5,6)                  1.5596         estimate D2E/DX2                !
 ! R13   R(5,10)                 1.5644         estimate D2E/DX2                !
 ! R14   R(5,22)                 1.5449         estimate D2E/DX2                !
 ! R15   R(6,34)                 1.0959         estimate D2E/DX2                !
 ! R16   R(6,35)                 1.0988         estimate D2E/DX2                !
 ! R17   R(7,8)                  1.5219         estimate D2E/DX2                !
 ! R18   R(7,17)                 1.543          estimate D2E/DX2                !
 ! R19   R(7,21)                 1.4139         estimate D2E/DX2                !
 ! R20   R(8,9)                  1.368          estimate D2E/DX2                !
 ! R21   R(8,19)                 1.3268         estimate D2E/DX2                !
 ! R22   R(9,10)                 1.4784         estimate D2E/DX2                !
 ! R23   R(9,11)                 1.5053         estimate D2E/DX2                !
 ! R24   R(10,16)                1.2264         estimate D2E/DX2                !
 ! R25   R(11,12)                1.2232         estimate D2E/DX2                !
 ! R26   R(11,13)                1.5293         estimate D2E/DX2                !
 ! R27   R(13,14)                1.5543         estimate D2E/DX2                !
 ! R28   R(13,15)                1.5325         estimate D2E/DX2                !
 ! R29   R(13,36)                1.0949         estimate D2E/DX2                !
 ! R30   R(14,37)                1.0953         estimate D2E/DX2                !
 ! R31   R(14,38)                1.0982         estimate D2E/DX2                !
 ! R32   R(14,62)                1.5332         estimate D2E/DX2                !
 ! R33   R(15,39)                1.0951         estimate D2E/DX2                !
 ! R34   R(15,40)                1.0964         estimate D2E/DX2                !
 ! R35   R(15,41)                1.0929         estimate D2E/DX2                !
 ! R36   R(17,18)                1.5446         estimate D2E/DX2                !
 ! R37   R(17,20)                1.5398         estimate D2E/DX2                !
 ! R38   R(17,30)                1.0941         estimate D2E/DX2                !
 ! R39   R(18,19)                1.4886         estimate D2E/DX2                !
 ! R40   R(18,28)                1.5305         estimate D2E/DX2                !
 ! R41   R(18,29)                1.5252         estimate D2E/DX2                !
 ! R42   R(20,42)                1.0966         estimate D2E/DX2                !
 ! R43   R(20,43)                1.0943         estimate D2E/DX2                !
 ! R44   R(21,44)                0.9801         estimate D2E/DX2                !
 ! R45   R(22,23)                1.5433         estimate D2E/DX2                !
 ! R46   R(22,45)                1.0917         estimate D2E/DX2                !
 ! R47   R(22,46)                1.0927         estimate D2E/DX2                !
 ! R48   R(23,24)                1.4523         estimate D2E/DX2                !
 ! R49   R(23,25)                1.5152         estimate D2E/DX2                !
 ! R50   R(23,47)                1.0964         estimate D2E/DX2                !
 ! R51   R(24,44)                1.8375         estimate D2E/DX2                !
 ! R52   R(25,26)                1.5092         estimate D2E/DX2                !
 ! R53   R(25,27)                1.3369         estimate D2E/DX2                !
 ! R54   R(26,48)                1.0958         estimate D2E/DX2                !
 ! R55   R(26,49)                1.0964         estimate D2E/DX2                !
 ! R56   R(26,50)                1.0938         estimate D2E/DX2                !
 ! R57   R(27,51)                1.0871         estimate D2E/DX2                !
 ! R58   R(27,52)                1.0875         estimate D2E/DX2                !
 ! R59   R(28,53)                1.0946         estimate D2E/DX2                !
 ! R60   R(28,54)                1.0961         estimate D2E/DX2                !
 ! R61   R(28,55)                1.0924         estimate D2E/DX2                !
 ! R62   R(29,56)                1.0956         estimate D2E/DX2                !
 ! R63   R(29,57)                1.0928         estimate D2E/DX2                !
 ! R64   R(29,58)                1.0942         estimate D2E/DX2                !
 ! R65   R(32,59)                1.0946         estimate D2E/DX2                !
 ! R66   R(32,60)                1.0988         estimate D2E/DX2                !
 ! R67   R(32,61)                1.0989         estimate D2E/DX2                !
 ! R68   R(62,63)                1.0962         estimate D2E/DX2                !
 ! R69   R(62,64)                1.096          estimate D2E/DX2                !
 ! R70   R(62,65)                1.0954         estimate D2E/DX2                !
 ! A1    A(2,1,6)              122.2571         estimate D2E/DX2                !
 ! A2    A(2,1,33)             119.9502         estimate D2E/DX2                !
 ! A3    A(6,1,33)             117.7902         estimate D2E/DX2                !
 ! A4    A(1,2,3)              119.6861         estimate D2E/DX2                !
 ! A5    A(1,2,32)             123.085          estimate D2E/DX2                !
 ! A6    A(3,2,32)             117.1966         estimate D2E/DX2                !
 ! A7    A(2,3,4)              115.9097         estimate D2E/DX2                !
 ! A8    A(2,3,20)             113.695          estimate D2E/DX2                !
 ! A9    A(2,3,31)             109.3259         estimate D2E/DX2                !
 ! A10   A(4,3,20)             105.1065         estimate D2E/DX2                !
 ! A11   A(4,3,31)             104.7327         estimate D2E/DX2                !
 ! A12   A(20,3,31)            107.3918         estimate D2E/DX2                !
 ! A13   A(3,4,5)              116.3792         estimate D2E/DX2                !
 ! A14   A(3,4,7)              104.2259         estimate D2E/DX2                !
 ! A15   A(3,4,24)             109.8951         estimate D2E/DX2                !
 ! A16   A(5,4,7)              114.0203         estimate D2E/DX2                !
 ! A17   A(5,4,24)             105.8398         estimate D2E/DX2                !
 ! A18   A(7,4,24)             106.0693         estimate D2E/DX2                !
 ! A19   A(4,5,6)              112.6521         estimate D2E/DX2                !
 ! A20   A(4,5,10)             113.0454         estimate D2E/DX2                !
 ! A21   A(4,5,22)             103.9307         estimate D2E/DX2                !
 ! A22   A(6,5,10)             105.7014         estimate D2E/DX2                !
 ! A23   A(6,5,22)             110.4203         estimate D2E/DX2                !
 ! A24   A(10,5,22)            111.2149         estimate D2E/DX2                !
 ! A25   A(1,6,5)              112.277          estimate D2E/DX2                !
 ! A26   A(1,6,34)             110.6804         estimate D2E/DX2                !
 ! A27   A(1,6,35)             110.1471         estimate D2E/DX2                !
 ! A28   A(5,6,34)             107.9995         estimate D2E/DX2                !
 ! A29   A(5,6,35)             109.7213         estimate D2E/DX2                !
 ! A30   A(34,6,35)            105.7899         estimate D2E/DX2                !
 ! A31   A(4,7,8)              113.0062         estimate D2E/DX2                !
 ! A32   A(4,7,17)             108.3178         estimate D2E/DX2                !
 ! A33   A(4,7,21)             111.884          estimate D2E/DX2                !
 ! A34   A(8,7,17)             100.7315         estimate D2E/DX2                !
 ! A35   A(8,7,21)             107.5969         estimate D2E/DX2                !
 ! A36   A(17,7,21)            114.8977         estimate D2E/DX2                !
 ! A37   A(7,8,9)              122.791          estimate D2E/DX2                !
 ! A38   A(7,8,19)             110.8273         estimate D2E/DX2                !
 ! A39   A(9,8,19)             126.2387         estimate D2E/DX2                !
 ! A40   A(8,9,10)             115.1162         estimate D2E/DX2                !
 ! A41   A(8,9,11)             120.9068         estimate D2E/DX2                !
 ! A42   A(10,9,11)            123.8685         estimate D2E/DX2                !
 ! A43   A(5,10,9)             116.2869         estimate D2E/DX2                !
 ! A44   A(5,10,16)            119.1433         estimate D2E/DX2                !
 ! A45   A(9,10,16)            123.9535         estimate D2E/DX2                !
 ! A46   A(9,11,12)            119.3609         estimate D2E/DX2                !
 ! A47   A(9,11,13)            119.5858         estimate D2E/DX2                !
 ! A48   A(12,11,13)           121.0207         estimate D2E/DX2                !
 ! A49   A(11,13,14)           109.9354         estimate D2E/DX2                !
 ! A50   A(11,13,15)           110.8328         estimate D2E/DX2                !
 ! A51   A(11,13,36)           107.6254         estimate D2E/DX2                !
 ! A52   A(14,13,15)           113.0184         estimate D2E/DX2                !
 ! A53   A(14,13,36)           105.6676         estimate D2E/DX2                !
 ! A54   A(15,13,36)           109.4989         estimate D2E/DX2                !
 ! A55   A(13,14,37)           108.4332         estimate D2E/DX2                !
 ! A56   A(13,14,38)           107.3937         estimate D2E/DX2                !
 ! A57   A(13,14,62)           115.217          estimate D2E/DX2                !
 ! A58   A(37,14,38)           106.0654         estimate D2E/DX2                !
 ! A59   A(37,14,62)           109.8611         estimate D2E/DX2                !
 ! A60   A(38,14,62)           109.4557         estimate D2E/DX2                !
 ! A61   A(13,15,39)           110.9803         estimate D2E/DX2                !
 ! A62   A(13,15,40)           110.0443         estimate D2E/DX2                !
 ! A63   A(13,15,41)           111.7861         estimate D2E/DX2                !
 ! A64   A(39,15,40)           108.1685         estimate D2E/DX2                !
 ! A65   A(39,15,41)           107.0438         estimate D2E/DX2                !
 ! A66   A(40,15,41)           108.6908         estimate D2E/DX2                !
 ! A67   A(7,17,18)            103.0063         estimate D2E/DX2                !
 ! A68   A(7,17,20)            102.3454         estimate D2E/DX2                !
 ! A69   A(7,17,30)            110.7312         estimate D2E/DX2                !
 ! A70   A(18,17,20)           117.807          estimate D2E/DX2                !
 ! A71   A(18,17,30)           111.2006         estimate D2E/DX2                !
 ! A72   A(20,17,30)           110.9492         estimate D2E/DX2                !
 ! A73   A(17,18,19)           102.752          estimate D2E/DX2                !
 ! A74   A(17,18,28)           112.4792         estimate D2E/DX2                !
 ! A75   A(17,18,29)           116.2987         estimate D2E/DX2                !
 ! A76   A(19,18,28)           107.3007         estimate D2E/DX2                !
 ! A77   A(19,18,29)           105.7367         estimate D2E/DX2                !
 ! A78   A(28,18,29)           111.2711         estimate D2E/DX2                !
 ! A79   A(8,19,18)            111.4454         estimate D2E/DX2                !
 ! A80   A(3,20,17)            104.282          estimate D2E/DX2                !
 ! A81   A(3,20,42)            109.4018         estimate D2E/DX2                !
 ! A82   A(3,20,43)            112.2221         estimate D2E/DX2                !
 ! A83   A(17,20,42)           110.8613         estimate D2E/DX2                !
 ! A84   A(17,20,43)           113.0311         estimate D2E/DX2                !
 ! A85   A(42,20,43)           107.0571         estimate D2E/DX2                !
 ! A86   A(7,21,44)            104.0465         estimate D2E/DX2                !
 ! A87   A(5,22,23)            106.8729         estimate D2E/DX2                !
 ! A88   A(5,22,45)            109.4018         estimate D2E/DX2                !
 ! A89   A(5,22,46)            110.2743         estimate D2E/DX2                !
 ! A90   A(23,22,45)           112.8979         estimate D2E/DX2                !
 ! A91   A(23,22,46)           109.4782         estimate D2E/DX2                !
 ! A92   A(45,22,46)           107.9194         estimate D2E/DX2                !
 ! A93   A(22,23,24)           105.6266         estimate D2E/DX2                !
 ! A94   A(22,23,25)           115.9577         estimate D2E/DX2                !
 ! A95   A(22,23,47)           110.1076         estimate D2E/DX2                !
 ! A96   A(24,23,25)           109.5764         estimate D2E/DX2                !
 ! A97   A(24,23,47)           106.8852         estimate D2E/DX2                !
 ! A98   A(25,23,47)           108.3165         estimate D2E/DX2                !
 ! A99   A(4,24,23)            112.7473         estimate D2E/DX2                !
 ! A100  A(23,25,26)           118.22           estimate D2E/DX2                !
 ! A101  A(23,25,27)           119.2607         estimate D2E/DX2                !
 ! A102  A(26,25,27)           122.512          estimate D2E/DX2                !
 ! A103  A(25,26,48)           111.6209         estimate D2E/DX2                !
 ! A104  A(25,26,49)           111.5774         estimate D2E/DX2                !
 ! A105  A(25,26,50)           110.9322         estimate D2E/DX2                !
 ! A106  A(48,26,49)           105.9855         estimate D2E/DX2                !
 ! A107  A(48,26,50)           108.2224         estimate D2E/DX2                !
 ! A108  A(49,26,50)           108.2928         estimate D2E/DX2                !
 ! A109  A(25,27,51)           121.7808         estimate D2E/DX2                !
 ! A110  A(25,27,52)           121.7918         estimate D2E/DX2                !
 ! A111  A(51,27,52)           116.426          estimate D2E/DX2                !
 ! A112  A(18,28,53)           109.8804         estimate D2E/DX2                !
 ! A113  A(18,28,54)           109.9599         estimate D2E/DX2                !
 ! A114  A(18,28,55)           110.9588         estimate D2E/DX2                !
 ! A115  A(53,28,54)           108.325          estimate D2E/DX2                !
 ! A116  A(53,28,55)           109.0955         estimate D2E/DX2                !
 ! A117  A(54,28,55)           108.5652         estimate D2E/DX2                !
 ! A118  A(18,29,56)           109.8906         estimate D2E/DX2                !
 ! A119  A(18,29,57)           111.91           estimate D2E/DX2                !
 ! A120  A(18,29,58)           109.9818         estimate D2E/DX2                !
 ! A121  A(56,29,57)           108.6358         estimate D2E/DX2                !
 ! A122  A(56,29,58)           108.2924         estimate D2E/DX2                !
 ! A123  A(57,29,58)           108.0381         estimate D2E/DX2                !
 ! A124  A(2,32,59)            111.6019         estimate D2E/DX2                !
 ! A125  A(2,32,60)            111.1454         estimate D2E/DX2                !
 ! A126  A(2,32,61)            111.4568         estimate D2E/DX2                !
 ! A127  A(59,32,60)           108.1332         estimate D2E/DX2                !
 ! A128  A(59,32,61)           107.8331         estimate D2E/DX2                !
 ! A129  A(60,32,61)           106.4459         estimate D2E/DX2                !
 ! A130  A(14,62,63)           110.412          estimate D2E/DX2                !
 ! A131  A(14,62,64)           111.7038         estimate D2E/DX2                !
 ! A132  A(14,62,65)           111.871          estimate D2E/DX2                !
 ! A133  A(63,62,64)           107.7029         estimate D2E/DX2                !
 ! A134  A(63,62,65)           107.5076         estimate D2E/DX2                !
 ! A135  A(64,62,65)           107.4409         estimate D2E/DX2                !
 ! D1    D(6,1,2,3)              1.6228         estimate D2E/DX2                !
 ! D2    D(6,1,2,32)           179.5005         estimate D2E/DX2                !
 ! D3    D(33,1,2,3)          -177.7921         estimate D2E/DX2                !
 ! D4    D(33,1,2,32)            0.0856         estimate D2E/DX2                !
 ! D5    D(2,1,6,5)             37.9631         estimate D2E/DX2                !
 ! D6    D(2,1,6,34)           158.7316         estimate D2E/DX2                !
 ! D7    D(2,1,6,35)           -84.6339         estimate D2E/DX2                !
 ! D8    D(33,1,6,5)          -142.6099         estimate D2E/DX2                !
 ! D9    D(33,1,6,34)          -21.8415         estimate D2E/DX2                !
 ! D10   D(33,1,6,35)           94.7931         estimate D2E/DX2                !
 ! D11   D(1,2,3,4)            -30.5692         estimate D2E/DX2                !
 ! D12   D(1,2,3,20)            91.4096         estimate D2E/DX2                !
 ! D13   D(1,2,3,31)          -148.602          estimate D2E/DX2                !
 ! D14   D(32,2,3,4)           151.43           estimate D2E/DX2                !
 ! D15   D(32,2,3,20)          -86.5913         estimate D2E/DX2                !
 ! D16   D(32,2,3,31)           33.3972         estimate D2E/DX2                !
 ! D17   D(1,2,32,59)            0.4878         estimate D2E/DX2                !
 ! D18   D(1,2,32,60)          121.2886         estimate D2E/DX2                !
 ! D19   D(1,2,32,61)         -120.1454         estimate D2E/DX2                !
 ! D20   D(3,2,32,59)          178.4148         estimate D2E/DX2                !
 ! D21   D(3,2,32,60)          -60.7844         estimate D2E/DX2                !
 ! D22   D(3,2,32,61)           57.7817         estimate D2E/DX2                !
 ! D23   D(2,3,4,5)             18.046          estimate D2E/DX2                !
 ! D24   D(2,3,4,7)            144.5217         estimate D2E/DX2                !
 ! D25   D(2,3,4,24)          -102.1855         estimate D2E/DX2                !
 ! D26   D(20,3,4,5)          -108.3884         estimate D2E/DX2                !
 ! D27   D(20,3,4,7)            18.0873         estimate D2E/DX2                !
 ! D28   D(20,3,4,24)          131.3801         estimate D2E/DX2                !
 ! D29   D(31,3,4,5)           138.5881         estimate D2E/DX2                !
 ! D30   D(31,3,4,7)           -94.9363         estimate D2E/DX2                !
 ! D31   D(31,3,4,24)           18.3565         estimate D2E/DX2                !
 ! D32   D(2,3,20,17)         -164.0697         estimate D2E/DX2                !
 ! D33   D(2,3,20,42)          -45.4338         estimate D2E/DX2                !
 ! D34   D(2,3,20,43)           73.2399         estimate D2E/DX2                !
 ! D35   D(4,3,20,17)          -36.2825         estimate D2E/DX2                !
 ! D36   D(4,3,20,42)           82.3534         estimate D2E/DX2                !
 ! D37   D(4,3,20,43)         -158.9729         estimate D2E/DX2                !
 ! D38   D(31,3,20,17)          74.8535         estimate D2E/DX2                !
 ! D39   D(31,3,20,42)        -166.5105         estimate D2E/DX2                !
 ! D40   D(31,3,20,43)         -47.8369         estimate D2E/DX2                !
 ! D41   D(3,4,5,6)             19.2249         estimate D2E/DX2                !
 ! D42   D(3,4,5,10)           138.9747         estimate D2E/DX2                !
 ! D43   D(3,4,5,22)          -100.3156         estimate D2E/DX2                !
 ! D44   D(7,4,5,6)           -102.1971         estimate D2E/DX2                !
 ! D45   D(7,4,5,10)            17.5526         estimate D2E/DX2                !
 ! D46   D(7,4,5,22)           138.2623         estimate D2E/DX2                !
 ! D47   D(24,4,5,6)           141.6067         estimate D2E/DX2                !
 ! D48   D(24,4,5,10)          -98.6436         estimate D2E/DX2                !
 ! D49   D(24,4,5,22)           22.0661         estimate D2E/DX2                !
 ! D50   D(3,4,7,8)           -104.3331         estimate D2E/DX2                !
 ! D51   D(3,4,7,17)             6.3786         estimate D2E/DX2                !
 ! D52   D(3,4,7,21)           134.0324         estimate D2E/DX2                !
 ! D53   D(5,4,7,8)             23.6047         estimate D2E/DX2                !
 ! D54   D(5,4,7,17)           134.3164         estimate D2E/DX2                !
 ! D55   D(5,4,7,21)           -98.0298         estimate D2E/DX2                !
 ! D56   D(24,4,7,8)           139.6672         estimate D2E/DX2                !
 ! D57   D(24,4,7,17)         -109.6211         estimate D2E/DX2                !
 ! D58   D(24,4,7,21)           18.0326         estimate D2E/DX2                !
 ! D59   D(3,4,24,23)          105.0925         estimate D2E/DX2                !
 ! D60   D(5,4,24,23)          -21.3374         estimate D2E/DX2                !
 ! D61   D(7,4,24,23)         -142.808          estimate D2E/DX2                !
 ! D62   D(4,5,6,1)            -46.1434         estimate D2E/DX2                !
 ! D63   D(4,5,6,34)          -168.4454         estimate D2E/DX2                !
 ! D64   D(4,5,6,35)            76.694          estimate D2E/DX2                !
 ! D65   D(10,5,6,1)          -170.0569         estimate D2E/DX2                !
 ! D66   D(10,5,6,34)           67.6411         estimate D2E/DX2                !
 ! D67   D(10,5,6,35)          -47.2195         estimate D2E/DX2                !
 ! D68   D(22,5,6,1)            69.5614         estimate D2E/DX2                !
 ! D69   D(22,5,6,34)          -52.7406         estimate D2E/DX2                !
 ! D70   D(22,5,6,35)         -167.6012         estimate D2E/DX2                !
 ! D71   D(4,5,10,9)           -48.4963         estimate D2E/DX2                !
 ! D72   D(4,5,10,16)          140.1452         estimate D2E/DX2                !
 ! D73   D(6,5,10,9)            75.1695         estimate D2E/DX2                !
 ! D74   D(6,5,10,16)          -96.189          estimate D2E/DX2                !
 ! D75   D(22,5,10,9)         -164.9696         estimate D2E/DX2                !
 ! D76   D(22,5,10,16)          23.6719         estimate D2E/DX2                !
 ! D77   D(4,5,22,23)          -15.5957         estimate D2E/DX2                !
 ! D78   D(4,5,22,45)         -138.1362         estimate D2E/DX2                !
 ! D79   D(4,5,22,46)          103.3188         estimate D2E/DX2                !
 ! D80   D(6,5,22,23)         -136.644          estimate D2E/DX2                !
 ! D81   D(6,5,22,45)          100.8155         estimate D2E/DX2                !
 ! D82   D(6,5,22,46)          -17.7294         estimate D2E/DX2                !
 ! D83   D(10,5,22,23)         106.3373         estimate D2E/DX2                !
 ! D84   D(10,5,22,45)         -16.2032         estimate D2E/DX2                !
 ! D85   D(10,5,22,46)        -134.7481         estimate D2E/DX2                !
 ! D86   D(4,7,8,9)            -44.2937         estimate D2E/DX2                !
 ! D87   D(4,7,8,19)           139.8062         estimate D2E/DX2                !
 ! D88   D(17,7,8,9)          -159.6341         estimate D2E/DX2                !
 ! D89   D(17,7,8,19)           24.4658         estimate D2E/DX2                !
 ! D90   D(21,7,8,9)            79.7263         estimate D2E/DX2                !
 ! D91   D(21,7,8,19)          -96.1739         estimate D2E/DX2                !
 ! D92   D(4,7,17,18)         -151.0494         estimate D2E/DX2                !
 ! D93   D(4,7,17,20)          -28.3205         estimate D2E/DX2                !
 ! D94   D(4,7,17,30)           89.9855         estimate D2E/DX2                !
 ! D95   D(8,7,17,18)          -32.2487         estimate D2E/DX2                !
 ! D96   D(8,7,17,20)           90.4802         estimate D2E/DX2                !
 ! D97   D(8,7,17,30)         -151.2138         estimate D2E/DX2                !
 ! D98   D(21,7,17,18)          83.0407         estimate D2E/DX2                !
 ! D99   D(21,7,17,20)        -154.2303         estimate D2E/DX2                !
 ! D100  D(21,7,17,30)         -35.9243         estimate D2E/DX2                !
 ! D101  D(4,7,21,44)          -19.6877         estimate D2E/DX2                !
 ! D102  D(8,7,21,44)         -144.3857         estimate D2E/DX2                !
 ! D103  D(17,7,21,44)         104.3562         estimate D2E/DX2                !
 ! D104  D(7,8,9,10)            14.8716         estimate D2E/DX2                !
 ! D105  D(7,8,9,11)          -168.7725         estimate D2E/DX2                !
 ! D106  D(19,8,9,10)         -169.8807         estimate D2E/DX2                !
 ! D107  D(19,8,9,11)            6.4751         estimate D2E/DX2                !
 ! D108  D(7,8,19,18)           -5.6554         estimate D2E/DX2                !
 ! D109  D(9,8,19,18)          178.618          estimate D2E/DX2                !
 ! D110  D(8,9,10,5)            32.5202         estimate D2E/DX2                !
 ! D111  D(8,9,10,16)         -156.5826         estimate D2E/DX2                !
 ! D112  D(11,9,10,5)         -143.714          estimate D2E/DX2                !
 ! D113  D(11,9,10,16)          27.1832         estimate D2E/DX2                !
 ! D114  D(8,9,11,12)          -23.1809         estimate D2E/DX2                !
 ! D115  D(8,9,11,13)          154.765          estimate D2E/DX2                !
 ! D116  D(10,9,11,12)         152.8447         estimate D2E/DX2                !
 ! D117  D(10,9,11,13)         -29.2094         estimate D2E/DX2                !
 ! D118  D(9,11,13,14)         -68.3398         estimate D2E/DX2                !
 ! D119  D(9,11,13,15)         165.9942         estimate D2E/DX2                !
 ! D120  D(9,11,13,36)          46.2834         estimate D2E/DX2                !
 ! D121  D(12,11,13,14)        109.5712         estimate D2E/DX2                !
 ! D122  D(12,11,13,15)        -16.0948         estimate D2E/DX2                !
 ! D123  D(12,11,13,36)       -135.8056         estimate D2E/DX2                !
 ! D124  D(11,13,14,37)         61.2929         estimate D2E/DX2                !
 ! D125  D(11,13,14,38)        175.5032         estimate D2E/DX2                !
 ! D126  D(11,13,14,62)        -62.2663         estimate D2E/DX2                !
 ! D127  D(15,13,14,37)       -174.2958         estimate D2E/DX2                !
 ! D128  D(15,13,14,38)        -60.0854         estimate D2E/DX2                !
 ! D129  D(15,13,14,62)         62.1451         estimate D2E/DX2                !
 ! D130  D(36,13,14,37)        -54.5719         estimate D2E/DX2                !
 ! D131  D(36,13,14,38)         59.6384         estimate D2E/DX2                !
 ! D132  D(36,13,14,62)       -178.131          estimate D2E/DX2                !
 ! D133  D(11,13,15,39)        -61.5157         estimate D2E/DX2                !
 ! D134  D(11,13,15,40)        178.7886         estimate D2E/DX2                !
 ! D135  D(11,13,15,41)         57.9123         estimate D2E/DX2                !
 ! D136  D(14,13,15,39)        174.5643         estimate D2E/DX2                !
 ! D137  D(14,13,15,40)         54.8686         estimate D2E/DX2                !
 ! D138  D(14,13,15,41)        -66.0077         estimate D2E/DX2                !
 ! D139  D(36,13,15,39)         57.0668         estimate D2E/DX2                !
 ! D140  D(36,13,15,40)        -62.6288         estimate D2E/DX2                !
 ! D141  D(36,13,15,41)        176.4948         estimate D2E/DX2                !
 ! D142  D(13,14,62,63)        177.7817         estimate D2E/DX2                !
 ! D143  D(13,14,62,64)         57.9582         estimate D2E/DX2                !
 ! D144  D(13,14,62,65)        -62.5314         estimate D2E/DX2                !
 ! D145  D(37,14,62,63)         54.9808         estimate D2E/DX2                !
 ! D146  D(37,14,62,64)        -64.8427         estimate D2E/DX2                !
 ! D147  D(37,14,62,65)        174.6677         estimate D2E/DX2                !
 ! D148  D(38,14,62,63)        -61.1012         estimate D2E/DX2                !
 ! D149  D(38,14,62,64)        179.0753         estimate D2E/DX2                !
 ! D150  D(38,14,62,65)         58.5857         estimate D2E/DX2                !
 ! D151  D(7,17,18,19)          29.8654         estimate D2E/DX2                !
 ! D152  D(7,17,18,28)         -85.1983         estimate D2E/DX2                !
 ! D153  D(7,17,18,29)         144.8279         estimate D2E/DX2                !
 ! D154  D(20,17,18,19)        -81.8442         estimate D2E/DX2                !
 ! D155  D(20,17,18,28)        163.0922         estimate D2E/DX2                !
 ! D156  D(20,17,18,29)         33.1184         estimate D2E/DX2                !
 ! D157  D(30,17,18,19)        148.5033         estimate D2E/DX2                !
 ! D158  D(30,17,18,28)         33.4397         estimate D2E/DX2                !
 ! D159  D(30,17,18,29)        -96.5341         estimate D2E/DX2                !
 ! D160  D(7,17,20,3)           39.3839         estimate D2E/DX2                !
 ! D161  D(7,17,20,42)         -78.2515         estimate D2E/DX2                !
 ! D162  D(7,17,20,43)         161.5434         estimate D2E/DX2                !
 ! D163  D(18,17,20,3)         151.4633         estimate D2E/DX2                !
 ! D164  D(18,17,20,42)         33.8279         estimate D2E/DX2                !
 ! D165  D(18,17,20,43)        -86.3771         estimate D2E/DX2                !
 ! D166  D(30,17,20,3)         -78.7676         estimate D2E/DX2                !
 ! D167  D(30,17,20,42)        163.597          estimate D2E/DX2                !
 ! D168  D(30,17,20,43)         43.392          estimate D2E/DX2                !
 ! D169  D(17,18,19,8)         -15.7855         estimate D2E/DX2                !
 ! D170  D(28,18,19,8)         102.9708         estimate D2E/DX2                !
 ! D171  D(29,18,19,8)        -138.178          estimate D2E/DX2                !
 ! D172  D(17,18,28,53)        168.5553         estimate D2E/DX2                !
 ! D173  D(17,18,28,54)        -72.2994         estimate D2E/DX2                !
 ! D174  D(17,18,28,55)         47.8226         estimate D2E/DX2                !
 ! D175  D(19,18,28,53)         56.278          estimate D2E/DX2                !
 ! D176  D(19,18,28,54)        175.4234         estimate D2E/DX2                !
 ! D177  D(19,18,28,55)        -64.4546         estimate D2E/DX2                !
 ! D178  D(29,18,28,53)        -58.9419         estimate D2E/DX2                !
 ! D179  D(29,18,28,54)         60.2034         estimate D2E/DX2                !
 ! D180  D(29,18,28,55)       -179.6746         estimate D2E/DX2                !
 ! D181  D(17,18,29,56)         65.5288         estimate D2E/DX2                !
 ! D182  D(17,18,29,57)        -55.2549         estimate D2E/DX2                !
 ! D183  D(17,18,29,58)       -175.3462         estimate D2E/DX2                !
 ! D184  D(19,18,29,56)        178.7986         estimate D2E/DX2                !
 ! D185  D(19,18,29,57)         58.0148         estimate D2E/DX2                !
 ! D186  D(19,18,29,58)        -62.0764         estimate D2E/DX2                !
 ! D187  D(28,18,29,56)        -65.0177         estimate D2E/DX2                !
 ! D188  D(28,18,29,57)        174.1985         estimate D2E/DX2                !
 ! D189  D(28,18,29,58)         54.1073         estimate D2E/DX2                !
 ! D190  D(5,22,23,24)           3.779          estimate D2E/DX2                !
 ! D191  D(5,22,23,25)        -117.7632         estimate D2E/DX2                !
 ! D192  D(5,22,23,47)         118.8398         estimate D2E/DX2                !
 ! D193  D(45,22,23,24)        124.1062         estimate D2E/DX2                !
 ! D194  D(45,22,23,25)          2.564          estimate D2E/DX2                !
 ! D195  D(45,22,23,47)       -120.833          estimate D2E/DX2                !
 ! D196  D(46,22,23,24)       -115.6511         estimate D2E/DX2                !
 ! D197  D(46,22,23,25)        122.8066         estimate D2E/DX2                !
 ! D198  D(46,22,23,47)         -0.5904         estimate D2E/DX2                !
 ! D199  D(22,23,24,4)          11.1894         estimate D2E/DX2                !
 ! D200  D(25,23,24,4)         136.7709         estimate D2E/DX2                !
 ! D201  D(47,23,24,4)        -106.0664         estimate D2E/DX2                !
 ! D202  D(22,23,25,26)         56.2182         estimate D2E/DX2                !
 ! D203  D(22,23,25,27)       -122.8198         estimate D2E/DX2                !
 ! D204  D(24,23,25,26)        -63.1943         estimate D2E/DX2                !
 ! D205  D(24,23,25,27)        117.7677         estimate D2E/DX2                !
 ! D206  D(47,23,25,26)       -179.4546         estimate D2E/DX2                !
 ! D207  D(47,23,25,27)          1.5074         estimate D2E/DX2                !
 ! D208  D(23,25,26,48)         55.4373         estimate D2E/DX2                !
 ! D209  D(23,25,26,49)        -62.9421         estimate D2E/DX2                !
 ! D210  D(23,25,26,50)        176.2177         estimate D2E/DX2                !
 ! D211  D(27,25,26,48)       -125.558          estimate D2E/DX2                !
 ! D212  D(27,25,26,49)        116.0627         estimate D2E/DX2                !
 ! D213  D(27,25,26,50)         -4.7776         estimate D2E/DX2                !
 ! D214  D(23,25,27,51)        178.48           estimate D2E/DX2                !
 ! D215  D(23,25,27,52)         -1.0708         estimate D2E/DX2                !
 ! D216  D(26,25,27,51)         -0.5148         estimate D2E/DX2                !
 ! D217  D(26,25,27,52)        179.9345         estimate D2E/DX2                !
 --------------------------------------------------------------------------------
 Trust Radius=3.00D-01 FncErr=1.00D-07 GrdErr=1.00D-06
 Number of steps in this run=    390 maximum allowed number of steps=    390.
 GradGradGradGradGradGradGradGradGradGradGradGradGradGradGradGradGradGrad

 Stoichiometry    C26H34O5
 Framework group  C1[X(C26H34O5)]
 Deg. of freedom   189
 Full point group                 C1      NOp   1
 Largest Abelian subgroup         C1      NOp   1
 Largest concise Abelian subgroup C1      NOp   1
                         Standard orientation:                         
 ---------------------------------------------------------------------
 Center     Atomic      Atomic             Coordinates (Angstroms)
 Number     Number       Type             X           Y           Z
 ---------------------------------------------------------------------
      1          6           0        2.363053    0.453669    2.687096
      2          6           0        3.056022    1.113549    1.750905
      3          6           0        2.478492    1.269089    0.362399
      4          6           0        1.545114    0.111142   -0.123502
      5          6           0        0.969602   -0.822930    0.980821
      6          6           0        1.026978   -0.180508    2.400793
      7          6           0        0.451585    0.832675   -0.981799
      8          6           0       -0.883923    0.955555   -0.262392
      9          6           0       -1.444965   -0.075858    0.439543
     10          6           0       -0.531084   -1.196888    0.745667
     11          6           0       -2.868773    0.001500    0.922026
     12          8           0       -3.391409    1.096759    1.075313
     13          6           0       -3.653950   -1.287732    1.167470
     14          6           0       -3.931457   -2.004543   -0.183422
     15          6           0       -4.929216   -1.005005    1.968872
     16          8           0       -0.905037   -2.341359    0.978933
     17          6           0        0.843319    2.319060   -1.116300
     18          6           0       -0.521882    3.026447   -1.262921
     19          8           0       -1.435664    2.140372   -0.491009
     20          6           0        1.645448    2.566244    0.174658
     21          8           0        0.217705    0.165578   -2.206307
     22          6           0        1.873910   -2.073928    0.918239
     23          6           0        2.639535   -2.006701   -0.420048
     24          8           0        2.257765   -0.743347   -1.026112
     25          6           0        2.374422   -3.137349   -1.393334
     26          6           0        0.948716   -3.396035   -1.815507
     27          6           0        3.398610   -3.877465   -1.829838
     28          6           0       -1.019595    3.043645   -2.710089
     29          6           0       -0.641387    4.404488   -0.620280
     30          1           0        1.467570    2.476539   -2.000924
     31          1           0        3.295869    1.295023   -0.370338
     32          6           0        4.387829    1.763816    2.019351
     33          1           0        2.758470    0.370048    3.698175
     34          1           0        0.804363   -0.962587    3.135571
     35          1           0        0.225048    0.563523    2.503812
     36          1           0       -3.008502   -1.966051    1.735009
     37          1           0       -2.970897   -2.260584   -0.643374
     38          1           0       -4.422510   -2.959611    0.046500
     39          1           0       -4.689651   -0.588323    2.952902
     40          1           0       -5.492488   -1.933639    2.118752
     41          1           0       -5.574127   -0.281934    1.463191
     42          1           0        0.974633    2.695740    1.032475
     43          1           0        2.275960    3.459116    0.122587
     44          1           0        1.019414   -0.383311   -2.335078
     45          1           0        1.258816   -2.971054    1.011115
     46          1           0        2.586655   -2.067737    1.746483
     47          1           0        3.719026   -1.957637   -0.234671
     48          1           0        0.482989   -2.497894   -2.236463
     49          1           0        0.323158   -3.689880   -0.964359
     50          1           0        0.901469   -4.189819   -2.566500
     51          1           0        3.252311   -4.713454   -2.509158
     52          1           0        4.421802   -3.679953   -1.518743
     53          1           0       -2.065432    3.365271   -2.740228
     54          1           0       -0.424958    3.748978   -3.301902
     55          1           0       -0.937087    2.053195   -3.163477
     56          1           0        0.025169    5.111108   -1.126914
     57          1           0       -0.385044    4.382748    0.441790
     58          1           0       -1.667472    4.772926   -0.713705
     59          1           0        4.705717    1.617980    3.056575
     60          1           0        5.167964    1.355570    1.361946
     61          1           0        4.353267    2.845150    1.826837
     62          6           0       -4.790943   -1.214708   -1.177539
     63          1           0       -4.904025   -1.773786   -2.113597
     64          1           0       -4.341642   -0.245010   -1.420697
     65          1           0       -5.795469   -1.022036   -0.785353
 ---------------------------------------------------------------------
 Rotational constants (GHZ):      0.1888765      0.1426644      0.1132873
 Standard basis: 6-311+G(d) (5D, 7F)
 There are   784 symmetry adapted basis functions of A   symmetry.
 Integral buffers will be    131072 words long.
 Raffenetti 2 integral format.
 Two-electron integral symmetry is turned on.
   784 basis functions,  1286 primitive gaussians,   815 cartesian basis functions
   115 alpha electrons      115 beta electrons
       nuclear repulsion energy      3528.1128109954 Hartrees.
 NAtoms=   65 NActive=   65 NUniq=   65 SFac= 1.00D+00 NAtFMM=   50 NAOKFM=T Big=T
 One-electron integrals computed using PRISM.
 NBasis=   784 RedAO= T  NBF=   784
 NBsUse=   778 1.00D-06 NBFU=   778
 Harris functional with IExCor=  402 diagonalized for initial guess.
 ExpMin= 4.38D-02 ExpMax= 8.59D+03 ExpMxC= 1.30D+03 IAcc=2 IRadAn=         0 AccDes= 0.00D+00
 HarFok:  IExCor=  402 AccDes= 0.00D+00 IRadAn=         0 IDoV= 1
 ScaDFX=  1.000000  1.000000  1.000000  1.000000
 FoFCou: FMM=F IPFlag=           0 FMFlag=      100000 FMFlg1=        2001
         NFxFlg=           0 DoJE=T BraDBF=F KetDBF=T FulRan=T
         Omega=  0.000000  0.000000  1.000000  0.000000  0.000000 ICntrl=     500 IOpCl=  0
         NMat0=    1 NMatS0=    1 NMatT0=    0 NMatD0=    1 NMtDS0=    0 NMtDT0=    0
         I1Cent=           4 NGrid=           0.
 Petite list used in FoFCou.
 Initial guess orbital symmetries:
       Occupied  (A) (A) (A) (A) (A) (A) (A) (A) (A) (A) (A) (A)
                 (A) (A) (A) (A) (A) (A) (A) (A) (A) (A) (A) (A)
                 (A) (A) (A) (A) (A) (A) (A) (A) (A) (A) (A) (A)
                 (A) (A) (A) (A) (A) (A) (A) (A) (A) (A) (A) (A)
                 (A) (A) (A) (A) (A) (A) (A) (A) (A) (A) (A) (A)
                 (A) (A) (A) (A) (A) (A) (A) (A) (A) (A) (A) (A)
                 (A) (A) (A) (A) (A) (A) (A) (A) (A) (A) (A) (A)
                 (A) (A) (A) (A) (A) (A) (A) (A) (A) (A) (A) (A)
                 (A) (A) (A) (A) (A) (A) (A) (A) (A) (A) (A) (A)
                 (A) (A) (A) (A) (A) (A) (A)
       Virtual   (A) (A) (A) (A) (A) (A) (A) (A) (A) (A) (A) (A)
                 (A) (A) (A) (A) (A) (A) (A) (A) (A) (A) (A) (A)
                 (A) (A) (A) (A) (A) (A) (A) (A) (A) (A) (A) (A)
                 (A) (A) (A) (A) (A) (A) (A) (A) (A) (A) (A) (A)
                 (A) (A) (A) (A) (A) (A) (A) (A) (A) (A) (A) (A)
                 (A) (A) (A) (A) (A) (A) (A) (A) (A) (A) (A) (A)
                 (A) (A) (A) (A) (A) (A) (A) (A) (A) (A) (A) (A)
                 (A) (A) (A) (A) (A) (A) (A) (A) (A) (A) (A) (A)
                 (A) (A) (A) (A) (A) (A) (A) (A) (A) (A) (A) (A)
                 (A) (A) (A) (A) (A) (A) (A) (A) (A) (A) (A) (A)
                 (A) (A) (A) (A) (A) (A) (A) (A) (A) (A) (A) (A)
                 (A) (A) (A) (A) (A) (A) (A) (A) (A) (A) (A) (A)
                 (A) (A) (A) (A) (A) (A) (A) (A) (A) (A) (A) (A)
                 (A) (A) (A) (A) (A) (A) (A) (A) (A) (A) (A) (A)
                 (A) (A) (A) (A) (A) (A) (A) (A) (A) (A) (A) (A)
                 (A) (A) (A) (A) (A) (A) (A) (A) (A) (A) (A) (A)
                 (A) (A) (A) (A) (A) (A) (A) (A) (A) (A) (A) (A)
                 (A) (A) (A) (A) (A) (A) (A) (A) (A) (A) (A) (A)
                 (A) (A) (A) (A) (A) (A) (A) (A) (A) (A) (A) (A)
                 (A) (A) (A) (A) (A) (A) (A) (A) (A) (A) (A) (A)
                 (A) (A) (A) (A) (A) (A) (A) (A) (A) (A) (A) (A)
                 (A) (A) (A) (A) (A) (A) (A) (A) (A) (A) (A) (A)
                 (A) (A) (A) (A) (A) (A) (A) (A) (A) (A) (A) (A)
                 (A) (A) (A) (A) (A) (A) (A) (A) (A) (A) (A) (A)
                 (A) (A) (A) (A) (A) (A) (A) (A) (A) (A) (A) (A)
                 (A) (A) (A) (A) (A) (A) (A) (A) (A) (A) (A) (A)
                 (A) (A) (A) (A) (A) (A) (A) (A) (A) (A) (A) (A)
                 (A) (A) (A) (A) (A) (A) (A) (A) (A) (A) (A) (A)
                 (A) (A) (A) (A) (A) (A) (A) (A) (A) (A) (A) (A)
                 (A) (A) (A) (A) (A) (A) (A) (A) (A) (A) (A) (A)
                 (A) (A) (A) (A) (A) (A) (A) (A) (A) (A) (A) (A)
                 (A) (A) (A) (A) (A) (A) (A) (A) (A) (A) (A) (A)
                 (A) (A) (A) (A) (A) (A) (A) (A) (A) (A) (A) (A)
                 (A) (A) (A) (A) (A) (A) (A) (A) (A) (A) (A) (A)
                 (A) (A) (A) (A) (A) (A) (A) (A) (A) (A) (A) (A)
                 (A) (A) (A) (A) (A) (A) (A) (A) (A) (A) (A) (A)
                 (A) (A) (A) (A) (A) (A) (A) (A) (A) (A) (A) (A)
                 (A) (A) (A) (A) (A) (A) (A) (A) (A) (A) (A) (A)
                 (A) (A) (A) (A) (A) (A) (A) (A) (A) (A) (A) (A)
                 (A) (A) (A) (A) (A) (A) (A) (A) (A) (A) (A) (A)
                 (A) (A) (A) (A) (A) (A) (A) (A) (A) (A) (A) (A)
                 (A) (A) (A) (A) (A) (A) (A) (A) (A) (A) (A) (A)
                 (A) (A) (A) (A) (A) (A) (A) (A) (A) (A) (A) (A)
                 (A) (A) (A) (A) (A) (A) (A) (A) (A) (A) (A) (A)
                 (A) (A) (A) (A) (A) (A) (A) (A) (A) (A) (A) (A)
                 (A) (A) (A) (A) (A) (A) (A) (A) (A) (A) (A) (A)
                 (A) (A) (A) (A) (A) (A) (A) (A) (A) (A) (A) (A)
                 (A) (A) (A) (A) (A) (A) (A) (A) (A) (A) (A) (A)
                 (A) (A) (A) (A) (A) (A) (A) (A) (A) (A) (A) (A)
                 (A) (A) (A) (A) (A) (A) (A) (A) (A) (A) (A) (A)
                 (A) (A) (A) (A) (A) (A) (A) (A) (A) (A) (A) (A)
                 (A) (A) (A) (A) (A) (A) (A) (A) (A) (A) (A) (A)
                 (A) (A) (A) (A) (A) (A) (A) (A) (A) (A) (A) (A)
                 (A) (A) (A) (A) (A) (A) (A) (A) (A) (A) (A) (A)
                 (A) (A) (A) (A) (A) (A) (A) (A) (A) (A) (A) (A)
                 (A) (A) (A)
 The electronic state of the initial guess is 1-A.
 Requested convergence on RMS density matrix=1.00D-08 within 128 cycles.
 Requested convergence on MAX density matrix=1.00D-06.
 Requested convergence on             energy=1.00D-06.
 No special actions if energy rises.
 SCF Done:  E(RB3LYP) =  -1387.64842897     A.U. after   16 cycles
             Convg  =    0.9831D-08             -V/T =  2.0043

 **********************************************************************

            Population analysis using the SCF density.

 **********************************************************************

 Orbital symmetries:
       Occupied  (A) (A) (A) (A) (A) (A) (A) (A) (A) (A) (A) (A)
                 (A) (A) (A) (A) (A) (A) (A) (A) (A) (A) (A) (A)
                 (A) (A) (A) (A) (A) (A) (A) (A) (A) (A) (A) (A)
                 (A) (A) (A) (A) (A) (A) (A) (A) (A) (A) (A) (A)
                 (A) (A) (A) (A) (A) (A) (A) (A) (A) (A) (A) (A)
                 (A) (A) (A) (A) (A) (A) (A) (A) (A) (A) (A) (A)
                 (A) (A) (A) (A) (A) (A) (A) (A) (A) (A) (A) (A)
                 (A) (A) (A) (A) (A) (A) (A) (A) (A) (A) (A) (A)
                 (A) (A) (A) (A) (A) (A) (A) (A) (A) (A) (A) (A)
                 (A) (A) (A) (A) (A) (A) (A)
       Virtual   (A) (A) (A) (A) (A) (A) (A) (A) (A) (A) (A) (A)
                 (A) (A) (A) (A) (A) (A) (A) (A) (A) (A) (A) (A)
                 (A) (A) (A) (A) (A) (A) (A) (A) (A) (A) (A) (A)
                 (A) (A) (A) (A) (A) (A) (A) (A) (A) (A) (A) (A)
                 (A) (A) (A) (A) (A) (A) (A) (A) (A) (A) (A) (A)
                 (A) (A) (A) (A) (A) (A) (A) (A) (A) (A) (A) (A)
                 (A) (A) (A) (A) (A) (A) (A) (A) (A) (A) (A) (A)
                 (A) (A) (A) (A) (A) (A) (A) (A) (A) (A) (A) (A)
                 (A) (A) (A) (A) (A) (A) (A) (A) (A) (A) (A) (A)
                 (A) (A) (A) (A) (A) (A) (A) (A) (A) (A) (A) (A)
                 (A) (A) (A) (A) (A) (A) (A) (A) (A) (A) (A) (A)
                 (A) (A) (A) (A) (A) (A) (A) (A) (A) (A) (A) (A)
                 (A) (A) (A) (A) (A) (A) (A) (A) (A) (A) (A) (A)
                 (A) (A) (A) (A) (A) (A) (A) (A) (A) (A) (A) (A)
                 (A) (A) (A) (A) (A) (A) (A) (A) (A) (A) (A) (A)
                 (A) (A) (A) (A) (A) (A) (A) (A) (A) (A) (A) (A)
                 (A) (A) (A) (A) (A) (A) (A) (A) (A) (A) (A) (A)
                 (A) (A) (A) (A) (A) (A) (A) (A) (A) (A) (A) (A)
                 (A) (A) (A) (A) (A) (A) (A) (A) (A) (A) (A) (A)
                 (A) (A) (A) (A) (A) (A) (A) (A) (A) (A) (A) (A)
                 (A) (A) (A) (A) (A) (A) (A) (A) (A) (A) (A) (A)
                 (A) (A) (A) (A) (A) (A) (A) (A) (A) (A) (A) (A)
                 (A) (A) (A) (A) (A) (A) (A) (A) (A) (A) (A) (A)
                 (A) (A) (A) (A) (A) (A) (A) (A) (A) (A) (A) (A)
                 (A) (A) (A) (A) (A) (A) (A) (A) (A) (A) (A) (A)
                 (A) (A) (A) (A) (A) (A) (A) (A) (A) (A) (A) (A)
                 (A) (A) (A) (A) (A) (A) (A) (A) (A) (A) (A) (A)
                 (A) (A) (A) (A) (A) (A) (A) (A) (A) (A) (A) (A)
                 (A) (A) (A) (A) (A) (A) (A) (A) (A) (A) (A) (A)
                 (A) (A) (A) (A) (A) (A) (A) (A) (A) (A) (A) (A)
                 (A) (A) (A) (A) (A) (A) (A) (A) (A) (A) (A) (A)
                 (A) (A) (A) (A) (A) (A) (A) (A) (A) (A) (A) (A)
                 (A) (A) (A) (A) (A) (A) (A) (A) (A) (A) (A) (A)
                 (A) (A) (A) (A) (A) (A) (A) (A) (A) (A) (A) (A)
                 (A) (A) (A) (A) (A) (A) (A) (A) (A) (A) (A) (A)
                 (A) (A) (A) (A) (A) (A) (A) (A) (A) (A) (A) (A)
                 (A) (A) (A) (A) (A) (A) (A) (A) (A) (A) (A) (A)
                 (A) (A) (A) (A) (A) (A) (A) (A) (A) (A) (A) (A)
                 (A) (A) (A) (A) (A) (A) (A) (A) (A) (A) (A) (A)
                 (A) (A) (A) (A) (A) (A) (A) (A) (A) (A) (A) (A)
                 (A) (A) (A) (A) (A) (A) (A) (A) (A) (A) (A) (A)
                 (A) (A) (A) (A) (A) (A) (A) (A) (A) (A) (A) (A)
                 (A) (A) (A) (A) (A) (A) (A) (A) (A) (A) (A) (A)
                 (A) (A) (A) (A) (A) (A) (A) (A) (A) (A) (A) (A)
                 (A) (A) (A) (A) (A) (A) (A) (A) (A) (A) (A) (A)
                 (A) (A) (A) (A) (A) (A) (A) (A) (A) (A) (A) (A)
                 (A) (A) (A) (A) (A) (A) (A) (A) (A) (A) (A) (A)
                 (A) (A) (A) (A) (A) (A) (A) (A) (A) (A) (A) (A)
                 (A) (A) (A) (A) (A) (A) (A) (A) (A) (A) (A) (A)
                 (A) (A) (A) (A) (A) (A) (A) (A) (A) (A) (A) (A)
                 (A) (A) (A) (A) (A) (A) (A) (A) (A) (A) (A) (A)
                 (A) (A) (A) (A) (A) (A) (A) (A) (A) (A) (A) (A)
                 (A) (A) (A) (A) (A) (A) (A) (A) (A) (A) (A) (A)
                 (A) (A) (A) (A) (A) (A) (A) (A) (A) (A) (A) (A)
                 (A) (A) (A) (A) (A) (A) (A) (A) (A) (A) (A) (A)
                 (A) (A) (A)
 The electronic state is 1-A.
 Alpha  occ. eigenvalues --  -19.18096 -19.15049 -19.13643 -19.11425 -19.09666
 Alpha  occ. eigenvalues --  -10.26962 -10.26907 -10.25915 -10.25828 -10.25676
 Alpha  occ. eigenvalues --  -10.25202 -10.23969 -10.21134 -10.19888 -10.19868
 Alpha  occ. eigenvalues --  -10.19414 -10.19260 -10.19131 -10.19030 -10.18553
 Alpha  occ. eigenvalues --  -10.18048 -10.17974 -10.17775 -10.17760 -10.17049
 Alpha  occ. eigenvalues --  -10.17016 -10.16520 -10.16473 -10.15806 -10.14556
 Alpha  occ. eigenvalues --  -10.14278  -1.10701  -1.07494  -1.04695  -1.03663
 Alpha  occ. eigenvalues --   -1.02904  -0.88170  -0.84813  -0.83098  -0.82297
 Alpha  occ. eigenvalues --   -0.80944  -0.79774  -0.77718  -0.74886  -0.74113
 Alpha  occ. eigenvalues --   -0.73071  -0.71548  -0.70836  -0.69722  -0.69131
 Alpha  occ. eigenvalues --   -0.66352  -0.64775  -0.64484  -0.62508  -0.61673
 Alpha  occ. eigenvalues --   -0.60070  -0.59307  -0.57793  -0.55548  -0.54707
 Alpha  occ. eigenvalues --   -0.53768  -0.52841  -0.52124  -0.50933  -0.50263
 Alpha  occ. eigenvalues --   -0.48596  -0.48357  -0.47881  -0.47512  -0.47010
 Alpha  occ. eigenvalues --   -0.46228  -0.45687  -0.45193  -0.44717  -0.44175
 Alpha  occ. eigenvalues --   -0.43798  -0.43516  -0.43369  -0.42185  -0.41973
 Alpha  occ. eigenvalues --   -0.41597  -0.41372  -0.41164  -0.40933  -0.40472
 Alpha  occ. eigenvalues --   -0.40364  -0.39787  -0.39364  -0.38801  -0.38478
 Alpha  occ. eigenvalues --   -0.38324  -0.37797  -0.37715  -0.37379  -0.37053
 Alpha  occ. eigenvalues --   -0.36843  -0.36584  -0.36136  -0.35691  -0.35299
 Alpha  occ. eigenvalues --   -0.34960  -0.34643  -0.34025  -0.33793  -0.33450
 Alpha  occ. eigenvalues --   -0.32711  -0.31672  -0.31399  -0.29070  -0.28902
 Alpha  occ. eigenvalues --   -0.26467  -0.26024  -0.25552  -0.24813  -0.23541
 Alpha virt. eigenvalues --   -0.06576  -0.02660  -0.01500  -0.01114  -0.00590
 Alpha virt. eigenvalues --   -0.00049   0.00486   0.00521   0.01670   0.01734
 Alpha virt. eigenvalues --    0.02071   0.02385   0.02901   0.03311   0.03440
 Alpha virt. eigenvalues --    0.03788   0.04021   0.04271   0.04669   0.04884
 Alpha virt. eigenvalues --    0.05179   0.05292   0.05731   0.06091   0.06183
 Alpha virt. eigenvalues --    0.06476   0.06868   0.06972   0.07179   0.07566
 Alpha virt. eigenvalues --    0.07722   0.08027   0.08262   0.08477   0.08627
 Alpha virt. eigenvalues --    0.09002   0.09098   0.09457   0.09806   0.10059
 Alpha virt. eigenvalues --    0.10231   0.10597   0.10881   0.11160   0.11427
 Alpha virt. eigenvalues --    0.11476   0.11868   0.12079   0.12273   0.12487
 Alpha virt. eigenvalues --    0.12826   0.12967   0.13188   0.13215   0.13324
 Alpha virt. eigenvalues --    0.13570   0.13918   0.14073   0.14309   0.14329
 Alpha virt. eigenvalues --    0.14840   0.14964   0.15454   0.15535   0.15899
 Alpha virt. eigenvalues --    0.16407   0.16527   0.16774   0.17015   0.17125
 Alpha virt. eigenvalues --    0.17373   0.17861   0.17988   0.18258   0.18471
 Alpha virt. eigenvalues --    0.18600   0.18746   0.18900   0.18986   0.19152
 Alpha virt. eigenvalues --    0.19332   0.19653   0.19743   0.19910   0.20270
 Alpha virt. eigenvalues --    0.20383   0.20620   0.20745   0.20883   0.20986
 Alpha virt. eigenvalues --    0.21185   0.21491   0.21643   0.21842   0.22240
 Alpha virt. eigenvalues --    0.22312   0.22474   0.22639   0.22819   0.23102
 Alpha virt. eigenvalues --    0.23238   0.23290   0.23509   0.23729   0.23829
 Alpha virt. eigenvalues --    0.24017   0.24276   0.24545   0.24714   0.24939
 Alpha virt. eigenvalues --    0.25200   0.25370   0.25597   0.25733   0.26076
 Alpha virt. eigenvalues --    0.26138   0.26348   0.26524   0.26681   0.26943
 Alpha virt. eigenvalues --    0.27140   0.27450   0.27583   0.27751   0.28204
 Alpha virt. eigenvalues --    0.28441   0.28739   0.28933   0.29349   0.29528
 Alpha virt. eigenvalues --    0.29618   0.30055   0.30391   0.30575   0.31145
 Alpha virt. eigenvalues --    0.31309   0.31708   0.31980   0.32258   0.32351
 Alpha virt. eigenvalues --    0.32659   0.32786   0.32939   0.33415   0.33503
 Alpha virt. eigenvalues --    0.33601   0.33973   0.34509   0.34771   0.35030
 Alpha virt. eigenvalues --    0.35409   0.35635   0.35860   0.36002   0.36539
 Alpha virt. eigenvalues --    0.36872   0.37088   0.37867   0.38115   0.38458
 Alpha virt. eigenvalues --    0.38840   0.39264   0.39616   0.39804   0.40029
 Alpha virt. eigenvalues --    0.40384   0.40715   0.41218   0.41411   0.42271
 Alpha virt. eigenvalues --    0.42677   0.42802   0.43148   0.44032   0.44161
 Alpha virt. eigenvalues --    0.44420   0.44891   0.45115   0.45438   0.45599
 Alpha virt. eigenvalues --    0.46255   0.46557   0.46848   0.47146   0.47730
 Alpha virt. eigenvalues --    0.47936   0.48319   0.48832   0.49055   0.49323
 Alpha virt. eigenvalues --    0.50081   0.50332   0.50924   0.51198   0.51499
 Alpha virt. eigenvalues --    0.52065   0.52922   0.53251   0.53538   0.53701
 Alpha virt. eigenvalues --    0.54259   0.54968   0.55133   0.55510   0.55921
 Alpha virt. eigenvalues --    0.56305   0.56692   0.57444   0.57481   0.57812
 Alpha virt. eigenvalues --    0.59046   0.59240   0.59284   0.59326   0.59896
 Alpha virt. eigenvalues --    0.60422   0.60625   0.61011   0.61325   0.62257
 Alpha virt. eigenvalues --    0.62698   0.62824   0.63116   0.63398   0.64380
 Alpha virt. eigenvalues --    0.64465   0.64866   0.64960   0.65889   0.66268
 Alpha virt. eigenvalues --    0.66812   0.66874   0.67276   0.67721   0.67837
 Alpha virt. eigenvalues --    0.68175   0.68311   0.68488   0.68864   0.69157
 Alpha virt. eigenvalues --    0.69390   0.69938   0.70128   0.70255   0.70316
 Alpha virt. eigenvalues --    0.70686   0.71037   0.71457   0.71770   0.71893
 Alpha virt. eigenvalues --    0.72521   0.73043   0.73179   0.73497   0.73836
 Alpha virt. eigenvalues --    0.74009   0.74225   0.74733   0.75307   0.75686
 Alpha virt. eigenvalues --    0.76251   0.76319   0.76795   0.77171   0.77353
 Alpha virt. eigenvalues --    0.77747   0.78087   0.78330   0.78525   0.78826
 Alpha virt. eigenvalues --    0.79347   0.79733   0.79893   0.80211   0.80851
 Alpha virt. eigenvalues --    0.81021   0.81401   0.82058   0.82358   0.82766
 Alpha virt. eigenvalues --    0.83091   0.83581   0.83794   0.84102   0.84883
 Alpha virt. eigenvalues --    0.85700   0.86224   0.86631   0.87008   0.87805
 Alpha virt. eigenvalues --    0.88081   0.90436   0.91042   0.91278   0.92121
 Alpha virt. eigenvalues --    0.93223   0.94216   0.94816   0.95654   0.96358
 Alpha virt. eigenvalues --    0.97006   0.98240   0.98450   0.99044   0.99975
 Alpha virt. eigenvalues --    1.01141   1.01983   1.02224   1.03061   1.04465
 Alpha virt. eigenvalues --    1.04734   1.05584   1.07418   1.08619   1.08893
 Alpha virt. eigenvalues --    1.10155   1.10879   1.12408   1.13374   1.14394
 Alpha virt. eigenvalues --    1.15604   1.15847   1.16066   1.18290   1.20037
 Alpha virt. eigenvalues --    1.20923   1.21488   1.22466   1.23489   1.23893
 Alpha virt. eigenvalues --    1.24738   1.24972   1.25677   1.26336   1.26719
 Alpha virt. eigenvalues --    1.27439   1.28663   1.29197   1.29721   1.31955
 Alpha virt. eigenvalues --    1.32555   1.33237   1.34476   1.34863   1.35392
 Alpha virt. eigenvalues --    1.36199   1.36503   1.37456   1.39179   1.39650
 Alpha virt. eigenvalues --    1.40861   1.41336   1.42052   1.42577   1.42845
 Alpha virt. eigenvalues --    1.43801   1.44325   1.45944   1.46144   1.47997
 Alpha virt. eigenvalues --    1.48368   1.49856   1.50246   1.51518   1.52431
 Alpha virt. eigenvalues --    1.53037   1.53654   1.54825   1.55422   1.55749
 Alpha virt. eigenvalues --    1.56094   1.56905   1.57795   1.58193   1.58772
 Alpha virt. eigenvalues --    1.59230   1.59501   1.60032   1.60175   1.61029
 Alpha virt. eigenvalues --    1.61387   1.61910   1.62173   1.62709   1.63149
 Alpha virt. eigenvalues --    1.63677   1.63947   1.64506   1.64869   1.65505
 Alpha virt. eigenvalues --    1.65740   1.66150   1.66926   1.67142   1.67565
 Alpha virt. eigenvalues --    1.67974   1.68432   1.69199   1.69472   1.70394
 Alpha virt. eigenvalues --    1.70869   1.71040   1.71723   1.72069   1.72514
 Alpha virt. eigenvalues --    1.73057   1.73230   1.74910   1.75331   1.76248
 Alpha virt. eigenvalues --    1.76588   1.77274   1.77986   1.78389   1.79348
 Alpha virt. eigenvalues --    1.79853   1.80722   1.81552   1.82902   1.84112
 Alpha virt. eigenvalues --    1.84484   1.85289   1.85470   1.86131   1.86680
 Alpha virt. eigenvalues --    1.88204   1.89084   1.89206   1.90331   1.91149
 Alpha virt. eigenvalues --    1.93122   1.93364   1.94288   1.94837   1.96626
 Alpha virt. eigenvalues --    1.96795   1.98644   2.00561   2.00994   2.01723
 Alpha virt. eigenvalues --    2.02799   2.03391   2.04233   2.04324   2.05097
 Alpha virt. eigenvalues --    2.05970   2.06559   2.07820   2.08201   2.09650
 Alpha virt. eigenvalues --    2.11088   2.11451   2.12248   2.13988   2.14397
 Alpha virt. eigenvalues --    2.16575   2.17161   2.17700   2.19664   2.20992
 Alpha virt. eigenvalues --    2.21450   2.22285   2.23268   2.25082   2.25678
 Alpha virt. eigenvalues --    2.27135   2.27853   2.30115   2.31463   2.32676
 Alpha virt. eigenvalues --    2.33882   2.34171   2.35589   2.35751   2.37935
 Alpha virt. eigenvalues --    2.39662   2.43447   2.46667   2.47652   2.50530
 Alpha virt. eigenvalues --    2.51043   2.51644   2.54192   2.54345   2.54956
 Alpha virt. eigenvalues --    2.55304   2.55706   2.56226   2.56760   2.57017
 Alpha virt. eigenvalues --    2.57441   2.58434   2.58879   2.60142   2.61415
 Alpha virt. eigenvalues --    2.61855   2.63165   2.63389   2.64223   2.66084
 Alpha virt. eigenvalues --    2.66887   2.67915   2.69411   2.70028   2.70879
 Alpha virt. eigenvalues --    2.71082   2.71997   2.72530   2.72814   2.73202
 Alpha virt. eigenvalues --    2.74172   2.75451   2.78510   2.79889   2.81241
 Alpha virt. eigenvalues --    2.84928   2.86045   2.87661   2.88558   2.89672
 Alpha virt. eigenvalues --    2.90377   2.91896   2.92887   2.93737   2.94246
 Alpha virt. eigenvalues --    2.95653   2.96590   2.97036   2.98006   2.98375
 Alpha virt. eigenvalues --    2.99589   3.00591   3.00857   3.01938   3.03131
 Alpha virt. eigenvalues --    3.03551   3.04570   3.05693   3.05903   3.06718
 Alpha virt. eigenvalues --    3.07879   3.09337   3.11297   3.12350   3.12771
 Alpha virt. eigenvalues --    3.14419   3.14793   3.16867   3.17689   3.18242
 Alpha virt. eigenvalues --    3.18677   3.19785   3.20452   3.21287   3.22331
 Alpha virt. eigenvalues --    3.22950   3.23520   3.23993   3.25622   3.26298
 Alpha virt. eigenvalues --    3.26680   3.27818   3.28216   3.28350   3.29533
 Alpha virt. eigenvalues --    3.30788   3.31280   3.31723   3.32456   3.33570
 Alpha virt. eigenvalues --    3.34962   3.36162   3.36518   3.38147   3.38483
 Alpha virt. eigenvalues --    3.39280   3.40104   3.41608   3.42202   3.43281
 Alpha virt. eigenvalues --    3.45280   3.46150   3.48457   3.50824   3.51746
 Alpha virt. eigenvalues --    3.52721   3.53185   3.57950   3.60524   3.66459
 Alpha virt. eigenvalues --    3.74960   3.76814   3.77880   3.82079   3.85064
 Alpha virt. eigenvalues --    3.88650   3.91954   3.93711   3.96511   4.01704
 Alpha virt. eigenvalues --    4.04289   4.05778   4.06897   4.09406   4.10277
 Alpha virt. eigenvalues --    4.11524   4.15380   4.17370   4.18555   4.20407
 Alpha virt. eigenvalues --    4.23161   4.24523   4.27752   4.31030   4.34917
 Alpha virt. eigenvalues --    4.44483   4.53750   5.14405   5.14770   5.17773
 Alpha virt. eigenvalues --    5.22278   5.26467   5.28210   5.31044   5.34910
 Alpha virt. eigenvalues --    5.42635   5.43326   5.56272   5.72125   5.72950
 Alpha virt. eigenvalues --    5.81336   5.83057  23.45413  23.48837  23.51962
 Alpha virt. eigenvalues --   23.53168  23.61506  23.63835  23.65488  23.67145
 Alpha virt. eigenvalues --   23.68966  23.70116  23.72429  23.74025  23.75986
 Alpha virt. eigenvalues --   23.78558  23.79972  23.80052  23.82758  23.85448
 Alpha virt. eigenvalues --   23.86126  23.88126  23.89609  23.91406  23.96490
 Alpha virt. eigenvalues --   24.13241  24.20452  24.21407  49.97785  50.00317
 Alpha virt. eigenvalues --   50.02282  50.03919  50.05612
          Condensed to atoms (all electrons):
 Mulliken atomic charges:
              1
     1  C   -0.725671
     2  C    0.894767
     3  C   -0.145109
     4  C   -0.203695
     5  C    1.448204
     6  C   -1.046420
     7  C   -0.965642
     8  C    0.498118
     9  C    0.640173
    10  C   -1.280881
    11  C   -0.648318
    12  O   -0.157772
    13  C    0.618862
    14  C   -0.377348
    15  C   -0.777699
    16  O   -0.179535
    17  C   -0.596961
    18  C    0.999196
    19  O    0.226746
    20  C   -1.287975
    21  O   -0.094668
    22  C   -0.798874
    23  C    0.181973
    24  O   -0.053037
    25  C    0.851645
    26  C   -1.179604
    27  C   -0.984070
    28  C   -0.783633
    29  C   -0.594147
    30  H    0.245110
    31  H    0.258072
    32  C   -1.166346
    33  H    0.210820
    34  H    0.260141
    35  H    0.263283
    36  H    0.246581
    37  H    0.268247
    38  H    0.218397
    39  H    0.255875
    40  H    0.235810
    41  H    0.271170
    42  H    0.291198
    43  H    0.260465
    44  H    0.299662
    45  H    0.300623
    46  H    0.256053
    47  H    0.208001
    48  H    0.267891
    49  H    0.292683
    50  H    0.255256
    51  H    0.228982
    52  H    0.214862
    53  H    0.261591
    54  H    0.244515
    55  H    0.307313
    56  H    0.260645
    57  H    0.266922
    58  H    0.274500
    59  H    0.251473
    60  H    0.260322
    61  H    0.247989
    62  C   -1.048571
    63  H    0.238982
    64  H    0.265530
    65  H    0.247329
 Sum of Mulliken atomic charges =   0.00000
 Mulliken charges with hydrogens summed into heavy atoms:
              1
     1  C   -0.514852
     2  C    0.894767
     3  C    0.112962
     4  C   -0.203695
     5  C    1.448204
     6  C   -0.522996
     7  C   -0.965642
     8  C    0.498118
     9  C    0.640173
    10  C   -1.280881
    11  C   -0.648318
    12  O   -0.157772
    13  C    0.865443
    14  C    0.109297
    15  C   -0.014843
    16  O   -0.179535
    17  C   -0.351851
    18  C    0.999196
    19  O    0.226746
    20  C   -0.736312
    21  O    0.204994
    22  C   -0.242197
    23  C    0.389974
    24  O   -0.053037
    25  C    0.851645
    26  C   -0.363773
    27  C   -0.540226
    28  C    0.029786
    29  C    0.207919
    32  C   -0.406563
    62  C   -0.296731
 Sum of Mulliken charges with hydrogens summed into heavy atoms =   0.00000
 Electronic spatial extent (au):  <R**2>=          11275.2691
 Charge=              0.0000 electrons
 Dipole moment (field-independent basis, Debye):
    X=              5.4637    Y=              2.0044    Z=             -0.3595  Tot=              5.8309
 Quadrupole moment (field-independent basis, Debye-Ang):
   XX=           -193.5642   YY=           -181.4485   ZZ=           -187.2805
   XY=              6.9752   XZ=              6.7980   YZ=             -3.0462
 Traceless Quadrupole moment (field-independent basis, Debye-Ang):
   XX=             -6.1331   YY=              5.9825   ZZ=              0.1506
   XY=              6.9752   XZ=              6.7980   YZ=             -3.0462
 Octapole moment (field-independent basis, Debye-Ang**2):
  XXX=             55.9662  YYY=             54.0325  ZZZ=              9.1573  XYY=             19.7842
  XXY=            -21.9461  XXZ=             -7.4440  XZZ=              8.0436  YZZ=              1.2583
  YYZ=            -44.1375  XYZ=             11.2640
 Hexadecapole moment (field-independent basis, Debye-Ang**3):
 XXXX=          -7729.1099 YYYY=          -5120.9789 ZZZZ=          -2649.5647 XXXY=             79.0165
 XXXZ=             69.7705 YYYX=            -29.1468 YYYZ=              8.4193 ZZZX=             21.5799
 ZZZY=            -24.2832 XXYY=          -2135.3728 XXZZ=          -1750.2476 YYZZ=          -1270.0029
 XXYZ=            -31.3899 YYXZ=            -14.9591 ZZXY=             -7.1827
 N-N= 3.528112810995D+03 E-N=-1.028926658766D+04  KE= 1.381708827858D+03
 Calling FoFJK, ICntrl=      2127 FMM=T ISym2X=0 I1Cent= 0 IOpClX= 0 NMat=1 NMatS=1 NMatT=0.
 ***** Axes restored to original set *****
 -------------------------------------------------------------------
 Center     Atomic                   Forces (Hartrees/Bohr)
 Number     Number              X              Y              Z
 -------------------------------------------------------------------
      1        6           0.001100972    0.001278511   -0.002004308
      2        6          -0.001209657   -0.000968615    0.001770723
      3        6           0.000035980    0.000343313   -0.000158212
      4        6           0.000019860    0.001201929    0.000450389
      5        6          -0.000145881   -0.000349933    0.000030247
      6        6          -0.000417712    0.000056624   -0.000147591
      7        6          -0.001023226    0.001928405    0.001832305
      8        6          -0.003204130    0.000816312   -0.000037865
      9        6           0.001152128    0.001588482   -0.000530525
     10        6          -0.002896377   -0.006955045    0.002439324
     11        6          -0.002680419    0.005416603    0.000373779
     12        8           0.003645521   -0.006797659   -0.000117031
     13        6          -0.000103604    0.000384761    0.000092035
     14        6           0.000270293   -0.000351752   -0.000370333
     15        6           0.000159584    0.000118990   -0.000177122
     16        8           0.002530330    0.008617254   -0.001575912
     17        6           0.000207122   -0.000020587   -0.000340933
     18        6           0.000436310    0.001387593   -0.000900005
     19        8           0.001977077   -0.004308057    0.000990547
     20        6          -0.000256784    0.000143628    0.000431401
     21        8           0.005793938   -0.001881809    0.000191759
     22        6          -0.000165840   -0.000111197   -0.000049241
     23        6           0.000975905   -0.002055360    0.000805346
     24        8           0.000262349   -0.000249919    0.000782680
     25        6           0.001029375   -0.000974233   -0.000732687
     26        6          -0.000035664    0.000114096    0.000497434
     27        6          -0.000925465    0.000670144    0.000446452
     28        6           0.000408907   -0.000042816    0.000312756
     29        6           0.000270676   -0.000433921   -0.000147889
     30        1          -0.000829582   -0.000255254    0.000958131
     31        1          -0.000790085    0.000014221    0.001109664
     32        6           0.000245920    0.000231733   -0.000123065
     33        1          -0.000288090   -0.000014501   -0.000839332
     34        1           0.000205522    0.001244556   -0.000847868
     35        1           0.001125746   -0.001074797    0.000310128
     36        1          -0.000727077    0.000840826   -0.000575550
     37        1          -0.001550081   -0.000043096    0.000484222
     38        1           0.000987530    0.001040994   -0.000299204
     39        1          -0.000739950   -0.000689340   -0.001272387
     40        1           0.000579250    0.001343781   -0.000065945
     41        1           0.000460959   -0.001282658    0.001304358
     42        1           0.001185161    0.000037817   -0.001099015
     43        1          -0.000990716   -0.001215183    0.000121456
     44        1          -0.004975372    0.001692312   -0.001572955
     45        1           0.001615555    0.001154612   -0.000081191
     46        1          -0.001003016   -0.000390039   -0.001228255
     47        1          -0.001572932    0.000277122   -0.000339610
     48        1           0.000482738   -0.002297591    0.000007825
     49        1           0.001073136    0.000171511   -0.001577548
     50        1          -0.000175621    0.001258946    0.001103867
     51        1           0.000172358    0.000712526    0.000651331
     52        1          -0.000990604   -0.000120067   -0.000310923
     53        1           0.001534391   -0.000446045   -0.000283925
     54        1          -0.000965183   -0.001040790    0.000562626
     55        1          -0.000519914    0.001892984    0.000114788
     56        1          -0.000959497   -0.000683535    0.000868792
     57        1          -0.000501655    0.000433468   -0.001580042
     58        1           0.001647034   -0.000299473    0.000211859
     59        1          -0.000276931    0.000358298   -0.001624985
     60        1          -0.001079176    0.000607192    0.001073627
     61        1           0.000166343   -0.001583547    0.000409024
     62        6          -0.000135830    0.000153142    0.000305914
     63        1           0.000041926    0.000938226    0.001225883
[...]
                 (A) (A) (A) (A) (A) (A) (A) (A) (A) (A) (A) (A)
                 (A) (A) (A) (A) (A) (A) (A) (A) (A) (A) (A) (A)
                 (A) (A) (A) (A) (A) (A) (A) (A) (A) (A) (A) (A)
                 (A) (A) (A)
 The electronic state is 1-A.
 Alpha  occ. eigenvalues --  -19.17670 -19.15061 -19.13553 -19.11265 -19.10319
 Alpha  occ. eigenvalues --  -10.26674 -10.26423 -10.25835 -10.25709 -10.25627
 Alpha  occ. eigenvalues --  -10.25458 -10.23899 -10.20918 -10.19761 -10.19759
 Alpha  occ. eigenvalues --  -10.19389 -10.19251 -10.19072 -10.18794 -10.18236
 Alpha  occ. eigenvalues --  -10.17902 -10.17800 -10.17623 -10.17609 -10.17224
 Alpha  occ. eigenvalues --  -10.17183 -10.16945 -10.16581 -10.16081 -10.14756
 Alpha  occ. eigenvalues --  -10.14379  -1.10354  -1.07565  -1.04842  -1.03762
 Alpha  occ. eigenvalues --   -1.03656  -0.88116  -0.84763  -0.83216  -0.82427
 Alpha  occ. eigenvalues --   -0.81045  -0.80112  -0.77687  -0.74912  -0.74042
 Alpha  occ. eigenvalues --   -0.73058  -0.71878  -0.70873  -0.70226  -0.69217
 Alpha  occ. eigenvalues --   -0.66419  -0.64765  -0.64625  -0.62504  -0.61690
 Alpha  occ. eigenvalues --   -0.60011  -0.59491  -0.57892  -0.55918  -0.54674
 Alpha  occ. eigenvalues --   -0.53721  -0.52892  -0.52128  -0.51117  -0.50409
 Alpha  occ. eigenvalues --   -0.48851  -0.48067  -0.47929  -0.47551  -0.46846
 Alpha  occ. eigenvalues --   -0.46290  -0.45488  -0.45212  -0.45060  -0.44293
 Alpha  occ. eigenvalues --   -0.44123  -0.43564  -0.43334  -0.42323  -0.42228
 Alpha  occ. eigenvalues --   -0.41788  -0.41612  -0.41257  -0.40945  -0.40618
 Alpha  occ. eigenvalues --   -0.40447  -0.39860  -0.39354  -0.38834  -0.38468
 Alpha  occ. eigenvalues --   -0.38272  -0.38066  -0.37880  -0.37757  -0.37399
 Alpha  occ. eigenvalues --   -0.36848  -0.36592  -0.36215  -0.35979  -0.35392
 Alpha  occ. eigenvalues --   -0.34863  -0.34591  -0.34180  -0.33890  -0.33316
 Alpha  occ. eigenvalues --   -0.32575  -0.32116  -0.31687  -0.29565  -0.28851
 Alpha  occ. eigenvalues --   -0.26601  -0.25844  -0.25483  -0.24645  -0.23765
 Alpha virt. eigenvalues --   -0.05958  -0.02259  -0.01470  -0.01357  -0.00513
 Alpha virt. eigenvalues --   -0.00037   0.00280   0.00714   0.01662   0.01802
 Alpha virt. eigenvalues --    0.01888   0.02253   0.03016   0.03249   0.03370
 Alpha virt. eigenvalues --    0.03830   0.03908   0.04366   0.04612   0.04937
 Alpha virt. eigenvalues --    0.05017   0.05185   0.05596   0.06037   0.06167
 Alpha virt. eigenvalues --    0.06265   0.06887   0.07058   0.07279   0.07532
 Alpha virt. eigenvalues --    0.07752   0.07937   0.08362   0.08438   0.08637
 Alpha virt. eigenvalues --    0.08831   0.09157   0.09228   0.09380   0.09834
 Alpha virt. eigenvalues --    0.09966   0.10584   0.10811   0.11001   0.11279
 Alpha virt. eigenvalues --    0.11476   0.11808   0.11960   0.12321   0.12466
 Alpha virt. eigenvalues --    0.12657   0.12808   0.12973   0.13306   0.13576
 Alpha virt. eigenvalues --    0.13740   0.13951   0.14270   0.14467   0.14670
 Alpha virt. eigenvalues --    0.14745   0.14928   0.15239   0.15721   0.15786
 Alpha virt. eigenvalues --    0.16083   0.16390   0.16533   0.16730   0.17263
 Alpha virt. eigenvalues --    0.17326   0.17610   0.17905   0.17952   0.18125
 Alpha virt. eigenvalues --    0.18263   0.18719   0.18938   0.19032   0.19120
 Alpha virt. eigenvalues --    0.19325   0.19400   0.19572   0.19842   0.20130
 Alpha virt. eigenvalues --    0.20313   0.20583   0.20698   0.20832   0.21203
 Alpha virt. eigenvalues --    0.21392   0.21514   0.21790   0.21892   0.22237
 Alpha virt. eigenvalues --    0.22357   0.22555   0.22677   0.22749   0.22971
 Alpha virt. eigenvalues --    0.23267   0.23550   0.23753   0.23789   0.24104
 Alpha virt. eigenvalues --    0.24119   0.24268   0.24412   0.24664   0.24935
 Alpha virt. eigenvalues --    0.25130   0.25506   0.25712   0.25908   0.26046
 Alpha virt. eigenvalues --    0.26246   0.26460   0.26611   0.26987   0.27145
 Alpha virt. eigenvalues --    0.27484   0.27646   0.27962   0.28043   0.28348
 Alpha virt. eigenvalues --    0.28777   0.28921   0.29267   0.29378   0.29680
 Alpha virt. eigenvalues --    0.29904   0.30145   0.30357   0.30855   0.30970
 Alpha virt. eigenvalues --    0.31248   0.31467   0.31592   0.31846   0.32252
 Alpha virt. eigenvalues --    0.32353   0.32800   0.33057   0.33263   0.33615
 Alpha virt. eigenvalues --    0.33789   0.33980   0.34766   0.34936   0.35026
 Alpha virt. eigenvalues --    0.35285   0.35382   0.35806   0.36282   0.36552
 Alpha virt. eigenvalues --    0.37037   0.37377   0.37675   0.37788   0.38429
 Alpha virt. eigenvalues --    0.38880   0.39133   0.39406   0.39835   0.40245
 Alpha virt. eigenvalues --    0.40809   0.40902   0.41305   0.41718   0.41765
 Alpha virt. eigenvalues --    0.42312   0.42702   0.42862   0.43444   0.44080
 Alpha virt. eigenvalues --    0.44365   0.44643   0.45135   0.45477   0.45623
 Alpha virt. eigenvalues --    0.46298   0.46539   0.47019   0.47139   0.47238
 Alpha virt. eigenvalues --    0.47501   0.47908   0.48487   0.48989   0.49619
 Alpha virt. eigenvalues --    0.49896   0.50406   0.50944   0.51357   0.51506
 Alpha virt. eigenvalues --    0.51975   0.52471   0.52921   0.53109   0.53472
 Alpha virt. eigenvalues --    0.54129   0.54347   0.55063   0.55390   0.55534
 Alpha virt. eigenvalues --    0.56041   0.56896   0.56961   0.57071   0.57938
 Alpha virt. eigenvalues --    0.58583   0.59096   0.59134   0.59865   0.59995
 Alpha virt. eigenvalues --    0.60359   0.60726   0.61032   0.61262   0.61540
 Alpha virt. eigenvalues --    0.62561   0.62885   0.63061   0.63262   0.64200
 Alpha virt. eigenvalues --    0.64504   0.64750   0.65454   0.65648   0.66172
 Alpha virt. eigenvalues --    0.66455   0.66468   0.66976   0.67175   0.67657
 Alpha virt. eigenvalues --    0.67796   0.68058   0.68552   0.68733   0.69115
 Alpha virt. eigenvalues --    0.69619   0.69731   0.70064   0.70306   0.70432
 Alpha virt. eigenvalues --    0.70778   0.70951   0.71619   0.71947   0.72146
 Alpha virt. eigenvalues --    0.72472   0.72840   0.73216   0.73468   0.73676
 Alpha virt. eigenvalues --    0.74050   0.74223   0.74431   0.74590   0.74932
 Alpha virt. eigenvalues --    0.75576   0.75879   0.76470   0.76955   0.77204
 Alpha virt. eigenvalues --    0.77634   0.77803   0.78133   0.78453   0.79299
 Alpha virt. eigenvalues --    0.79508   0.79835   0.80026   0.80547   0.80823
 Alpha virt. eigenvalues --    0.80892   0.81431   0.81899   0.82578   0.83189
 Alpha virt. eigenvalues --    0.83258   0.83554   0.84098   0.84441   0.85856
 Alpha virt. eigenvalues --    0.86104   0.86635   0.87045   0.87581   0.87776
 Alpha virt. eigenvalues --    0.89496   0.89812   0.90580   0.91155   0.92144
 Alpha virt. eigenvalues --    0.93027   0.93479   0.94295   0.95172   0.95463
 Alpha virt. eigenvalues --    0.96245   0.96903   0.97137   0.98101   0.99415
 Alpha virt. eigenvalues --    1.00514   1.01550   1.02190   1.03176   1.04863
 Alpha virt. eigenvalues --    1.05457   1.05869   1.06774   1.07501   1.08106
 Alpha virt. eigenvalues --    1.09764   1.11677   1.13038   1.14147   1.15141
 Alpha virt. eigenvalues --    1.15717   1.16801   1.17591   1.17938   1.19596
 Alpha virt. eigenvalues --    1.19827   1.20724   1.21260   1.21936   1.23388
 Alpha virt. eigenvalues --    1.24480   1.25626   1.26097   1.26927   1.27734
 Alpha virt. eigenvalues --    1.28028   1.28582   1.29474   1.30136   1.32108
 Alpha virt. eigenvalues --    1.32690   1.33003   1.33576   1.34310   1.34696
 Alpha virt. eigenvalues --    1.35997   1.36750   1.37587   1.38161   1.38529
 Alpha virt. eigenvalues --    1.40171   1.40648   1.41094   1.41233   1.42451
 Alpha virt. eigenvalues --    1.42952   1.44977   1.45896   1.46070   1.47365
 Alpha virt. eigenvalues --    1.48616   1.49079   1.50513   1.51117   1.51762
 Alpha virt. eigenvalues --    1.52729   1.53491   1.54044   1.54663   1.55484
 Alpha virt. eigenvalues --    1.55802   1.56966   1.57650   1.58015   1.58448
 Alpha virt. eigenvalues --    1.58975   1.59300   1.59881   1.60349   1.60636
 Alpha virt. eigenvalues --    1.61023   1.61494   1.61914   1.62195   1.62806
 Alpha virt. eigenvalues --    1.63304   1.64343   1.64654   1.64691   1.64990
 Alpha virt. eigenvalues --    1.65797   1.66635   1.66963   1.67120   1.67758
 Alpha virt. eigenvalues --    1.68447   1.68926   1.69406   1.69873   1.70320
 Alpha virt. eigenvalues --    1.70653   1.71044   1.72020   1.72428   1.72793
 Alpha virt. eigenvalues --    1.72994   1.73664   1.74375   1.74969   1.76172
 Alpha virt. eigenvalues --    1.76659   1.76865   1.78148   1.78489   1.78857
 Alpha virt. eigenvalues --    1.80174   1.80922   1.81342   1.82385   1.83234
 Alpha virt. eigenvalues --    1.84250   1.84906   1.85238   1.85983   1.87235
 Alpha virt. eigenvalues --    1.88339   1.88826   1.89999   1.90726   1.91260
 Alpha virt. eigenvalues --    1.92730   1.93890   1.94050   1.94580   1.96896
 Alpha virt. eigenvalues --    1.97681   1.98356   1.99053   2.00786   2.01874
 Alpha virt. eigenvalues --    2.03173   2.03352   2.04035   2.04819   2.05713
 Alpha virt. eigenvalues --    2.06474   2.06938   2.08350   2.08846   2.09029
 Alpha virt. eigenvalues --    2.10003   2.11170   2.12761   2.14012   2.14579
 Alpha virt. eigenvalues --    2.17021   2.17809   2.18322   2.19994   2.20913
 Alpha virt. eigenvalues --    2.21824   2.23079   2.24502   2.26239   2.27218
 Alpha virt. eigenvalues --    2.27753   2.29031   2.29277   2.30976   2.32929
 Alpha virt. eigenvalues --    2.34373   2.35070   2.36023   2.36870   2.38838
 Alpha virt. eigenvalues --    2.39919   2.43710   2.46712   2.48730   2.49807
 Alpha virt. eigenvalues --    2.50718   2.51639   2.53127   2.53632   2.54740
 Alpha virt. eigenvalues --    2.55034   2.55535   2.56410   2.56786   2.57261
 Alpha virt. eigenvalues --    2.58258   2.58566   2.58851   2.59224   2.60016
 Alpha virt. eigenvalues --    2.61039   2.61931   2.63422   2.65881   2.66728
 Alpha virt. eigenvalues --    2.66813   2.67569   2.69127   2.69909   2.70026
 Alpha virt. eigenvalues --    2.71121   2.71879   2.72506   2.73134   2.73770
 Alpha virt. eigenvalues --    2.74430   2.75266   2.78345   2.79300   2.82489
 Alpha virt. eigenvalues --    2.85296   2.86168   2.87264   2.88768   2.89326
 Alpha virt. eigenvalues --    2.90399   2.90892   2.92679   2.93046   2.93869
 Alpha virt. eigenvalues --    2.94583   2.97280   2.97534   2.98331   2.99079
 Alpha virt. eigenvalues --    2.99603   3.00675   3.01958   3.02599   3.03229
 Alpha virt. eigenvalues --    3.03547   3.04296   3.04722   3.06731   3.07173
 Alpha virt. eigenvalues --    3.07573   3.10143   3.11163   3.11515   3.13618
 Alpha virt. eigenvalues --    3.14602   3.15999   3.17040   3.17931   3.18166
 Alpha virt. eigenvalues --    3.19381   3.19996   3.20550   3.21753   3.22197
 Alpha virt. eigenvalues --    3.23107   3.23782   3.24326   3.25625   3.25837
 Alpha virt. eigenvalues --    3.26826   3.27539   3.27644   3.28476   3.30618
 Alpha virt. eigenvalues --    3.31287   3.31869   3.32344   3.33452   3.33542
 Alpha virt. eigenvalues --    3.35718   3.37126   3.37413   3.38255   3.39426
 Alpha virt. eigenvalues --    3.39643   3.40718   3.41063   3.42199   3.43035
 Alpha virt. eigenvalues --    3.45704   3.46914   3.48066   3.51041   3.52338
 Alpha virt. eigenvalues --    3.52453   3.53244   3.58147   3.61354   3.66332
 Alpha virt. eigenvalues --    3.75225   3.77782   3.79764   3.83469   3.85843
 Alpha virt. eigenvalues --    3.89017   3.93336   3.94695   3.98551   4.02504
 Alpha virt. eigenvalues --    4.02814   4.05556   4.07094   4.09566   4.10611
 Alpha virt. eigenvalues --    4.11665   4.15332   4.17400   4.18162   4.20456
 Alpha virt. eigenvalues --    4.22390   4.25010   4.27613   4.29033   4.33126
 Alpha virt. eigenvalues --    4.44891   4.54756   5.13989   5.15853   5.17272
 Alpha virt. eigenvalues --    5.20687   5.25619   5.28727   5.31361   5.32966
 Alpha virt. eigenvalues --    5.41305   5.44605   5.55934   5.72368   5.72899
 Alpha virt. eigenvalues --    5.79237   5.83283  23.44856  23.50314  23.52280
 Alpha virt. eigenvalues --   23.52911  23.61858  23.64513  23.65552  23.67512
 Alpha virt. eigenvalues --   23.67838  23.70956  23.72299  23.73828  23.75934
 Alpha virt. eigenvalues --   23.78563  23.79541  23.80155  23.84073  23.85053
 Alpha virt. eigenvalues --   23.86165  23.88657  23.88944  23.91644  23.96231
 Alpha virt. eigenvalues --   24.17386  24.20915  24.22915  49.97259  50.00592
 Alpha virt. eigenvalues --   50.02192  50.03104  50.05751
          Condensed to atoms (all electrons):
 Mulliken atomic charges:
              1
     1  C   -0.707240
     2  C    0.972571
     3  C   -0.050594
     4  C    0.447912
     5  C    1.233957
     6  C   -1.358371
     7  C   -0.851198
     8  C    0.422884
     9  C    0.868389
    10  C   -1.205517
    11  C   -1.146063
    12  O   -0.151371
    13  C    0.521444
    14  C   -0.329497
    15  C   -0.921643
    16  O   -0.163368
    17  C   -0.446915
    18  C    0.993269
    19  O    0.212809
    20  C   -1.451974
    21  O   -0.066766
    22  C   -0.342547
    23  C   -0.269954
    24  O    0.051779
    25  C    0.772124
    26  C   -1.081850
    27  C   -0.996807
    28  C   -0.868998
    29  C   -0.639638
    30  H    0.240489
    31  H    0.265660
    32  C   -1.200948
    33  H    0.207259
    34  H    0.266162
    35  H    0.270355
    36  H    0.267702
    37  H    0.252568
    38  H    0.221713
    39  H    0.260208
    40  H    0.238080
    41  H    0.268799
    42  H    0.297567
    43  H    0.262580
    44  H    0.280882
    45  H    0.304277
    46  H    0.255097
    47  H    0.244378
    48  H    0.266019
    49  H    0.282629
    50  H    0.260261
    51  H    0.228805
    52  H    0.214038
    53  H    0.265173
    54  H    0.248546
    55  H    0.310524
    56  H    0.261734
    57  H    0.271961
    58  H    0.273398
    59  H    0.250282
    60  H    0.262058
    61  H    0.250014
    62  C   -1.055013
    63  H    0.240127
    64  H    0.270206
    65  H    0.249583
 Sum of Mulliken atomic charges =   0.00000
 Mulliken charges with hydrogens summed into heavy atoms:
              1
     1  C   -0.499981
     2  C    0.972571
     3  C    0.215066
     4  C    0.447912
     5  C    1.233957
     6  C   -0.821854
     7  C   -0.851198
     8  C    0.422884
     9  C    0.868389
    10  C   -1.205517
    11  C   -1.146063
    12  O   -0.151371
    13  C    0.789147
    14  C    0.144784
    15  C   -0.154556
    16  O   -0.163368
    17  C   -0.206426
    18  C    0.993269
    19  O    0.212809
    20  C   -0.891827
    21  O    0.214116
    22  C    0.216827
    23  C   -0.025576
    24  O    0.051779
    25  C    0.772124
    26  C   -0.272940
    27  C   -0.553965
    28  C   -0.044755
    29  C    0.167455
    32  C   -0.438594
    62  C   -0.295097
 Sum of Mulliken charges with hydrogens summed into heavy atoms =   0.00000
 Electronic spatial extent (au):  <R**2>=          11510.0656
 Charge=              0.0000 electrons
 Dipole moment (field-independent basis, Debye):
    X=              4.7846    Y=              2.7626    Z=             -1.1201  Tot=              5.6373
 Quadrupole moment (field-independent basis, Debye-Ang):
   XX=           -192.2037   YY=           -180.1281   ZZ=           -189.2188
   XY=              2.5834   XZ=              9.3379   YZ=             -0.8436
 Traceless Quadrupole moment (field-independent basis, Debye-Ang):
   XX=             -5.0201   YY=              7.0554   ZZ=             -2.0352
   XY=              2.5834   XZ=              9.3379   YZ=             -0.8436
 Octapole moment (field-independent basis, Debye-Ang**2):
  XXX=             47.1938  YYY=             60.6794  ZZZ=              2.8254  XYY=              4.5442
  XXY=            -21.7720  XXZ=            -18.1354  XZZ=             17.4468  YZZ=             -4.3525
  YYZ=            -37.3539  XYZ=             20.0106
 Hexadecapole moment (field-independent basis, Debye-Ang**3):
 XXXX=          -8461.3005 YYYY=          -4779.5950 ZZZZ=          -2596.9406 XXXY=             20.8722
 XXXZ=            115.9175 YYYX=            -53.9061 YYYZ=             11.2683 ZZZX=             23.7440
 ZZZY=            -18.3302 XXYY=          -2128.3309 XXZZ=          -1887.9799 YYZZ=          -1213.3958
 XXYZ=              4.8885 YYXZ=            -33.1703 ZZXY=            -19.9496
 N-N= 3.513391011534D+03 E-N=-1.025988179964D+04  KE= 1.381922462342D+03
 1\1\GINC-B0603\FOpt\RB3LYP\6-311+G(d)\C26H34O5\CAOFEI\13-Apr-2021\0\\#
  opt b3lyp/6-311+g(d) geom=connectivity\\Title Card Required\\0,1\C,2.
 4367105068,0.3354581962,2.5547520656\C,3.0517583372,0.9925602965,1.568
 2414672\C,2.3739640856,1.1377359432,0.2264247835\C,1.3924744888,-0.010
 9037892,-0.179017468\C,0.8823063381,-0.9305997558,0.9787182631\C,1.078
 1751844,-0.2881487283,2.3837892846\C,0.2646182582,0.7114426099,-0.9768
 179665\C,-1.0132595803,0.8810343191,-0.1701370004\C,-1.5276344162,-0.0
 982682074,0.616050233\C,-0.6423796118,-1.2476388492,0.8839583283\C,-2.
 8960116639,0.0340520805,1.240968696\O,-3.2194274059,1.090370514,1.7482
 051091\C,-3.8344643161,-1.1668169572,1.1893862582\C,-4.1551139857,-1.5
 457205836,-0.2811645384\C,-5.0823334238,-0.9407174921,2.0451171668\O,-
 1.0442565289,-2.3596543348,1.1856971955\C,0.6717928742,2.1855351876,-1
 .1676281816\C,-0.6836455651,2.9205763241,-1.2483405843\O,-1.5740677513
 ,2.0592798078,-0.4190172298\C,1.5533721913,2.4430591932,0.0675501578\O
 ,-0.0702190248,0.0372739684,-2.1770326243\C,1.7260200151,-2.2211941934
 ,0.8235124831\C,2.6757506523,-1.9628480151,-0.3588350261\O,2.038305979
 4,-0.9001454407,-1.1013120997\C,2.933604908,-3.1465748822,-1.259810797
 6\C,1.7981342859,-3.6326480136,-2.1216887557\C,4.1300575597,-3.7373201
 797,-1.2449622928\C,-1.2532371539,2.9433226986,-2.6660630526\C,-0.7307
 500689,4.3048149426,-0.615443092\H,1.2439541117,2.3107550614,-2.089333
 8682\H,3.138258947,1.1388357816,-0.5600273519\C,4.397666543,1.64609103
 61,1.7272053429\H,2.9093884748,0.2564466314,3.5312621552\H,0.910642294
 8,-1.0627986683,3.1368855897\H,0.3000075561,0.4646181345,2.559793922\H
 ,-3.265344517,-2.0108937014,1.592221977\H,-3.21941705,-1.7890524721,-0
 .7935078726\H,-4.7358107992,-2.4748018625,-0.2610245725\H,-4.816844785
 2,-0.7788241873,3.0923128434\H,-5.7374174685,-1.8157924147,1.994778392
 \H,-5.6512618503,-0.0669607239,1.7236355742\H,0.9416510884,2.600318464
 2,0.9607840228\H,2.19170085,3.3223980228,-0.0408510127\H,0.6295814996,
 -0.6209250005,-2.3236922542\H,1.0633531148,-3.0663057441,0.6395928152\
 H,2.2951786701,-2.4497896274,1.7254349184\H,3.633893089,-1.5833187558,
 0.0130683002\H,1.5679968844,-2.9086838965,-2.9093655881\H,0.878025685,
 -3.7772515991,-1.5477125443\H,2.0487231373,-4.5787511314,-2.6047542925
 \H,4.3361521387,-4.6261042389,-1.8329800085\H,4.9473986192,-3.35929003
 55,-0.6379940813\H,-2.2859496405,3.2990980726,-2.6489899371\H,-0.67043
 14245,3.6246707455,-3.2926406427\H,-1.22860779,1.9530199397,-3.1202916
 603\H,-0.0649990382,4.9853255794,-1.1535105909\H,-0.4334359179,4.28658
 11997,0.4331952521\H,-1.7435266666,4.70930105,-0.6693438259\H,4.794920
 8938,1.5128964929,2.735706921\H,5.1256375387,1.2337634806,1.0184557018
 \H,4.3472481571,2.7228883234,1.5278744954\C,-4.9160312099,-0.484111354
 8,-1.0812041057\H,-5.0783978856,-0.8234381497,-2.1083831335\H,-4.36735
 43313,0.461012784,-1.1315496098\H,-5.8976080875,-0.2703968951,-0.65022
 60525\\Version=EM64L-G09RevB.01\State=1-A\HF=-1387.65076\RMSD=8.634e-0
 9\RMSF=5.582e-06\Dipole=2.028549,0.6774947,-0.587375\Quadrupole=-1.981
 1728,3.9481607,-1.9669879,3.7205481,6.5237812,-2.4607151\PG=C01 [X(C26
 H34O5)]\\@


 UNLESS WE CHANGE DIRECTIONS, WE WILL WIND UP WHERE WE ARE HEADED.
     -- CONFUCIUS
 Job cpu time:  1 days 20 hours 20 minutes  5.5 seconds.
 File lengths (MBytes):  RWF=    372 Int=      0 D2E=      0 Chk=     38 Scr=      1
 Normal termination of Gaussian 09 at Tue Apr 13 22:11:50 2021.
