 Entering Gaussian System, Link 0=g09
 Initial command:
 /public/software/g09/g09/l1.exe /tmp/Gau-13440.inp -scrdir=/tmp/
 Entering Link 1 = /public/software/g09/g09/l1.exe PID=     13441.
  
 Copyright (c) 1988,1990,1992,1993,1995,1998,2003,2009,2010,
            Gaussian, Inc.  All Rights Reserved.
  
 This is part of the Gaussian(R) 09 program.  It is based on
 the Gaussian(R) 03 system (copyright 2003, Gaussian, Inc.),
 the Gaussian(R) 98 system (copyright 1998, Gaussian, Inc.),
 the Gaussian(R) 94 system (copyright 1995, Gaussian, Inc.),
 the Gaussian 92(TM) system (copyright 1992, Gaussian, Inc.),
 the Gaussian 90(TM) system (copyright 1990, Gaussian, Inc.),
 the Gaussian 88(TM) system (copyright 1988, Gaussian, Inc.),
 the Gaussian 86(TM) system (copyright 1986, Carnegie Mellon
 University), and the Gaussian 82(TM) system (copyright 1983,
 Carnegie Mellon University). Gaussian is a federally registered
 trademark of Gaussian, Inc.
  
 This software contains proprietary and confidential information,
 including trade secrets, belonging to Gaussian, Inc.
  
 This software is provided under written license and may be
 used, copied, transmitted, or stored only in accord with that
 written license.
  
 The following legend is applicable only to US Government
 contracts under FAR:
  
                    RESTRICTED RIGHTS LEGEND
  
 Use, reproduction and disclosure by the US Government is
 subject to restrictions as set forth in subparagraphs (a)
 and (c) of the Commercial Computer Software - Restricted
 Rights clause in FAR 52.227-19.
  
 Gaussian, Inc.
 340 Quinnipiac St., Bldg. 40, Wallingford CT 06492
  
  
 ---------------------------------------------------------------
 Warning -- This program may not be used in any manner that
 competes with the business of Gaussian, Inc. or will provide
 assistance to any competitor of Gaussian, Inc.  The licensee
 of this program is prohibited from giving any competitor of
 Gaussian, Inc. access to this program.  By using this program,
 the user acknowledges that Gaussian, Inc. is engaged in the
 business of creating and licensing software in the field of
 computational chemistry and represents and warrants to the
 licensee that it is not a competitor of Gaussian, Inc. and that
 it will not use this program in any manner prohibited above.
 ---------------------------------------------------------------
  

 Cite this work as:
 Gaussian 09, Revision B.01,
 M. J. Frisch, G. W. Trucks, H. B. Schlegel, G. E. Scuseria, 
 M. A. Robb, J. R. Cheeseman, G. Scalmani, V. Barone, B. Mennucci, 
 G. A. Petersson, H. Nakatsuji, M. Caricato, X. Li, H. P. Hratchian, 
 A. F. Izmaylov, J. Bloino, G. Zheng, J. L. Sonnenberg, M. Hada, 
 M. Ehara, K. Toyota, R. Fukuda, J. Hasegawa, M. Ishida, T. Nakajima, 
 Y. Honda, O. Kitao, H. Nakai, T. Vreven, J. A. Montgomery, Jr., 
 J. E. Peralta, F. Ogliaro, M. Bearpark, J. J. Heyd, E. Brothers, 
 K. N. Kudin, V. N. Staroverov, T. Keith, R. Kobayashi, J. Normand, 
 K. Raghavachari, A. Rendell, J. C. Burant, S. S. Iyengar, J. Tomasi, 
 M. Cossi, N. Rega, J. M. Millam, M. Klene, J. E. Knox, J. B. Cross, 
 V. Bakken, C. Adamo, J. Jaramillo, R. Gomperts, R. E. Stratmann, 
 O. Yazyev, A. J. Austin, R. Cammi, C. Pomelli, J. W. Ochterski, 
 R. L. Martin, K. Morokuma, V. G. Zakrzewski, G. A. Voth, 
 P. Salvador, J. J. Dannenberg, S. Dapprich, A. D. Daniels, 
 O. Farkas, J. B. Foresman, J. V. Ortiz, J. Cioslowski, 
 and D. J. Fox, Gaussian, Inc., Wallingford CT, 2010.
 
 ******************************************
 Gaussian 09:  EM64L-G09RevB.01 12-Aug-2010
                13-Apr-2021 
 ******************************************
 %mem=600MW
 %nprocshared=10
 Will use up to   10 processors via shared memory.
 ----------------------------------------
 # opt b3lyp/6-311+g(d) geom=connectivity
 ----------------------------------------
 1/14=-1,18=20,19=15,26=3,38=1,57=2/1,3;
 2/9=110,12=2,17=6,18=5,40=1/2;
 3/5=4,6=6,7=11,11=2,16=1,25=1,30=1,71=1,74=-5/1,2,3;
 4//1;
 5/5=2,38=5/2;
 6/7=2,8=2,9=2,10=2,28=1/1;
 7//1,2,3,16;
 1/14=-1,18=20,19=15/3(2);
 2/9=110/2;
 99//99;
 2/9=110/2;
 3/5=4,6=6,7=11,11=2,16=1,25=1,30=1,71=1,74=-5/1,2,3;
 4/5=5,16=3/1;
 5/5=2,38=5/2;
 7//1,2,3,16;
 1/14=-1,18=20,19=15/3(-5);
 2/9=110/2;
 6/7=2,8=2,9=2,10=2,19=2,28=1/1;
 99/9=1/99;
 -------------------
 Title Card Required
 -------------------
 Symbolic Z-matrix:
 Charge =  0 Multiplicity = 1
 C                     0.41597  -0.96236   3.10497 
 C                     0.58081   0.36461   3.04689 
 C                     1.2443    1.02187   1.85369 
 C                     1.40536   0.1242    0.58696 
 C                     0.8234   -1.31157   0.60863 
 C                     0.86701  -1.9161    2.03304 
 C                     0.83743   0.98106  -0.57345 
 C                    -0.65713   0.80358  -0.76939 
 C                    -1.34143  -0.35163  -0.53713 
 C                    -0.61684  -1.48424   0.05319 
 C                    -2.80937  -0.4479   -0.86824 
 O                    -3.24238   0.08746  -1.87591 
 C                    -3.75951  -1.10715   0.13763 
 C                    -4.90885  -1.84329  -0.57215 
 C                    -4.29135   0.01357   1.05866 
 O                    -1.11761  -2.60369   0.12849 
 C                     0.8531    2.45898  -0.12755 
 C                    -0.26389   3.08723  -0.99393 
 O                    -1.2183    1.95372  -1.14116 
 C                     0.54799   2.33144   1.37937 
 O                     1.45926   0.697    -1.8115 
 C                     1.80486  -2.06584  -0.32378 
 C                     3.15205  -1.39918  -0.00786 
 O                     2.82393  -0.03874   0.3328 
 C                     4.18476  -1.45914  -1.11392 
 C                     4.48563  -2.84247  -1.63596 
 C                     4.81758  -0.36834  -1.55858 
 C                     0.21063   3.48221  -2.39439 
 C                    -1.05569   4.22379  -0.35286 
 H                     1.82409   2.92932  -0.31008 
 H                     2.2735    1.28011   2.14061 
 C                     0.19349   1.26564   4.19363 
 H                    -0.02912  -1.40131   3.99698 
 H                     1.89167  -2.24823   2.25883 
 H                     0.24963  -2.81912   2.02513 
 H                    -3.197    -1.8203    0.74473 
 H                    -5.62278  -2.17679   0.19334 
 H                    -5.4389   -1.12908  -1.21328 
 H                    -3.47631   0.52939   1.58066 
 H                    -4.96134  -0.40643   1.81754 
 H                    -4.84948   0.75719   0.47897 
 H                     0.87745   3.20378   1.95095 
 H                    -0.53256   2.23904   1.53252 
 H                     2.40051   0.54224  -1.59933 
 H                     1.53902  -1.90117  -1.37246 
 H                     1.79958  -3.14118  -0.12865 
 H                     3.59363  -1.87068   0.88574 
 H                     4.78217  -3.51741  -0.82132 
 H                     3.60776  -3.29375  -2.11534 
 H                     5.29802  -2.81996  -2.36767 
 H                     5.56498  -0.4337   -2.3447 
 H                     4.62944   0.61381  -1.13715 
 H                    -0.65209   3.73303  -3.01961 
 H                     0.85882   4.36411  -2.33316 
 H                     0.7659    2.66855  -2.86376 
 H                    -0.39931   5.0849   -0.18527 
 H                    -1.86533   4.53665  -1.01945 
 H                    -1.49758   3.9327    0.60291 
 H                    -0.21501   0.68788   5.02839 
 H                     1.06237   1.82755   4.56517 
 H                    -0.55812   2.01022   3.90153 
 C                    -4.44885  -3.04444  -1.40548 
 H                    -5.30641  -3.56548  -1.84694 
 H                    -3.795    -2.72624  -2.22432 
 H                    -3.89001  -3.76285  -0.79525 
 

 GradGradGradGradGradGradGradGradGradGradGradGradGradGradGradGradGradGrad
 Berny optimization.
 Initialization pass.
                           ----------------------------
                           !    Initial Parameters    !
                           ! (Angstroms and Degrees)  !
 --------------------------                            --------------------------
 ! Name  Definition              Value          Derivative Info.                !
 --------------------------------------------------------------------------------
 ! R1    R(1,2)                  1.3384         estimate D2E/DX2                !
 ! R2    R(1,6)                  1.504          estimate D2E/DX2                !
 ! R3    R(1,33)                 1.0892         estimate D2E/DX2                !
 ! R4    R(2,3)                  1.5152         estimate D2E/DX2                !
 ! R5    R(2,32)                 1.5089         estimate D2E/DX2                !
 ! R6    R(3,4)                  1.5609         estimate D2E/DX2                !
 ! R7    R(3,20)                 1.5572         estimate D2E/DX2                !
 ! R8    R(3,31)                 1.0992         estimate D2E/DX2                !
 ! R9    R(4,5)                  1.5494         estimate D2E/DX2                !
 ! R10   R(4,7)                  1.5503         estimate D2E/DX2                !
 ! R11   R(4,24)                 1.4503         estimate D2E/DX2                !
 ! R12   R(5,6)                  1.548          estimate D2E/DX2                !
 ! R13   R(5,10)                 1.5533         estimate D2E/DX2                !
 ! R14   R(5,22)                 1.5497         estimate D2E/DX2                !
 ! R15   R(6,34)                 1.1005         estimate D2E/DX2                !
 ! R16   R(6,35)                 1.0939         estimate D2E/DX2                !
 ! R17   R(7,8)                  1.5178         estimate D2E/DX2                !
 ! R18   R(7,17)                 1.5438         estimate D2E/DX2                !
 ! R19   R(7,21)                 1.4143         estimate D2E/DX2                !
 ! R20   R(8,9)                  1.3626         estimate D2E/DX2                !
 ! R21   R(8,19)                 1.3326         estimate D2E/DX2                !
 ! R22   R(9,10)                 1.4684         estimate D2E/DX2                !
 ! R23   R(9,11)                 1.5079         estimate D2E/DX2                !
 ! R24   R(10,16)                1.2287         estimate D2E/DX2                !
 ! R25   R(11,12)                1.2205         estimate D2E/DX2                !
 ! R26   R(11,13)                1.5327         estimate D2E/DX2                !
 ! R27   R(13,14)                1.5384         estimate D2E/DX2                !
 ! R28   R(13,15)                1.545          estimate D2E/DX2                !
 ! R29   R(13,36)                1.0925         estimate D2E/DX2                !
 ! R30   R(14,37)                1.0986         estimate D2E/DX2                !
 ! R31   R(14,38)                1.0964         estimate D2E/DX2                !
 ! R32   R(14,62)                1.5326         estimate D2E/DX2                !
 ! R33   R(15,39)                1.0968         estimate D2E/DX2                !
 ! R34   R(15,40)                1.096          estimate D2E/DX2                !
 ! R35   R(15,41)                1.0957         estimate D2E/DX2                !
 ! R36   R(17,18)                1.5469         estimate D2E/DX2                !
 ! R37   R(17,20)                1.5428         estimate D2E/DX2                !
 ! R38   R(17,30)                1.0942         estimate D2E/DX2                !
 ! R39   R(18,19)                1.4891         estimate D2E/DX2                !
 ! R40   R(18,28)                1.5305         estimate D2E/DX2                !
 ! R41   R(18,29)                1.5263         estimate D2E/DX2                !
 ! R42   R(20,42)                1.0937         estimate D2E/DX2                !
 ! R43   R(20,43)                1.0953         estimate D2E/DX2                !
 ! R44   R(21,44)                0.9772         estimate D2E/DX2                !
 ! R45   R(22,23)                1.536          estimate D2E/DX2                !
 ! R46   R(22,45)                1.0943         estimate D2E/DX2                !
 ! R47   R(22,46)                1.0929         estimate D2E/DX2                !
 ! R48   R(23,24)                1.4403         estimate D2E/DX2                !
 ! R49   R(23,25)                1.5144         estimate D2E/DX2                !
 ! R50   R(23,47)                1.1026         estimate D2E/DX2                !
 ! R51   R(25,26)                1.5089         estimate D2E/DX2                !
 ! R52   R(25,27)                1.3372         estimate D2E/DX2                !
 ! R53   R(26,48)                1.0987         estimate D2E/DX2                !
 ! R54   R(26,49)                1.0973         estimate D2E/DX2                !
 ! R55   R(26,50)                1.0936         estimate D2E/DX2                !
 ! R56   R(27,51)                1.0867         estimate D2E/DX2                !
 ! R57   R(27,52)                1.0852         estimate D2E/DX2                !
 ! R58   R(28,53)                1.0946         estimate D2E/DX2                !
 ! R59   R(28,54)                1.0962         estimate D2E/DX2                !
 ! R60   R(28,55)                1.0912         estimate D2E/DX2                !
 ! R61   R(29,56)                1.0956         estimate D2E/DX2                !
 ! R62   R(29,57)                1.0944         estimate D2E/DX2                !
 ! R63   R(29,58)                1.0925         estimate D2E/DX2                !
 ! R64   R(32,59)                1.0943         estimate D2E/DX2                !
 ! R65   R(32,60)                1.0994         estimate D2E/DX2                !
 ! R66   R(32,61)                1.0976         estimate D2E/DX2                !
 ! R67   R(62,63)                1.0963         estimate D2E/DX2                !
 ! R68   R(62,64)                1.0951         estimate D2E/DX2                !
 ! R69   R(62,65)                1.0958         estimate D2E/DX2                !
 ! A1    A(2,1,6)              124.1133         estimate D2E/DX2                !
 ! A2    A(2,1,33)             119.0385         estimate D2E/DX2                !
 ! A3    A(6,1,33)             116.7855         estimate D2E/DX2                !
 ! A4    A(1,2,3)              121.2084         estimate D2E/DX2                !
 ! A5    A(1,2,32)             121.8319         estimate D2E/DX2                !
 ! A6    A(3,2,32)             116.8612         estimate D2E/DX2                !
 ! A7    A(2,3,4)              115.7722         estimate D2E/DX2                !
 ! A8    A(2,3,20)             114.1329         estimate D2E/DX2                !
 ! A9    A(2,3,31)             107.8396         estimate D2E/DX2                !
 ! A10   A(4,3,20)             106.4153         estimate D2E/DX2                !
 ! A11   A(4,3,31)             104.4969         estimate D2E/DX2                !
 ! A12   A(20,3,31)            107.494          estimate D2E/DX2                !
 ! A13   A(3,4,5)              118.8699         estimate D2E/DX2                !
 ! A14   A(3,4,7)              104.5838         estimate D2E/DX2                !
 ! A15   A(3,4,24)             107.924          estimate D2E/DX2                !
 ! A16   A(5,4,7)              112.6471         estimate D2E/DX2                !
 ! A17   A(5,4,24)             105.4098         estimate D2E/DX2                !
 ! A18   A(7,4,24)             106.8128         estimate D2E/DX2                !
 ! A19   A(4,5,6)              111.3566         estimate D2E/DX2                !
 ! A20   A(4,5,10)             116.5059         estimate D2E/DX2                !
 ! A21   A(4,5,22)             101.8136         estimate D2E/DX2                !
 ! A22   A(6,5,10)             108.1656         estimate D2E/DX2                !
 ! A23   A(6,5,22)             110.2256         estimate D2E/DX2                !
 ! A24   A(10,5,22)            108.5405         estimate D2E/DX2                !
 ! A25   A(1,6,5)              113.5606         estimate D2E/DX2                !
 ! A26   A(1,6,34)             108.9268         estimate D2E/DX2                !
 ! A27   A(1,6,35)             111.0609         estimate D2E/DX2                !
 ! A28   A(5,6,34)             109.4433         estimate D2E/DX2                !
 ! A29   A(5,6,35)             107.4467         estimate D2E/DX2                !
 ! A30   A(34,6,35)            106.1296         estimate D2E/DX2                !
 ! A31   A(4,7,8)              113.1259         estimate D2E/DX2                !
 ! A32   A(4,7,17)             108.0119         estimate D2E/DX2                !
 ! A33   A(4,7,21)             112.5302         estimate D2E/DX2                !
 ! A34   A(8,7,17)              99.162          estimate D2E/DX2                !
 ! A35   A(8,7,21)             107.2453         estimate D2E/DX2                !
 ! A36   A(17,7,21)            116.1462         estimate D2E/DX2                !
 ! A37   A(7,8,9)              124.8651         estimate D2E/DX2                !
 ! A38   A(7,8,19)             110.4724         estimate D2E/DX2                !
 ! A39   A(9,8,19)             124.5944         estimate D2E/DX2                !
 ! A40   A(8,9,10)             118.3346         estimate D2E/DX2                !
 ! A41   A(8,9,11)             120.3704         estimate D2E/DX2                !
 ! A42   A(10,9,11)            121.2917         estimate D2E/DX2                !
 ! A43   A(5,10,9)             121.0342         estimate D2E/DX2                !
 ! A44   A(5,10,16)            117.2123         estimate D2E/DX2                !
 ! A45   A(9,10,16)            121.7534         estimate D2E/DX2                !
 ! A46   A(9,11,12)            119.9129         estimate D2E/DX2                !
 ! A47   A(9,11,13)            119.1334         estimate D2E/DX2                !
 ! A48   A(12,11,13)           120.7032         estimate D2E/DX2                !
 ! A49   A(11,13,14)           111.4798         estimate D2E/DX2                !
 ! A50   A(11,13,15)           107.0141         estimate D2E/DX2                !
 ! A51   A(11,13,36)           109.0428         estimate D2E/DX2                !
 ! A52   A(14,13,15)           111.4048         estimate D2E/DX2                !
 ! A53   A(14,13,36)           109.1899         estimate D2E/DX2                !
 ! A54   A(15,13,36)           108.6309         estimate D2E/DX2                !
 ! A55   A(13,14,37)           108.0171         estimate D2E/DX2                !
 ! A56   A(13,14,38)           108.6188         estimate D2E/DX2                !
 ! A57   A(13,14,62)           113.6819         estimate D2E/DX2                !
 ! A58   A(37,14,38)           106.9199         estimate D2E/DX2                !
 ! A59   A(37,14,62)           109.6336         estimate D2E/DX2                !
 ! A60   A(38,14,62)           109.7357         estimate D2E/DX2                !
 ! A61   A(13,15,39)           111.6584         estimate D2E/DX2                !
 ! A62   A(13,15,40)           110.1954         estimate D2E/DX2                !
 ! A63   A(13,15,41)           110.625          estimate D2E/DX2                !
 ! A64   A(39,15,40)           107.7562         estimate D2E/DX2                !
 ! A65   A(39,15,41)           108.1292         estimate D2E/DX2                !
 ! A66   A(40,15,41)           108.3621         estimate D2E/DX2                !
 ! A67   A(7,17,18)            102.6917         estimate D2E/DX2                !
 ! A68   A(7,17,20)            101.5937         estimate D2E/DX2                !
 ! A69   A(7,17,30)            111.8589         estimate D2E/DX2                !
 ! A70   A(18,17,20)           115.9647         estimate D2E/DX2                !
 ! A71   A(18,17,30)           111.8855         estimate D2E/DX2                !
 ! A72   A(20,17,30)           111.9595         estimate D2E/DX2                !
 ! A73   A(17,18,19)           102.0649         estimate D2E/DX2                !
 ! A74   A(17,18,28)           113.1671         estimate D2E/DX2                !
 ! A75   A(17,18,29)           116.2164         estimate D2E/DX2                !
 ! A76   A(19,18,28)           107.7396         estimate D2E/DX2                !
 ! A77   A(19,18,29)           106.0133         estimate D2E/DX2                !
 ! A78   A(28,18,29)           110.6704         estimate D2E/DX2                !
 ! A79   A(8,19,18)            111.0687         estimate D2E/DX2                !
 ! A80   A(3,20,17)            106.1771         estimate D2E/DX2                !
 ! A81   A(3,20,42)            112.1408         estimate D2E/DX2                !
 ! A82   A(3,20,43)            109.1239         estimate D2E/DX2                !
 ! A83   A(17,20,42)           112.6402         estimate D2E/DX2                !
 ! A84   A(17,20,43)           109.7956         estimate D2E/DX2                !
 ! A85   A(42,20,43)           106.9422         estimate D2E/DX2                !
 ! A86   A(7,21,44)            105.3814         estimate D2E/DX2                !
 ! A87   A(5,22,23)            102.7374         estimate D2E/DX2                !
 ! A88   A(5,22,45)            110.4559         estimate D2E/DX2                !
 ! A89   A(5,22,46)            111.6174         estimate D2E/DX2                !
 ! A90   A(23,22,45)           110.1736         estimate D2E/DX2                !
 ! A91   A(23,22,46)           113.2393         estimate D2E/DX2                !
 ! A92   A(45,22,46)           108.541          estimate D2E/DX2                !
 ! A93   A(22,23,24)           104.9986         estimate D2E/DX2                !
 ! A94   A(22,23,25)           115.5126         estimate D2E/DX2                !
 ! A95   A(22,23,47)           109.4116         estimate D2E/DX2                !
 ! A96   A(24,23,25)           111.4378         estimate D2E/DX2                !
 ! A97   A(24,23,47)           107.6644         estimate D2E/DX2                !
 ! A98   A(25,23,47)           107.5699         estimate D2E/DX2                !
 ! A99   A(4,24,23)            111.7397         estimate D2E/DX2                !
 ! A100  A(23,25,26)           115.1484         estimate D2E/DX2                !
 ! A101  A(23,25,27)           122.2283         estimate D2E/DX2                !
 ! A102  A(26,25,27)           122.5793         estimate D2E/DX2                !
 ! A103  A(25,26,48)           111.1302         estimate D2E/DX2                !
 ! A104  A(25,26,49)           111.6338         estimate D2E/DX2                !
 ! A105  A(25,26,50)           111.1471         estimate D2E/DX2                !
 ! A106  A(48,26,49)           106.6906         estimate D2E/DX2                !
 ! A107  A(48,26,50)           107.9535         estimate D2E/DX2                !
 ! A108  A(49,26,50)           108.0881         estimate D2E/DX2                !
 ! A109  A(25,27,51)           121.1311         estimate D2E/DX2                !
 ! A110  A(25,27,52)           121.8104         estimate D2E/DX2                !
 ! A111  A(51,27,52)           117.0403         estimate D2E/DX2                !
 ! A112  A(18,28,53)           109.721          estimate D2E/DX2                !
 ! A113  A(18,28,54)           109.8672         estimate D2E/DX2                !
 ! A114  A(18,28,55)           111.0347         estimate D2E/DX2                !
 ! A115  A(53,28,54)           108.2767         estimate D2E/DX2                !
 ! A116  A(53,28,55)           109.041          estimate D2E/DX2                !
 ! A117  A(54,28,55)           108.8455         estimate D2E/DX2                !
 ! A118  A(18,29,56)           109.7979         estimate D2E/DX2                !
 ! A119  A(18,29,57)           109.9268         estimate D2E/DX2                !
 ! A120  A(18,29,58)           112.2644         estimate D2E/DX2                !
 ! A121  A(56,29,57)           108.1607         estimate D2E/DX2                !
 ! A122  A(56,29,58)           108.5373         estimate D2E/DX2                !
 ! A123  A(57,29,58)           108.0468         estimate D2E/DX2                !
 ! A124  A(2,32,59)            111.1167         estimate D2E/DX2                !
 ! A125  A(2,32,60)            111.0482         estimate D2E/DX2                !
 ! A126  A(2,32,61)            112.2482         estimate D2E/DX2                !
 ! A127  A(59,32,60)           107.8825         estimate D2E/DX2                !
 ! A128  A(59,32,61)           107.7918         estimate D2E/DX2                !
 ! A129  A(60,32,61)           106.5237         estimate D2E/DX2                !
 ! A130  A(14,62,63)           110.8967         estimate D2E/DX2                !
 ! A131  A(14,62,64)           110.9803         estimate D2E/DX2                !
 ! A132  A(14,62,65)           111.3516         estimate D2E/DX2                !
 ! A133  A(63,62,64)           107.7008         estimate D2E/DX2                !
 ! A134  A(63,62,65)           108.1556         estimate D2E/DX2                !
 ! A135  A(64,62,65)           107.6013         estimate D2E/DX2                !
 ! D1    D(6,1,2,3)              0.535          estimate D2E/DX2                !
 ! D2    D(6,1,2,32)          -175.7422         estimate D2E/DX2                !
 ! D3    D(33,1,2,3)           177.5571         estimate D2E/DX2                !
 ! D4    D(33,1,2,32)            1.28           estimate D2E/DX2                !
 ! D5    D(2,1,6,5)            -31.3943         estimate D2E/DX2                !
 ! D6    D(2,1,6,34)            90.8433         estimate D2E/DX2                !
 ! D7    D(2,1,6,35)          -152.6208         estimate D2E/DX2                !
 ! D8    D(33,1,6,5)           151.5221         estimate D2E/DX2                !
 ! D9    D(33,1,6,34)          -86.2403         estimate D2E/DX2                !
 ! D10   D(33,1,6,35)           30.2956         estimate D2E/DX2                !
 ! D11   D(1,2,3,4)             13.9357         estimate D2E/DX2                !
 ! D12   D(1,2,3,20)           138.0036         estimate D2E/DX2                !
 ! D13   D(1,2,3,31)          -102.6416         estimate D2E/DX2                !
 ! D14   D(32,2,3,4)          -169.6095         estimate D2E/DX2                !
 ! D15   D(32,2,3,20)          -45.5416         estimate D2E/DX2                !
 ! D16   D(32,2,3,31)           73.8132         estimate D2E/DX2                !
 ! D17   D(1,2,32,59)            0.2051         estimate D2E/DX2                !
 ! D18   D(1,2,32,60)          120.2928         estimate D2E/DX2                !
 ! D19   D(1,2,32,61)         -120.5845         estimate D2E/DX2                !
 ! D20   D(3,2,32,59)         -176.2259         estimate D2E/DX2                !
 ! D21   D(3,2,32,60)          -56.1383         estimate D2E/DX2                !
 ! D22   D(3,2,32,61)           62.9845         estimate D2E/DX2                !
 ! D23   D(2,3,4,5)              3.2111         estimate D2E/DX2                !
 ! D24   D(2,3,4,7)            129.9227         estimate D2E/DX2                !
 ! D25   D(2,3,4,24)          -116.6068         estimate D2E/DX2                !
 ! D26   D(20,3,4,5)          -124.7808         estimate D2E/DX2                !
 ! D27   D(20,3,4,7)             1.9308         estimate D2E/DX2                !
 ! D28   D(20,3,4,24)          115.4013         estimate D2E/DX2                !
 ! D29   D(31,3,4,5)           121.6498         estimate D2E/DX2                !
 ! D30   D(31,3,4,7)          -111.6386         estimate D2E/DX2                !
 ! D31   D(31,3,4,24)            1.8319         estimate D2E/DX2                !
 ! D32   D(2,3,20,17)         -152.5395         estimate D2E/DX2                !
 ! D33   D(2,3,20,42)           84.0416         estimate D2E/DX2                !
 ! D34   D(2,3,20,43)          -34.2572         estimate D2E/DX2                !
 ! D35   D(4,3,20,17)          -23.5876         estimate D2E/DX2                !
 ! D36   D(4,3,20,42)         -147.0066         estimate D2E/DX2                !
 ! D37   D(4,3,20,43)           94.6946         estimate D2E/DX2                !
 ! D38   D(31,3,20,17)          87.9108         estimate D2E/DX2                !
 ! D39   D(31,3,20,42)         -35.5081         estimate D2E/DX2                !
 ! D40   D(31,3,20,43)        -153.8069         estimate D2E/DX2                !
 ! D41   D(3,4,5,6)            -31.5416         estimate D2E/DX2                !
 ! D42   D(3,4,5,10)            93.1443         estimate D2E/DX2                !
 ! D43   D(3,4,5,22)          -148.995          estimate D2E/DX2                !
 ! D44   D(7,4,5,6)           -154.3334         estimate D2E/DX2                !
 ! D45   D(7,4,5,10)           -29.6474         estimate D2E/DX2                !
 ! D46   D(7,4,5,22)            88.2132         estimate D2E/DX2                !
 ! D47   D(24,4,5,6)            89.5564         estimate D2E/DX2                !
 ! D48   D(24,4,5,10)         -145.7577         estimate D2E/DX2                !
 ! D49   D(24,4,5,22)          -27.897          estimate D2E/DX2                !
 ! D50   D(3,4,7,8)            -88.166          estimate D2E/DX2                !
 ! D51   D(3,4,7,17)            20.5528         estimate D2E/DX2                !
 ! D52   D(3,4,7,21)           150.0872         estimate D2E/DX2                !
 ! D53   D(5,4,7,8)             42.3101         estimate D2E/DX2                !
 ! D54   D(5,4,7,17)           151.0289         estimate D2E/DX2                !
 ! D55   D(5,4,7,21)           -79.4367         estimate D2E/DX2                !
 ! D56   D(24,4,7,8)           157.5778         estimate D2E/DX2                !
 ! D57   D(24,4,7,17)          -93.7034         estimate D2E/DX2                !
 ! D58   D(24,4,7,21)           35.831          estimate D2E/DX2                !
 ! D59   D(3,4,24,23)          136.8393         estimate D2E/DX2                !
 ! D60   D(5,4,24,23)            8.849          estimate D2E/DX2                !
 ! D61   D(7,4,24,23)         -111.1863         estimate D2E/DX2                !
 ! D62   D(4,5,6,1)             44.3388         estimate D2E/DX2                !
 ! D63   D(4,5,6,34)           -77.6123         estimate D2E/DX2                !
 ! D64   D(4,5,6,35)           167.5682         estimate D2E/DX2                !
 ! D65   D(10,5,6,1)           -84.906          estimate D2E/DX2                !
 ! D66   D(10,5,6,34)          153.1429         estimate D2E/DX2                !
 ! D67   D(10,5,6,35)           38.3235         estimate D2E/DX2                !
 ! D68   D(22,5,6,1)           156.5693         estimate D2E/DX2                !
 ! D69   D(22,5,6,34)           34.6183         estimate D2E/DX2                !
 ! D70   D(22,5,6,35)          -80.2012         estimate D2E/DX2                !
 ! D71   D(4,5,10,9)             3.7945         estimate D2E/DX2                !
 ! D72   D(4,5,10,16)         -176.2825         estimate D2E/DX2                !
 ! D73   D(6,5,10,9)           130.0885         estimate D2E/DX2                !
 ! D74   D(6,5,10,16)          -49.9884         estimate D2E/DX2                !
 ! D75   D(22,5,10,9)         -110.3198         estimate D2E/DX2                !
 ! D76   D(22,5,10,16)          69.6033         estimate D2E/DX2                !
 ! D77   D(4,5,22,23)           35.844          estimate D2E/DX2                !
 ! D78   D(4,5,22,45)          -81.6516         estimate D2E/DX2                !
 ! D79   D(4,5,22,46)          157.4927         estimate D2E/DX2                !
 ! D80   D(6,5,22,23)          -82.4218         estimate D2E/DX2                !
 ! D81   D(6,5,22,45)          160.0826         estimate D2E/DX2                !
 ! D82   D(6,5,22,46)           39.227          estimate D2E/DX2                !
 ! D83   D(10,5,22,23)         159.2835         estimate D2E/DX2                !
 ! D84   D(10,5,22,45)          41.7879         estimate D2E/DX2                !
 ! D85   D(10,5,22,46)         -79.0678         estimate D2E/DX2                !
 ! D86   D(4,7,8,9)            -32.4552         estimate D2E/DX2                !
 ! D87   D(4,7,8,19)           144.6526         estimate D2E/DX2                !
 ! D88   D(17,7,8,9)          -146.6259         estimate D2E/DX2                !
 ! D89   D(17,7,8,19)           30.4818         estimate D2E/DX2                !
 ! D90   D(21,7,8,9)            92.2138         estimate D2E/DX2                !
 ! D91   D(21,7,8,19)          -90.6784         estimate D2E/DX2                !
 ! D92   D(4,7,17,18)         -154.921          estimate D2E/DX2                !
 ! D93   D(4,7,17,20)          -34.6339         estimate D2E/DX2                !
 ! D94   D(4,7,17,30)           84.9444         estimate D2E/DX2                !
 ! D95   D(8,7,17,18)          -36.8367         estimate D2E/DX2                !
 ! D96   D(8,7,17,20)           83.4504         estimate D2E/DX2                !
 ! D97   D(8,7,17,30)         -156.9713         estimate D2E/DX2                !
 ! D98   D(21,7,17,18)          77.6007         estimate D2E/DX2                !
 ! D99   D(21,7,17,20)        -162.1122         estimate D2E/DX2                !
 ! D100  D(21,7,17,30)         -42.5339         estimate D2E/DX2                !
 ! D101  D(4,7,21,44)          -37.71           estimate D2E/DX2                !
 ! D102  D(8,7,21,44)         -162.7391         estimate D2E/DX2                !
 ! D103  D(17,7,21,44)          87.4993         estimate D2E/DX2                !
 ! D104  D(7,8,9,10)             5.4574         estimate D2E/DX2                !
 ! D105  D(7,8,9,11)          -175.193          estimate D2E/DX2                !
 ! D106  D(19,8,9,10)         -171.2506         estimate D2E/DX2                !
 ! D107  D(19,8,9,11)            8.0989         estimate D2E/DX2                !
 ! D108  D(7,8,19,18)          -10.8327         estimate D2E/DX2                !
 ! D109  D(9,8,19,18)          166.2846         estimate D2E/DX2                !
 ! D110  D(8,9,10,5)             9.6015         estimate D2E/DX2                !
 ! D111  D(8,9,10,16)         -170.318          estimate D2E/DX2                !
 ! D112  D(11,9,10,5)         -169.7417         estimate D2E/DX2                !
 ! D113  D(11,9,10,16)          10.3387         estimate D2E/DX2                !
 ! D114  D(8,9,11,12)           38.3385         estimate D2E/DX2                !
 ! D115  D(8,9,11,13)         -135.9547         estimate D2E/DX2                !
 ! D116  D(10,9,11,12)        -142.3316         estimate D2E/DX2                !
 ! D117  D(10,9,11,13)          43.3753         estimate D2E/DX2                !
 ! D118  D(9,11,13,14)        -146.8977         estimate D2E/DX2                !
 ! D119  D(9,11,13,15)          91.0592         estimate D2E/DX2                !
 ! D120  D(9,11,13,36)         -26.2668         estimate D2E/DX2                !
 ! D121  D(12,11,13,14)         38.8555         estimate D2E/DX2                !
 ! D122  D(12,11,13,15)        -83.1876         estimate D2E/DX2                !
 ! D123  D(12,11,13,36)        159.4864         estimate D2E/DX2                !
 ! D124  D(11,13,14,37)       -172.5593         estimate D2E/DX2                !
 ! D125  D(11,13,14,38)        -56.9316         estimate D2E/DX2                !
 ! D126  D(11,13,14,62)         65.5385         estimate D2E/DX2                !
 ! D127  D(15,13,14,37)        -53.0877         estimate D2E/DX2                !
 ! D128  D(15,13,14,38)         62.54           estimate D2E/DX2                !
 ! D129  D(15,13,14,62)       -174.9899         estimate D2E/DX2                !
 ! D130  D(36,13,14,37)         66.8961         estimate D2E/DX2                !
 ! D131  D(36,13,14,38)       -177.4763         estimate D2E/DX2                !
 ! D132  D(36,13,14,62)        -55.0061         estimate D2E/DX2                !
 ! D133  D(11,13,15,39)        -58.9327         estimate D2E/DX2                !
 ! D134  D(11,13,15,40)       -178.6486         estimate D2E/DX2                !
 ! D135  D(11,13,15,41)         61.5439         estimate D2E/DX2                !
 ! D136  D(14,13,15,39)        178.9772         estimate D2E/DX2                !
 ! D137  D(14,13,15,40)         59.2614         estimate D2E/DX2                !
 ! D138  D(14,13,15,41)        -60.5461         estimate D2E/DX2                !
 ! D139  D(36,13,15,39)         58.6638         estimate D2E/DX2                !
 ! D140  D(36,13,15,40)        -61.0521         estimate D2E/DX2                !
 ! D141  D(36,13,15,41)        179.1404         estimate D2E/DX2                !
 ! D142  D(13,14,62,63)        177.0124         estimate D2E/DX2                !
 ! D143  D(13,14,62,64)        -63.32           estimate D2E/DX2                !
 ! D144  D(13,14,62,65)         56.5237         estimate D2E/DX2                !
 ! D145  D(37,14,62,63)         56.0113         estimate D2E/DX2                !
 ! D146  D(37,14,62,64)        175.6789         estimate D2E/DX2                !
 ! D147  D(37,14,62,65)        -64.4774         estimate D2E/DX2                !
 ! D148  D(38,14,62,63)        -61.1352         estimate D2E/DX2                !
 ! D149  D(38,14,62,64)         58.5324         estimate D2E/DX2                !
 ! D150  D(38,14,62,65)        178.3761         estimate D2E/DX2                !
 ! D151  D(7,17,18,19)          31.9254         estimate D2E/DX2                !
 ! D152  D(7,17,18,28)         -83.5653         estimate D2E/DX2                !
 ! D153  D(7,17,18,29)         146.7402         estimate D2E/DX2                !
 ! D154  D(20,17,18,19)        -77.8784         estimate D2E/DX2                !
 ! D155  D(20,17,18,28)        166.6308         estimate D2E/DX2                !
 ! D156  D(20,17,18,29)         36.9364         estimate D2E/DX2                !
 ! D157  D(30,17,18,19)        152.0416         estimate D2E/DX2                !
 ! D158  D(30,17,18,28)         36.5508         estimate D2E/DX2                !
 ! D159  D(30,17,18,29)        -93.1436         estimate D2E/DX2                !
 ! D160  D(7,17,20,3)           35.2212         estimate D2E/DX2                !
 ! D161  D(7,17,20,42)         158.3265         estimate D2E/DX2                !
 ! D162  D(7,17,20,43)         -82.6159         estimate D2E/DX2                !
 ! D163  D(18,17,20,3)         145.6697         estimate D2E/DX2                !
 ! D164  D(18,17,20,42)        -91.225          estimate D2E/DX2                !
 ! D165  D(18,17,20,43)         27.8327         estimate D2E/DX2                !
 ! D166  D(30,17,20,3)         -84.2858         estimate D2E/DX2                !
 ! D167  D(30,17,20,42)         38.8196         estimate D2E/DX2                !
 ! D168  D(30,17,20,43)        157.8772         estimate D2E/DX2                !
 ! D169  D(17,18,19,8)         -13.8644         estimate D2E/DX2                !
 ! D170  D(28,18,19,8)         105.5261         estimate D2E/DX2                !
 ! D171  D(29,18,19,8)        -135.9591         estimate D2E/DX2                !
 ! D172  D(17,18,28,53)        168.9311         estimate D2E/DX2                !
 ! D173  D(17,18,28,54)        -72.1376         estimate D2E/DX2                !
 ! D174  D(17,18,28,55)         48.3227         estimate D2E/DX2                !
 ! D175  D(19,18,28,53)         56.87           estimate D2E/DX2                !
 ! D176  D(19,18,28,54)        175.8013         estimate D2E/DX2                !
 ! D177  D(19,18,28,55)        -63.7384         estimate D2E/DX2                !
 ! D178  D(29,18,28,53)        -58.6135         estimate D2E/DX2                !
 ! D179  D(29,18,28,54)         60.3178         estimate D2E/DX2                !
 ! D180  D(29,18,28,55)       -179.2219         estimate D2E/DX2                !
 ! D181  D(17,18,29,56)         65.6019         estimate D2E/DX2                !
 ! D182  D(17,18,29,57)       -175.5256         estimate D2E/DX2                !
 ! D183  D(17,18,29,58)        -55.2281         estimate D2E/DX2                !
 ! D184  D(19,18,29,56)        178.1658         estimate D2E/DX2                !
 ! D185  D(19,18,29,57)        -62.9617         estimate D2E/DX2                !
 ! D186  D(19,18,29,58)         57.3357         estimate D2E/DX2                !
 ! D187  D(28,18,29,56)        -65.2778         estimate D2E/DX2                !
 ! D188  D(28,18,29,57)         53.5947         estimate D2E/DX2                !
 ! D189  D(28,18,29,58)        173.8921         estimate D2E/DX2                !
 ! D190  D(5,22,23,24)         -31.4945         estimate D2E/DX2                !
 ! D191  D(5,22,23,25)        -154.6648         estimate D2E/DX2                !
 ! D192  D(5,22,23,47)          83.8138         estimate D2E/DX2                !
 ! D193  D(45,22,23,24)         86.201          estimate D2E/DX2                !
 ! D194  D(45,22,23,25)        -36.9693         estimate D2E/DX2                !
 ! D195  D(45,22,23,47)       -158.4907         estimate D2E/DX2                !
 ! D196  D(46,22,23,24)       -152.0332         estimate D2E/DX2                !
 ! D197  D(46,22,23,25)         84.7965         estimate D2E/DX2                !
 ! D198  D(46,22,23,47)        -36.7249         estimate D2E/DX2                !
 ! D199  D(22,23,24,4)          14.4274         estimate D2E/DX2                !
 ! D200  D(25,23,24,4)         140.1771         estimate D2E/DX2                !
 ! D201  D(47,23,24,4)        -102.0868         estimate D2E/DX2                !
 ! D202  D(22,23,25,26)        -54.2555         estimate D2E/DX2                !
 ! D203  D(22,23,25,27)        128.099          estimate D2E/DX2                !
 ! D204  D(24,23,25,26)       -173.9559         estimate D2E/DX2                !
 ! D205  D(24,23,25,27)          8.3986         estimate D2E/DX2                !
 ! D206  D(47,23,25,26)         68.2511         estimate D2E/DX2                !
 ! D207  D(47,23,25,27)       -109.3945         estimate D2E/DX2                !
 ! D208  D(23,25,26,48)        -54.8302         estimate D2E/DX2                !
 ! D209  D(23,25,26,49)         64.1507         estimate D2E/DX2                !
 ! D210  D(23,25,26,50)       -175.083          estimate D2E/DX2                !
 ! D211  D(27,25,26,48)        122.8062         estimate D2E/DX2                !
 ! D212  D(27,25,26,49)       -118.2129         estimate D2E/DX2                !
 ! D213  D(27,25,26,50)          2.5533         estimate D2E/DX2                !
 ! D214  D(23,25,27,51)        179.2087         estimate D2E/DX2                !
 ! D215  D(23,25,27,52)          0.8087         estimate D2E/DX2                !
 ! D216  D(26,25,27,51)          1.7381         estimate D2E/DX2                !
 ! D217  D(26,25,27,52)       -176.6619         estimate D2E/DX2                !
 --------------------------------------------------------------------------------
 Trust Radius=3.00D-01 FncErr=1.00D-07 GrdErr=1.00D-06
 Number of steps in this run=    390 maximum allowed number of steps=    390.
 GradGradGradGradGradGradGradGradGradGradGradGradGradGradGradGradGradGrad

 Stoichiometry    C26H34O5
 Framework group  C1[X(C26H34O5)]
 Deg. of freedom   189
 Full point group                 C1      NOp   1
 Largest Abelian subgroup         C1      NOp   1
 Largest concise Abelian subgroup C1      NOp   1
                         Standard orientation:                         
 ---------------------------------------------------------------------
 Center     Atomic      Atomic             Coordinates (Angstroms)
 Number     Number       Type             X           Y           Z
 ---------------------------------------------------------------------
      1          6           0        0.415965   -0.962358    3.104971
      2          6           0        0.580810    0.364608    3.046894
      3          6           0        1.244299    1.021866    1.853692
      4          6           0        1.405360    0.124202    0.586962
      5          6           0        0.823395   -1.311574    0.608633
      6          6           0        0.867013   -1.916097    2.033038
      7          6           0        0.837427    0.981057   -0.573449
      8          6           0       -0.657132    0.803584   -0.769392
      9          6           0       -1.341431   -0.351625   -0.537129
     10          6           0       -0.616837   -1.484243    0.053188
     11          6           0       -2.809373   -0.447899   -0.868235
     12          8           0       -3.242384    0.087462   -1.875913
     13          6           0       -3.759509   -1.107152    0.137629
     14          6           0       -4.908847   -1.843284   -0.572145
     15          6           0       -4.291350    0.013566    1.058658
     16          8           0       -1.117610   -2.603688    0.128486
     17          6           0        0.853100    2.458979   -0.127554
     18          6           0       -0.263892    3.087232   -0.993934
     19          8           0       -1.218298    1.953716   -1.141160
     20          6           0        0.547987    2.331444    1.379373
     21          8           0        1.459259    0.696995   -1.811504
     22          6           0        1.804862   -2.065841   -0.323782
     23          6           0        3.152051   -1.399182   -0.007861
     24          8           0        2.823925   -0.038742    0.332803
     25          6           0        4.184764   -1.459140   -1.113917
     26          6           0        4.485625   -2.842465   -1.635963
     27          6           0        4.817582   -0.368340   -1.558580
     28          6           0        0.210626    3.482212   -2.394389
     29          6           0       -1.055687    4.223786   -0.352855
     30          1           0        1.824094    2.929321   -0.310078
     31          1           0        2.273499    1.280112    2.140606
     32          6           0        0.193485    1.265642    4.193628
     33          1           0       -0.029115   -1.401310    3.996982
     34          1           0        1.891666   -2.248231    2.258832
     35          1           0        0.249634   -2.819117    2.025132
     36          1           0       -3.196995   -1.820302    0.744725
     37          1           0       -5.622784   -2.176788    0.193341
     38          1           0       -5.438895   -1.129075   -1.213280
     39          1           0       -3.476305    0.529393    1.580663
     40          1           0       -4.961340   -0.406429    1.817539
     41          1           0       -4.849477    0.757187    0.478970
     42          1           0        0.877451    3.203784    1.950946
     43          1           0       -0.532563    2.239039    1.532522
     44          1           0        2.400511    0.542237   -1.599326
     45          1           0        1.539021   -1.901166   -1.372462
     46          1           0        1.799580   -3.141184   -0.128653
     47          1           0        3.593631   -1.870675    0.885743
     48          1           0        4.782174   -3.517414   -0.821316
     49          1           0        3.607758   -3.293746   -2.115337
     50          1           0        5.298017   -2.819960   -2.367666
     51          1           0        5.564977   -0.433697   -2.344697
     52          1           0        4.629443    0.613805   -1.137150
     53          1           0       -0.652085    3.733032   -3.019615
     54          1           0        0.858816    4.364108   -2.333162
     55          1           0        0.765900    2.668554   -2.863760
     56          1           0       -0.399304    5.084901   -0.185268
     57          1           0       -1.865334    4.536648   -1.019447
     58          1           0       -1.497584    3.932696    0.602911
     59          1           0       -0.215012    0.687881    5.028388
     60          1           0        1.062369    1.827552    4.565174
     61          1           0       -0.558117    2.010221    3.901530
     62          6           0       -4.448852   -3.044438   -1.405476
     63          1           0       -5.306407   -3.565475   -1.846943
     64          1           0       -3.795004   -2.726239   -2.224317
     65          1           0       -3.890009   -3.762845   -0.795246
 ---------------------------------------------------------------------
 Rotational constants (GHZ):      0.1915474      0.1315910      0.1169256
 Standard basis: 6-311+G(d) (5D, 7F)
 There are   784 symmetry adapted basis functions of A   symmetry.
 Integral buffers will be    131072 words long.
 Raffenetti 2 integral format.
 Two-electron integral symmetry is turned on.
   784 basis functions,  1286 primitive gaussians,   815 cartesian basis functions
   115 alpha electrons      115 beta electrons
       nuclear repulsion energy      3517.9636142274 Hartrees.
 NAtoms=   65 NActive=   65 NUniq=   65 SFac= 1.00D+00 NAtFMM=   50 NAOKFM=T Big=T
 One-electron integrals computed using PRISM.
 NBasis=   784 RedAO= T  NBF=   784
 NBsUse=   777 1.00D-06 NBFU=   777
 Harris functional with IExCor=  402 diagonalized for initial guess.
 ExpMin= 4.38D-02 ExpMax= 8.59D+03 ExpMxC= 1.30D+03 IAcc=2 IRadAn=         0 AccDes= 0.00D+00
 HarFok:  IExCor=  402 AccDes= 0.00D+00 IRadAn=         0 IDoV= 1
 ScaDFX=  1.000000  1.000000  1.000000  1.000000
 FoFCou: FMM=F IPFlag=           0 FMFlag=      100000 FMFlg1=        2001
         NFxFlg=           0 DoJE=T BraDBF=F KetDBF=T FulRan=T
         Omega=  0.000000  0.000000  1.000000  0.000000  0.000000 ICntrl=     500 IOpCl=  0
         NMat0=    1 NMatS0=    1 NMatT0=    0 NMatD0=    1 NMtDS0=    0 NMtDT0=    0
         I1Cent=           4 NGrid=           0.
 Petite list used in FoFCou.
 Initial guess orbital symmetries:
       Occupied  (A) (A) (A) (A) (A) (A) (A) (A) (A) (A) (A) (A)
                 (A) (A) (A) (A) (A) (A) (A) (A) (A) (A) (A) (A)
                 (A) (A) (A) (A) (A) (A) (A) (A) (A) (A) (A) (A)
                 (A) (A) (A) (A) (A) (A) (A) (A) (A) (A) (A) (A)
                 (A) (A) (A) (A) (A) (A) (A) (A) (A) (A) (A) (A)
                 (A) (A) (A) (A) (A) (A) (A) (A) (A) (A) (A) (A)
                 (A) (A) (A) (A) (A) (A) (A) (A) (A) (A) (A) (A)
                 (A) (A) (A) (A) (A) (A) (A) (A) (A) (A) (A) (A)
                 (A) (A) (A) (A) (A) (A) (A) (A) (A) (A) (A) (A)
                 (A) (A) (A) (A) (A) (A) (A)
       Virtual   (A) (A) (A) (A) (A) (A) (A) (A) (A) (A) (A) (A)
                 (A) (A) (A) (A) (A) (A) (A) (A) (A) (A) (A) (A)
                 (A) (A) (A) (A) (A) (A) (A) (A) (A) (A) (A) (A)
                 (A) (A) (A) (A) (A) (A) (A) (A) (A) (A) (A) (A)
                 (A) (A) (A) (A) (A) (A) (A) (A) (A) (A) (A) (A)
                 (A) (A) (A) (A) (A) (A) (A) (A) (A) (A) (A) (A)
                 (A) (A) (A) (A) (A) (A) (A) (A) (A) (A) (A) (A)
                 (A) (A) (A) (A) (A) (A) (A) (A) (A) (A) (A) (A)
                 (A) (A) (A) (A) (A) (A) (A) (A) (A) (A) (A) (A)
                 (A) (A) (A) (A) (A) (A) (A) (A) (A) (A) (A) (A)
                 (A) (A) (A) (A) (A) (A) (A) (A) (A) (A) (A) (A)
                 (A) (A) (A) (A) (A) (A) (A) (A) (A) (A) (A) (A)
                 (A) (A) (A) (A) (A) (A) (A) (A) (A) (A) (A) (A)
                 (A) (A) (A) (A) (A) (A) (A) (A) (A) (A) (A) (A)
                 (A) (A) (A) (A) (A) (A) (A) (A) (A) (A) (A) (A)
                 (A) (A) (A) (A) (A) (A) (A) (A) (A) (A) (A) (A)
                 (A) (A) (A) (A) (A) (A) (A) (A) (A) (A) (A) (A)
                 (A) (A) (A) (A) (A) (A) (A) (A) (A) (A) (A) (A)
                 (A) (A) (A) (A) (A) (A) (A) (A) (A) (A) (A) (A)
                 (A) (A) (A) (A) (A) (A) (A) (A) (A) (A) (A) (A)
                 (A) (A) (A) (A) (A) (A) (A) (A) (A) (A) (A) (A)
                 (A) (A) (A) (A) (A) (A) (A) (A) (A) (A) (A) (A)
                 (A) (A) (A) (A) (A) (A) (A) (A) (A) (A) (A) (A)
                 (A) (A) (A) (A) (A) (A) (A) (A) (A) (A) (A) (A)
                 (A) (A) (A) (A) (A) (A) (A) (A) (A) (A) (A) (A)
                 (A) (A) (A) (A) (A) (A) (A) (A) (A) (A) (A) (A)
                 (A) (A) (A) (A) (A) (A) (A) (A) (A) (A) (A) (A)
                 (A) (A) (A) (A) (A) (A) (A) (A) (A) (A) (A) (A)
                 (A) (A) (A) (A) (A) (A) (A) (A) (A) (A) (A) (A)
                 (A) (A) (A) (A) (A) (A) (A) (A) (A) (A) (A) (A)
                 (A) (A) (A) (A) (A) (A) (A) (A) (A) (A) (A) (A)
                 (A) (A) (A) (A) (A) (A) (A) (A) (A) (A) (A) (A)
                 (A) (A) (A) (A) (A) (A) (A) (A) (A) (A) (A) (A)
                 (A) (A) (A) (A) (A) (A) (A) (A) (A) (A) (A) (A)
                 (A) (A) (A) (A) (A) (A) (A) (A) (A) (A) (A) (A)
                 (A) (A) (A) (A) (A) (A) (A) (A) (A) (A) (A) (A)
                 (A) (A) (A) (A) (A) (A) (A) (A) (A) (A) (A) (A)
                 (A) (A) (A) (A) (A) (A) (A) (A) (A) (A) (A) (A)
                 (A) (A) (A) (A) (A) (A) (A) (A) (A) (A) (A) (A)
                 (A) (A) (A) (A) (A) (A) (A) (A) (A) (A) (A) (A)
                 (A) (A) (A) (A) (A) (A) (A) (A) (A) (A) (A) (A)
                 (A) (A) (A) (A) (A) (A) (A) (A) (A) (A) (A) (A)
                 (A) (A) (A) (A) (A) (A) (A) (A) (A) (A) (A) (A)
                 (A) (A) (A) (A) (A) (A) (A) (A) (A) (A) (A) (A)
                 (A) (A) (A) (A) (A) (A) (A) (A) (A) (A) (A) (A)
                 (A) (A) (A) (A) (A) (A) (A) (A) (A) (A) (A) (A)
                 (A) (A) (A) (A) (A) (A) (A) (A) (A) (A) (A) (A)
                 (A) (A) (A) (A) (A) (A) (A) (A) (A) (A) (A) (A)
                 (A) (A) (A) (A) (A) (A) (A) (A) (A) (A) (A) (A)
                 (A) (A) (A) (A) (A) (A) (A) (A) (A) (A) (A) (A)
                 (A) (A) (A) (A) (A) (A) (A) (A) (A) (A) (A) (A)
                 (A) (A) (A) (A) (A) (A) (A) (A) (A) (A) (A) (A)
                 (A) (A) (A) (A) (A) (A) (A) (A) (A) (A) (A) (A)
                 (A) (A) (A) (A) (A) (A) (A) (A) (A) (A) (A) (A)
                 (A) (A) (A) (A) (A) (A) (A) (A) (A) (A) (A) (A)
                 (A) (A)
 The electronic state of the initial guess is 1-A.
 Requested convergence on RMS density matrix=1.00D-08 within 128 cycles.
 Requested convergence on MAX density matrix=1.00D-06.
 Requested convergence on             energy=1.00D-06.
 No special actions if energy rises.
 SCF Done:  E(RB3LYP) =  -1387.65001240     A.U. after   17 cycles
             Convg  =    0.5151D-08             -V/T =  2.0043

 **********************************************************************

            Population analysis using the SCF density.

 **********************************************************************

 Orbital symmetries:
       Occupied  (A) (A) (A) (A) (A) (A) (A) (A) (A) (A) (A) (A)
                 (A) (A) (A) (A) (A) (A) (A) (A) (A) (A) (A) (A)
                 (A) (A) (A) (A) (A) (A) (A) (A) (A) (A) (A) (A)
                 (A) (A) (A) (A) (A) (A) (A) (A) (A) (A) (A) (A)
                 (A) (A) (A) (A) (A) (A) (A) (A) (A) (A) (A) (A)
                 (A) (A) (A) (A) (A) (A) (A) (A) (A) (A) (A) (A)
                 (A) (A) (A) (A) (A) (A) (A) (A) (A) (A) (A) (A)
                 (A) (A) (A) (A) (A) (A) (A) (A) (A) (A) (A) (A)
                 (A) (A) (A) (A) (A) (A) (A) (A) (A) (A) (A) (A)
                 (A) (A) (A) (A) (A) (A) (A)
       Virtual   (A) (A) (A) (A) (A) (A) (A) (A) (A) (A) (A) (A)
                 (A) (A) (A) (A) (A) (A) (A) (A) (A) (A) (A) (A)
                 (A) (A) (A) (A) (A) (A) (A) (A) (A) (A) (A) (A)
                 (A) (A) (A) (A) (A) (A) (A) (A) (A) (A) (A) (A)
                 (A) (A) (A) (A) (A) (A) (A) (A) (A) (A) (A) (A)
                 (A) (A) (A) (A) (A) (A) (A) (A) (A) (A) (A) (A)
                 (A) (A) (A) (A) (A) (A) (A) (A) (A) (A) (A) (A)
                 (A) (A) (A) (A) (A) (A) (A) (A) (A) (A) (A) (A)
                 (A) (A) (A) (A) (A) (A) (A) (A) (A) (A) (A) (A)
                 (A) (A) (A) (A) (A) (A) (A) (A) (A) (A) (A) (A)
                 (A) (A) (A) (A) (A) (A) (A) (A) (A) (A) (A) (A)
                 (A) (A) (A) (A) (A) (A) (A) (A) (A) (A) (A) (A)
                 (A) (A) (A) (A) (A) (A) (A) (A) (A) (A) (A) (A)
                 (A) (A) (A) (A) (A) (A) (A) (A) (A) (A) (A) (A)
                 (A) (A) (A) (A) (A) (A) (A) (A) (A) (A) (A) (A)
                 (A) (A) (A) (A) (A) (A) (A) (A) (A) (A) (A) (A)
                 (A) (A) (A) (A) (A) (A) (A) (A) (A) (A) (A) (A)
                 (A) (A) (A) (A) (A) (A) (A) (A) (A) (A) (A) (A)
                 (A) (A) (A) (A) (A) (A) (A) (A) (A) (A) (A) (A)
                 (A) (A) (A) (A) (A) (A) (A) (A) (A) (A) (A) (A)
                 (A) (A) (A) (A) (A) (A) (A) (A) (A) (A) (A) (A)
                 (A) (A) (A) (A) (A) (A) (A) (A) (A) (A) (A) (A)
                 (A) (A) (A) (A) (A) (A) (A) (A) (A) (A) (A) (A)
                 (A) (A) (A) (A) (A) (A) (A) (A) (A) (A) (A) (A)
                 (A) (A) (A) (A) (A) (A) (A) (A) (A) (A) (A) (A)
                 (A) (A) (A) (A) (A) (A) (A) (A) (A) (A) (A) (A)
                 (A) (A) (A) (A) (A) (A) (A) (A) (A) (A) (A) (A)
                 (A) (A) (A) (A) (A) (A) (A) (A) (A) (A) (A) (A)
                 (A) (A) (A) (A) (A) (A) (A) (A) (A) (A) (A) (A)
                 (A) (A) (A) (A) (A) (A) (A) (A) (A) (A) (A) (A)
                 (A) (A) (A) (A) (A) (A) (A) (A) (A) (A) (A) (A)
                 (A) (A) (A) (A) (A) (A) (A) (A) (A) (A) (A) (A)
                 (A) (A) (A) (A) (A) (A) (A) (A) (A) (A) (A) (A)
                 (A) (A) (A) (A) (A) (A) (A) (A) (A) (A) (A) (A)
                 (A) (A) (A) (A) (A) (A) (A) (A) (A) (A) (A) (A)
                 (A) (A) (A) (A) (A) (A) (A) (A) (A) (A) (A) (A)
                 (A) (A) (A) (A) (A) (A) (A) (A) (A) (A) (A) (A)
                 (A) (A) (A) (A) (A) (A) (A) (A) (A) (A) (A) (A)
                 (A) (A) (A) (A) (A) (A) (A) (A) (A) (A) (A) (A)
                 (A) (A) (A) (A) (A) (A) (A) (A) (A) (A) (A) (A)
                 (A) (A) (A) (A) (A) (A) (A) (A) (A) (A) (A) (A)
                 (A) (A) (A) (A) (A) (A) (A) (A) (A) (A) (A) (A)
                 (A) (A) (A) (A) (A) (A) (A) (A) (A) (A) (A) (A)
                 (A) (A) (A) (A) (A) (A) (A) (A) (A) (A) (A) (A)
                 (A) (A) (A) (A) (A) (A) (A) (A) (A) (A) (A) (A)
                 (A) (A) (A) (A) (A) (A) (A) (A) (A) (A) (A) (A)
                 (A) (A) (A) (A) (A) (A) (A) (A) (A) (A) (A) (A)
                 (A) (A) (A) (A) (A) (A) (A) (A) (A) (A) (A) (A)
                 (A) (A) (A) (A) (A) (A) (A) (A) (A) (A) (A) (A)
                 (A) (A) (A) (A) (A) (A) (A) (A) (A) (A) (A) (A)
                 (A) (A) (A) (A) (A) (A) (A) (A) (A) (A) (A) (A)
                 (A) (A) (A) (A) (A) (A) (A) (A) (A) (A) (A) (A)
                 (A) (A) (A) (A) (A) (A) (A) (A) (A) (A) (A) (A)
                 (A) (A) (A) (A) (A) (A) (A) (A) (A) (A) (A) (A)
                 (A) (A) (A) (A) (A) (A) (A) (A) (A) (A) (A) (A)
                 (A) (A)
 The electronic state is 1-A.
 Alpha  occ. eigenvalues --  -19.17910 -19.14882 -19.14074 -19.10771 -19.10228
 Alpha  occ. eigenvalues --  -10.27070 -10.26668 -10.25944 -10.25538 -10.25458
 Alpha  occ. eigenvalues --  -10.25448 -10.24553 -10.20915 -10.20030 -10.20006
 Alpha  occ. eigenvalues --  -10.19831 -10.19165 -10.18903 -10.18810 -10.18657
 Alpha  occ. eigenvalues --  -10.18188 -10.18099 -10.17888 -10.17675 -10.17485
 Alpha  occ. eigenvalues --  -10.17276 -10.16828 -10.16688 -10.15915 -10.15183
 Alpha  occ. eigenvalues --  -10.13841  -1.10566  -1.07346  -1.04278  -1.03966
 Alpha  occ. eigenvalues --   -1.03312  -0.87926  -0.84702  -0.83424  -0.82500
 Alpha  occ. eigenvalues --   -0.81305  -0.79868  -0.77703  -0.75292  -0.74303
 Alpha  occ. eigenvalues --   -0.72846  -0.71929  -0.70688  -0.70364  -0.69041
 Alpha  occ. eigenvalues --   -0.66278  -0.64610  -0.64244  -0.62434  -0.61765
 Alpha  occ. eigenvalues --   -0.60511  -0.59581  -0.58028  -0.55663  -0.54889
 Alpha  occ. eigenvalues --   -0.53931  -0.53042  -0.52007  -0.51428  -0.50289
 Alpha  occ. eigenvalues --   -0.49248  -0.48753  -0.47939  -0.47421  -0.46884
 Alpha  occ. eigenvalues --   -0.45999  -0.45572  -0.44915  -0.44653  -0.44204
 Alpha  occ. eigenvalues --   -0.43573  -0.43250  -0.42740  -0.42499  -0.42311
 Alpha  occ. eigenvalues --   -0.41836  -0.41665  -0.41531  -0.40917  -0.40507
 Alpha  occ. eigenvalues --   -0.40220  -0.40059  -0.39667  -0.39190  -0.38770
 Alpha  occ. eigenvalues --   -0.38644  -0.38299  -0.38133  -0.38051  -0.37660
 Alpha  occ. eigenvalues --   -0.37128  -0.36490  -0.35907  -0.35815  -0.35280
 Alpha  occ. eigenvalues --   -0.35057  -0.34758  -0.33921  -0.33247  -0.32932
 Alpha  occ. eigenvalues --   -0.32425  -0.32020  -0.31480  -0.29609  -0.27885
 Alpha  occ. eigenvalues --   -0.26984  -0.26088  -0.25539  -0.24722  -0.23871
 Alpha virt. eigenvalues --   -0.06484  -0.03179  -0.01699  -0.01347  -0.00330
 Alpha virt. eigenvalues --   -0.00137   0.00234   0.01151   0.01495   0.01723
 Alpha virt. eigenvalues --    0.02184   0.02587   0.03059   0.03210   0.03410
 Alpha virt. eigenvalues --    0.03661   0.04279   0.04684   0.04719   0.04830
 Alpha virt. eigenvalues --    0.05220   0.05374   0.05583   0.06209   0.06410
 Alpha virt. eigenvalues --    0.06424   0.06752   0.07007   0.07452   0.07487
 Alpha virt. eigenvalues --    0.07641   0.08052   0.08295   0.08507   0.08878
 Alpha virt. eigenvalues --    0.09063   0.09312   0.09472   0.09556   0.09733
 Alpha virt. eigenvalues --    0.10009   0.10205   0.10401   0.10930   0.11101
 Alpha virt. eigenvalues --    0.11405   0.11653   0.11795   0.12033   0.12528
 Alpha virt. eigenvalues --    0.12664   0.12792   0.12979   0.13246   0.13473
 Alpha virt. eigenvalues --    0.13851   0.14255   0.14406   0.14573   0.14988
 Alpha virt. eigenvalues --    0.15128   0.15244   0.15454   0.15969   0.16088
 Alpha virt. eigenvalues --    0.16256   0.16551   0.16870   0.16956   0.17266
 Alpha virt. eigenvalues --    0.17307   0.17448   0.17499   0.17732   0.18128
 Alpha virt. eigenvalues --    0.18400   0.18469   0.18701   0.18995   0.19075
 Alpha virt. eigenvalues --    0.19384   0.19436   0.19657   0.19821   0.19952
 Alpha virt. eigenvalues --    0.20364   0.20582   0.20726   0.21018   0.21193
 Alpha virt. eigenvalues --    0.21257   0.21529   0.21617   0.21756   0.21911
 Alpha virt. eigenvalues --    0.22234   0.22490   0.22602   0.22739   0.22989
 Alpha virt. eigenvalues --    0.23123   0.23188   0.23390   0.23704   0.23921
 Alpha virt. eigenvalues --    0.24165   0.24277   0.24494   0.24699   0.24965
 Alpha virt. eigenvalues --    0.25188   0.25523   0.25591   0.25782   0.25968
 Alpha virt. eigenvalues --    0.26127   0.26302   0.26468   0.26711   0.26936
 Alpha virt. eigenvalues --    0.27283   0.27491   0.27591   0.27908   0.27973
 Alpha virt. eigenvalues --    0.28370   0.28539   0.28822   0.29479   0.29533
 Alpha virt. eigenvalues --    0.29776   0.29876   0.30279   0.30487   0.30763
 Alpha virt. eigenvalues --    0.30856   0.31359   0.31587   0.31778   0.32001
 Alpha virt. eigenvalues --    0.32454   0.32726   0.32755   0.33048   0.33458
 Alpha virt. eigenvalues --    0.34236   0.34266   0.34649   0.34753   0.35010
 Alpha virt. eigenvalues --    0.35589   0.35915   0.35955   0.36297   0.36453
 Alpha virt. eigenvalues --    0.37023   0.37433   0.38098   0.38141   0.38545
 Alpha virt. eigenvalues --    0.38866   0.39154   0.39675   0.40152   0.40359
 Alpha virt. eigenvalues --    0.40456   0.40863   0.41032   0.41926   0.42297
 Alpha virt. eigenvalues --    0.42507   0.43111   0.43279   0.43434   0.44193
 Alpha virt. eigenvalues --    0.44563   0.44719   0.45092   0.45448   0.45630
 Alpha virt. eigenvalues --    0.46130   0.47023   0.47174   0.47320   0.48006
 Alpha virt. eigenvalues --    0.48143   0.48577   0.48688   0.49111   0.49451
 Alpha virt. eigenvalues --    0.49757   0.50263   0.50879   0.51028   0.51957
 Alpha virt. eigenvalues --    0.52240   0.52837   0.52946   0.53927   0.54105
 Alpha virt. eigenvalues --    0.54319   0.54601   0.55203   0.55631   0.55983
 Alpha virt. eigenvalues --    0.56367   0.56720   0.57149   0.57454   0.57711
 Alpha virt. eigenvalues --    0.58155   0.58265   0.58927   0.59381   0.59833
 Alpha virt. eigenvalues --    0.60051   0.60322   0.61141   0.61366   0.61829
 Alpha virt. eigenvalues --    0.62682   0.63064   0.63494   0.64076   0.64163
 Alpha virt. eigenvalues --    0.64371   0.64922   0.65259   0.65651   0.65985
 Alpha virt. eigenvalues --    0.66392   0.66777   0.66924   0.67386   0.67809
 Alpha virt. eigenvalues --    0.67987   0.68193   0.68376   0.68664   0.69078
 Alpha virt. eigenvalues --    0.69103   0.69397   0.69792   0.69884   0.70183
 Alpha virt. eigenvalues --    0.70288   0.70947   0.71102   0.71192   0.71481
 Alpha virt. eigenvalues --    0.71986   0.72164   0.72901   0.73262   0.73495
 Alpha virt. eigenvalues --    0.73798   0.74125   0.74348   0.74717   0.74862
 Alpha virt. eigenvalues --    0.75303   0.75715   0.76097   0.76289   0.76614
 Alpha virt. eigenvalues --    0.77357   0.77696   0.78100   0.78625   0.78888
 Alpha virt. eigenvalues --    0.79195   0.79566   0.79732   0.80826   0.80951
 Alpha virt. eigenvalues --    0.81344   0.81631   0.82000   0.82385   0.82943
 Alpha virt. eigenvalues --    0.83424   0.83910   0.84008   0.84755   0.85410
 Alpha virt. eigenvalues --    0.85756   0.87259   0.88290   0.88643   0.89379
 Alpha virt. eigenvalues --    0.89774   0.90138   0.90288   0.91587   0.92568
 Alpha virt. eigenvalues --    0.93473   0.94487   0.95309   0.96842   0.97548
 Alpha virt. eigenvalues --    0.97817   0.98079   0.98806   0.99878   1.00878
 Alpha virt. eigenvalues --    1.01554   1.02790   1.03782   1.05206   1.05771
 Alpha virt. eigenvalues --    1.06769   1.07450   1.08553   1.08775   1.09572
 Alpha virt. eigenvalues --    1.10683   1.11704   1.12604   1.13276   1.13467
 Alpha virt. eigenvalues --    1.15108   1.16056   1.16299   1.17983   1.18780
 Alpha virt. eigenvalues --    1.20027   1.20674   1.21399   1.23698   1.24239
 Alpha virt. eigenvalues --    1.24834   1.25591   1.25826   1.27328   1.27923
 Alpha virt. eigenvalues --    1.29161   1.29764   1.30627   1.31209   1.32509
 Alpha virt. eigenvalues --    1.33493   1.34404   1.34807   1.35052   1.35874
 Alpha virt. eigenvalues --    1.36244   1.37287   1.37384   1.38737   1.39353
 Alpha virt. eigenvalues --    1.39858   1.40930   1.42623   1.43059   1.43948
 Alpha virt. eigenvalues --    1.44749   1.46001   1.46443   1.47913   1.48059
 Alpha virt. eigenvalues --    1.49442   1.50182   1.51064   1.51501   1.51763
 Alpha virt. eigenvalues --    1.53108   1.53427   1.54065   1.55084   1.55690
 Alpha virt. eigenvalues --    1.56315   1.56999   1.57145   1.57743   1.57831
 Alpha virt. eigenvalues --    1.58792   1.59631   1.59784   1.60301   1.60616
 Alpha virt. eigenvalues --    1.60986   1.61054   1.61620   1.62206   1.62940
 Alpha virt. eigenvalues --    1.63309   1.64022   1.64354   1.64688   1.65166
 Alpha virt. eigenvalues --    1.65468   1.65956   1.66119   1.66613   1.66847
 Alpha virt. eigenvalues --    1.67528   1.68125   1.68941   1.69585   1.70040
 Alpha virt. eigenvalues --    1.70538   1.71202   1.71944   1.72628   1.72989
 Alpha virt. eigenvalues --    1.73808   1.74118   1.74795   1.75312   1.76484
 Alpha virt. eigenvalues --    1.76748   1.77265   1.78223   1.78674   1.80031
 Alpha virt. eigenvalues --    1.80101   1.81410   1.82115   1.82792   1.83570
 Alpha virt. eigenvalues --    1.84442   1.85034   1.85838   1.86571   1.87316
 Alpha virt. eigenvalues --    1.88222   1.88693   1.90551   1.90669   1.91337
 Alpha virt. eigenvalues --    1.91802   1.93464   1.94776   1.95024   1.95754
 Alpha virt. eigenvalues --    1.96891   1.97737   1.98961   2.00008   2.00674
 Alpha virt. eigenvalues --    2.01903   2.02689   2.03478   2.05194   2.05463
 Alpha virt. eigenvalues --    2.06651   2.08470   2.09323   2.09999   2.10900
 Alpha virt. eigenvalues --    2.11501   2.13623   2.13991   2.15004   2.15750
 Alpha virt. eigenvalues --    2.16383   2.19307   2.20037   2.21758   2.22185
 Alpha virt. eigenvalues --    2.22849   2.23417   2.24752   2.24882   2.26940
 Alpha virt. eigenvalues --    2.27841   2.29342   2.29951   2.31523   2.32961
 Alpha virt. eigenvalues --    2.34084   2.37046   2.38230   2.39157   2.43459
 Alpha virt. eigenvalues --    2.44110   2.47650   2.49197   2.50529   2.51018
 Alpha virt. eigenvalues --    2.52603   2.52792   2.53572   2.53801   2.54621
 Alpha virt. eigenvalues --    2.55515   2.55852   2.57052   2.57228   2.57876
 Alpha virt. eigenvalues --    2.58999   2.59910   2.60306   2.61196   2.61742
 Alpha virt. eigenvalues --    2.62559   2.62981   2.63721   2.65368   2.65764
 Alpha virt. eigenvalues --    2.66597   2.68033   2.69319   2.70227   2.70881
 Alpha virt. eigenvalues --    2.71192   2.72764   2.73053   2.73509   2.75064
 Alpha virt. eigenvalues --    2.75841   2.77424   2.79295   2.82238   2.84656
 Alpha virt. eigenvalues --    2.85265   2.87816   2.89254   2.89705   2.91332
 Alpha virt. eigenvalues --    2.92404   2.93512   2.93553   2.94621   2.95576
 Alpha virt. eigenvalues --    2.96916   2.97849   2.98538   2.99217   2.99538
 Alpha virt. eigenvalues --    3.00514   3.00760   3.02004   3.02353   3.04198
 Alpha virt. eigenvalues --    3.04841   3.05426   3.06900   3.07652   3.08949
 Alpha virt. eigenvalues --    3.09558   3.10348   3.11714   3.12181   3.14026
 Alpha virt. eigenvalues --    3.14692   3.15403   3.15950   3.16679   3.17040
 Alpha virt. eigenvalues --    3.18171   3.19774   3.20532   3.21585   3.22312
 Alpha virt. eigenvalues --    3.23270   3.23768   3.24543   3.25358   3.26129
 Alpha virt. eigenvalues --    3.27311   3.27591   3.28158   3.28425   3.29267
 Alpha virt. eigenvalues --    3.30576   3.31541   3.32456   3.33637   3.34340
 Alpha virt. eigenvalues --    3.35560   3.35886   3.36485   3.37938   3.38676
 Alpha virt. eigenvalues --    3.39153   3.40893   3.42853   3.43132   3.44337
 Alpha virt. eigenvalues --    3.46703   3.47140   3.50940   3.51484   3.53532
 Alpha virt. eigenvalues --    3.54500   3.59104   3.62222   3.65141   3.74278
 Alpha virt. eigenvalues --    3.76394   3.78654   3.79373   3.87577   3.89044
 Alpha virt. eigenvalues --    3.90430   3.95891   3.97692   4.01085   4.02268
 Alpha virt. eigenvalues --    4.05559   4.06844   4.08762   4.10492   4.12095
 Alpha virt. eigenvalues --    4.16999   4.17700   4.20115   4.21744   4.22368
 Alpha virt. eigenvalues --    4.23488   4.25402   4.32171   4.32898   4.44278
 Alpha virt. eigenvalues --    4.60762   5.14636   5.16691   5.17382   5.22226
 Alpha virt. eigenvalues --    5.22915   5.29456   5.31961   5.34195   5.41894
 Alpha virt. eigenvalues --    5.43472   5.57738   5.67668   5.74324   5.79292
 Alpha virt. eigenvalues --    5.83877  23.46369  23.47357  23.51792  23.52837
 Alpha virt. eigenvalues --   23.62900  23.64454  23.66184  23.66512  23.68488
 Alpha virt. eigenvalues --   23.70394  23.73526  23.74523  23.76573  23.78407
 Alpha virt. eigenvalues --   23.79215  23.79508  23.82008  23.84231  23.86400
 Alpha virt. eigenvalues --   23.87138  23.88508  23.89006  23.95831  24.14424
 Alpha virt. eigenvalues --   24.18960  24.21750  49.99010  49.99882  50.02674
 Alpha virt. eigenvalues --   50.03802  50.06494
          Condensed to atoms (all electrons):
 Mulliken atomic charges:
              1
     1  C   -0.295172
     2  C    0.629756
     3  C   -0.062383
     4  C   -0.402922
     5  C    0.762994
     6  C   -0.733052
     7  C   -1.230363
     8  C    0.384302
     9  C    1.093254
    10  C   -1.195302
    11  C   -0.267341
    12  O   -0.179629
    13  C    0.359928
    14  C   -0.422843
    15  C   -1.074365
    16  O   -0.158068
    17  C   -0.032934
    18  C    0.607533
    19  O    0.165839
    20  C   -1.276590
    21  O   -0.000587
    22  C   -0.746448
    23  C   -0.384655
    24  O   -0.058108
    25  C    1.037654
    26  C   -1.123514
    27  C   -0.766374
    28  C   -0.702474
    29  C   -0.728927
    30  H    0.237647
    31  H    0.272424
    32  C   -1.069709
    33  H    0.202441
    34  H    0.245149
    35  H    0.274771
    36  H    0.237763
    37  H    0.216034
    38  H    0.257265
    39  H    0.249055
    40  H    0.254759
    41  H    0.276471
    42  H    0.270329
    43  H    0.274662
    44  H    0.284012
    45  H    0.308056
    46  H    0.283913
    47  H    0.245778
    48  H    0.261343
    49  H    0.268956
    50  H    0.259347
    51  H    0.223672
    52  H    0.244742
    53  H    0.265975
    54  H    0.246021
    55  H    0.312893
    56  H    0.263133
    57  H    0.272917
    58  H    0.256842
    59  H    0.257092
    60  H    0.259108
    61  H    0.257477
    62  C   -0.904506
    63  H    0.237504
    64  H    0.250140
    65  H    0.247314
 Sum of Mulliken atomic charges =   0.00000
 Mulliken charges with hydrogens summed into heavy atoms:
              1
     1  C   -0.092731
     2  C    0.629756
     3  C    0.210041
     4  C   -0.402922
     5  C    0.762994
     6  C   -0.213132
     7  C   -1.230363
     8  C    0.384302
     9  C    1.093254
    10  C   -1.195302
    11  C   -0.267341
    12  O   -0.179629
    13  C    0.597691
    14  C    0.050456
    15  C   -0.294081
    16  O   -0.158068
    17  C    0.204714
    18  C    0.607533
    19  O    0.165839
    20  C   -0.731599
    21  O    0.283425
    22  C   -0.154479
    23  C   -0.138877
    24  O   -0.058108
    25  C    1.037654
    26  C   -0.333867
    27  C   -0.297960
    28  C    0.122415
    29  C    0.063964
    32  C   -0.296032
    62  C   -0.169548
 Sum of Mulliken charges with hydrogens summed into heavy atoms =   0.00000
 Electronic spatial extent (au):  <R**2>=          11403.3833
 Charge=              0.0000 electrons
 Dipole moment (field-independent basis, Debye):
    X=              4.6641    Y=              2.6639    Z=              3.5452  Tot=              6.4357
 Quadrupole moment (field-independent basis, Debye-Ang):
   XX=           -192.2594   YY=           -177.7081   ZZ=           -191.6909
   XY=             -5.8339   XZ=            -11.7155   YZ=              1.0197
 Traceless Quadrupole moment (field-independent basis, Debye-Ang):
   XX=             -5.0399   YY=              9.5113   ZZ=             -4.4714
   XY=             -5.8339   XZ=            -11.7155   YZ=              1.0197
 Octapole moment (field-independent basis, Debye-Ang**2):
  XXX=             34.5497  YYY=             66.1074  ZZZ=             15.8167  XYY=             35.0209
  XXY=            -22.8104  XXZ=              1.2319  XZZ=             21.5292  YZZ=             -1.3979
  YYZ=            -10.8095  XYZ=              5.8000
 Hexadecapole moment (field-independent basis, Debye-Ang**3):
 XXXX=          -7937.6968 YYYY=          -4521.4437 ZZZZ=          -3250.2876 XXXY=            -37.8351
 XXXZ=           -205.4536 YYYX=            -90.2979 YYYZ=            -62.3163 ZZZX=            -42.5595
 ZZZY=            -16.9365 XXYY=          -2009.2075 XXZZ=          -1874.0783 YYZZ=          -1271.4959
 XXYZ=             20.4666 YYXZ=              1.2059 ZZXY=             -2.7966
 N-N= 3.517963614227D+03 E-N=-1.026878780400D+04  KE= 1.381711540731D+03
 Calling FoFJK, ICntrl=      2127 FMM=T ISym2X=0 I1Cent= 0 IOpClX= 0 NMat=1 NMatS=1 NMatT=0.
 ***** Axes restored to original set *****
 -------------------------------------------------------------------
 Center     Atomic                   Forces (Hartrees/Bohr)
 Number     Number              X              Y              Z
 -------------------------------------------------------------------
      1        6           0.000492958    0.002120178    0.000004036
      2        6           0.000114107   -0.002227075    0.000343303
      3        6          -0.000391979    0.000427652   -0.000211540
      4        6          -0.000394281    0.000711617    0.001192307
      5        6          -0.000053355   -0.000370888   -0.000056064
      6        6           0.000105820    0.000033917   -0.000173457
      7        6          -0.002466142    0.000502763    0.001255710
      8        6          -0.003111615    0.000678560   -0.000633424
      9        6           0.001155470    0.000408492   -0.000269209
     10        6          -0.002520548   -0.005610318   -0.000302648
     11        6          -0.003231160    0.003821096   -0.005441443
     12        8           0.003601144   -0.004262049    0.006592114
     13        6          -0.000061908   -0.000076783   -0.000155382
     14        6          -0.000072535    0.000121306   -0.000104861
     15        6           0.000121701    0.000503893   -0.000210070
     16        8           0.003086976    0.007331798   -0.000851765
     17        6           0.000448920    0.000141674   -0.000001170
     18        6           0.000607900    0.001751045   -0.000233242
     19        8           0.001730380   -0.004221555    0.001337426
     20        6          -0.000519752    0.000041196    0.000120013
     21        8           0.005815240    0.000224889    0.003010666
     22        6           0.000098287   -0.000202937   -0.000469625
     23        6           0.000712932   -0.002164347   -0.000539703
     24        8          -0.000223267   -0.000333290    0.000602730
     25        6           0.001727556    0.001210401   -0.000450096
     26        6          -0.000244106   -0.000209122    0.000039445
     27        6          -0.001146162   -0.001866736    0.000792939
     28        6           0.000040977   -0.000126157    0.000465273
     29        6           0.000408478   -0.000350739    0.000030740
     30        1          -0.001179575   -0.000558052    0.000110292
     31        1          -0.001337240   -0.000381880    0.000018135
     32        6          -0.000063224    0.000375287    0.000100889
     33        1           0.000300185    0.000326607   -0.000725423
     34        1          -0.001615826    0.000334910   -0.000273242
     35        1           0.001436908    0.001041979    0.000625332
     36        1          -0.000751445    0.000769147   -0.000783872
     37        1           0.000726747    0.000637313   -0.000966769
     38        1           0.000019096   -0.001127056    0.001131604
     39        1          -0.001510105   -0.000531113   -0.000432476
     40        1           0.001044136    0.000717888   -0.001022272
     41        1           0.000523339   -0.000960641    0.001336705
     42        1          -0.000616665   -0.001184272   -0.000808476
     43        1           0.001700042    0.000319365    0.000013208
     44        1          -0.004225745    0.000748949   -0.003879621
     45        1           0.000265434   -0.000900848    0.001370107
     46        1          -0.000034337    0.001514391   -0.000258338
     47        1          -0.000386751    0.001092901   -0.001240300
     48        1          -0.000356133    0.000894529   -0.001299087
     49        1           0.001464134    0.000596206    0.000643492
     50        1          -0.001228688   -0.000282326    0.001139607
     51        1          -0.000679249    0.000111583    0.000762652
     52        1           0.000478557   -0.000837268   -0.000536893
     53        1           0.001457915   -0.000304570    0.000653368
     54        1          -0.000821029   -0.001212380   -0.000360615
     55        1          -0.000977901    0.001836859    0.000057899
     56        1          -0.001133617   -0.000980850   -0.000091499
     57        1           0.001213806   -0.000234200    0.001148939
     58        1           0.000524369    0.000820099   -0.001447940
     59        1           0.000637304    0.001107441   -0.001159697
     60        1          -0.001317350   -0.000813266   -0.000424619
     61        1           0.001132903   -0.001163950    0.000642378
     62        6           0.000163674    0.000079735    0.000092334
     63        1           0.001297536    0.000599766    0.000489644
     64        1          -0.001028067   -0.001143025    0.000866926
[...]
 Alpha  occ. eigenvalues --  -10.25401 -10.24410 -10.20830 -10.19923 -10.19863
 Alpha  occ. eigenvalues --  -10.19710 -10.19051 -10.18778 -10.18703 -10.18426
 Alpha  occ. eigenvalues --  -10.18062 -10.17950 -10.17847 -10.17562 -10.17378
 Alpha  occ. eigenvalues --  -10.17126 -10.16891 -10.16767 -10.16087 -10.15243
 Alpha  occ. eigenvalues --  -10.13855  -1.10478  -1.07131  -1.04518  -1.03893
 Alpha  occ. eigenvalues --   -1.03812  -0.87933  -0.84750  -0.83455  -0.82537
 Alpha  occ. eigenvalues --   -0.81339  -0.80133  -0.77758  -0.75289  -0.74314
 Alpha  occ. eigenvalues --   -0.72930  -0.72097  -0.70777  -0.70369  -0.69062
 Alpha  occ. eigenvalues --   -0.66309  -0.64702  -0.64257  -0.62597  -0.61758
 Alpha  occ. eigenvalues --   -0.60556  -0.59701  -0.58028  -0.55796  -0.54916
 Alpha  occ. eigenvalues --   -0.53873  -0.53144  -0.51958  -0.51427  -0.50291
 Alpha  occ. eigenvalues --   -0.49316  -0.48830  -0.47947  -0.47445  -0.46898
 Alpha  occ. eigenvalues --   -0.46013  -0.45627  -0.44934  -0.44697  -0.44238
 Alpha  occ. eigenvalues --   -0.43732  -0.43260  -0.42728  -0.42497  -0.42385
 Alpha  occ. eigenvalues --   -0.42060  -0.41793  -0.41579  -0.40899  -0.40647
 Alpha  occ. eigenvalues --   -0.40259  -0.40055  -0.39640  -0.39202  -0.38770
 Alpha  occ. eigenvalues --   -0.38612  -0.38352  -0.38173  -0.38083  -0.37710
 Alpha  occ. eigenvalues --   -0.37129  -0.36749  -0.35925  -0.35924  -0.35382
 Alpha  occ. eigenvalues --   -0.35018  -0.34737  -0.33961  -0.33185  -0.33004
 Alpha  occ. eigenvalues --   -0.32491  -0.32213  -0.31687  -0.29517  -0.27818
 Alpha  occ. eigenvalues --   -0.26930  -0.26127  -0.25452  -0.24713  -0.23945
 Alpha virt. eigenvalues --   -0.06186  -0.02942  -0.01594  -0.01349  -0.00272
 Alpha virt. eigenvalues --   -0.00106   0.00248   0.01149   0.01491   0.01748
 Alpha virt. eigenvalues --    0.02144   0.02582   0.03057   0.03231   0.03417
 Alpha virt. eigenvalues --    0.03666   0.04254   0.04665   0.04786   0.04810
 Alpha virt. eigenvalues --    0.05168   0.05363   0.05564   0.06274   0.06350
 Alpha virt. eigenvalues --    0.06414   0.06688   0.07032   0.07461   0.07492
 Alpha virt. eigenvalues --    0.07617   0.08019   0.08305   0.08514   0.08887
 Alpha virt. eigenvalues --    0.09037   0.09241   0.09494   0.09665   0.09714
 Alpha virt. eigenvalues --    0.10118   0.10182   0.10348   0.10881   0.11105
 Alpha virt. eigenvalues --    0.11403   0.11613   0.11803   0.12004   0.12606
 Alpha virt. eigenvalues --    0.12725   0.12833   0.13009   0.13294   0.13467
 Alpha virt. eigenvalues --    0.13785   0.14286   0.14439   0.14712   0.15027
 Alpha virt. eigenvalues --    0.15168   0.15291   0.15556   0.16028   0.16181
 Alpha virt. eigenvalues --    0.16305   0.16602   0.16869   0.17013   0.17204
 Alpha virt. eigenvalues --    0.17323   0.17416   0.17530   0.17674   0.18138
 Alpha virt. eigenvalues --    0.18422   0.18546   0.18769   0.18965   0.19166
 Alpha virt. eigenvalues --    0.19357   0.19486   0.19665   0.19896   0.19993
 Alpha virt. eigenvalues --    0.20353   0.20761   0.20889   0.21050   0.21216
 Alpha virt. eigenvalues --    0.21340   0.21693   0.21756   0.21790   0.22006
 Alpha virt. eigenvalues --    0.22205   0.22483   0.22586   0.22767   0.22983
 Alpha virt. eigenvalues --    0.23083   0.23232   0.23287   0.23849   0.24018
 Alpha virt. eigenvalues --    0.24196   0.24218   0.24548   0.24790   0.25029
 Alpha virt. eigenvalues --    0.25146   0.25564   0.25638   0.25857   0.25968
 Alpha virt. eigenvalues --    0.26150   0.26284   0.26434   0.26751   0.27117
 Alpha virt. eigenvalues --    0.27322   0.27395   0.27658   0.27903   0.28051
 Alpha virt. eigenvalues --    0.28476   0.28783   0.29178   0.29363   0.29623
 Alpha virt. eigenvalues --    0.29849   0.29943   0.30372   0.30510   0.30637
 Alpha virt. eigenvalues --    0.31015   0.31412   0.31705   0.31900   0.32144
 Alpha virt. eigenvalues --    0.32436   0.32714   0.32918   0.33147   0.33597
 Alpha virt. eigenvalues --    0.34216   0.34449   0.34877   0.34939   0.35060
 Alpha virt. eigenvalues --    0.35465   0.35813   0.36088   0.36296   0.36558
 Alpha virt. eigenvalues --    0.36996   0.37443   0.37827   0.38394   0.38496
 Alpha virt. eigenvalues --    0.38997   0.39447   0.39750   0.40001   0.40424
 Alpha virt. eigenvalues --    0.40534   0.40988   0.41069   0.41762   0.42096
 Alpha virt. eigenvalues --    0.42509   0.43152   0.43414   0.43531   0.44076
 Alpha virt. eigenvalues --    0.44561   0.44734   0.45212   0.45558   0.45838
 Alpha virt. eigenvalues --    0.46429   0.46986   0.47088   0.47440   0.47675
 Alpha virt. eigenvalues --    0.48037   0.48544   0.48713   0.48823   0.49593
 Alpha virt. eigenvalues --    0.49890   0.50206   0.50680   0.51182   0.52103
 Alpha virt. eigenvalues --    0.52322   0.53069   0.53208   0.53838   0.54244
 Alpha virt. eigenvalues --    0.54578   0.54820   0.55267   0.55981   0.56222
 Alpha virt. eigenvalues --    0.56393   0.56530   0.57045   0.57230   0.57791
 Alpha virt. eigenvalues --    0.58193   0.58418   0.59058   0.59686   0.59839
 Alpha virt. eigenvalues --    0.59974   0.60576   0.61147   0.61497   0.61724
 Alpha virt. eigenvalues --    0.62727   0.63289   0.63803   0.63850   0.64330
 Alpha virt. eigenvalues --    0.64609   0.64941   0.65343   0.65667   0.66102
 Alpha virt. eigenvalues --    0.66267   0.66741   0.67268   0.67471   0.67727
 Alpha virt. eigenvalues --    0.68024   0.68259   0.68492   0.68612   0.68979
 Alpha virt. eigenvalues --    0.69312   0.69604   0.69658   0.69960   0.70171
 Alpha virt. eigenvalues --    0.70331   0.71080   0.71138   0.71261   0.71584
 Alpha virt. eigenvalues --    0.71866   0.72401   0.72723   0.73336   0.73655
 Alpha virt. eigenvalues --    0.73930   0.74053   0.74420   0.74593   0.74981
 Alpha virt. eigenvalues --    0.75191   0.75845   0.76095   0.76222   0.76666
 Alpha virt. eigenvalues --    0.77428   0.77734   0.78188   0.78681   0.78821
 Alpha virt. eigenvalues --    0.79070   0.79483   0.79726   0.80850   0.81236
 Alpha virt. eigenvalues --    0.81459   0.81629   0.81958   0.82420   0.83025
 Alpha virt. eigenvalues --    0.83614   0.83962   0.84121   0.84975   0.85687
 Alpha virt. eigenvalues --    0.86097   0.87236   0.87869   0.88538   0.88621
 Alpha virt. eigenvalues --    0.89434   0.90047   0.90540   0.91690   0.92844
 Alpha virt. eigenvalues --    0.93267   0.94537   0.95562   0.96221   0.97544
 Alpha virt. eigenvalues --    0.97877   0.98622   0.99155   1.00560   1.01281
 Alpha virt. eigenvalues --    1.01467   1.02667   1.04568   1.05201   1.05657
 Alpha virt. eigenvalues --    1.06300   1.07157   1.08646   1.09137   1.09530
 Alpha virt. eigenvalues --    1.10620   1.12479   1.13033   1.13442   1.13713
 Alpha virt. eigenvalues --    1.15175   1.16152   1.16225   1.18319   1.19515
 Alpha virt. eigenvalues --    1.20255   1.20628   1.21518   1.23655   1.24384
 Alpha virt. eigenvalues --    1.24520   1.25037   1.25989   1.27146   1.27923
 Alpha virt. eigenvalues --    1.28975   1.29740   1.30005   1.30714   1.32207
 Alpha virt. eigenvalues --    1.32866   1.34195   1.34903   1.35508   1.36165
 Alpha virt. eigenvalues --    1.36255   1.36721   1.37343   1.38342   1.38468
 Alpha virt. eigenvalues --    1.40015   1.41069   1.42560   1.42918   1.43927
 Alpha virt. eigenvalues --    1.44707   1.45940   1.46331   1.47960   1.48286
 Alpha virt. eigenvalues --    1.49912   1.50258   1.51139   1.51668   1.52721
 Alpha virt. eigenvalues --    1.53252   1.53819   1.54739   1.55307   1.55707
 Alpha virt. eigenvalues --    1.56192   1.57158   1.57464   1.57640   1.57905
 Alpha virt. eigenvalues --    1.58925   1.59643   1.59860   1.60303   1.60668
 Alpha virt. eigenvalues --    1.60922   1.61248   1.61564   1.62144   1.62961
 Alpha virt. eigenvalues --    1.63088   1.63604   1.64306   1.64697   1.65474
 Alpha virt. eigenvalues --    1.65841   1.66130   1.66166   1.67051   1.67153
 Alpha virt. eigenvalues --    1.67497   1.68165   1.69099   1.69571   1.70219
 Alpha virt. eigenvalues --    1.70654   1.71399   1.72289   1.72653   1.73033
 Alpha virt. eigenvalues --    1.73757   1.74149   1.74667   1.75529   1.76056
 Alpha virt. eigenvalues --    1.76995   1.77129   1.77965   1.78895   1.79787
 Alpha virt. eigenvalues --    1.79927   1.81383   1.82192   1.82946   1.83834
 Alpha virt. eigenvalues --    1.84860   1.85033   1.85926   1.86780   1.87517
 Alpha virt. eigenvalues --    1.88727   1.89499   1.90541   1.90952   1.91235
 Alpha virt. eigenvalues --    1.91964   1.93703   1.94540   1.95064   1.95531
 Alpha virt. eigenvalues --    1.96975   1.98088   1.98874   2.00240   2.00879
 Alpha virt. eigenvalues --    2.01877   2.02573   2.03504   2.05086   2.05680
 Alpha virt. eigenvalues --    2.06706   2.08701   2.09405   2.10220   2.11482
 Alpha virt. eigenvalues --    2.12032   2.13967   2.14396   2.15248   2.16175
 Alpha virt. eigenvalues --    2.16693   2.19443   2.20149   2.22098   2.22590
 Alpha virt. eigenvalues --    2.23452   2.23734   2.24622   2.25603   2.27038
 Alpha virt. eigenvalues --    2.28343   2.29517   2.30627   2.31927   2.33298
 Alpha virt. eigenvalues --    2.33961   2.37228   2.38400   2.39520   2.43902
 Alpha virt. eigenvalues --    2.44421   2.47281   2.49456   2.50621   2.51259
 Alpha virt. eigenvalues --    2.52119   2.52647   2.53571   2.53951   2.54896
 Alpha virt. eigenvalues --    2.55670   2.55989   2.57210   2.57359   2.57884
 Alpha virt. eigenvalues --    2.58723   2.60268   2.60450   2.61148   2.61519
 Alpha virt. eigenvalues --    2.62565   2.63265   2.64216   2.65458   2.66259
 Alpha virt. eigenvalues --    2.66942   2.68355   2.69415   2.69992   2.71308
 Alpha virt. eigenvalues --    2.71684   2.72840   2.72953   2.73540   2.75186
 Alpha virt. eigenvalues --    2.76250   2.77769   2.79282   2.82889   2.84657
 Alpha virt. eigenvalues --    2.85225   2.87480   2.89216   2.90094   2.91640
 Alpha virt. eigenvalues --    2.91994   2.93259   2.93565   2.94954   2.95979
 Alpha virt. eigenvalues --    2.97328   2.98145   2.98847   2.99554   2.99606
 Alpha virt. eigenvalues --    3.00489   3.01123   3.02127   3.02473   3.04440
 Alpha virt. eigenvalues --    3.05090   3.05691   3.07060   3.08128   3.09521
 Alpha virt. eigenvalues --    3.09789   3.10688   3.12037   3.12411   3.14283
 Alpha virt. eigenvalues --    3.14771   3.15645   3.16214   3.16740   3.17295
 Alpha virt. eigenvalues --    3.18122   3.20258   3.21092   3.21933   3.22674
 Alpha virt. eigenvalues --    3.23413   3.24323   3.25101   3.25888   3.26741
 Alpha virt. eigenvalues --    3.27782   3.28015   3.28483   3.28757   3.29692
 Alpha virt. eigenvalues --    3.31063   3.31644   3.32474   3.33344   3.34706
 Alpha virt. eigenvalues --    3.35564   3.36068   3.36892   3.38507   3.39011
 Alpha virt. eigenvalues --    3.39623   3.41633   3.42914   3.43546   3.44979
 Alpha virt. eigenvalues --    3.47085   3.47769   3.51318   3.51738   3.53889
 Alpha virt. eigenvalues --    3.55038   3.59954   3.62513   3.65821   3.74808
 Alpha virt. eigenvalues --    3.76638   3.78805   3.79814   3.87779   3.89485
 Alpha virt. eigenvalues --    3.90793   3.96778   3.98091   4.01283   4.02807
 Alpha virt. eigenvalues --    4.05706   4.06946   4.08499   4.10653   4.12295
 Alpha virt. eigenvalues --    4.17562   4.17880   4.20267   4.21833   4.22568
 Alpha virt. eigenvalues --    4.23730   4.25373   4.31205   4.32606   4.44811
 Alpha virt. eigenvalues --    4.61232   5.14411   5.17174   5.17657   5.22079
 Alpha virt. eigenvalues --    5.23030   5.28860   5.32134   5.34181   5.41919
 Alpha virt. eigenvalues --    5.43412   5.57939   5.67980   5.74560   5.79356
 Alpha virt. eigenvalues --    5.84271  23.46328  23.47554  23.51737  23.52811
 Alpha virt. eigenvalues --   23.63106  23.64660  23.66498  23.66817  23.68655
 Alpha virt. eigenvalues --   23.70666  23.73620  23.74985  23.77054  23.78646
 Alpha virt. eigenvalues --   23.79509  23.79912  23.82353  23.84570  23.86799
 Alpha virt. eigenvalues --   23.87343  23.89171  23.89723  23.96636  24.16860
 Alpha virt. eigenvalues --   24.20236  24.23102  49.99171  49.99789  50.02710
 Alpha virt. eigenvalues --   50.03828  50.07069
          Condensed to atoms (all electrons):
 Mulliken atomic charges:
              1
     1  C   -0.279424
     2  C    0.627183
     3  C   -0.076328
     4  C   -0.397991
     5  C    0.818493
     6  C   -0.761494
     7  C   -1.192545
     8  C    0.314164
     9  C    1.158901
    10  C   -1.075941
    11  C   -0.400263
    12  O   -0.179722
    13  C    0.334083
    14  C   -0.362335
    15  C   -1.083328
    16  O   -0.169234
    17  C    0.016190
    18  C    0.621743
    19  O    0.173451
    20  C   -1.360715
    21  O   -0.011651
    22  C   -0.790711
    23  C   -0.357704
    24  O   -0.058472
    25  C    1.026094
    26  C   -1.137512
    27  C   -0.750718
    28  C   -0.718640
    29  C   -0.722202
    30  H    0.236232
    31  H    0.273016
    32  C   -1.082913
    33  H    0.202100
    34  H    0.245508
    35  H    0.274933
    36  H    0.244323
    37  H    0.216853
    38  H    0.256658
    39  H    0.262240
    40  H    0.259061
    41  H    0.276663
    42  H    0.272290
    43  H    0.276143
    44  H    0.287905
    45  H    0.306216
    46  H    0.284264
    47  H    0.246222
    48  H    0.260850
    49  H    0.270023
    50  H    0.259961
    51  H    0.223730
    52  H    0.242890
    53  H    0.266890
    54  H    0.247459
    55  H    0.313150
    56  H    0.264560
    57  H    0.271862
    58  H    0.258388
    59  H    0.257167
    60  H    0.259752
    61  H    0.257731
    62  C   -0.934219
    63  H    0.237376
    64  H    0.257164
    65  H    0.244184
 Sum of Mulliken atomic charges =   0.00000
 Mulliken charges with hydrogens summed into heavy atoms:
              1
     1  C   -0.077325
     2  C    0.627183
     3  C    0.196688
     4  C   -0.397991
     5  C    0.818493
     6  C   -0.241053
     7  C   -1.192545
     8  C    0.314164
     9  C    1.158901
    10  C   -1.075941
    11  C   -0.400263
    12  O   -0.179722
    13  C    0.578405
    14  C    0.111176
    15  C   -0.285364
    16  O   -0.169234
    17  C    0.252421
    18  C    0.621743
    19  O    0.173451
    20  C   -0.812281
    21  O    0.276254
    22  C   -0.200231
    23  C   -0.111482
    24  O   -0.058472
    25  C    1.026094
    26  C   -0.346679
    27  C   -0.284098
    28  C    0.108859
    29  C    0.072608
    32  C   -0.308264
    62  C   -0.195496
 Sum of Mulliken charges with hydrogens summed into heavy atoms =   0.00000
 Electronic spatial extent (au):  <R**2>=          11436.5107
 Charge=              0.0000 electrons
 Dipole moment (field-independent basis, Debye):
    X=              4.3600    Y=              2.9755    Z=              3.7174  Tot=              6.4561
 Quadrupole moment (field-independent basis, Debye-Ang):
   XX=           -190.6954   YY=           -177.8676   ZZ=           -192.4061
   XY=             -7.2240   XZ=            -12.0160   YZ=              0.3582
 Traceless Quadrupole moment (field-independent basis, Debye-Ang):
   XX=             -3.7057   YY=              9.1221   ZZ=             -5.4164
   XY=             -7.2240   XZ=            -12.0160   YZ=              0.3582
 Octapole moment (field-independent basis, Debye-Ang**2):
  XXX=             28.7611  YYY=             67.0481  ZZZ=             18.5243  XYY=             33.6115
  XXY=            -19.7661  XXZ=              0.6326  XZZ=             23.7920  YZZ=             -0.6026
  YYZ=            -11.0977  XYZ=              8.0901
 Hexadecapole moment (field-independent basis, Debye-Ang**3):
 XXXX=          -8007.1033 YYYY=          -4486.5109 ZZZZ=          -3232.5364 XXXY=            -55.4486
 XXXZ=           -204.1060 YYYX=            -90.2336 YYYZ=            -57.3489 ZZZX=            -48.8629
 ZZZY=            -18.2497 XXYY=          -2020.0737 XXZZ=          -1890.4219 YYZZ=          -1259.1013
 XXYZ=             12.2171 YYXZ=              3.8623 ZZXY=             -6.7924
 N-N= 3.517327443474D+03 E-N=-1.026766413400D+04  KE= 1.381922003095D+03
 1\1\GINC-B0800\FOpt\RB3LYP\6-311+G(d)\C26H34O5\CAOFEI\13-Apr-2021\0\\#
  opt b3lyp/6-311+g(d) geom=connectivity\\Title Card Required\\0,1\C,0.
 4345068391,-0.9986121822,3.0826483586\C,0.583488991,0.3274994195,3.037
 0432483\C,1.2257646697,1.0045776602,1.8460200023\C,1.4100561331,0.1202
 958936,0.5738290471\C,0.8500022401,-1.3256877249,0.5806392703\C,0.8915
 673942,-1.9358904791,2.0014415348\C,0.8341242977,0.9816998699,-0.58038
 68061\C,-0.6521340809,0.7715438382,-0.7987663148\C,-1.3070083659,-0.39
 94038377,-0.5960391283\C,-0.5788179857,-1.518824482,0.004699503\C,-2.7
 634414726,-0.5470684186,-0.9763405461\O,-3.1435854412,-0.1708922064,-2
 .0651548974\C,-3.7379033276,-1.0725914541,0.0796222492\C,-4.9667484721
 ,-1.7479874079,-0.5461725858\C,-4.1468454312,0.1236547961,0.9668527247
 \O,-1.0718971181,-2.6365727634,0.0751138083\C,0.8112777971,2.451703787
 2,-0.1165444899\C,-0.3102789576,3.0692182961,-0.9827546377\O,-1.235746
 0691,1.91122337,-1.1617284754\C,0.4995593942,2.2989390158,1.3839937079
 \O,1.4739196521,0.740138111,-1.8191875401\C,1.8541204695,-2.0629042537
 ,-0.3398005961\C,3.1855194234,-1.3795639167,-0.0046094604\O,2.83276196
 08,-0.0217126606,0.327481139\C,4.2423907383,-1.4362139413,-1.084749535
 7\C,4.5678189836,-2.8211140359,-1.5821149263\C,4.8718068616,-0.3460657
 112,-1.5270512492\C,0.1657492594,3.5070256624,-2.3669311066\C,-1.13077
 45253,4.1721924796,-0.3255935896\H,1.7712812531,2.9446225071,-0.285417
 765\H,2.2464542744,1.2851922622,2.1350688082\C,0.1984982355,1.21412503
 04,4.1934900175\H,0.0026284861,-1.4521894709,3.9723902971\H,1.91560136
 14,-2.2611213565,2.227861901\H,0.2880217854,-2.8453801909,1.9914842892
 \H,-3.2084033825,-1.7964380401,0.7031630986\H,-5.6832037727,-1.9523545
 494,0.2588249078\H,-5.4549466143,-1.040528286,-1.2234923704\H,-3.28014
 64338,0.6092316877,1.4246181858\H,-4.8003126738,-0.2159454924,1.775062
 7033\H,-4.6889932063,0.8747664389,0.3857048011\H,0.8022217761,3.170744
 5646,1.966770359\H,-0.5764707346,2.1786953609,1.531607483\H,2.41489523
 78,0.5969152202,-1.6279796142\H,1.6003967875,-1.9081656726,-1.39091843
 23\H,1.8611528319,-3.1358049053,-0.1434449043\H,3.6159091827,-1.837489
 9749,0.8983405508\H,4.8379804098,-3.486701943,-0.754112907\H,3.7124959
 929,-3.2806598734,-2.0878343892\H,5.4037548352,-2.8034245811,-2.283087
 2563\H,5.6386005765,-0.4125440656,-2.2921965053\H,4.665280922,0.638618
 56,-1.124277593\H,-0.6930242152,3.7651726412,-2.9905388987\H,0.8005812
 429,4.3936931621,-2.2794161901\H,0.7330471932,2.71959931,-2.8596989344
 \H,-0.4956197636,5.040072452,-0.1278801496\H,-1.935573833,4.4894591505
 ,-0.9920253487\H,-1.5797173116,3.8539268568,0.6151572239\H,-0.19010844
 54,0.6283690761,5.0288650716\H,1.0619793034,1.7843327781,4.5575642008\
 H,-0.5653935658,1.948559297,3.9181572215\C,-4.6573136388,-3.0491787068
 ,-1.2910699712\H,-5.5763462671,-3.5083723169,-1.667312222\H,-4.0027003
 725,-2.8751992072,-2.148054858\H,-4.1632183144,-3.7761094462,-0.639833
 5188\\Version=EM64L-G09RevB.01\State=1-A\HF=-1387.6508519\RMSD=5.226e-
 09\RMSF=1.015e-05\Dipole=1.7015247,1.1651746,1.4828947\Quadrupole=-2.5
 742355,6.8242935,-4.2500579,-5.3441708,-8.9098888,0.2254444\PG=C01 [X(
 C26H34O5)]\\@


      HUMANKIND PERIODICALLY GOES THROUGH A SPEEDUP OF ITS AFFAIRS, 
      THEREBY EXPERIENCING THE RACE BETWEEN THE RENEWABLE VITALITY
      OF THE LIVING, AND THE BECKONING VITIATION OF DECADENCE.
      IN THIS PERIODIC RACE, ANY PAUSE BECOMES A LUXURY.
      ONLY THEN CAN ONE REFLECT THAT ALL IS PERMITTED;
      ALL IS POSSIBLE.

                              -- THE APOCRYPHA OF MUAD'DIB
                                 CHILDREN OF DUNE, BY FRANK HERBERT
 Job cpu time:  1 days  2 hours 13 minutes 13.1 seconds.
 File lengths (MBytes):  RWF=    372 Int=      0 D2E=      0 Chk=     38 Scr=      1
 Normal termination of Gaussian 09 at Tue Apr 13 20:06:45 2021.
