 Entering Gaussian System, Link 0=g09
 Initial command:
 /public/software/g09/g09/l1.exe /tmp/Gau-19570.inp -scrdir=/tmp/
 Entering Link 1 = /public/software/g09/g09/l1.exe PID=     19571.
  
 Copyright (c) 1988,1990,1992,1993,1995,1998,2003,2009,2010,
            Gaussian, Inc.  All Rights Reserved.
  
 This is part of the Gaussian(R) 09 program.  It is based on
 the Gaussian(R) 03 system (copyright 2003, Gaussian, Inc.),
 the Gaussian(R) 98 system (copyright 1998, Gaussian, Inc.),
 the Gaussian(R) 94 system (copyright 1995, Gaussian, Inc.),
 the Gaussian 92(TM) system (copyright 1992, Gaussian, Inc.),
 the Gaussian 90(TM) system (copyright 1990, Gaussian, Inc.),
 the Gaussian 88(TM) system (copyright 1988, Gaussian, Inc.),
 the Gaussian 86(TM) system (copyright 1986, Carnegie Mellon
 University), and the Gaussian 82(TM) system (copyright 1983,
 Carnegie Mellon University). Gaussian is a federally registered
 trademark of Gaussian, Inc.
  
 This software contains proprietary and confidential information,
 including trade secrets, belonging to Gaussian, Inc.
  
 This software is provided under written license and may be
 used, copied, transmitted, or stored only in accord with that
 written license.
  
 The following legend is applicable only to US Government
 contracts under FAR:
  
                    RESTRICTED RIGHTS LEGEND
  
 Use, reproduction and disclosure by the US Government is
 subject to restrictions as set forth in subparagraphs (a)
 and (c) of the Commercial Computer Software - Restricted
 Rights clause in FAR 52.227-19.
  
 Gaussian, Inc.
 340 Quinnipiac St., Bldg. 40, Wallingford CT 06492
  
  
 ---------------------------------------------------------------
 Warning -- This program may not be used in any manner that
 competes with the business of Gaussian, Inc. or will provide
 assistance to any competitor of Gaussian, Inc.  The licensee
 of this program is prohibited from giving any competitor of
 Gaussian, Inc. access to this program.  By using this program,
 the user acknowledges that Gaussian, Inc. is engaged in the
 business of creating and licensing software in the field of
 computational chemistry and represents and warrants to the
 licensee that it is not a competitor of Gaussian, Inc. and that
 it will not use this program in any manner prohibited above.
 ---------------------------------------------------------------
  

 Cite this work as:
 Gaussian 09, Revision B.01,
 M. J. Frisch, G. W. Trucks, H. B. Schlegel, G. E. Scuseria, 
 M. A. Robb, J. R. Cheeseman, G. Scalmani, V. Barone, B. Mennucci, 
 G. A. Petersson, H. Nakatsuji, M. Caricato, X. Li, H. P. Hratchian, 
 A. F. Izmaylov, J. Bloino, G. Zheng, J. L. Sonnenberg, M. Hada, 
 M. Ehara, K. Toyota, R. Fukuda, J. Hasegawa, M. Ishida, T. Nakajima, 
 Y. Honda, O. Kitao, H. Nakai, T. Vreven, J. A. Montgomery, Jr., 
 J. E. Peralta, F. Ogliaro, M. Bearpark, J. J. Heyd, E. Brothers, 
 K. N. Kudin, V. N. Staroverov, T. Keith, R. Kobayashi, J. Normand, 
 K. Raghavachari, A. Rendell, J. C. Burant, S. S. Iyengar, J. Tomasi, 
 M. Cossi, N. Rega, J. M. Millam, M. Klene, J. E. Knox, J. B. Cross, 
 V. Bakken, C. Adamo, J. Jaramillo, R. Gomperts, R. E. Stratmann, 
 O. Yazyev, A. J. Austin, R. Cammi, C. Pomelli, J. W. Ochterski, 
 R. L. Martin, K. Morokuma, V. G. Zakrzewski, G. A. Voth, 
 P. Salvador, J. J. Dannenberg, S. Dapprich, A. D. Daniels, 
 O. Farkas, J. B. Foresman, J. V. Ortiz, J. Cioslowski, 
 and D. J. Fox, Gaussian, Inc., Wallingford CT, 2010.
 
 ******************************************
 Gaussian 09:  EM64L-G09RevB.01 12-Aug-2010
                13-Apr-2021 
 ******************************************
 %mem=600MW
 %nprocshared=10
 Will use up to   10 processors via shared memory.
 ----------------------------------------
 # opt b3lyp/6-311+g(d) geom=connectivity
 ----------------------------------------
 1/14=-1,18=20,19=15,26=3,38=1,57=2/1,3;
 2/9=110,12=2,17=6,18=5,40=1/2;
 3/5=4,6=6,7=11,11=2,16=1,25=1,30=1,71=1,74=-5/1,2,3;
 4//1;
 5/5=2,38=5/2;
 6/7=2,8=2,9=2,10=2,28=1/1;
 7//1,2,3,16;
 1/14=-1,18=20,19=15/3(2);
 2/9=110/2;
 99//99;
 2/9=110/2;
 3/5=4,6=6,7=11,11=2,16=1,25=1,30=1,71=1,74=-5/1,2,3;
 4/5=5,16=3/1;
 5/5=2,38=5/2;
 7//1,2,3,16;
 1/14=-1,18=20,19=15/3(-5);
 2/9=110/2;
 6/7=2,8=2,9=2,10=2,19=2,28=1/1;
 99/9=1/99;
 -------------------
 Title Card Required
 -------------------
 Symbolic Z-matrix:
 Charge =  0 Multiplicity = 1
 C                     0.47966  -0.99168   3.08219 
 C                     0.71468   0.32412   3.0182 
 C                     1.34494   0.95271   1.79235 
 C                     1.40644   0.05223   0.51759 
 C                     0.7643   -1.35905   0.56645 
 C                     0.82264  -1.96607   1.99008 
 C                     0.82271   0.93932  -0.61385 
 C                    -0.68283   0.82099  -0.75424 
 C                    -1.40129  -0.30984  -0.50404 
 C                    -0.69849  -1.47227   0.05404 
 C                    -2.88084  -0.35091  -0.78917 
 O                    -3.32702   0.22358  -1.76956 
 C                    -3.82616  -1.00656   0.22398 
 C                    -4.96906  -1.75758  -0.48249 
 C                    -4.37103   0.11996   1.12951 
 O                    -1.23644  -2.57394   0.13526 
 C                     0.91697   2.41244  -0.16313 
 C                    -0.20874   3.08927  -0.98013 
 O                    -1.21214   1.9948   -1.09628 
 C                     0.67446   2.28865   1.35436 
 O                     1.39501   0.63946  -1.872 
 C                     1.68181  -2.16173  -0.39417 
 C                     3.05968  -1.56865  -0.11859 
 O                     2.80026  -0.16517   0.17989 
 C                     4.12067  -1.63843  -1.19731 
 C                     5.41384  -0.93584  -0.85965 
 C                     3.94669  -2.3041   -2.34325 
 C                     0.2253    3.47502  -2.39605 
 C                    -0.93057   4.25019  -0.30138 
 H                     1.89795   2.84218  -0.38708 
 H                     2.39631   1.17175   2.02726 
 C                     0.43701   1.2391    4.18568 
 H                     0.05899  -1.4092    3.99618 
 H                     1.83039  -2.36712   2.17618 
 H                     0.14873  -2.82775   2.00576 
 H                    -3.26189  -1.7102    0.84018 
 H                    -5.67925  -2.09469   0.28489 
 H                    -5.50596  -1.04937  -1.12476 
 H                    -3.56291   0.64776   1.65039 
 H                    -5.04264  -0.29622   1.8891 
 H                    -4.92996   0.85296   0.53755 
 H                     1.05813   3.14604   1.91463 
 H                    -0.40089   2.23079   1.55484 
 H                     2.32624   0.42315  -1.66518 
 H                     1.38654  -1.9795   -1.43098 
 H                     1.62836  -3.236    -0.20005 
 H                     3.48388  -2.01492   0.79498 
 H                     5.24143   0.12676  -0.65389 
 H                     5.86433  -1.36091   0.04793 
 H                     6.14033  -1.02142  -1.67304 
 H                     4.74024  -2.35867  -3.08426 
 H                     3.02662  -2.82525  -2.58736 
 H                    -0.6504    3.76606  -2.98471 
 H                     0.91181   4.32867  -2.35563 
 H                     0.72756   2.64284  -2.89212 
 H                    -0.23678   5.08578  -0.15691 
 H                    -1.75505   4.59633  -0.93234 
 H                    -1.34288   3.96922   0.67054 
 H                     0.04586   0.67938   5.04081 
 H                     1.35219   1.7549    4.51008 
 H                    -0.29067   2.02196   3.93614 
 C                    -4.50033  -2.95709  -1.31332 
 H                    -5.35473  -3.48557  -1.75216 
 H                    -3.85034  -2.63597  -2.1343 
 H                    -3.9336   -3.6688   -0.70313 
 

 GradGradGradGradGradGradGradGradGradGradGradGradGradGradGradGradGradGrad
 Berny optimization.
 Initialization pass.
                           ----------------------------
                           !    Initial Parameters    !
                           ! (Angstroms and Degrees)  !
 --------------------------                            --------------------------
 ! Name  Definition              Value          Derivative Info.                !
 --------------------------------------------------------------------------------
 ! R1    R(1,2)                  1.3382         estimate D2E/DX2                !
 ! R2    R(1,6)                  1.5033         estimate D2E/DX2                !
 ! R3    R(1,33)                 1.0893         estimate D2E/DX2                !
 ! R4    R(2,3)                  1.5149         estimate D2E/DX2                !
 ! R5    R(2,32)                 1.5091         estimate D2E/DX2                !
 ! R6    R(3,4)                  1.5619         estimate D2E/DX2                !
 ! R7    R(3,20)                 1.5576         estimate D2E/DX2                !
 ! R8    R(3,31)                 1.0993         estimate D2E/DX2                !
 ! R9    R(4,5)                  1.5513         estimate D2E/DX2                !
 ! R10   R(4,7)                  1.5517         estimate D2E/DX2                !
 ! R11   R(4,24)                 1.4505         estimate D2E/DX2                !
 ! R12   R(5,6)                  1.5487         estimate D2E/DX2                !
 ! R13   R(5,10)                 1.5541         estimate D2E/DX2                !
 ! R14   R(5,22)                 1.5521         estimate D2E/DX2                !
 ! R15   R(6,34)                 1.1005         estimate D2E/DX2                !
 ! R16   R(6,35)                 1.094          estimate D2E/DX2                !
 ! R17   R(7,8)                  1.5167         estimate D2E/DX2                !
 ! R18   R(7,17)                 1.5434         estimate D2E/DX2                !
 ! R19   R(7,21)                 1.4144         estimate D2E/DX2                !
 ! R20   R(8,9)                  1.3629         estimate D2E/DX2                !
 ! R21   R(8,19)                 1.3323         estimate D2E/DX2                !
 ! R22   R(9,10)                 1.4685         estimate D2E/DX2                !
 ! R23   R(9,11)                 1.5073         estimate D2E/DX2                !
 ! R24   R(10,16)                1.2287         estimate D2E/DX2                !
 ! R25   R(11,12)                1.2208         estimate D2E/DX2                !
 ! R26   R(11,13)                1.533          estimate D2E/DX2                !
 ! R27   R(13,14)                1.5393         estimate D2E/DX2                !
 ! R28   R(13,15)                1.5446         estimate D2E/DX2                !
 ! R29   R(13,36)                1.0923         estimate D2E/DX2                !
 ! R30   R(14,37)                1.0986         estimate D2E/DX2                !
 ! R31   R(14,38)                1.0965         estimate D2E/DX2                !
 ! R32   R(14,62)                1.5326         estimate D2E/DX2                !
 ! R33   R(15,39)                1.0968         estimate D2E/DX2                !
 ! R34   R(15,40)                1.096          estimate D2E/DX2                !
 ! R35   R(15,41)                1.0955         estimate D2E/DX2                !
 ! R36   R(17,18)                1.5469         estimate D2E/DX2                !
 ! R37   R(17,20)                1.5417         estimate D2E/DX2                !
 ! R38   R(17,30)                1.0941         estimate D2E/DX2                !
 ! R39   R(18,19)                1.4893         estimate D2E/DX2                !
 ! R40   R(18,28)                1.5304         estimate D2E/DX2                !
 ! R41   R(18,29)                1.5263         estimate D2E/DX2                !
 ! R42   R(20,42)                1.0937         estimate D2E/DX2                !
 ! R43   R(20,43)                1.0954         estimate D2E/DX2                !
 ! R44   R(21,44)                0.9781         estimate D2E/DX2                !
 ! R45   R(22,23)                1.5252         estimate D2E/DX2                !
 ! R46   R(22,45)                1.0933         estimate D2E/DX2                !
 ! R47   R(22,46)                1.093          estimate D2E/DX2                !
 ! R48   R(23,24)                1.4581         estimate D2E/DX2                !
 ! R49   R(23,25)                1.5147         estimate D2E/DX2                !
 ! R50   R(23,47)                1.1017         estimate D2E/DX2                !
 ! R51   R(25,26)                1.5099         estimate D2E/DX2                !
 ! R52   R(25,27)                1.3366         estimate D2E/DX2                !
 ! R53   R(26,48)                1.096          estimate D2E/DX2                !
 ! R54   R(26,49)                1.0988         estimate D2E/DX2                !
 ! R55   R(26,50)                1.0939         estimate D2E/DX2                !
 ! R56   R(27,51)                1.0871         estimate D2E/DX2                !
 ! R57   R(27,52)                1.0852         estimate D2E/DX2                !
 ! R58   R(28,53)                1.0946         estimate D2E/DX2                !
 ! R59   R(28,54)                1.0962         estimate D2E/DX2                !
 ! R60   R(28,55)                1.0913         estimate D2E/DX2                !
 ! R61   R(29,56)                1.0956         estimate D2E/DX2                !
 ! R62   R(29,57)                1.0944         estimate D2E/DX2                !
 ! R63   R(29,58)                1.0925         estimate D2E/DX2                !
 ! R64   R(32,59)                1.0943         estimate D2E/DX2                !
 ! R65   R(32,60)                1.0995         estimate D2E/DX2                !
 ! R66   R(32,61)                1.0976         estimate D2E/DX2                !
 ! R67   R(62,63)                1.0963         estimate D2E/DX2                !
 ! R68   R(62,64)                1.0953         estimate D2E/DX2                !
 ! R69   R(62,65)                1.0955         estimate D2E/DX2                !
 ! A1    A(2,1,6)              124.232          estimate D2E/DX2                !
 ! A2    A(2,1,33)             119.0008         estimate D2E/DX2                !
 ! A3    A(6,1,33)             116.6939         estimate D2E/DX2                !
 ! A4    A(1,2,3)              121.3156         estimate D2E/DX2                !
 ! A5    A(1,2,32)             121.7945         estimate D2E/DX2                !
 ! A6    A(3,2,32)             116.807          estimate D2E/DX2                !
 ! A7    A(2,3,4)              115.9488         estimate D2E/DX2                !
 ! A8    A(2,3,20)             113.8488         estimate D2E/DX2                !
 ! A9    A(2,3,31)             107.9174         estimate D2E/DX2                !
 ! A10   A(4,3,20)             106.3752         estimate D2E/DX2                !
 ! A11   A(4,3,31)             104.5729         estimate D2E/DX2                !
 ! A12   A(20,3,31)            107.5099         estimate D2E/DX2                !
 ! A13   A(3,4,5)              118.848          estimate D2E/DX2                !
 ! A14   A(3,4,7)              104.5186         estimate D2E/DX2                !
 ! A15   A(3,4,24)             108.3151         estimate D2E/DX2                !
 ! A16   A(5,4,7)              112.7892         estimate D2E/DX2                !
 ! A17   A(5,4,24)             105.5895         estimate D2E/DX2                !
 ! A18   A(7,4,24)             106.1049         estimate D2E/DX2                !
 ! A19   A(4,5,6)              111.7113         estimate D2E/DX2                !
 ! A20   A(4,5,10)             116.4569         estimate D2E/DX2                !
 ! A21   A(4,5,22)             101.9058         estimate D2E/DX2                !
 ! A22   A(6,5,10)             108.0585         estimate D2E/DX2                !
 ! A23   A(6,5,22)             110.118          estimate D2E/DX2                !
 ! A24   A(10,5,22)            108.3417         estimate D2E/DX2                !
 ! A25   A(1,6,5)              113.901          estimate D2E/DX2                !
 ! A26   A(1,6,34)             108.8022         estimate D2E/DX2                !
 ! A27   A(1,6,35)             111.0737         estimate D2E/DX2                !
 ! A28   A(5,6,34)             109.4379         estimate D2E/DX2                !
 ! A29   A(5,6,35)             107.378          estimate D2E/DX2                !
 ! A30   A(34,6,35)            105.9399         estimate D2E/DX2                !
 ! A31   A(4,7,8)              113.3474         estimate D2E/DX2                !
 ! A32   A(4,7,17)             108.0438         estimate D2E/DX2                !
 ! A33   A(4,7,21)             112.0367         estimate D2E/DX2                !
 ! A34   A(8,7,17)              99.3299         estimate D2E/DX2                !
 ! A35   A(8,7,21)             107.6246         estimate D2E/DX2                !
 ! A36   A(17,7,21)            115.9398         estimate D2E/DX2                !
 ! A37   A(7,8,9)              124.8204         estimate D2E/DX2                !
 ! A38   A(7,8,19)             110.4504         estimate D2E/DX2                !
 ! A39   A(9,8,19)             124.6608         estimate D2E/DX2                !
 ! A40   A(8,9,10)             118.3106         estimate D2E/DX2                !
 ! A41   A(8,9,11)             120.3517         estimate D2E/DX2                !
 ! A42   A(10,9,11)            121.3366         estimate D2E/DX2                !
 ! A43   A(5,10,9)             121.2043         estimate D2E/DX2                !
 ! A44   A(5,10,16)            117.1058         estimate D2E/DX2                !
 ! A45   A(9,10,16)            121.6898         estimate D2E/DX2                !
 ! A46   A(9,11,12)            119.8576         estimate D2E/DX2                !
 ! A47   A(9,11,13)            119.4678         estimate D2E/DX2                !
 ! A48   A(12,11,13)           120.4413         estimate D2E/DX2                !
 ! A49   A(11,13,14)           111.2979         estimate D2E/DX2                !
 ! A50   A(11,13,15)           107.0408         estimate D2E/DX2                !
 ! A51   A(11,13,36)           109.2553         estimate D2E/DX2                !
 ! A52   A(14,13,15)           111.2834         estimate D2E/DX2                !
 ! A53   A(14,13,36)           109.1583         estimate D2E/DX2                !
 ! A54   A(15,13,36)           108.7413         estimate D2E/DX2                !
 ! A55   A(13,14,37)           108.006          estimate D2E/DX2                !
 ! A56   A(13,14,38)           108.4983         estimate D2E/DX2                !
 ! A57   A(13,14,62)           113.8029         estimate D2E/DX2                !
 ! A58   A(37,14,38)           106.9063         estimate D2E/DX2                !
 ! A59   A(37,14,62)           109.6464         estimate D2E/DX2                !
 ! A60   A(38,14,62)           109.7383         estimate D2E/DX2                !
 ! A61   A(13,15,39)           111.6829         estimate D2E/DX2                !
 ! A62   A(13,15,40)           110.2135         estimate D2E/DX2                !
 ! A63   A(13,15,41)           110.5594         estimate D2E/DX2                !
 ! A64   A(39,15,40)           107.7635         estimate D2E/DX2                !
 ! A65   A(39,15,41)           108.0925         estimate D2E/DX2                !
 ! A66   A(40,15,41)           108.4167         estimate D2E/DX2                !
 ! A67   A(7,17,18)            102.6465         estimate D2E/DX2                !
 ! A68   A(7,17,20)            101.6067         estimate D2E/DX2                !
 ! A69   A(7,17,30)            111.7065         estimate D2E/DX2                !
 ! A70   A(18,17,20)           116.1374         estimate D2E/DX2                !
 ! A71   A(18,17,30)           111.8704         estimate D2E/DX2                !
 ! A72   A(20,17,30)           111.9647         estimate D2E/DX2                !
 ! A73   A(17,18,19)           102.1189         estimate D2E/DX2                !
 ! A74   A(17,18,28)           113.1138         estimate D2E/DX2                !
 ! A75   A(17,18,29)           116.2378         estimate D2E/DX2                !
 ! A76   A(19,18,28)           107.7078         estimate D2E/DX2                !
 ! A77   A(19,18,29)           105.9627         estimate D2E/DX2                !
 ! A78   A(28,18,29)           110.7237         estimate D2E/DX2                !
 ! A79   A(8,19,18)            111.0858         estimate D2E/DX2                !
 ! A80   A(3,20,17)            106.1368         estimate D2E/DX2                !
 ! A81   A(3,20,42)            112.1675         estimate D2E/DX2                !
 ! A82   A(3,20,43)            109.0147         estimate D2E/DX2                !
 ! A83   A(17,20,42)           112.7108         estimate D2E/DX2                !
 ! A84   A(17,20,43)           109.804          estimate D2E/DX2                !
 ! A85   A(42,20,43)           106.9791         estimate D2E/DX2                !
 ! A86   A(7,21,44)            104.1248         estimate D2E/DX2                !
 ! A87   A(5,22,23)            102.7746         estimate D2E/DX2                !
 ! A88   A(5,22,45)            109.9432         estimate D2E/DX2                !
 ! A89   A(5,22,46)            111.6838         estimate D2E/DX2                !
 ! A90   A(23,22,45)           110.5185         estimate D2E/DX2                !
 ! A91   A(23,22,46)           113.2217         estimate D2E/DX2                !
 ! A92   A(45,22,46)           108.6048         estimate D2E/DX2                !
 ! A93   A(22,23,24)           104.5094         estimate D2E/DX2                !
 ! A94   A(22,23,25)           119.0926         estimate D2E/DX2                !
 ! A95   A(22,23,47)           109.8869         estimate D2E/DX2                !
 ! A96   A(24,23,25)           108.3459         estimate D2E/DX2                !
 ! A97   A(24,23,47)           106.7774         estimate D2E/DX2                !
 ! A98   A(25,23,47)           107.59           estimate D2E/DX2                !
 ! A99   A(4,24,23)            111.2766         estimate D2E/DX2                !
 ! A100  A(23,25,26)           114.7851         estimate D2E/DX2                !
 ! A101  A(23,25,27)           122.8437         estimate D2E/DX2                !
 ! A102  A(26,25,27)           122.3395         estimate D2E/DX2                !
 ! A103  A(25,26,48)           111.0017         estimate D2E/DX2                !
 ! A104  A(25,26,49)           110.8443         estimate D2E/DX2                !
 ! A105  A(25,26,50)           111.474          estimate D2E/DX2                !
 ! A106  A(48,26,49)           106.5289         estimate D2E/DX2                !
 ! A107  A(48,26,50)           108.6577         estimate D2E/DX2                !
 ! A108  A(49,26,50)           108.1565         estimate D2E/DX2                !
 ! A109  A(25,27,51)           120.956          estimate D2E/DX2                !
 ! A110  A(25,27,52)           122.8447         estimate D2E/DX2                !
 ! A111  A(51,27,52)           116.196          estimate D2E/DX2                !
 ! A112  A(18,28,53)           109.7365         estimate D2E/DX2                !
 ! A113  A(18,28,54)           109.865          estimate D2E/DX2                !
 ! A114  A(18,28,55)           111.0324         estimate D2E/DX2                !
 ! A115  A(53,28,54)           108.2888         estimate D2E/DX2                !
 ! A116  A(53,28,55)           109.0571         estimate D2E/DX2                !
 ! A117  A(54,28,55)           108.8065         estimate D2E/DX2                !
 ! A118  A(18,29,56)           109.8319         estimate D2E/DX2                !
 ! A119  A(18,29,57)           109.9062         estimate D2E/DX2                !
 ! A120  A(18,29,58)           112.2408         estimate D2E/DX2                !
 ! A121  A(56,29,57)           108.1709         estimate D2E/DX2                !
 ! A122  A(56,29,58)           108.5304         estimate D2E/DX2                !
 ! A123  A(57,29,58)           108.0547         estimate D2E/DX2                !
 ! A124  A(2,32,59)            111.1126         estimate D2E/DX2                !
 ! A125  A(2,32,60)            111.0727         estimate D2E/DX2                !
 ! A126  A(2,32,61)            112.2451         estimate D2E/DX2                !
 ! A127  A(59,32,60)           107.8732         estimate D2E/DX2                !
 ! A128  A(59,32,61)           107.7883         estimate D2E/DX2                !
 ! A129  A(60,32,61)           106.5181         estimate D2E/DX2                !
 ! A130  A(14,62,63)           110.851          estimate D2E/DX2                !
 ! A131  A(14,62,64)           111.0008         estimate D2E/DX2                !
 ! A132  A(14,62,65)           111.3925         estimate D2E/DX2                !
 ! A133  A(63,62,64)           107.6862         estimate D2E/DX2                !
 ! A134  A(63,62,65)           108.2381         estimate D2E/DX2                !
 ! A135  A(64,62,65)           107.5162         estimate D2E/DX2                !
 ! D1    D(6,1,2,3)              0.971          estimate D2E/DX2                !
 ! D2    D(6,1,2,32)          -175.6136         estimate D2E/DX2                !
 ! D3    D(33,1,2,3)           177.7496         estimate D2E/DX2                !
 ! D4    D(33,1,2,32)            1.165          estimate D2E/DX2                !
 ! D5    D(2,1,6,5)            -30.592          estimate D2E/DX2                !
 ! D6    D(2,1,6,34)            91.7792         estimate D2E/DX2                !
 ! D7    D(2,1,6,35)          -151.9828         estimate D2E/DX2                !
 ! D8    D(33,1,6,5)           152.5615         estimate D2E/DX2                !
 ! D9    D(33,1,6,34)          -85.0673         estimate D2E/DX2                !
 ! D10   D(33,1,6,35)           31.1708         estimate D2E/DX2                !
 ! D11   D(1,2,3,4)             13.0449         estimate D2E/DX2                !
 ! D12   D(1,2,3,20)           136.9575         estimate D2E/DX2                !
 ! D13   D(1,2,3,31)          -103.7901         estimate D2E/DX2                !
 ! D14   D(32,2,3,4)          -170.2074         estimate D2E/DX2                !
 ! D15   D(32,2,3,20)          -46.2947         estimate D2E/DX2                !
 ! D16   D(32,2,3,31)           72.9576         estimate D2E/DX2                !
 ! D17   D(1,2,32,59)            0.5285         estimate D2E/DX2                !
 ! D18   D(1,2,32,60)          120.6182         estimate D2E/DX2                !
 ! D19   D(1,2,32,61)         -120.2516         estimate D2E/DX2                !
 ! D20   D(3,2,32,59)         -176.2025         estimate D2E/DX2                !
 ! D21   D(3,2,32,60)          -56.1128         estimate D2E/DX2                !
 ! D22   D(3,2,32,61)           63.0174         estimate D2E/DX2                !
 ! D23   D(2,3,4,5)              3.297          estimate D2E/DX2                !
 ! D24   D(2,3,4,7)            130.128          estimate D2E/DX2                !
 ! D25   D(2,3,4,24)          -117.0694         estimate D2E/DX2                !
 ! D26   D(20,3,4,5)          -124.4127         estimate D2E/DX2                !
 ! D27   D(20,3,4,7)             2.4183         estimate D2E/DX2                !
 ! D28   D(20,3,4,24)          115.221          estimate D2E/DX2                !
 ! D29   D(31,3,4,5)           121.9838         estimate D2E/DX2                !
 ! D30   D(31,3,4,7)          -111.1853         estimate D2E/DX2                !
 ! D31   D(31,3,4,24)            1.6174         estimate D2E/DX2                !
 ! D32   D(2,3,20,17)         -153.0021         estimate D2E/DX2                !
 ! D33   D(2,3,20,42)           83.502          estimate D2E/DX2                !
 ! D34   D(2,3,20,43)          -34.7882         estimate D2E/DX2                !
 ! D35   D(4,3,20,17)          -24.0593         estimate D2E/DX2                !
 ! D36   D(4,3,20,42)         -147.5552         estimate D2E/DX2                !
 ! D37   D(4,3,20,43)           94.1546         estimate D2E/DX2                !
 ! D38   D(31,3,20,17)          87.5142         estimate D2E/DX2                !
 ! D39   D(31,3,20,42)         -35.9817         estimate D2E/DX2                !
 ! D40   D(31,3,20,43)        -154.2719         estimate D2E/DX2                !
 ! D41   D(3,4,5,6)            -30.4882         estimate D2E/DX2                !
 ! D42   D(3,4,5,10)            94.3205         estimate D2E/DX2                !
 ! D43   D(3,4,5,22)          -148.0245         estimate D2E/DX2                !
 ! D44   D(7,4,5,6)           -153.2999         estimate D2E/DX2                !
 ! D45   D(7,4,5,10)           -28.4912         estimate D2E/DX2                !
 ! D46   D(7,4,5,22)            89.1638         estimate D2E/DX2                !
 ! D47   D(24,4,5,6)            91.2579         estimate D2E/DX2                !
 ! D48   D(24,4,5,10)         -143.9333         estimate D2E/DX2                !
 ! D49   D(24,4,5,22)          -26.2783         estimate D2E/DX2                !
 ! D50   D(3,4,7,8)            -88.8454         estimate D2E/DX2                !
 ! D51   D(3,4,7,17)            20.2005         estimate D2E/DX2                !
 ! D52   D(3,4,7,21)           149.1158         estimate D2E/DX2                !
 ! D53   D(5,4,7,8)             41.6514         estimate D2E/DX2                !
 ! D54   D(5,4,7,17)           150.6973         estimate D2E/DX2                !
 ! D55   D(5,4,7,21)           -80.3874         estimate D2E/DX2                !
 ! D56   D(24,4,7,8)           156.7839         estimate D2E/DX2                !
 ! D57   D(24,4,7,17)          -94.1702         estimate D2E/DX2                !
 ! D58   D(24,4,7,21)           34.7451         estimate D2E/DX2                !
 ! D59   D(3,4,24,23)          134.0383         estimate D2E/DX2                !
 ! D60   D(5,4,24,23)            5.7223         estimate D2E/DX2                !
 ! D61   D(7,4,24,23)         -114.2195         estimate D2E/DX2                !
 ! D62   D(4,5,6,1)             42.8966         estimate D2E/DX2                !
 ! D63   D(4,5,6,34)           -79.1246         estimate D2E/DX2                !
 ! D64   D(4,5,6,35)           166.3182         estimate D2E/DX2                !
 ! D65   D(10,5,6,1)           -86.4652         estimate D2E/DX2                !
 ! D66   D(10,5,6,34)          151.5136         estimate D2E/DX2                !
 ! D67   D(10,5,6,35)           36.9565         estimate D2E/DX2                !
 ! D68   D(22,5,6,1)           155.3753         estimate D2E/DX2                !
 ! D69   D(22,5,6,34)           33.3541         estimate D2E/DX2                !
 ! D70   D(22,5,6,35)          -81.2031         estimate D2E/DX2                !
 ! D71   D(4,5,10,9)             2.8305         estimate D2E/DX2                !
 ! D72   D(4,5,10,16)         -177.2678         estimate D2E/DX2                !
 ! D73   D(6,5,10,9)           129.4765         estimate D2E/DX2                !
 ! D74   D(6,5,10,16)          -50.6217         estimate D2E/DX2                !
 ! D75   D(22,5,10,9)         -111.2333         estimate D2E/DX2                !
 ! D76   D(22,5,10,16)          68.6684         estimate D2E/DX2                !
 ! D77   D(4,5,22,23)           36.4439         estimate D2E/DX2                !
 ! D78   D(4,5,22,45)          -81.2405         estimate D2E/DX2                !
 ! D79   D(4,5,22,46)          158.1281         estimate D2E/DX2                !
 ! D80   D(6,5,22,23)          -82.2324         estimate D2E/DX2                !
 ! D81   D(6,5,22,45)          160.0832         estimate D2E/DX2                !
 ! D82   D(6,5,22,46)           39.4519         estimate D2E/DX2                !
 ! D83   D(10,5,22,23)         159.7827         estimate D2E/DX2                !
 ! D84   D(10,5,22,45)          42.0983         estimate D2E/DX2                !
 ! D85   D(10,5,22,46)         -78.533          estimate D2E/DX2                !
 ! D86   D(4,7,8,9)            -32.4297         estimate D2E/DX2                !
 ! D87   D(4,7,8,19)           144.6746         estimate D2E/DX2                !
 ! D88   D(17,7,8,9)          -146.811          estimate D2E/DX2                !
 ! D89   D(17,7,8,19)           30.2933         estimate D2E/DX2                !
 ! D90   D(21,7,8,9)            92.0366         estimate D2E/DX2                !
 ! D91   D(21,7,8,19)          -90.8592         estimate D2E/DX2                !
 ! D92   D(4,7,17,18)         -155.0537         estimate D2E/DX2                !
 ! D93   D(4,7,17,20)          -34.5902         estimate D2E/DX2                !
 ! D94   D(4,7,17,30)           84.9312         estimate D2E/DX2                !
 ! D95   D(8,7,17,18)          -36.635          estimate D2E/DX2                !
 ! D96   D(8,7,17,20)           83.8285         estimate D2E/DX2                !
 ! D97   D(8,7,17,30)         -156.6501         estimate D2E/DX2                !
 ! D98   D(21,7,17,18)          78.271          estimate D2E/DX2                !
 ! D99   D(21,7,17,20)        -161.2655         estimate D2E/DX2                !
 ! D100  D(21,7,17,30)         -41.7441         estimate D2E/DX2                !
 ! D101  D(4,7,21,44)          -35.6676         estimate D2E/DX2                !
 ! D102  D(8,7,21,44)         -160.9207         estimate D2E/DX2                !
 ! D103  D(17,7,21,44)          88.9772         estimate D2E/DX2                !
 ! D104  D(7,8,9,10)             5.6283         estimate D2E/DX2                !
 ! D105  D(7,8,9,11)          -174.7465         estimate D2E/DX2                !
 ! D106  D(19,8,9,10)         -171.0726         estimate D2E/DX2                !
 ! D107  D(19,8,9,11)            8.5525         estimate D2E/DX2                !
 ! D108  D(7,8,19,18)          -10.7076         estimate D2E/DX2                !
 ! D109  D(9,8,19,18)          166.4022         estimate D2E/DX2                !
 ! D110  D(8,9,10,5)             9.9013         estimate D2E/DX2                !
 ! D111  D(8,9,10,16)         -169.9959         estimate D2E/DX2                !
 ! D112  D(11,9,10,5)         -169.72           estimate D2E/DX2                !
 ! D113  D(11,9,10,16)          10.3828         estimate D2E/DX2                !
 ! D114  D(8,9,11,12)           37.1153         estimate D2E/DX2                !
 ! D115  D(8,9,11,13)         -137.3614         estimate D2E/DX2                !
 ! D116  D(10,9,11,12)        -143.271          estimate D2E/DX2                !
 ! D117  D(10,9,11,13)          42.2522         estimate D2E/DX2                !
 ! D118  D(9,11,13,14)        -143.2843         estimate D2E/DX2                !
 ! D119  D(9,11,13,15)          94.915          estimate D2E/DX2                !
 ! D120  D(9,11,13,36)         -22.668          estimate D2E/DX2                !
 ! D121  D(12,11,13,14)         42.2718         estimate D2E/DX2                !
 ! D122  D(12,11,13,15)        -79.5289         estimate D2E/DX2                !
 ! D123  D(12,11,13,36)        162.8881         estimate D2E/DX2                !
 ! D124  D(11,13,14,37)       -172.8959         estimate D2E/DX2                !
 ! D125  D(11,13,14,38)        -57.353          estimate D2E/DX2                !
 ! D126  D(11,13,14,62)         65.1139         estimate D2E/DX2                !
 ! D127  D(15,13,14,37)        -53.5936         estimate D2E/DX2                !
 ! D128  D(15,13,14,38)         61.9493         estimate D2E/DX2                !
 ! D129  D(15,13,14,62)       -175.5837         estimate D2E/DX2                !
 ! D130  D(36,13,14,37)         66.4308         estimate D2E/DX2                !
 ! D131  D(36,13,14,38)       -178.0263         estimate D2E/DX2                !
 ! D132  D(36,13,14,62)        -55.5594         estimate D2E/DX2                !
 ! D133  D(11,13,15,39)        -59.2253         estimate D2E/DX2                !
 ! D134  D(11,13,15,40)       -178.9784         estimate D2E/DX2                !
 ! D135  D(11,13,15,41)         61.1764         estimate D2E/DX2                !
 ! D136  D(14,13,15,39)        178.9648         estimate D2E/DX2                !
 ! D137  D(14,13,15,40)         59.2117         estimate D2E/DX2                !
 ! D138  D(14,13,15,41)        -60.6335         estimate D2E/DX2                !
 ! D139  D(36,13,15,39)         58.694          estimate D2E/DX2                !
 ! D140  D(36,13,15,40)        -61.0592         estimate D2E/DX2                !
 ! D141  D(36,13,15,41)        179.0956         estimate D2E/DX2                !
 ! D142  D(13,14,62,63)        177.1055         estimate D2E/DX2                !
 ! D143  D(13,14,62,64)        -63.2617         estimate D2E/DX2                !
 ! D144  D(13,14,62,65)         56.5156         estimate D2E/DX2                !
 ! D145  D(37,14,62,63)         56.0268         estimate D2E/DX2                !
 ! D146  D(37,14,62,64)        175.6596         estimate D2E/DX2                !
 ! D147  D(37,14,62,65)        -64.5632         estimate D2E/DX2                !
 ! D148  D(38,14,62,63)        -61.1122         estimate D2E/DX2                !
 ! D149  D(38,14,62,64)         58.5206         estimate D2E/DX2                !
 ! D150  D(38,14,62,65)        178.2979         estimate D2E/DX2                !
 ! D151  D(7,17,18,19)          31.7448         estimate D2E/DX2                !
 ! D152  D(7,17,18,28)         -83.7163         estimate D2E/DX2                !
 ! D153  D(7,17,18,29)         146.5431         estimate D2E/DX2                !
 ! D154  D(20,17,18,19)        -78.119          estimate D2E/DX2                !
 ! D155  D(20,17,18,28)        166.4199         estimate D2E/DX2                !
 ! D156  D(20,17,18,29)         36.6793         estimate D2E/DX2                !
 ! D157  D(30,17,18,19)        151.6463         estimate D2E/DX2                !
 ! D158  D(30,17,18,28)         36.1852         estimate D2E/DX2                !
 ! D159  D(30,17,18,29)        -93.5554         estimate D2E/DX2                !
 ! D160  D(7,17,20,3)           35.49           estimate D2E/DX2                !
 ! D161  D(7,17,20,42)         158.6447         estimate D2E/DX2                !
 ! D162  D(7,17,20,43)         -82.1998         estimate D2E/DX2                !
 ! D163  D(18,17,20,3)         145.9621         estimate D2E/DX2                !
 ! D164  D(18,17,20,42)        -90.8832         estimate D2E/DX2                !
 ! D165  D(18,17,20,43)         28.2723         estimate D2E/DX2                !
 ! D166  D(30,17,20,3)         -83.848          estimate D2E/DX2                !
 ! D167  D(30,17,20,42)         39.3067         estimate D2E/DX2                !
 ! D168  D(30,17,20,43)        158.4622         estimate D2E/DX2                !
 ! D169  D(17,18,19,8)         -13.8444         estimate D2E/DX2                !
 ! D170  D(28,18,19,8)         105.4985         estimate D2E/DX2                !
 ! D171  D(29,18,19,8)        -135.9669         estimate D2E/DX2                !
 ! D172  D(17,18,28,53)        169.0867         estimate D2E/DX2                !
 ! D173  D(17,18,28,54)        -71.959          estimate D2E/DX2                !
 ! D174  D(17,18,28,55)         48.4495         estimate D2E/DX2                !
 ! D175  D(19,18,28,53)         57.0068         estimate D2E/DX2                !
 ! D176  D(19,18,28,54)        175.9612         estimate D2E/DX2                !
 ! D177  D(19,18,28,55)        -63.6304         estimate D2E/DX2                !
 ! D178  D(29,18,28,53)        -58.4265         estimate D2E/DX2                !
 ! D179  D(29,18,28,54)         60.5278         estimate D2E/DX2                !
 ! D180  D(29,18,28,55)       -179.0638         estimate D2E/DX2                !
 ! D181  D(17,18,29,56)         65.7349         estimate D2E/DX2                !
 ! D182  D(17,18,29,57)       -175.3719         estimate D2E/DX2                !
 ! D183  D(17,18,29,58)        -55.0942         estimate D2E/DX2                !
 ! D184  D(19,18,29,56)        178.3431         estimate D2E/DX2                !
 ! D185  D(19,18,29,57)        -62.7637         estimate D2E/DX2                !
 ! D186  D(19,18,29,58)         57.5141         estimate D2E/DX2                !
 ! D187  D(28,18,29,56)        -65.1396         estimate D2E/DX2                !
 ! D188  D(28,18,29,57)         53.7536         estimate D2E/DX2                !
 ! D189  D(28,18,29,58)        174.0314         estimate D2E/DX2                !
 ! D190  D(5,22,23,24)         -33.747          estimate D2E/DX2                !
 ! D191  D(5,22,23,25)        -154.8153         estimate D2E/DX2                !
 ! D192  D(5,22,23,47)          80.501          estimate D2E/DX2                !
 ! D193  D(45,22,23,24)         83.5299         estimate D2E/DX2                !
 ! D194  D(45,22,23,25)        -37.5385         estimate D2E/DX2                !
 ! D195  D(45,22,23,47)       -162.2222         estimate D2E/DX2                !
 ! D196  D(46,22,23,24)       -154.38           estimate D2E/DX2                !
 ! D197  D(46,22,23,25)         84.5516         estimate D2E/DX2                !
 ! D198  D(46,22,23,47)        -40.1321         estimate D2E/DX2                !
 ! D199  D(22,23,24,4)          17.8579         estimate D2E/DX2                !
 ! D200  D(25,23,24,4)         145.8063         estimate D2E/DX2                !
 ! D201  D(47,23,24,4)         -98.5664         estimate D2E/DX2                !
 ! D202  D(22,23,25,26)        175.8074         estimate D2E/DX2                !
 ! D203  D(22,23,25,27)         -6.1994         estimate D2E/DX2                !
 ! D204  D(24,23,25,26)         56.6915         estimate D2E/DX2                !
 ! D205  D(24,23,25,27)       -125.3152         estimate D2E/DX2                !
 ! D206  D(47,23,25,26)        -58.4057         estimate D2E/DX2                !
 ! D207  D(47,23,25,27)        119.5875         estimate D2E/DX2                !
 ! D208  D(23,25,26,48)        -58.8204         estimate D2E/DX2                !
 ! D209  D(23,25,26,49)         59.3603         estimate D2E/DX2                !
 ! D210  D(23,25,26,50)        179.897          estimate D2E/DX2                !
 ! D211  D(27,25,26,48)        123.175          estimate D2E/DX2                !
 ! D212  D(27,25,26,49)       -118.6442         estimate D2E/DX2                !
 ! D213  D(27,25,26,50)          1.8925         estimate D2E/DX2                !
 ! D214  D(23,25,27,51)       -178.1709         estimate D2E/DX2                !
 ! D215  D(23,25,27,52)          1.1458         estimate D2E/DX2                !
 ! D216  D(26,25,27,51)         -0.3273         estimate D2E/DX2                !
 ! D217  D(26,25,27,52)        178.9894         estimate D2E/DX2                !
 --------------------------------------------------------------------------------
 Trust Radius=3.00D-01 FncErr=1.00D-07 GrdErr=1.00D-06
 Number of steps in this run=    390 maximum allowed number of steps=    390.
 GradGradGradGradGradGradGradGradGradGradGradGradGradGradGradGradGradGrad

 Stoichiometry    C26H34O5
 Framework group  C1[X(C26H34O5)]
 Deg. of freedom   189
 Full point group                 C1      NOp   1
 Largest Abelian subgroup         C1      NOp   1
 Largest concise Abelian subgroup C1      NOp   1
                         Standard orientation:                         
 ---------------------------------------------------------------------
 Center     Atomic      Atomic             Coordinates (Angstroms)
 Number     Number       Type             X           Y           Z
 ---------------------------------------------------------------------
      1          6           0        0.479662   -0.991679    3.082191
      2          6           0        0.714675    0.324124    3.018196
      3          6           0        1.344939    0.952706    1.792347
      4          6           0        1.406435    0.052230    0.517593
      5          6           0        0.764298   -1.359048    0.566447
      6          6           0        0.822644   -1.966072    1.990079
      7          6           0        0.822711    0.939323   -0.613846
      8          6           0       -0.682834    0.820992   -0.754240
      9          6           0       -1.401288   -0.309839   -0.504036
     10          6           0       -0.698492   -1.472267    0.054044
     11          6           0       -2.880835   -0.350910   -0.789166
     12          8           0       -3.327016    0.223580   -1.769555
     13          6           0       -3.826161   -1.006562    0.223977
     14          6           0       -4.969062   -1.757575   -0.482494
     15          6           0       -4.371032    0.119955    1.129510
     16          8           0       -1.236439   -2.573942    0.135258
     17          6           0        0.916967    2.412443   -0.163128
     18          6           0       -0.208740    3.089266   -0.980133
     19          8           0       -1.212141    1.994801   -1.096280
     20          6           0        0.674455    2.288649    1.354358
     21          8           0        1.395012    0.639455   -1.871996
     22          6           0        1.681809   -2.161732   -0.394171
     23          6           0        3.059682   -1.568651   -0.118589
     24          8           0        2.800258   -0.165165    0.179892
     25          6           0        4.120674   -1.638431   -1.197309
     26          6           0        5.413842   -0.935838   -0.859647
     27          6           0        3.946691   -2.304095   -2.343253
     28          6           0        0.225303    3.475022   -2.396047
     29          6           0       -0.930569    4.250188   -0.301380
     30          1           0        1.897951    2.842180   -0.387084
     31          1           0        2.396309    1.171747    2.027257
     32          6           0        0.437008    1.239095    4.185676
     33          1           0        0.058992   -1.409202    3.996183
     34          1           0        1.830387   -2.367122    2.176176
     35          1           0        0.148730   -2.827753    2.005761
     36          1           0       -3.261887   -1.710195    0.840183
     37          1           0       -5.679252   -2.094690    0.284887
     38          1           0       -5.505965   -1.049374   -1.124763
     39          1           0       -3.562913    0.647761    1.650389
     40          1           0       -5.042643   -0.296222    1.889102
     41          1           0       -4.929964    0.852962    0.537547
     42          1           0        1.058127    3.146039    1.914625
     43          1           0       -0.400887    2.230793    1.554839
     44          1           0        2.326235    0.423154   -1.665184
     45          1           0        1.386544   -1.979504   -1.430984
     46          1           0        1.628357   -3.236001   -0.200052
     47          1           0        3.483875   -2.014921    0.794982
     48          1           0        5.241434    0.126757   -0.653887
     49          1           0        5.864328   -1.360910    0.047925
     50          1           0        6.140331   -1.021423   -1.673041
     51          1           0        4.740238   -2.358668   -3.084262
     52          1           0        3.026618   -2.825254   -2.587359
     53          1           0       -0.650403    3.766060   -2.984710
     54          1           0        0.911814    4.328673   -2.355632
     55          1           0        0.727561    2.642835   -2.892117
     56          1           0       -0.236783    5.085782   -0.156907
     57          1           0       -1.755046    4.596334   -0.932339
     58          1           0       -1.342882    3.969221    0.670543
     59          1           0        0.045861    0.679378    5.040813
     60          1           0        1.352190    1.754904    4.510076
     61          1           0       -0.290674    2.021958    3.936144
     62          6           0       -4.500334   -2.957089   -1.313324
     63          1           0       -5.354729   -3.485570   -1.752155
     64          1           0       -3.850341   -2.635972   -2.134297
     65          1           0       -3.933598   -3.668804   -0.703131
 ---------------------------------------------------------------------
 Rotational constants (GHZ):      0.1947411      0.1294348      0.1161696
 Standard basis: 6-311+G(d) (5D, 7F)
 There are   784 symmetry adapted basis functions of A   symmetry.
 Integral buffers will be    131072 words long.
 Raffenetti 2 integral format.
 Two-electron integral symmetry is turned on.
   784 basis functions,  1286 primitive gaussians,   815 cartesian basis functions
   115 alpha electrons      115 beta electrons
       nuclear repulsion energy      3512.9953465425 Hartrees.
 NAtoms=   65 NActive=   65 NUniq=   65 SFac= 1.00D+00 NAtFMM=   50 NAOKFM=T Big=T
 One-electron integrals computed using PRISM.
 NBasis=   784 RedAO= T  NBF=   784
 NBsUse=   777 1.00D-06 NBFU=   777
 Harris functional with IExCor=  402 diagonalized for initial guess.
 ExpMin= 4.38D-02 ExpMax= 8.59D+03 ExpMxC= 1.30D+03 IAcc=2 IRadAn=         0 AccDes= 0.00D+00
 HarFok:  IExCor=  402 AccDes= 0.00D+00 IRadAn=         0 IDoV= 1
 ScaDFX=  1.000000  1.000000  1.000000  1.000000
 FoFCou: FMM=F IPFlag=           0 FMFlag=      100000 FMFlg1=        2001
         NFxFlg=           0 DoJE=T BraDBF=F KetDBF=T FulRan=T
         Omega=  0.000000  0.000000  1.000000  0.000000  0.000000 ICntrl=     500 IOpCl=  0
         NMat0=    1 NMatS0=    1 NMatT0=    0 NMatD0=    1 NMtDS0=    0 NMtDT0=    0
         I1Cent=           4 NGrid=           0.
 Petite list used in FoFCou.
 Initial guess orbital symmetries:
       Occupied  (A) (A) (A) (A) (A) (A) (A) (A) (A) (A) (A) (A)
                 (A) (A) (A) (A) (A) (A) (A) (A) (A) (A) (A) (A)
                 (A) (A) (A) (A) (A) (A) (A) (A) (A) (A) (A) (A)
                 (A) (A) (A) (A) (A) (A) (A) (A) (A) (A) (A) (A)
                 (A) (A) (A) (A) (A) (A) (A) (A) (A) (A) (A) (A)
                 (A) (A) (A) (A) (A) (A) (A) (A) (A) (A) (A) (A)
                 (A) (A) (A) (A) (A) (A) (A) (A) (A) (A) (A) (A)
                 (A) (A) (A) (A) (A) (A) (A) (A) (A) (A) (A) (A)
                 (A) (A) (A) (A) (A) (A) (A) (A) (A) (A) (A) (A)
                 (A) (A) (A) (A) (A) (A) (A)
       Virtual   (A) (A) (A) (A) (A) (A) (A) (A) (A) (A) (A) (A)
                 (A) (A) (A) (A) (A) (A) (A) (A) (A) (A) (A) (A)
                 (A) (A) (A) (A) (A) (A) (A) (A) (A) (A) (A) (A)
                 (A) (A) (A) (A) (A) (A) (A) (A) (A) (A) (A) (A)
                 (A) (A) (A) (A) (A) (A) (A) (A) (A) (A) (A) (A)
                 (A) (A) (A) (A) (A) (A) (A) (A) (A) (A) (A) (A)
                 (A) (A) (A) (A) (A) (A) (A) (A) (A) (A) (A) (A)
                 (A) (A) (A) (A) (A) (A) (A) (A) (A) (A) (A) (A)
                 (A) (A) (A) (A) (A) (A) (A) (A) (A) (A) (A) (A)
                 (A) (A) (A) (A) (A) (A) (A) (A) (A) (A) (A) (A)
                 (A) (A) (A) (A) (A) (A) (A) (A) (A) (A) (A) (A)
                 (A) (A) (A) (A) (A) (A) (A) (A) (A) (A) (A) (A)
                 (A) (A) (A) (A) (A) (A) (A) (A) (A) (A) (A) (A)
                 (A) (A) (A) (A) (A) (A) (A) (A) (A) (A) (A) (A)
                 (A) (A) (A) (A) (A) (A) (A) (A) (A) (A) (A) (A)
                 (A) (A) (A) (A) (A) (A) (A) (A) (A) (A) (A) (A)
                 (A) (A) (A) (A) (A) (A) (A) (A) (A) (A) (A) (A)
                 (A) (A) (A) (A) (A) (A) (A) (A) (A) (A) (A) (A)
                 (A) (A) (A) (A) (A) (A) (A) (A) (A) (A) (A) (A)
                 (A) (A) (A) (A) (A) (A) (A) (A) (A) (A) (A) (A)
                 (A) (A) (A) (A) (A) (A) (A) (A) (A) (A) (A) (A)
                 (A) (A) (A) (A) (A) (A) (A) (A) (A) (A) (A) (A)
                 (A) (A) (A) (A) (A) (A) (A) (A) (A) (A) (A) (A)
                 (A) (A) (A) (A) (A) (A) (A) (A) (A) (A) (A) (A)
                 (A) (A) (A) (A) (A) (A) (A) (A) (A) (A) (A) (A)
                 (A) (A) (A) (A) (A) (A) (A) (A) (A) (A) (A) (A)
                 (A) (A) (A) (A) (A) (A) (A) (A) (A) (A) (A) (A)
                 (A) (A) (A) (A) (A) (A) (A) (A) (A) (A) (A) (A)
                 (A) (A) (A) (A) (A) (A) (A) (A) (A) (A) (A) (A)
                 (A) (A) (A) (A) (A) (A) (A) (A) (A) (A) (A) (A)
                 (A) (A) (A) (A) (A) (A) (A) (A) (A) (A) (A) (A)
                 (A) (A) (A) (A) (A) (A) (A) (A) (A) (A) (A) (A)
                 (A) (A) (A) (A) (A) (A) (A) (A) (A) (A) (A) (A)
                 (A) (A) (A) (A) (A) (A) (A) (A) (A) (A) (A) (A)
                 (A) (A) (A) (A) (A) (A) (A) (A) (A) (A) (A) (A)
                 (A) (A) (A) (A) (A) (A) (A) (A) (A) (A) (A) (A)
                 (A) (A) (A) (A) (A) (A) (A) (A) (A) (A) (A) (A)
                 (A) (A) (A) (A) (A) (A) (A) (A) (A) (A) (A) (A)
                 (A) (A) (A) (A) (A) (A) (A) (A) (A) (A) (A) (A)
                 (A) (A) (A) (A) (A) (A) (A) (A) (A) (A) (A) (A)
                 (A) (A) (A) (A) (A) (A) (A) (A) (A) (A) (A) (A)
                 (A) (A) (A) (A) (A) (A) (A) (A) (A) (A) (A) (A)
                 (A) (A) (A) (A) (A) (A) (A) (A) (A) (A) (A) (A)
                 (A) (A) (A) (A) (A) (A) (A) (A) (A) (A) (A) (A)
                 (A) (A) (A) (A) (A) (A) (A) (A) (A) (A) (A) (A)
                 (A) (A) (A) (A) (A) (A) (A) (A) (A) (A) (A) (A)
                 (A) (A) (A) (A) (A) (A) (A) (A) (A) (A) (A) (A)
                 (A) (A) (A) (A) (A) (A) (A) (A) (A) (A) (A) (A)
                 (A) (A) (A) (A) (A) (A) (A) (A) (A) (A) (A) (A)
                 (A) (A) (A) (A) (A) (A) (A) (A) (A) (A) (A) (A)
                 (A) (A) (A) (A) (A) (A) (A) (A) (A) (A) (A) (A)
                 (A) (A) (A) (A) (A) (A) (A) (A) (A) (A) (A) (A)
                 (A) (A) (A) (A) (A) (A) (A) (A) (A) (A) (A) (A)
                 (A) (A) (A) (A) (A) (A) (A) (A) (A) (A) (A) (A)
                 (A) (A) (A) (A) (A) (A) (A) (A) (A) (A) (A) (A)
                 (A) (A)
 The electronic state of the initial guess is 1-A.
 Requested convergence on RMS density matrix=1.00D-08 within 128 cycles.
 Requested convergence on MAX density matrix=1.00D-06.
 Requested convergence on             energy=1.00D-06.
 No special actions if energy rises.
 SCF Done:  E(RB3LYP) =  -1387.64885941     A.U. after   16 cycles
             Convg  =    0.8835D-08             -V/T =  2.0043

 **********************************************************************

            Population analysis using the SCF density.

 **********************************************************************

 Orbital symmetries:
       Occupied  (A) (A) (A) (A) (A) (A) (A) (A) (A) (A) (A) (A)
                 (A) (A) (A) (A) (A) (A) (A) (A) (A) (A) (A) (A)
                 (A) (A) (A) (A) (A) (A) (A) (A) (A) (A) (A) (A)
                 (A) (A) (A) (A) (A) (A) (A) (A) (A) (A) (A) (A)
                 (A) (A) (A) (A) (A) (A) (A) (A) (A) (A) (A) (A)
                 (A) (A) (A) (A) (A) (A) (A) (A) (A) (A) (A) (A)
                 (A) (A) (A) (A) (A) (A) (A) (A) (A) (A) (A) (A)
                 (A) (A) (A) (A) (A) (A) (A) (A) (A) (A) (A) (A)
                 (A) (A) (A) (A) (A) (A) (A) (A) (A) (A) (A) (A)
                 (A) (A) (A) (A) (A) (A) (A)
       Virtual   (A) (A) (A) (A) (A) (A) (A) (A) (A) (A) (A) (A)
                 (A) (A) (A) (A) (A) (A) (A) (A) (A) (A) (A) (A)
                 (A) (A) (A) (A) (A) (A) (A) (A) (A) (A) (A) (A)
                 (A) (A) (A) (A) (A) (A) (A) (A) (A) (A) (A) (A)
                 (A) (A) (A) (A) (A) (A) (A) (A) (A) (A) (A) (A)
                 (A) (A) (A) (A) (A) (A) (A) (A) (A) (A) (A) (A)
                 (A) (A) (A) (A) (A) (A) (A) (A) (A) (A) (A) (A)
                 (A) (A) (A) (A) (A) (A) (A) (A) (A) (A) (A) (A)
                 (A) (A) (A) (A) (A) (A) (A) (A) (A) (A) (A) (A)
                 (A) (A) (A) (A) (A) (A) (A) (A) (A) (A) (A) (A)
                 (A) (A) (A) (A) (A) (A) (A) (A) (A) (A) (A) (A)
                 (A) (A) (A) (A) (A) (A) (A) (A) (A) (A) (A) (A)
                 (A) (A) (A) (A) (A) (A) (A) (A) (A) (A) (A) (A)
                 (A) (A) (A) (A) (A) (A) (A) (A) (A) (A) (A) (A)
                 (A) (A) (A) (A) (A) (A) (A) (A) (A) (A) (A) (A)
                 (A) (A) (A) (A) (A) (A) (A) (A) (A) (A) (A) (A)
                 (A) (A) (A) (A) (A) (A) (A) (A) (A) (A) (A) (A)
                 (A) (A) (A) (A) (A) (A) (A) (A) (A) (A) (A) (A)
                 (A) (A) (A) (A) (A) (A) (A) (A) (A) (A) (A) (A)
                 (A) (A) (A) (A) (A) (A) (A) (A) (A) (A) (A) (A)
                 (A) (A) (A) (A) (A) (A) (A) (A) (A) (A) (A) (A)
                 (A) (A) (A) (A) (A) (A) (A) (A) (A) (A) (A) (A)
                 (A) (A) (A) (A) (A) (A) (A) (A) (A) (A) (A) (A)
                 (A) (A) (A) (A) (A) (A) (A) (A) (A) (A) (A) (A)
                 (A) (A) (A) (A) (A) (A) (A) (A) (A) (A) (A) (A)
                 (A) (A) (A) (A) (A) (A) (A) (A) (A) (A) (A) (A)
                 (A) (A) (A) (A) (A) (A) (A) (A) (A) (A) (A) (A)
                 (A) (A) (A) (A) (A) (A) (A) (A) (A) (A) (A) (A)
                 (A) (A) (A) (A) (A) (A) (A) (A) (A) (A) (A) (A)
                 (A) (A) (A) (A) (A) (A) (A) (A) (A) (A) (A) (A)
                 (A) (A) (A) (A) (A) (A) (A) (A) (A) (A) (A) (A)
                 (A) (A) (A) (A) (A) (A) (A) (A) (A) (A) (A) (A)
                 (A) (A) (A) (A) (A) (A) (A) (A) (A) (A) (A) (A)
                 (A) (A) (A) (A) (A) (A) (A) (A) (A) (A) (A) (A)
                 (A) (A) (A) (A) (A) (A) (A) (A) (A) (A) (A) (A)
                 (A) (A) (A) (A) (A) (A) (A) (A) (A) (A) (A) (A)
                 (A) (A) (A) (A) (A) (A) (A) (A) (A) (A) (A) (A)
                 (A) (A) (A) (A) (A) (A) (A) (A) (A) (A) (A) (A)
                 (A) (A) (A) (A) (A) (A) (A) (A) (A) (A) (A) (A)
                 (A) (A) (A) (A) (A) (A) (A) (A) (A) (A) (A) (A)
                 (A) (A) (A) (A) (A) (A) (A) (A) (A) (A) (A) (A)
                 (A) (A) (A) (A) (A) (A) (A) (A) (A) (A) (A) (A)
                 (A) (A) (A) (A) (A) (A) (A) (A) (A) (A) (A) (A)
                 (A) (A) (A) (A) (A) (A) (A) (A) (A) (A) (A) (A)
                 (A) (A) (A) (A) (A) (A) (A) (A) (A) (A) (A) (A)
                 (A) (A) (A) (A) (A) (A) (A) (A) (A) (A) (A) (A)
                 (A) (A) (A) (A) (A) (A) (A) (A) (A) (A) (A) (A)
                 (A) (A) (A) (A) (A) (A) (A) (A) (A) (A) (A) (A)
                 (A) (A) (A) (A) (A) (A) (A) (A) (A) (A) (A) (A)
                 (A) (A) (A) (A) (A) (A) (A) (A) (A) (A) (A) (A)
                 (A) (A) (A) (A) (A) (A) (A) (A) (A) (A) (A) (A)
                 (A) (A) (A) (A) (A) (A) (A) (A) (A) (A) (A) (A)
                 (A) (A) (A) (A) (A) (A) (A) (A) (A) (A) (A) (A)
                 (A) (A) (A) (A) (A) (A) (A) (A) (A) (A) (A) (A)
                 (A) (A) (A) (A) (A) (A) (A) (A) (A) (A) (A) (A)
                 (A) (A)
 The electronic state is 1-A.
 Alpha  occ. eigenvalues --  -19.17918 -19.14921 -19.14065 -19.10731 -19.10169
 Alpha  occ. eigenvalues --  -10.27077 -10.26635 -10.25943 -10.25511 -10.25467
 Alpha  occ. eigenvalues --  -10.25408 -10.24441 -10.20929 -10.19995 -10.19908
 Alpha  occ. eigenvalues --  -10.19867 -10.19172 -10.18900 -10.18653 -10.18595
 Alpha  occ. eigenvalues --  -10.18160 -10.17888 -10.17740 -10.17690 -10.17657
 Alpha  occ. eigenvalues --  -10.17495 -10.16834 -10.16652 -10.15810 -10.15168
 Alpha  occ. eigenvalues --  -10.13781  -1.10575  -1.07234  -1.04249  -1.03811
 Alpha  occ. eigenvalues --   -1.03264  -0.87861  -0.84673  -0.83378  -0.82477
 Alpha  occ. eigenvalues --   -0.81277  -0.79801  -0.77689  -0.75278  -0.74272
 Alpha  occ. eigenvalues --   -0.72785  -0.71865  -0.70692  -0.70273  -0.68904
 Alpha  occ. eigenvalues --   -0.66252  -0.64646  -0.64332  -0.62356  -0.61697
 Alpha  occ. eigenvalues --   -0.60526  -0.59507  -0.58033  -0.55692  -0.54548
 Alpha  occ. eigenvalues --   -0.53858  -0.52967  -0.51945  -0.51425  -0.50326
 Alpha  occ. eigenvalues --   -0.49389  -0.48831  -0.47723  -0.47369  -0.46815
 Alpha  occ. eigenvalues --   -0.46270  -0.45574  -0.44700  -0.44540  -0.44227
 Alpha  occ. eigenvalues --   -0.43618  -0.42999  -0.42783  -0.42372  -0.42335
 Alpha  occ. eigenvalues --   -0.41721  -0.41591  -0.41358  -0.40919  -0.40458
 Alpha  occ. eigenvalues --   -0.40246  -0.40060  -0.39308  -0.39162  -0.38810
 Alpha  occ. eigenvalues --   -0.38602  -0.38398  -0.38179  -0.38024  -0.37804
 Alpha  occ. eigenvalues --   -0.37318  -0.36416  -0.35902  -0.35666  -0.35092
 Alpha  occ. eigenvalues --   -0.34793  -0.34616  -0.33884  -0.33301  -0.32912
 Alpha  occ. eigenvalues --   -0.32424  -0.31947  -0.31408  -0.29406  -0.27942
 Alpha  occ. eigenvalues --   -0.27440  -0.26123  -0.25529  -0.24699  -0.23852
 Alpha virt. eigenvalues --   -0.06500  -0.03172  -0.01973  -0.01407  -0.00351
 Alpha virt. eigenvalues --   -0.00103   0.00205   0.01174   0.01458   0.01782
 Alpha virt. eigenvalues --    0.02178   0.02279   0.03072   0.03128   0.03436
 Alpha virt. eigenvalues --    0.03605   0.04167   0.04424   0.04689   0.04780
 Alpha virt. eigenvalues --    0.05269   0.05484   0.05566   0.05860   0.06181
 Alpha virt. eigenvalues --    0.06598   0.06806   0.06965   0.07305   0.07611
 Alpha virt. eigenvalues --    0.07966   0.08046   0.08367   0.08626   0.08803
 Alpha virt. eigenvalues --    0.08986   0.09282   0.09440   0.09767   0.09826
 Alpha virt. eigenvalues --    0.10007   0.10211   0.10649   0.10967   0.11044
 Alpha virt. eigenvalues --    0.11456   0.11573   0.11676   0.12077   0.12203
 Alpha virt. eigenvalues --    0.12626   0.12707   0.13109   0.13269   0.13696
 Alpha virt. eigenvalues --    0.13791   0.14230   0.14321   0.14415   0.14680
 Alpha virt. eigenvalues --    0.14871   0.15212   0.15510   0.15841   0.16099
 Alpha virt. eigenvalues --    0.16383   0.16536   0.16727   0.16912   0.17053
 Alpha virt. eigenvalues --    0.17228   0.17516   0.17867   0.17899   0.18208
 Alpha virt. eigenvalues --    0.18254   0.18320   0.18822   0.18922   0.19328
 Alpha virt. eigenvalues --    0.19473   0.19618   0.19624   0.19884   0.19916
 Alpha virt. eigenvalues --    0.20363   0.20559   0.20728   0.20972   0.21026
 Alpha virt. eigenvalues --    0.21189   0.21448   0.21636   0.21791   0.21973
 Alpha virt. eigenvalues --    0.22371   0.22540   0.22731   0.22816   0.22859
 Alpha virt. eigenvalues --    0.23045   0.23119   0.23479   0.23798   0.23969
 Alpha virt. eigenvalues --    0.24095   0.24106   0.24436   0.24665   0.24815
 Alpha virt. eigenvalues --    0.25386   0.25523   0.25649   0.25812   0.25939
 Alpha virt. eigenvalues --    0.26007   0.26376   0.26484   0.26876   0.26996
 Alpha virt. eigenvalues --    0.27342   0.27472   0.27817   0.27998   0.28093
 Alpha virt. eigenvalues --    0.28324   0.28471   0.28782   0.29171   0.29451
 Alpha virt. eigenvalues --    0.29641   0.29871   0.30162   0.30423   0.30699
 Alpha virt. eigenvalues --    0.30723   0.31055   0.31225   0.31770   0.32200
 Alpha virt. eigenvalues --    0.32299   0.32816   0.32883   0.33287   0.33320
 Alpha virt. eigenvalues --    0.33870   0.33928   0.34402   0.35221   0.35414
 Alpha virt. eigenvalues --    0.35664   0.35972   0.36265   0.36582   0.36790
 Alpha virt. eigenvalues --    0.37023   0.37367   0.37676   0.37837   0.38380
 Alpha virt. eigenvalues --    0.38795   0.39312   0.39627   0.40075   0.40401
 Alpha virt. eigenvalues --    0.40409   0.40880   0.41770   0.41810   0.42502
 Alpha virt. eigenvalues --    0.42721   0.42951   0.43180   0.43603   0.43916
 Alpha virt. eigenvalues --    0.44055   0.44397   0.44751   0.44931   0.45625
 Alpha virt. eigenvalues --    0.46006   0.46727   0.47063   0.47328   0.47901
 Alpha virt. eigenvalues --    0.48234   0.48567   0.48876   0.49149   0.49460
 Alpha virt. eigenvalues --    0.49701   0.50196   0.50752   0.51212   0.51520
 Alpha virt. eigenvalues --    0.51880   0.52600   0.53525   0.53756   0.54119
 Alpha virt. eigenvalues --    0.54289   0.54541   0.55172   0.55920   0.56048
 Alpha virt. eigenvalues --    0.56534   0.56992   0.57454   0.57886   0.57992
 Alpha virt. eigenvalues --    0.58325   0.58765   0.59281   0.59456   0.59917
 Alpha virt. eigenvalues --    0.60144   0.60558   0.60617   0.61006   0.61380
 Alpha virt. eigenvalues --    0.61954   0.62527   0.63170   0.63392   0.64076
 Alpha virt. eigenvalues --    0.64355   0.64403   0.65006   0.65542   0.66162
 Alpha virt. eigenvalues --    0.66310   0.66832   0.67152   0.67386   0.67752
 Alpha virt. eigenvalues --    0.68040   0.68204   0.68333   0.68443   0.69231
 Alpha virt. eigenvalues --    0.69635   0.69732   0.70059   0.70152   0.70527
 Alpha virt. eigenvalues --    0.70772   0.71108   0.71456   0.71700   0.71836
 Alpha virt. eigenvalues --    0.72225   0.72427   0.72841   0.73218   0.73552
 Alpha virt. eigenvalues --    0.73814   0.73950   0.74521   0.74593   0.74689
 Alpha virt. eigenvalues --    0.75656   0.76024   0.76163   0.76432   0.76604
 Alpha virt. eigenvalues --    0.76942   0.77293   0.77744   0.78389   0.78811
 Alpha virt. eigenvalues --    0.79122   0.79740   0.80017   0.80393   0.80755
 Alpha virt. eigenvalues --    0.81286   0.81983   0.82161   0.82603   0.82992
 Alpha virt. eigenvalues --    0.83384   0.84211   0.84362   0.84892   0.85679
 Alpha virt. eigenvalues --    0.85957   0.87462   0.87891   0.88689   0.88835
 Alpha virt. eigenvalues --    0.89964   0.90161   0.90556   0.91543   0.92049
 Alpha virt. eigenvalues --    0.93495   0.94167   0.95054   0.96156   0.96591
 Alpha virt. eigenvalues --    0.97274   0.97593   0.98634   0.99416   1.00156
 Alpha virt. eigenvalues --    1.01417   1.02199   1.03337   1.04441   1.06315
 Alpha virt. eigenvalues --    1.06929   1.07239   1.07907   1.08913   1.09458
 Alpha virt. eigenvalues --    1.11237   1.11827   1.12439   1.13448   1.14197
 Alpha virt. eigenvalues --    1.14672   1.15899   1.16629   1.17783   1.18271
 Alpha virt. eigenvalues --    1.20068   1.21179   1.22059   1.23740   1.24074
 Alpha virt. eigenvalues --    1.25176   1.25547   1.26645   1.27197   1.28300
 Alpha virt. eigenvalues --    1.28905   1.29550   1.29847   1.30872   1.31943
 Alpha virt. eigenvalues --    1.33332   1.33878   1.34630   1.34910   1.35409
 Alpha virt. eigenvalues --    1.35990   1.37072   1.37517   1.37754   1.39819
 Alpha virt. eigenvalues --    1.40745   1.41694   1.42372   1.42941   1.43274
 Alpha virt. eigenvalues --    1.45191   1.45747   1.46021   1.47097   1.48234
 Alpha virt. eigenvalues --    1.49139   1.50387   1.50896   1.51135   1.51829
 Alpha virt. eigenvalues --    1.52907   1.53331   1.54039   1.54882   1.55178
 Alpha virt. eigenvalues --    1.56198   1.56662   1.57254   1.57715   1.58203
 Alpha virt. eigenvalues --    1.58627   1.59273   1.59765   1.60211   1.60464
 Alpha virt. eigenvalues --    1.60693   1.61317   1.61632   1.62426   1.62681
 Alpha virt. eigenvalues --    1.63329   1.64507   1.64625   1.64680   1.65129
 Alpha virt. eigenvalues --    1.65393   1.65931   1.66143   1.66802   1.67306
 Alpha virt. eigenvalues --    1.67748   1.67977   1.68890   1.69706   1.69816
 Alpha virt. eigenvalues --    1.70514   1.71235   1.71858   1.73048   1.73174
 Alpha virt. eigenvalues --    1.73508   1.74351   1.74553   1.75178   1.76602
 Alpha virt. eigenvalues --    1.76629   1.77082   1.77987   1.78580   1.79969
 Alpha virt. eigenvalues --    1.80812   1.81875   1.81929   1.82362   1.83868
 Alpha virt. eigenvalues --    1.84259   1.84798   1.85259   1.85804   1.87278
 Alpha virt. eigenvalues --    1.87811   1.87978   1.89233   1.90437   1.91484
 Alpha virt. eigenvalues --    1.92330   1.93305   1.94429   1.95449   1.95936
 Alpha virt. eigenvalues --    1.97737   1.98752   1.99135   2.00404   2.00947
 Alpha virt. eigenvalues --    2.02424   2.03580   2.03852   2.04302   2.05141
 Alpha virt. eigenvalues --    2.07024   2.07709   2.08973   2.09951   2.10363
 Alpha virt. eigenvalues --    2.11308   2.12095   2.13916   2.15069   2.15945
 Alpha virt. eigenvalues --    2.16874   2.17979   2.19468   2.19702   2.21936
 Alpha virt. eigenvalues --    2.22591   2.23349   2.23867   2.24997   2.26284
 Alpha virt. eigenvalues --    2.27930   2.28497   2.30500   2.31327   2.33372
 Alpha virt. eigenvalues --    2.35000   2.37625   2.38088   2.39623   2.42374
 Alpha virt. eigenvalues --    2.44055   2.47296   2.48969   2.50408   2.51003
 Alpha virt. eigenvalues --    2.52038   2.52929   2.53699   2.54311   2.54595
 Alpha virt. eigenvalues --    2.55818   2.56334   2.56429   2.57624   2.57959
 Alpha virt. eigenvalues --    2.58953   2.59869   2.60164   2.61100   2.62033
 Alpha virt. eigenvalues --    2.63048   2.63435   2.65138   2.65653   2.65922
 Alpha virt. eigenvalues --    2.66950   2.68171   2.69585   2.70125   2.70975
 Alpha virt. eigenvalues --    2.71224   2.72426   2.72664   2.73056   2.74900
 Alpha virt. eigenvalues --    2.74996   2.77653   2.81205   2.81809   2.84733
 Alpha virt. eigenvalues --    2.85263   2.87148   2.88998   2.89498   2.90398
 Alpha virt. eigenvalues --    2.90859   2.92867   2.93633   2.94228   2.95133
 Alpha virt. eigenvalues --    2.95876   2.97898   2.98439   2.99239   2.99709
 Alpha virt. eigenvalues --    3.00431   3.01028   3.01696   3.02557   3.03624
 Alpha virt. eigenvalues --    3.04257   3.05561   3.06596   3.07724   3.08707
 Alpha virt. eigenvalues --    3.09406   3.10658   3.11475   3.12705   3.13542
 Alpha virt. eigenvalues --    3.14263   3.14995   3.16245   3.16658   3.16910
 Alpha virt. eigenvalues --    3.18195   3.19511   3.20280   3.21453   3.22394
 Alpha virt. eigenvalues --    3.23302   3.23783   3.24461   3.25229   3.25855
 Alpha virt. eigenvalues --    3.26604   3.27367   3.27826   3.28470   3.29423
 Alpha virt. eigenvalues --    3.30559   3.31410   3.32227   3.34246   3.34367
 Alpha virt. eigenvalues --    3.34582   3.35740   3.36107   3.37677   3.38641
 Alpha virt. eigenvalues --    3.39101   3.40686   3.42576   3.43075   3.44961
 Alpha virt. eigenvalues --    3.46461   3.47114   3.51013   3.51968   3.52887
 Alpha virt. eigenvalues --    3.54282   3.59027   3.61768   3.64913   3.74203
 Alpha virt. eigenvalues --    3.76442   3.77949   3.79133   3.87562   3.88999
 Alpha virt. eigenvalues --    3.90385   3.95823   3.97459   4.01298   4.02163
 Alpha virt. eigenvalues --    4.05343   4.06173   4.08263   4.10251   4.12224
 Alpha virt. eigenvalues --    4.16575   4.17848   4.20042   4.22108   4.22980
 Alpha virt. eigenvalues --    4.23300   4.28195   4.32435   4.33004   4.44618
 Alpha virt. eigenvalues --    4.60841   5.14591   5.16712   5.17369   5.21733
 Alpha virt. eigenvalues --    5.23429   5.29351   5.31256   5.34407   5.41831
 Alpha virt. eigenvalues --    5.42636   5.56966   5.66132   5.73738   5.79286
 Alpha virt. eigenvalues --    5.83862  23.45256  23.47094  23.51934  23.52836
 Alpha virt. eigenvalues --   23.62898  23.64367  23.65960  23.66626  23.68921
 Alpha virt. eigenvalues --   23.70788  23.73669  23.74396  23.76300  23.78388
 Alpha virt. eigenvalues --   23.78834  23.79494  23.82280  23.84360  23.86535
 Alpha virt. eigenvalues --   23.87040  23.88361  23.88897  23.95873  24.14175
 Alpha virt. eigenvalues --   24.18940  24.21809  49.98895  49.99801  50.02542
 Alpha virt. eigenvalues --   50.03765  50.06379
          Condensed to atoms (all electrons):
 Mulliken atomic charges:
              1
     1  C   -0.309571
     2  C    0.660482
     3  C   -0.175197
     4  C   -0.747905
     5  C    1.053092
     6  C   -0.794344
     7  C   -1.122157
     8  C    0.518014
     9  C    1.052124
    10  C   -1.057713
    11  C   -0.246588
    12  O   -0.178683
    13  C    0.362727
    14  C   -0.469364
    15  C   -1.070312
    16  O   -0.162863
    17  C   -0.174868
    18  C    0.642575
    19  O    0.166639
    20  C   -1.252268
    21  O    0.001825
    22  C   -0.472508
    23  C   -0.514048
    24  O    0.050003
    25  C    0.949733
    26  C   -1.014257
    27  C   -0.988869
    28  C   -0.705818
    29  C   -0.736229
    30  H    0.238911
    31  H    0.272451
    32  C   -1.093248
    33  H    0.202705
    34  H    0.240746
    35  H    0.276242
    36  H    0.233666
    37  H    0.215797
    38  H    0.257395
    39  H    0.245272
    40  H    0.252947
    41  H    0.276449
    42  H    0.270803
    43  H    0.277494
    44  H    0.288578
    45  H    0.270804
    46  H    0.285392
    47  H    0.234667
    48  H    0.267689
    49  H    0.262965
    50  H    0.254704
    51  H    0.230590
    52  H    0.239673
    53  H    0.266165
    54  H    0.245942
    55  H    0.312347
    56  H    0.262833
    57  H    0.273020
    58  H    0.257329
    59  H    0.256886
    60  H    0.256876
    61  H    0.257608
    62  C   -0.889965
    63  H    0.237437
    64  H    0.248351
    65  H    0.248826
 Sum of Mulliken atomic charges =   0.00000
 Mulliken charges with hydrogens summed into heavy atoms:
              1
     1  C   -0.106865
     2  C    0.660482
     3  C    0.097254
     4  C   -0.747905
     5  C    1.053092
     6  C   -0.277356
     7  C   -1.122157
     8  C    0.518014
     9  C    1.052124
    10  C   -1.057713
    11  C   -0.246588
    12  O   -0.178683
    13  C    0.596393
    14  C    0.003828
    15  C   -0.295644
    16  O   -0.162863
    17  C    0.064043
    18  C    0.642575
    19  O    0.166639
    20  C   -0.703971
    21  O    0.290403
    22  C    0.083688
    23  C   -0.279381
    24  O    0.050003
    25  C    0.949733
    26  C   -0.228899
    27  C   -0.518606
    28  C    0.118636
    29  C    0.056953
    32  C   -0.321878
    62  C   -0.155351
 Sum of Mulliken charges with hydrogens summed into heavy atoms =   0.00000
 Electronic spatial extent (au):  <R**2>=          11451.7855
 Charge=              0.0000 electrons
 Dipole moment (field-independent basis, Debye):
    X=              5.1625    Y=              2.9046    Z=              3.5547  Tot=              6.9083
 Quadrupole moment (field-independent basis, Debye-Ang):
   XX=           -190.6304   YY=           -180.8336   ZZ=           -190.5446
   XY=             -2.7713   XZ=            -10.3495   YZ=              1.3358
 Traceless Quadrupole moment (field-independent basis, Debye-Ang):
   XX=             -3.2942   YY=              6.5026   ZZ=             -3.2084
   XY=             -2.7713   XZ=            -10.3495   YZ=              1.3358
 Octapole moment (field-independent basis, Debye-Ang**2):
  XXX=             60.2186  YYY=             75.8410  ZZZ=             10.2846  XYY=             20.9023
  XXY=            -12.6473  XXZ=              9.4695  XZZ=             22.2247  YZZ=             -5.0790
  YYZ=             -9.8466  XYZ=              3.5891
 Hexadecapole moment (field-independent basis, Debye-Ang**3):
 XXXX=          -7989.9593 YYYY=          -4422.1035 ZZZZ=          -3225.7277 XXXY=              5.0853
 XXXZ=           -166.9946 YYYX=            -28.9167 YYYZ=            -71.7204 ZZZX=            -51.1669
 ZZZY=             -4.9175 XXYY=          -2106.8029 XXZZ=          -1906.4577 YYZZ=          -1242.6097
 XXYZ=             16.0106 YYXZ=              9.4511 ZZXY=             -9.3345
 N-N= 3.512995346543D+03 E-N=-1.025892651047D+04  KE= 1.381712726657D+03
 Calling FoFJK, ICntrl=      2127 FMM=T ISym2X=0 I1Cent= 0 IOpClX= 0 NMat=1 NMatS=1 NMatT=0.
 ***** Axes restored to original set *****
 -------------------------------------------------------------------
 Center     Atomic                   Forces (Hartrees/Bohr)
 Number     Number              X              Y              Z
 -------------------------------------------------------------------
      1        6           0.000568040    0.002034719   -0.000041692
      2        6          -0.000017760   -0.002175777    0.000307989
      3        6          -0.000345528    0.000430320   -0.000244823
      4        6          -0.000316306    0.000779501    0.001102164
      5        6          -0.000125444   -0.000384669   -0.000073224
      6        6           0.000118700    0.000026084   -0.000177497
      7        6          -0.002425772    0.000600117    0.001362081
      8        6          -0.003034883    0.000851977   -0.000515960
      9        6           0.001129320    0.000425210   -0.000264047
     10        6          -0.002657418   -0.005680390   -0.000196814
     11        6          -0.003258678    0.004046116   -0.005233072
     12        8           0.003636013   -0.004550785    0.006317088
     13        6          -0.000058250   -0.000075569   -0.000144560
     14        6          -0.000112682    0.000118753   -0.000133767
     15        6           0.000136663    0.000493656   -0.000208873
     16        8           0.003318057    0.007352228   -0.000875269
     17        6           0.000473818    0.000131698   -0.000002100
     18        6           0.000649547    0.001725963   -0.000267497
     19        8           0.001603304   -0.004316334    0.001248845
     20        6          -0.000498989    0.000061973    0.000115464
     21        8           0.005914658   -0.000085512    0.003000429
     22        6           0.000446248   -0.000155085   -0.000547500
     23        6           0.000719662   -0.001970352   -0.000236814
     24        8          -0.000561923   -0.000195996    0.000883702
     25        6           0.000372307   -0.001349612   -0.001773013
     26        6          -0.000063609    0.000172776    0.000171861
     27        6           0.000262181    0.000793805    0.001887285
     28        6           0.000061875   -0.000130885    0.000455920
     29        6           0.000403800   -0.000363198    0.000016150
     30        1          -0.001201594   -0.000509483    0.000153793
     31        1          -0.001351767   -0.000320499    0.000110553
     32        6          -0.000033354    0.000385296    0.000113398
     33        1           0.000299611    0.000310381   -0.000726164
     34        1          -0.001603777    0.000443690   -0.000225361
     35        1           0.001520767    0.000973312    0.000575428
     36        1          -0.000740866    0.000758620   -0.000777093
     37        1           0.000725519    0.000637942   -0.000961633
     38        1           0.000038546   -0.001120729    0.001147571
     39        1          -0.001488309   -0.000538149   -0.000426860
     40        1           0.001041442    0.000712061   -0.001012752
     41        1           0.000512079   -0.000931540    0.001388053
     42        1          -0.000688585   -0.001155965   -0.000791957
     43        1           0.001686248    0.000260203   -0.000057446
     44        1          -0.004173905    0.000990808   -0.004187875
     45        1           0.000150096   -0.000940963    0.001510853
     46        1           0.000027031    0.001467725   -0.000214792
     47        1          -0.000453868    0.000823345   -0.001262427
     48        1           0.000702645   -0.001536992   -0.000341788
     49        1          -0.000571637    0.000664297   -0.001360792
     50        1          -0.000944726    0.000224533    0.001300368
     51        1          -0.000752945   -0.000045568    0.000669571
     52        1           0.000886467    0.000594672    0.000153356
     53        1           0.001460798   -0.000364864    0.000595966
     54        1          -0.000885673   -0.001178201   -0.000336876
     55        1          -0.000893812    0.001857569    0.000120247
     56        1          -0.001168295   -0.000938201   -0.000048307
     57        1           0.001253137   -0.000293395    0.001093513
     58        1           0.000495808    0.000814182   -0.001464446
     59        1           0.000635370    0.001075928   -0.001188765
     60        1          -0.001373988   -0.000734609   -0.000354590
     61        1           0.001113072   -0.001232852    0.000582027
     62        6           0.000140888    0.000090049    0.000100072
     63        1           0.001288377    0.000610127    0.000496230
     64        1          -0.001019008   -0.001132670    0.000864481
[...]
                 (A) (A) (A) (A) (A) (A) (A) (A) (A) (A) (A) (A)
                 (A) (A) (A) (A) (A) (A) (A) (A) (A) (A) (A) (A)
                 (A) (A)
 The electronic state is 1-A.
 Alpha  occ. eigenvalues --  -19.17781 -19.14703 -19.13930 -19.10643 -19.10476
 Alpha  occ. eigenvalues --  -10.26776 -10.26473 -10.25934 -10.25528 -10.25422
 Alpha  occ. eigenvalues --  -10.25376 -10.24291 -10.20813 -10.19883 -10.19794
 Alpha  occ. eigenvalues --  -10.19724 -10.19044 -10.18760 -10.18472 -10.18415
 Alpha  occ. eigenvalues --  -10.18007 -10.17835 -10.17611 -10.17567 -10.17517
 Alpha  occ. eigenvalues --  -10.17370 -10.16833 -10.16761 -10.16071 -10.15209
 Alpha  occ. eigenvalues --  -10.13852  -1.10471  -1.06971  -1.04486  -1.03790
 Alpha  occ. eigenvalues --   -1.03728  -0.87855  -0.84707  -0.83399  -0.82505
 Alpha  occ. eigenvalues --   -0.81300  -0.80103  -0.77723  -0.75274  -0.74265
 Alpha  occ. eigenvalues --   -0.72891  -0.72064  -0.70763  -0.70294  -0.68906
 Alpha  occ. eigenvalues --   -0.66259  -0.64698  -0.64369  -0.62551  -0.61680
 Alpha  occ. eigenvalues --   -0.60564  -0.59641  -0.58019  -0.55799  -0.54625
 Alpha  occ. eigenvalues --   -0.53809  -0.53055  -0.51900  -0.51387  -0.50322
 Alpha  occ. eigenvalues --   -0.49396  -0.48906  -0.47757  -0.47370  -0.46823
 Alpha  occ. eigenvalues --   -0.46295  -0.45545  -0.44860  -0.44557  -0.44252
 Alpha  occ. eigenvalues --   -0.43762  -0.42966  -0.42782  -0.42432  -0.42335
 Alpha  occ. eigenvalues --   -0.42036  -0.41682  -0.41417  -0.40873  -0.40622
 Alpha  occ. eigenvalues --   -0.40276  -0.40057  -0.39295  -0.39148  -0.38765
 Alpha  occ. eigenvalues --   -0.38565  -0.38358  -0.38244  -0.38011  -0.37869
 Alpha  occ. eigenvalues --   -0.37331  -0.36765  -0.36029  -0.35755  -0.35166
 Alpha  occ. eigenvalues --   -0.34754  -0.34566  -0.33926  -0.33214  -0.32966
 Alpha  occ. eigenvalues --   -0.32492  -0.32203  -0.31681  -0.29316  -0.27808
 Alpha  occ. eigenvalues --   -0.27412  -0.26124  -0.25426  -0.24684  -0.23936
 Alpha virt. eigenvalues --   -0.06168  -0.02946  -0.01890  -0.01403  -0.00304
 Alpha virt. eigenvalues --   -0.00052   0.00212   0.01198   0.01467   0.01811
 Alpha virt. eigenvalues --    0.02150   0.02291   0.03074   0.03088   0.03496
 Alpha virt. eigenvalues --    0.03590   0.04167   0.04416   0.04746   0.04800
 Alpha virt. eigenvalues --    0.05292   0.05429   0.05612   0.05791   0.06252
 Alpha virt. eigenvalues --    0.06534   0.06837   0.06916   0.07307   0.07631
 Alpha virt. eigenvalues --    0.07990   0.08017   0.08372   0.08578   0.08807
 Alpha virt. eigenvalues --    0.09047   0.09328   0.09408   0.09628   0.09869
 Alpha virt. eigenvalues --    0.10073   0.10281   0.10602   0.10957   0.11072
 Alpha virt. eigenvalues --    0.11355   0.11577   0.11639   0.12169   0.12257
 Alpha virt. eigenvalues --    0.12708   0.12792   0.13093   0.13277   0.13713
 Alpha virt. eigenvalues --    0.13801   0.14284   0.14385   0.14583   0.14700
 Alpha virt. eigenvalues --    0.15126   0.15210   0.15553   0.15916   0.16263
 Alpha virt. eigenvalues --    0.16511   0.16594   0.16836   0.17049   0.17071
 Alpha virt. eigenvalues --    0.17215   0.17587   0.17744   0.17999   0.18049
 Alpha virt. eigenvalues --    0.18296   0.18390   0.18866   0.19037   0.19088
 Alpha virt. eigenvalues --    0.19394   0.19678   0.19774   0.19923   0.20114
 Alpha virt. eigenvalues --    0.20605   0.20631   0.20780   0.20967   0.21202
 Alpha virt. eigenvalues --    0.21262   0.21497   0.21732   0.21874   0.22028
 Alpha virt. eigenvalues --    0.22359   0.22629   0.22784   0.22828   0.22931
 Alpha virt. eigenvalues --    0.23032   0.23116   0.23342   0.23834   0.23890
 Alpha virt. eigenvalues --    0.24111   0.24212   0.24529   0.24626   0.24952
 Alpha virt. eigenvalues --    0.25313   0.25585   0.25626   0.25852   0.26087
 Alpha virt. eigenvalues --    0.26225   0.26410   0.26557   0.26817   0.26989
 Alpha virt. eigenvalues --    0.27330   0.27643   0.27897   0.28028   0.28249
 Alpha virt. eigenvalues --    0.28322   0.28718   0.28952   0.29395   0.29471
 Alpha virt. eigenvalues --    0.29816   0.30133   0.30217   0.30592   0.30732
 Alpha virt. eigenvalues --    0.30957   0.31288   0.31453   0.31837   0.32177
 Alpha virt. eigenvalues --    0.32352   0.32693   0.33159   0.33244   0.33543
 Alpha virt. eigenvalues --    0.33959   0.34354   0.34434   0.34905   0.35446
 Alpha virt. eigenvalues --    0.35552   0.35899   0.36187   0.36363   0.36748
 Alpha virt. eigenvalues --    0.37204   0.37452   0.37777   0.37897   0.38591
 Alpha virt. eigenvalues --    0.38683   0.39250   0.39791   0.39884   0.40385
 Alpha virt. eigenvalues --    0.40553   0.40961   0.41611   0.41876   0.42423
 Alpha virt. eigenvalues --    0.42555   0.43088   0.43319   0.43642   0.43946
 Alpha virt. eigenvalues --    0.44137   0.44516   0.45051   0.45348   0.45529
 Alpha virt. eigenvalues --    0.46098   0.46929   0.47157   0.47333   0.47676
 Alpha virt. eigenvalues --    0.47758   0.48489   0.48666   0.49139   0.49449
 Alpha virt. eigenvalues --    0.49617   0.50659   0.50765   0.51259   0.51358
 Alpha virt. eigenvalues --    0.51966   0.52705   0.53673   0.53860   0.54303
 Alpha virt. eigenvalues --    0.54610   0.55034   0.55414   0.56018   0.56238
 Alpha virt. eigenvalues --    0.56550   0.57014   0.57352   0.57744   0.57795
 Alpha virt. eigenvalues --    0.58625   0.58974   0.59390   0.59477   0.59655
 Alpha virt. eigenvalues --    0.60214   0.60672   0.60924   0.61284   0.61471
 Alpha virt. eigenvalues --    0.62226   0.62475   0.63548   0.63834   0.64074
 Alpha virt. eigenvalues --    0.64587   0.64799   0.65141   0.65716   0.66218
 Alpha virt. eigenvalues --    0.66387   0.66732   0.67090   0.67279   0.67751
 Alpha virt. eigenvalues --    0.68168   0.68194   0.68303   0.68688   0.69012
 Alpha virt. eigenvalues --    0.69553   0.69777   0.69989   0.70218   0.70495
 Alpha virt. eigenvalues --    0.70979   0.71155   0.71310   0.71534   0.72098
 Alpha virt. eigenvalues --    0.72316   0.72457   0.72945   0.73278   0.73651
 Alpha virt. eigenvalues --    0.73883   0.74026   0.74459   0.74689   0.74798
 Alpha virt. eigenvalues --    0.75343   0.76010   0.76200   0.76393   0.77007
 Alpha virt. eigenvalues --    0.77133   0.77671   0.77943   0.78365   0.78728
 Alpha virt. eigenvalues --    0.79208   0.79643   0.79820   0.80468   0.80985
 Alpha virt. eigenvalues --    0.81298   0.81678   0.81963   0.82984   0.83656
 Alpha virt. eigenvalues --    0.83771   0.84233   0.84808   0.85354   0.85714
 Alpha virt. eigenvalues --    0.86314   0.87075   0.88074   0.88283   0.88438
 Alpha virt. eigenvalues --    0.88834   0.90403   0.90882   0.91442   0.92165
 Alpha virt. eigenvalues --    0.92612   0.94420   0.95351   0.96350   0.96740
 Alpha virt. eigenvalues --    0.97205   0.97494   0.99034   1.00313   1.00909
 Alpha virt. eigenvalues --    1.01419   1.02330   1.03871   1.04207   1.06065
 Alpha virt. eigenvalues --    1.06537   1.07533   1.08106   1.08772   1.09739
 Alpha virt. eigenvalues --    1.11378   1.12129   1.13163   1.13483   1.14284
 Alpha virt. eigenvalues --    1.14605   1.15896   1.16747   1.17943   1.19054
 Alpha virt. eigenvalues --    1.20749   1.21572   1.21906   1.23532   1.23985
 Alpha virt. eigenvalues --    1.24540   1.25257   1.26670   1.27277   1.27948
 Alpha virt. eigenvalues --    1.28082   1.29093   1.29564   1.30796   1.31628
 Alpha virt. eigenvalues --    1.32923   1.33209   1.34610   1.35458   1.35944
 Alpha virt. eigenvalues --    1.36327   1.36615   1.37098   1.37810   1.38473
 Alpha virt. eigenvalues --    1.40746   1.41745   1.42188   1.42916   1.43522
 Alpha virt. eigenvalues --    1.45229   1.45415   1.45696   1.47191   1.48415
 Alpha virt. eigenvalues --    1.49285   1.50515   1.51284   1.51878   1.52553
 Alpha virt. eigenvalues --    1.53567   1.53924   1.54672   1.54992   1.55486
 Alpha virt. eigenvalues --    1.56135   1.57056   1.57353   1.57862   1.57968
 Alpha virt. eigenvalues --    1.58661   1.59219   1.60035   1.60179   1.60491
 Alpha virt. eigenvalues --    1.60612   1.61283   1.62129   1.62405   1.62822
 Alpha virt. eigenvalues --    1.63267   1.63561   1.64448   1.65006   1.65433
 Alpha virt. eigenvalues --    1.65871   1.66098   1.66346   1.67173   1.67340
 Alpha virt. eigenvalues --    1.67902   1.68100   1.68921   1.69631   1.70196
 Alpha virt. eigenvalues --    1.70676   1.71427   1.72014   1.72853   1.73181
 Alpha virt. eigenvalues --    1.73682   1.74445   1.74639   1.75340   1.75895
 Alpha virt. eigenvalues --    1.76633   1.77346   1.78063   1.78392   1.79584
 Alpha virt. eigenvalues --    1.80148   1.81828   1.82319   1.82572   1.83969
 Alpha virt. eigenvalues --    1.84365   1.84982   1.85474   1.86043   1.87811
 Alpha virt. eigenvalues --    1.87905   1.89368   1.89590   1.90228   1.91465
 Alpha virt. eigenvalues --    1.92293   1.93557   1.94481   1.94777   1.96597
 Alpha virt. eigenvalues --    1.97846   1.98698   1.99182   2.00795   2.01030
 Alpha virt. eigenvalues --    2.02533   2.03170   2.04013   2.04463   2.05055
 Alpha virt. eigenvalues --    2.07124   2.07876   2.09131   2.09821   2.11232
 Alpha virt. eigenvalues --    2.11990   2.12326   2.14291   2.15372   2.16343
 Alpha virt. eigenvalues --    2.17164   2.17912   2.19912   2.20132   2.22713
 Alpha virt. eigenvalues --    2.22809   2.23652   2.24319   2.24901   2.26755
 Alpha virt. eigenvalues --    2.28150   2.29334   2.30843   2.31762   2.33538
 Alpha virt. eigenvalues --    2.35373   2.37793   2.38327   2.40013   2.42687
 Alpha virt. eigenvalues --    2.44213   2.47668   2.49473   2.50867   2.50892
 Alpha virt. eigenvalues --    2.51809   2.52153   2.53635   2.54354   2.54779
 Alpha virt. eigenvalues --    2.55898   2.56433   2.56650   2.57553   2.57810
 Alpha virt. eigenvalues --    2.58674   2.59878   2.60485   2.61260   2.61565
 Alpha virt. eigenvalues --    2.63302   2.64280   2.65314   2.65883   2.66278
 Alpha virt. eigenvalues --    2.67334   2.68549   2.69364   2.70268   2.71244
 Alpha virt. eigenvalues --    2.71788   2.72243   2.72664   2.73577   2.74977
 Alpha virt. eigenvalues --    2.75483   2.77543   2.81711   2.82518   2.84908
 Alpha virt. eigenvalues --    2.85290   2.86982   2.89310   2.89455   2.90279
 Alpha virt. eigenvalues --    2.91495   2.91977   2.93700   2.94327   2.95535
 Alpha virt. eigenvalues --    2.96450   2.98233   2.98913   2.99539   2.99734
 Alpha virt. eigenvalues --    3.00507   3.01396   3.01801   3.02631   3.04035
 Alpha virt. eigenvalues --    3.04497   3.05561   3.07308   3.08050   3.09298
 Alpha virt. eigenvalues --    3.09693   3.10898   3.12008   3.12934   3.13925
 Alpha virt. eigenvalues --    3.14506   3.15006   3.16457   3.16882   3.17192
 Alpha virt. eigenvalues --    3.18001   3.20058   3.20938   3.21747   3.22628
 Alpha virt. eigenvalues --    3.23358   3.24489   3.25262   3.25827   3.26379
 Alpha virt. eigenvalues --    3.27034   3.27665   3.28128   3.28901   3.29758
 Alpha virt. eigenvalues --    3.31275   3.31570   3.32334   3.33254   3.34796
 Alpha virt. eigenvalues --    3.35169   3.35771   3.36342   3.38294   3.38916
 Alpha virt. eigenvalues --    3.39670   3.41585   3.42742   3.43420   3.45471
 Alpha virt. eigenvalues --    3.47032   3.47433   3.51269   3.52001   3.53263
 Alpha virt. eigenvalues --    3.54894   3.59845   3.62184   3.66096   3.74594
 Alpha virt. eigenvalues --    3.76418   3.78222   3.79676   3.87759   3.89465
 Alpha virt. eigenvalues --    3.90860   3.96701   3.97989   4.01664   4.02719
 Alpha virt. eigenvalues --    4.05550   4.06070   4.07969   4.10119   4.12578
 Alpha virt. eigenvalues --    4.17562   4.18033   4.20159   4.22008   4.22927
 Alpha virt. eigenvalues --    4.23632   4.28607   4.31240   4.33078   4.45052
 Alpha virt. eigenvalues --    4.61280   5.14266   5.17036   5.17668   5.21726
 Alpha virt. eigenvalues --    5.23548   5.28847   5.31235   5.33940   5.41782
 Alpha virt. eigenvalues --    5.42638   5.57115   5.66452   5.73989   5.79266
 Alpha virt. eigenvalues --    5.84096  23.45275  23.47299  23.51664  23.52838
 Alpha virt. eigenvalues --   23.63096  23.64657  23.66343  23.66990  23.69124
 Alpha virt. eigenvalues --   23.71053  23.73893  23.75063  23.76821  23.78616
 Alpha virt. eigenvalues --   23.79164  23.79918  23.82629  23.84690  23.86869
 Alpha virt. eigenvalues --   23.87329  23.89091  23.89753  23.96642  24.16681
 Alpha virt. eigenvalues --   24.20043  24.23132  49.99053  49.99721  50.02573
 Alpha virt. eigenvalues --   50.03722  50.06945
          Condensed to atoms (all electrons):
 Mulliken atomic charges:
              1
     1  C   -0.346232
     2  C    0.709078
     3  C   -0.181779
     4  C   -0.814778
     5  C    1.045426
     6  C   -0.801195
     7  C   -1.051199
     8  C    0.485788
     9  C    1.193729
    10  C   -0.911754
    11  C   -0.477382
    12  O   -0.178940
    13  C    0.357457
    14  C   -0.321314
    15  C   -1.115087
    16  O   -0.179352
    17  C   -0.173476
    18  C    0.671910
    19  O    0.172031
    20  C   -1.307198
    21  O   -0.015117
    22  C   -0.534040
    23  C   -0.428233
    24  O    0.049395
    25  C    0.912780
    26  C   -1.001569
    27  C   -1.011478
    28  C   -0.719469
    29  C   -0.744845
    30  H    0.238552
    31  H    0.273548
    32  C   -1.105669
    33  H    0.202807
    34  H    0.240538
    35  H    0.276122
    36  H    0.248288
    37  H    0.215819
    38  H    0.256150
    39  H    0.262434
    40  H    0.259966
    41  H    0.275941
    42  H    0.272725
    43  H    0.276833
    44  H    0.293049
    45  H    0.269899
    46  H    0.285667
    47  H    0.233828
    48  H    0.268212
    49  H    0.263082
    50  H    0.255302
    51  H    0.230734
    52  H    0.239739
    53  H    0.267158
    54  H    0.247190
    55  H    0.313214
    56  H    0.264083
    57  H    0.271846
    58  H    0.258283
    59  H    0.257546
    60  H    0.258121
    61  H    0.257768
    62  C   -0.950957
    63  H    0.237577
    64  H    0.257815
    65  H    0.243635
 Sum of Mulliken atomic charges =   0.00000
 Mulliken charges with hydrogens summed into heavy atoms:
              1
     1  C   -0.143425
     2  C    0.709078
     3  C    0.091768
     4  C   -0.814778
     5  C    1.045426
     6  C   -0.284535
     7  C   -1.051199
     8  C    0.485788
     9  C    1.193729
    10  C   -0.911754
    11  C   -0.477382
    12  O   -0.178940
    13  C    0.605745
    14  C    0.150655
    15  C   -0.316747
    16  O   -0.179352
    17  C    0.065076
    18  C    0.671910
    19  O    0.172031
    20  C   -0.757641
    21  O    0.277932
    22  C    0.021526
    23  C   -0.194405
    24  O    0.049395
    25  C    0.912780
    26  C   -0.214973
    27  C   -0.541005
    28  C    0.108093
    29  C    0.049367
    32  C   -0.332234
    62  C   -0.211931
 Sum of Mulliken charges with hydrogens summed into heavy atoms =   0.00000
 Electronic spatial extent (au):  <R**2>=          11489.2620
 Charge=              0.0000 electrons
 Dipole moment (field-independent basis, Debye):
    X=              4.8519    Y=              3.2345    Z=              3.7204  Tot=              6.9169
 Quadrupole moment (field-independent basis, Debye-Ang):
   XX=           -188.9599   YY=           -180.9973   ZZ=           -191.2758
   XY=             -4.1930   XZ=            -10.9171   YZ=              0.7482
 Traceless Quadrupole moment (field-independent basis, Debye-Ang):
   XX=             -1.8822   YY=              6.0804   ZZ=             -4.1982
   XY=             -4.1930   XZ=            -10.9171   YZ=              0.7482
 Octapole moment (field-independent basis, Debye-Ang**2):
  XXX=             54.5062  YYY=             76.0024  ZZZ=             12.4309  XYY=             19.2537
  XXY=             -7.9083  XXZ=              9.0230  XZZ=             25.1202  YZZ=             -4.7071
  YYZ=             -9.7627  XYZ=              5.9681
 Hexadecapole moment (field-independent basis, Debye-Ang**3):
 XXXX=          -8104.0495 YYYY=          -4320.2458 ZZZZ=          -3232.3824 XXXY=             -8.9170
 XXXZ=           -168.2628 YYYX=            -32.6903 YYYZ=            -67.1914 ZZZX=            -59.7960
 ZZZY=             -5.3409 XXYY=          -2114.8796 XXZZ=          -1934.5576 YYZZ=          -1225.1376
 XXYZ=              6.2480 YYXZ=             12.8213 ZZXY=            -12.6435
 N-N= 3.513150113145D+03 E-N=-1.025939017869D+04  KE= 1.381921709218D+03
 1\1\GINC-B0603\FOpt\RB3LYP\6-311+G(d)\C26H34O5\CAOFEI\14-Apr-2021\0\\#
  opt b3lyp/6-311+g(d) geom=connectivity\\Title Card Required\\0,1\C,0.
 5001092399,-1.0234044007,3.0672829658\C,0.7021248781,0.2950058807,3.00
 89858771\C,1.3146513647,0.9434272566,1.7870052427\C,1.4190178334,0.047
 7428287,0.5124482668\C,0.8111777593,-1.379995018,0.5505683117\C,0.8704
 222412,-1.9836570464,1.9739528586\C,0.8277606698,0.9258756216,-0.62249
 57417\C,-0.6692412113,0.7587134327,-0.7942315104\C,-1.3517300885,-0.39
 28173044,-0.5699381569\C,-0.6389660158,-1.5311532459,0.0148938562\C,-2
 .821378838,-0.4948932268,-0.9136843753\O,-3.2169439955,-0.0895505073,-
 1.9866237469\C,-3.7836800825,-1.013400379,0.1565460505\C,-5.0699118974
 ,-1.593557456,-0.4487130076\C,-4.0904975694,0.1590813992,1.11388395\O,
 -1.1608699356,-2.6345083119,0.1026233427\C,0.8656283993,2.3963320715,-
 0.1620175912\C,-0.2661260902,3.0454418001,-0.991107714\O,-1.2299927821
 ,1.9149919727,-1.1393387413\C,0.606000644,2.2560021595,1.3487536261\O,
 1.4275520797,0.666201685,-1.8778489056\C,1.7620133347,-2.1610662067,-0
 .3939356453\C,3.1196874377,-1.5365683048,-0.1000237377\O,2.8225341713,
 -0.1390461398,0.1991060461\C,4.201220221,-1.5889738322,-1.1573122327\C
 ,5.4759614828,-0.8694451189,-0.7949817041\C,4.0611679282,-2.2618671159
 ,-2.3006930105\C,0.177122858,3.4693353947,-2.3903599633\C,-1.033441846
 4,4.1709090117,-0.3083079205\H,1.8337179694,2.8581884393,-0.368044983\
 H,2.3541354716,1.1966974935,2.0314198772\C,0.4061375135,1.1995370679,4
 .1778507939\H,0.0905971822,-1.4556370884,3.9780866076\H,1.8833398198,-
 2.3604895822,2.1674586394\H,0.2230079097,-2.8624869993,1.9895981195\H,
 -3.2705132054,-1.7927147542,0.7244185222\H,-5.7684846328,-1.7908561087
 ,0.3734923276\H,-5.5410389208,-0.8344625322,-1.080680412\H,-3.18055450
 53,0.5755588839,1.5553566024\H,-4.7277553857,-0.1839996603,1.933412555
 9\H,-4.614715367,0.9651528444,0.5926265874\H,0.9529204738,3.1205910792
 ,1.9174763784\H,-0.4665713135,2.1637431137,1.5369755058\H,2.3619116807
 ,0.4753428964,-1.6941682881\H,1.4750965792,-1.9971093231,-1.4338382306
 \H,1.7318718889,-3.2330388038,-0.1937991207\H,3.5387885325,-1.97070266
 63,0.8187255056\H,5.2911592634,0.1906980937,-0.6008101129\H,5.90986636
 55,-1.282327487,0.1232304257\H,6.2215620654,-0.9514900123,-1.588045639
 6\H,4.8695532204,-2.3109000285,-3.0237696961\H,3.1544393539,-2.7946338
 032,-2.5622211714\H,-0.6933665793,3.7541249107,-2.9855069119\H,0.84166
 16561,4.3358695691,-2.324289136\H,0.7037568889,2.6652388454,-2.9012071
 285\H,-0.3692288644,5.0219961565,-0.1345110595\H,-1.852131249,4.508196
 5068,-0.9473771853\H,-1.4576878321,3.8656771082,0.6481262497\H,0.03663
 51586,0.6314723422,5.0339051501\H,1.3065322162,1.7385181139,4.49755214
 16\H,-0.3423904515,1.9610378152,3.9357557442\C,-4.8591574364,-2.878821
 846,-1.2534663844\H,-5.8138323165,-3.2701976543,-1.6173917335\H,-4.221
 7455226,-2.7066119019,-2.1235591442\H,-4.3888528177,-3.658430928,-0.64
 67160857\\Version=EM64L-G09RevB.01\State=1-A\HF=-1387.6498014\RMSD=6.3
 82e-09\RMSF=2.668e-06\Dipole=1.883308,1.2937124,1.4782099\Quadrupole=-
 1.1324749,4.520601,-3.3881262,-3.2328018,-8.0477804,0.3978058\PG=C01 [
 X(C26H34O5)]\\@


 This summer one third of the nation will be ill-housed
 ill-nourished and ill-clad. Only they call it a vacation.
 -- Jonas Salk
 Job cpu time:  4 days 19 hours 31 minutes 31.4 seconds.
 File lengths (MBytes):  RWF=    372 Int=      0 D2E=      0 Chk=     38 Scr=      1
 Normal termination of Gaussian 09 at Wed Apr 14 00:58:35 2021.
