 Entering Gaussian System, Link 0=g09
 Initial command:
 /public/software/g09/g09/l1.exe /tmp/Gau-14717.inp -scrdir=/tmp/
 Entering Link 1 = /public/software/g09/g09/l1.exe PID=     14718.
  
 Copyright (c) 1988,1990,1992,1993,1995,1998,2003,2009,2010,
            Gaussian, Inc.  All Rights Reserved.
  
 This is part of the Gaussian(R) 09 program.  It is based on
 the Gaussian(R) 03 system (copyright 2003, Gaussian, Inc.),
 the Gaussian(R) 98 system (copyright 1998, Gaussian, Inc.),
 the Gaussian(R) 94 system (copyright 1995, Gaussian, Inc.),
 the Gaussian 92(TM) system (copyright 1992, Gaussian, Inc.),
 the Gaussian 90(TM) system (copyright 1990, Gaussian, Inc.),
 the Gaussian 88(TM) system (copyright 1988, Gaussian, Inc.),
 the Gaussian 86(TM) system (copyright 1986, Carnegie Mellon
 University), and the Gaussian 82(TM) system (copyright 1983,
 Carnegie Mellon University). Gaussian is a federally registered
 trademark of Gaussian, Inc.
  
 This software contains proprietary and confidential information,
 including trade secrets, belonging to Gaussian, Inc.
  
 This software is provided under written license and may be
 used, copied, transmitted, or stored only in accord with that
 written license.
  
 The following legend is applicable only to US Government
 contracts under FAR:
  
                    RESTRICTED RIGHTS LEGEND
  
 Use, reproduction and disclosure by the US Government is
 subject to restrictions as set forth in subparagraphs (a)
 and (c) of the Commercial Computer Software - Restricted
 Rights clause in FAR 52.227-19.
  
 Gaussian, Inc.
 340 Quinnipiac St., Bldg. 40, Wallingford CT 06492
  
  
 ---------------------------------------------------------------
 Warning -- This program may not be used in any manner that
 competes with the business of Gaussian, Inc. or will provide
 assistance to any competitor of Gaussian, Inc.  The licensee
 of this program is prohibited from giving any competitor of
 Gaussian, Inc. access to this program.  By using this program,
 the user acknowledges that Gaussian, Inc. is engaged in the
 business of creating and licensing software in the field of
 computational chemistry and represents and warrants to the
 licensee that it is not a competitor of Gaussian, Inc. and that
 it will not use this program in any manner prohibited above.
 ---------------------------------------------------------------
  

 Cite this work as:
 Gaussian 09, Revision B.01,
 M. J. Frisch, G. W. Trucks, H. B. Schlegel, G. E. Scuseria, 
 M. A. Robb, J. R. Cheeseman, G. Scalmani, V. Barone, B. Mennucci, 
 G. A. Petersson, H. Nakatsuji, M. Caricato, X. Li, H. P. Hratchian, 
 A. F. Izmaylov, J. Bloino, G. Zheng, J. L. Sonnenberg, M. Hada, 
 M. Ehara, K. Toyota, R. Fukuda, J. Hasegawa, M. Ishida, T. Nakajima, 
 Y. Honda, O. Kitao, H. Nakai, T. Vreven, J. A. Montgomery, Jr., 
 J. E. Peralta, F. Ogliaro, M. Bearpark, J. J. Heyd, E. Brothers, 
 K. N. Kudin, V. N. Staroverov, T. Keith, R. Kobayashi, J. Normand, 
 K. Raghavachari, A. Rendell, J. C. Burant, S. S. Iyengar, J. Tomasi, 
 M. Cossi, N. Rega, J. M. Millam, M. Klene, J. E. Knox, J. B. Cross, 
 V. Bakken, C. Adamo, J. Jaramillo, R. Gomperts, R. E. Stratmann, 
 O. Yazyev, A. J. Austin, R. Cammi, C. Pomelli, J. W. Ochterski, 
 R. L. Martin, K. Morokuma, V. G. Zakrzewski, G. A. Voth, 
 P. Salvador, J. J. Dannenberg, S. Dapprich, A. D. Daniels, 
 O. Farkas, J. B. Foresman, J. V. Ortiz, J. Cioslowski, 
 and D. J. Fox, Gaussian, Inc., Wallingford CT, 2010.
 
 ******************************************
 Gaussian 09:  EM64L-G09RevB.01 12-Aug-2010
                13-Apr-2021 
 ******************************************
 %mem=600MW
 %nprocshared=10
 Will use up to   10 processors via shared memory.
 ----------------------------------------
 # opt b3lyp/6-311+g(d) geom=connectivity
 ----------------------------------------
 1/14=-1,18=20,19=15,26=3,38=1,57=2/1,3;
 2/9=110,12=2,17=6,18=5,40=1/2;
 3/5=4,6=6,7=11,11=2,16=1,25=1,30=1,71=1,74=-5/1,2,3;
 4//1;
 5/5=2,38=5/2;
 6/7=2,8=2,9=2,10=2,28=1/1;
 7//1,2,3,16;
 1/14=-1,18=20,19=15/3(2);
 2/9=110/2;
 99//99;
 2/9=110/2;
 3/5=4,6=6,7=11,11=2,16=1,25=1,30=1,71=1,74=-5/1,2,3;
 4/5=5,16=3/1;
 5/5=2,38=5/2;
 7//1,2,3,16;
 1/14=-1,18=20,19=15/3(-5);
 2/9=110/2;
 6/7=2,8=2,9=2,10=2,19=2,28=1/1;
 99/9=1/99;
 -------------------
 Title Card Required
 -------------------
 Symbolic Z-matrix:
 Charge =  0 Multiplicity = 1
 C                     1.43847   0.34974   3.2249 
 C                     1.22386   1.55234   2.67945 
 C                     1.37686   1.78036   1.18973 
 C                     1.48553   0.49437   0.31238 
 C                     1.33284  -0.8917    0.99203 
 C                     1.85139  -0.87158   2.45157 
 C                     0.46195   0.71898  -0.83445 
 C                    -0.92653   0.2267   -0.48867 
 C                    -1.20171  -0.82962   0.3084 
 C                    -0.09282  -1.50816   0.99831 
 C                    -2.61621  -1.26161   0.62567 
 O                    -3.00724  -1.27017   1.77768 
 C                    -3.4814   -1.74396  -0.53895 
 C                    -4.98249  -1.61851  -0.23932 
 C                    -3.07726  -3.20668  -0.83543 
 O                    -0.25916  -2.57162   1.58079 
 C                     0.16671   2.23251  -0.92257 
 C                    -1.24246   2.27315  -1.5621 
 O                    -1.86176   1.02523  -1.03368 
 C                     0.24912   2.64972   0.56032 
 O                     0.85126   0.09004  -2.04112 
 C                     2.25177  -1.7782    0.11284 
 C                     3.40385  -0.82578  -0.23829 
 O                     2.80092   0.48004  -0.29906 
 C                     4.15346  -1.15024  -1.51296 
 C                     4.70796  -2.55151  -1.59021 
 C                     4.35161  -0.24381  -2.47577 
 C                    -1.20862   2.17028  -3.08874 
 C                    -2.14851   3.41761  -1.11636 
 H                     0.90602   2.75703  -1.53592 
 H                     2.32784   2.30646   1.02382 
 C                     0.89155   2.75933   3.52174 
 H                     1.3514    0.23678   4.3046 
 H                     2.95002  -0.94106   2.45338 
 H                     1.49027  -1.78226   2.93869 
 H                    -3.23012  -1.13799  -1.41932 
 H                    -5.53544  -2.13509  -1.03553 
 H                    -5.19773  -2.15084   0.69442 
 H                    -2.00434  -3.29944  -1.03372 
 H                    -3.61995  -3.57609  -1.71265 
 H                    -3.31722  -3.85172   0.01685 
 H                     0.43622   3.71991   0.6864 
 H                    -0.69853   2.42817   1.06293 
 H                     1.8229    0.18735  -2.08002 
 H                     1.73028  -2.08995  -0.79759 
 H                     2.57922  -2.67288   0.64845 
 H                     4.1369   -0.81938   0.58528 
 H                     5.34482  -2.77302  -0.72277 
 H                     3.90893  -3.3037   -1.59405 
 H                     5.30862  -2.68918  -2.49362 
 H                     4.90429  -0.49371  -3.37744 
 H                     3.99449   0.77672  -2.3832 
 H                    -2.22209   2.01583  -3.47345 
 H                    -0.81926   3.10097  -3.51746 
 H                    -0.57359   1.34299  -3.41044 
 H                    -1.72789   4.3746   -1.44468 
 H                    -3.13948   3.30882  -1.5684 
 H                    -2.27206   3.44603  -0.03145 
 H                     0.87283   2.50366   4.58551 
 H                     1.6328    3.55888   3.37893 
 H                    -0.08547   3.18782   3.26404 
 C                    -5.47493  -0.17131  -0.13061 
 H                    -6.55569  -0.13802   0.04889 
 H                    -4.98349   0.35032   0.69691 
 H                    -5.27151   0.38927  -1.05163 
 

 GradGradGradGradGradGradGradGradGradGradGradGradGradGradGradGradGradGrad
 Berny optimization.
 Initialization pass.
                           ----------------------------
                           !    Initial Parameters    !
                           ! (Angstroms and Degrees)  !
 --------------------------                            --------------------------
 ! Name  Definition              Value          Derivative Info.                !
 --------------------------------------------------------------------------------
 ! R1    R(1,2)                  1.3378         estimate D2E/DX2                !
 ! R2    R(1,6)                  1.5034         estimate D2E/DX2                !
 ! R3    R(1,33)                 1.0891         estimate D2E/DX2                !
 ! R4    R(2,3)                  1.5148         estimate D2E/DX2                !
 ! R5    R(2,32)                 1.5089         estimate D2E/DX2                !
 ! R6    R(3,4)                  1.5606         estimate D2E/DX2                !
 ! R7    R(3,20)                 1.5568         estimate D2E/DX2                !
 ! R8    R(3,31)                 1.0994         estimate D2E/DX2                !
 ! R9    R(4,5)                  1.5513         estimate D2E/DX2                !
 ! R10   R(4,7)                  1.5535         estimate D2E/DX2                !
 ! R11   R(4,24)                 1.4506         estimate D2E/DX2                !
 ! R12   R(5,6)                  1.5491         estimate D2E/DX2                !
 ! R13   R(5,10)                 1.5532         estimate D2E/DX2                !
 ! R14   R(5,22)                 1.5503         estimate D2E/DX2                !
 ! R15   R(6,34)                 1.1008         estimate D2E/DX2                !
 ! R16   R(6,35)                 1.0941         estimate D2E/DX2                !
 ! R17   R(7,8)                  1.5132         estimate D2E/DX2                !
 ! R18   R(7,17)                 1.5446         estimate D2E/DX2                !
 ! R19   R(7,21)                 1.4153         estimate D2E/DX2                !
 ! R20   R(8,9)                  1.3516         estimate D2E/DX2                !
 ! R21   R(8,19)                 1.3451         estimate D2E/DX2                !
 ! R22   R(9,10)                 1.4717         estimate D2E/DX2                !
 ! R23   R(9,11)                 1.5126         estimate D2E/DX2                !
 ! R24   R(10,16)                1.2239         estimate D2E/DX2                !
 ! R25   R(11,12)                1.2166         estimate D2E/DX2                !
 ! R26   R(11,13)                1.5289         estimate D2E/DX2                !
 ! R27   R(13,14)                1.5358         estimate D2E/DX2                !
 ! R28   R(13,15)                1.5462         estimate D2E/DX2                !
 ! R29   R(13,36)                1.0979         estimate D2E/DX2                !
 ! R30   R(14,37)                1.0984         estimate D2E/DX2                !
 ! R31   R(14,38)                1.0962         estimate D2E/DX2                !
 ! R32   R(14,62)                1.5326         estimate D2E/DX2                !
 ! R33   R(15,39)                1.095          estimate D2E/DX2                !
 ! R34   R(15,40)                1.0957         estimate D2E/DX2                !
 ! R35   R(15,41)                1.0955         estimate D2E/DX2                !
 ! R36   R(17,18)                1.548          estimate D2E/DX2                !
 ! R37   R(17,20)                1.5427         estimate D2E/DX2                !
 ! R38   R(17,30)                1.0945         estimate D2E/DX2                !
 ! R39   R(18,19)                1.49           estimate D2E/DX2                !
 ! R40   R(18,28)                1.5305         estimate D2E/DX2                !
 ! R41   R(18,29)                1.5262         estimate D2E/DX2                !
 ! R42   R(20,42)                1.0937         estimate D2E/DX2                !
 ! R43   R(20,43)                1.0953         estimate D2E/DX2                !
 ! R44   R(21,44)                0.9773         estimate D2E/DX2                !
 ! R45   R(22,23)                1.5355         estimate D2E/DX2                !
 ! R46   R(22,45)                1.0945         estimate D2E/DX2                !
 ! R47   R(22,46)                1.093          estimate D2E/DX2                !
 ! R48   R(23,24)                1.4396         estimate D2E/DX2                !
 ! R49   R(23,25)                1.5139         estimate D2E/DX2                !
 ! R50   R(23,47)                1.1026         estimate D2E/DX2                !
 ! R51   R(25,26)                1.509          estimate D2E/DX2                !
 ! R52   R(25,27)                1.3371         estimate D2E/DX2                !
 ! R53   R(26,48)                1.0987         estimate D2E/DX2                !
 ! R54   R(26,49)                1.0974         estimate D2E/DX2                !
 ! R55   R(26,50)                1.0936         estimate D2E/DX2                !
 ! R56   R(27,51)                1.0867         estimate D2E/DX2                !
 ! R57   R(27,52)                1.0852         estimate D2E/DX2                !
 ! R58   R(28,53)                1.095          estimate D2E/DX2                !
 ! R59   R(28,54)                1.0962         estimate D2E/DX2                !
 ! R60   R(28,55)                1.0914         estimate D2E/DX2                !
 ! R61   R(29,56)                1.0957         estimate D2E/DX2                !
 ! R62   R(29,57)                1.0946         estimate D2E/DX2                !
 ! R63   R(29,58)                1.0923         estimate D2E/DX2                !
 ! R64   R(32,59)                1.0942         estimate D2E/DX2                !
 ! R65   R(32,60)                1.0996         estimate D2E/DX2                !
 ! R66   R(32,61)                1.0975         estimate D2E/DX2                !
 ! R67   R(62,63)                1.0961         estimate D2E/DX2                !
 ! R68   R(62,64)                1.0947         estimate D2E/DX2                !
 ! R69   R(62,65)                1.0972         estimate D2E/DX2                !
 ! A1    A(2,1,6)              124.3737         estimate D2E/DX2                !
 ! A2    A(2,1,33)             118.987          estimate D2E/DX2                !
 ! A3    A(6,1,33)             116.594          estimate D2E/DX2                !
 ! A4    A(1,2,3)              121.3368         estimate D2E/DX2                !
 ! A5    A(1,2,32)             121.7893         estimate D2E/DX2                !
 ! A6    A(3,2,32)             116.7955         estimate D2E/DX2                !
 ! A7    A(2,3,4)              115.8409         estimate D2E/DX2                !
 ! A8    A(2,3,20)             114.1096         estimate D2E/DX2                !
 ! A9    A(2,3,31)             107.9268         estimate D2E/DX2                !
 ! A10   A(4,3,20)             106.4585         estimate D2E/DX2                !
 ! A11   A(4,3,31)             104.4343         estimate D2E/DX2                !
 ! A12   A(20,3,31)            107.3595         estimate D2E/DX2                !
 ! A13   A(3,4,5)              118.8908         estimate D2E/DX2                !
 ! A14   A(3,4,7)              104.4776         estimate D2E/DX2                !
 ! A15   A(3,4,24)             107.9539         estimate D2E/DX2                !
 ! A16   A(5,4,7)              112.8154         estimate D2E/DX2                !
 ! A17   A(5,4,24)             105.3728         estimate D2E/DX2                !
 ! A18   A(7,4,24)             106.7218         estimate D2E/DX2                !
 ! A19   A(4,5,6)              111.6074         estimate D2E/DX2                !
 ! A20   A(4,5,10)             116.5346         estimate D2E/DX2                !
 ! A21   A(4,5,22)             101.7783         estimate D2E/DX2                !
 ! A22   A(6,5,10)             107.9751         estimate D2E/DX2                !
 ! A23   A(6,5,22)             110.0814         estimate D2E/DX2                !
 ! A24   A(10,5,22)            108.6276         estimate D2E/DX2                !
 ! A25   A(1,6,5)              113.7837         estimate D2E/DX2                !
 ! A26   A(1,6,34)             108.9377         estimate D2E/DX2                !
 ! A27   A(1,6,35)             110.8864         estimate D2E/DX2                !
 ! A28   A(5,6,34)             109.5616         estimate D2E/DX2                !
 ! A29   A(5,6,35)             107.349          estimate D2E/DX2                !
 ! A30   A(34,6,35)            106.0296         estimate D2E/DX2                !
 ! A31   A(4,7,8)              112.8829         estimate D2E/DX2                !
 ! A32   A(4,7,17)             108.0432         estimate D2E/DX2                !
 ! A33   A(4,7,21)             112.5752         estimate D2E/DX2                !
 ! A34   A(8,7,17)              99.0            estimate D2E/DX2                !
 ! A35   A(8,7,21)             107.6169         estimate D2E/DX2                !
 ! A36   A(17,7,21)            116.0643         estimate D2E/DX2                !
 ! A37   A(7,8,9)              125.1567         estimate D2E/DX2                !
 ! A38   A(7,8,19)             110.6251         estimate D2E/DX2                !
 ! A39   A(9,8,19)             124.1488         estimate D2E/DX2                !
 ! A40   A(8,9,10)             118.9059         estimate D2E/DX2                !
 ! A41   A(8,9,11)             122.4977         estimate D2E/DX2                !
 ! A42   A(10,9,11)            118.3315         estimate D2E/DX2                !
 ! A43   A(5,10,9)             120.443          estimate D2E/DX2                !
 ! A44   A(5,10,16)            118.134          estimate D2E/DX2                !
 ! A45   A(9,10,16)            121.4204         estimate D2E/DX2                !
 ! A46   A(9,11,12)            120.078          estimate D2E/DX2                !
 ! A47   A(9,11,13)            117.3555         estimate D2E/DX2                !
 ! A48   A(12,11,13)           122.4922         estimate D2E/DX2                !
 ! A49   A(11,13,14)           112.2541         estimate D2E/DX2                !
 ! A50   A(11,13,15)           107.2533         estimate D2E/DX2                !
 ! A51   A(11,13,36)           107.8885         estimate D2E/DX2                !
 ! A52   A(14,13,15)           111.724          estimate D2E/DX2                !
 ! A53   A(14,13,36)           109.5757         estimate D2E/DX2                !
 ! A54   A(15,13,36)           107.972          estimate D2E/DX2                !
 ! A55   A(13,14,37)           108.1912         estimate D2E/DX2                !
 ! A56   A(13,14,38)           108.5684         estimate D2E/DX2                !
 ! A57   A(13,14,62)           113.8925         estimate D2E/DX2                !
 ! A58   A(37,14,38)           106.8709         estimate D2E/DX2                !
 ! A59   A(37,14,62)           109.497          estimate D2E/DX2                !
 ! A60   A(38,14,62)           109.5767         estimate D2E/DX2                !
 ! A61   A(13,15,39)           111.7745         estimate D2E/DX2                !
 ! A62   A(13,15,40)           110.06           estimate D2E/DX2                !
 ! A63   A(13,15,41)           110.5243         estimate D2E/DX2                !
 ! A64   A(39,15,40)           108.1653         estimate D2E/DX2                !
 ! A65   A(39,15,41)           107.7961         estimate D2E/DX2                !
 ! A66   A(40,15,41)           108.4136         estimate D2E/DX2                !
 ! A67   A(7,17,18)            102.9023         estimate D2E/DX2                !
 ! A68   A(7,17,20)            101.5347         estimate D2E/DX2                !
 ! A69   A(7,17,30)            111.8679         estimate D2E/DX2                !
 ! A70   A(18,17,20)           116.0171         estimate D2E/DX2                !
 ! A71   A(18,17,30)           111.7647         estimate D2E/DX2                !
 ! A72   A(20,17,30)           111.9004         estimate D2E/DX2                !
 ! A73   A(17,18,19)           102.1138         estimate D2E/DX2                !
 ! A74   A(17,18,28)           112.9666         estimate D2E/DX2                !
 ! A75   A(17,18,29)           116.0676         estimate D2E/DX2                !
 ! A76   A(19,18,28)           107.8578         estimate D2E/DX2                !
 ! A77   A(19,18,29)           106.1237         estimate D2E/DX2                !
 ! A78   A(28,18,29)           110.784          estimate D2E/DX2                !
 ! A79   A(8,19,18)            110.6047         estimate D2E/DX2                !
 ! A80   A(3,20,17)            106.0391         estimate D2E/DX2                !
 ! A81   A(3,20,42)            112.0786         estimate D2E/DX2                !
 ! A82   A(3,20,43)            109.1624         estimate D2E/DX2                !
 ! A83   A(17,20,42)           112.6177         estimate D2E/DX2                !
 ! A84   A(17,20,43)           109.8874         estimate D2E/DX2                !
 ! A85   A(42,20,43)           107.0394         estimate D2E/DX2                !
 ! A86   A(7,21,44)            105.2585         estimate D2E/DX2                !
 ! A87   A(5,22,23)            102.6942         estimate D2E/DX2                !
 ! A88   A(5,22,45)            110.6207         estimate D2E/DX2                !
 ! A89   A(5,22,46)            111.5782         estimate D2E/DX2                !
 ! A90   A(23,22,45)           110.1172         estimate D2E/DX2                !
 ! A91   A(23,22,46)           113.267          estimate D2E/DX2                !
 ! A92   A(45,22,46)           108.4947         estimate D2E/DX2                !
 ! A93   A(22,23,24)           104.9542         estimate D2E/DX2                !
 ! A94   A(22,23,25)           115.5382         estimate D2E/DX2                !
 ! A95   A(22,23,47)           109.3683         estimate D2E/DX2                !
 ! A96   A(24,23,25)           111.4838         estimate D2E/DX2                !
 ! A97   A(24,23,47)           107.7417         estimate D2E/DX2                !
 ! A98   A(25,23,47)           107.5145         estimate D2E/DX2                !
 ! A99   A(4,24,23)            111.774          estimate D2E/DX2                !
 ! A100  A(23,25,26)           115.0919         estimate D2E/DX2                !
 ! A101  A(23,25,27)           122.3001         estimate D2E/DX2                !
 ! A102  A(26,25,27)           122.5612         estimate D2E/DX2                !
 ! A103  A(25,26,48)           111.0887         estimate D2E/DX2                !
 ! A104  A(25,26,49)           111.6622         estimate D2E/DX2                !
 ! A105  A(25,26,50)           111.1641         estimate D2E/DX2                !
 ! A106  A(48,26,49)           106.6565         estimate D2E/DX2                !
 ! A107  A(48,26,50)           107.9665         estimate D2E/DX2                !
 ! A108  A(49,26,50)           108.1042         estimate D2E/DX2                !
 ! A109  A(25,27,51)           121.1267         estimate D2E/DX2                !
 ! A110  A(25,27,52)           121.8252         estimate D2E/DX2                !
 ! A111  A(51,27,52)           117.0277         estimate D2E/DX2                !
 ! A112  A(18,28,53)           109.8447         estimate D2E/DX2                !
 ! A113  A(18,28,54)           109.9323         estimate D2E/DX2                !
 ! A114  A(18,28,55)           110.967          estimate D2E/DX2                !
 ! A115  A(53,28,54)           108.1259         estimate D2E/DX2                !
 ! A116  A(53,28,55)           109.1512         estimate D2E/DX2                !
 ! A117  A(54,28,55)           108.7614         estimate D2E/DX2                !
 ! A118  A(18,29,56)           109.848          estimate D2E/DX2                !
 ! A119  A(18,29,57)           110.0174         estimate D2E/DX2                !
 ! A120  A(18,29,58)           112.1314         estimate D2E/DX2                !
 ! A121  A(56,29,57)           108.0956         estimate D2E/DX2                !
 ! A122  A(56,29,58)           108.5614         estimate D2E/DX2                !
 ! A123  A(57,29,58)           108.0806         estimate D2E/DX2                !
 ! A124  A(2,32,59)            111.0724         estimate D2E/DX2                !
 ! A125  A(2,32,60)            111.1424         estimate D2E/DX2                !
 ! A126  A(2,32,61)            112.166          estimate D2E/DX2                !
 ! A127  A(59,32,60)           107.9197         estimate D2E/DX2                !
 ! A128  A(59,32,61)           107.7135         estimate D2E/DX2                !
 ! A129  A(60,32,61)           106.6014         estimate D2E/DX2                !
 ! A130  A(14,62,63)           110.924          estimate D2E/DX2                !
 ! A131  A(14,62,64)           111.0593         estimate D2E/DX2                !
 ! A132  A(14,62,65)           111.3054         estimate D2E/DX2                !
 ! A133  A(63,62,64)           107.7211         estimate D2E/DX2                !
 ! A134  A(63,62,65)           107.7433         estimate D2E/DX2                !
 ! A135  A(64,62,65)           107.9302         estimate D2E/DX2                !
 ! D1    D(6,1,2,3)              0.4237         estimate D2E/DX2                !
 ! D2    D(6,1,2,32)          -176.2509         estimate D2E/DX2                !
 ! D3    D(33,1,2,3)           177.8877         estimate D2E/DX2                !
 ! D4    D(33,1,2,32)            1.2132         estimate D2E/DX2                !
 ! D5    D(2,1,6,5)            -30.0347         estimate D2E/DX2                !
 ! D6    D(2,1,6,34)            92.5161         estimate D2E/DX2                !
 ! D7    D(2,1,6,35)          -151.1631         estimate D2E/DX2                !
 ! D8    D(33,1,6,5)           152.446          estimate D2E/DX2                !
 ! D9    D(33,1,6,34)          -85.0032         estimate D2E/DX2                !
 ! D10   D(33,1,6,35)           31.3176         estimate D2E/DX2                !
 ! D11   D(1,2,3,4)             12.8734         estimate D2E/DX2                !
 ! D12   D(1,2,3,20)           137.0412         estimate D2E/DX2                !
 ! D13   D(1,2,3,31)          -103.7274         estimate D2E/DX2                !
 ! D14   D(32,2,3,4)          -170.2931         estimate D2E/DX2                !
 ! D15   D(32,2,3,20)          -46.1252         estimate D2E/DX2                !
 ! D16   D(32,2,3,31)           73.1062         estimate D2E/DX2                !
 ! D17   D(1,2,32,59)            0.8418         estimate D2E/DX2                !
 ! D18   D(1,2,32,60)          121.0099         estimate D2E/DX2                !
 ! D19   D(1,2,32,61)         -119.7595         estimate D2E/DX2                !
 ! D20   D(3,2,32,59)         -175.9764         estimate D2E/DX2                !
 ! D21   D(3,2,32,60)          -55.8082         estimate D2E/DX2                !
 ! D22   D(3,2,32,61)           63.4224         estimate D2E/DX2                !
 ! D23   D(2,3,4,5)              4.1842         estimate D2E/DX2                !
 ! D24   D(2,3,4,7)            131.0461         estimate D2E/DX2                !
 ! D25   D(2,3,4,24)          -115.6232         estimate D2E/DX2                !
 ! D26   D(20,3,4,5)          -123.8646         estimate D2E/DX2                !
 ! D27   D(20,3,4,7)             2.9973         estimate D2E/DX2                !
 ! D28   D(20,3,4,24)          116.328          estimate D2E/DX2                !
 ! D29   D(31,3,4,5)           122.7262         estimate D2E/DX2                !
 ! D30   D(31,3,4,7)          -110.4119         estimate D2E/DX2                !
 ! D31   D(31,3,4,24)            2.9187         estimate D2E/DX2                !
 ! D32   D(2,3,20,17)         -153.6898         estimate D2E/DX2                !
 ! D33   D(2,3,20,42)           83.0506         estimate D2E/DX2                !
 ! D34   D(2,3,20,43)          -35.3557         estimate D2E/DX2                !
 ! D35   D(4,3,20,17)          -24.6291         estimate D2E/DX2                !
 ! D36   D(4,3,20,42)         -147.8887         estimate D2E/DX2                !
 ! D37   D(4,3,20,43)           93.705          estimate D2E/DX2                !
 ! D38   D(31,3,20,17)          86.7585         estimate D2E/DX2                !
 ! D39   D(31,3,20,42)         -36.5011         estimate D2E/DX2                !
 ! D40   D(31,3,20,43)        -154.9073         estimate D2E/DX2                !
 ! D41   D(3,4,5,6)            -31.37           estimate D2E/DX2                !
 ! D42   D(3,4,5,10)            93.2955         estimate D2E/DX2                !
 ! D43   D(3,4,5,22)          -148.7467         estimate D2E/DX2                !
 ! D44   D(7,4,5,6)           -154.1841         estimate D2E/DX2                !
 ! D45   D(7,4,5,10)           -29.5186         estimate D2E/DX2                !
 ! D46   D(7,4,5,22)            88.4393         estimate D2E/DX2                !
 ! D47   D(24,4,5,6)            89.751          estimate D2E/DX2                !
 ! D48   D(24,4,5,10)         -145.5835         estimate D2E/DX2                !
 ! D49   D(24,4,5,22)          -27.6256         estimate D2E/DX2                !
 ! D50   D(3,4,7,8)            -88.6196         estimate D2E/DX2                !
 ! D51   D(3,4,7,17)            19.8057         estimate D2E/DX2                !
 ! D52   D(3,4,7,21)           149.2912         estimate D2E/DX2                !
 ! D53   D(5,4,7,8)             41.9191         estimate D2E/DX2                !
 ! D54   D(5,4,7,17)           150.3444         estimate D2E/DX2                !
 ! D55   D(5,4,7,21)           -80.1702         estimate D2E/DX2                !
 ! D56   D(24,4,7,8)           157.1763         estimate D2E/DX2                !
 ! D57   D(24,4,7,17)          -94.3984         estimate D2E/DX2                !
 ! D58   D(24,4,7,21)           35.0871         estimate D2E/DX2                !
 ! D59   D(3,4,24,23)          136.2896         estimate D2E/DX2                !
 ! D60   D(5,4,24,23)            8.2791         estimate D2E/DX2                !
 ! D61   D(7,4,24,23)         -111.8868         estimate D2E/DX2                !
 ! D62   D(4,5,6,1)             43.024          estimate D2E/DX2                !
 ! D63   D(4,5,6,34)           -79.1832         estimate D2E/DX2                !
 ! D64   D(4,5,6,35)           166.1071         estimate D2E/DX2                !
 ! D65   D(10,5,6,1)           -86.2969         estimate D2E/DX2                !
 ! D66   D(10,5,6,34)          151.4959         estimate D2E/DX2                !
 ! D67   D(10,5,6,35)           36.7861         estimate D2E/DX2                !
 ! D68   D(22,5,6,1)           155.2687         estimate D2E/DX2                !
 ! D69   D(22,5,6,34)           33.0616         estimate D2E/DX2                !
 ! D70   D(22,5,6,35)          -81.6482         estimate D2E/DX2                !
 ! D71   D(4,5,10,9)             3.9123         estimate D2E/DX2                !
 ! D72   D(4,5,10,16)         -176.6733         estimate D2E/DX2                !
 ! D73   D(6,5,10,9)           130.4054         estimate D2E/DX2                !
 ! D74   D(6,5,10,16)          -50.1802         estimate D2E/DX2                !
 ! D75   D(22,5,10,9)         -110.2351         estimate D2E/DX2                !
 ! D76   D(22,5,10,16)          69.1793         estimate D2E/DX2                !
 ! D77   D(4,5,22,23)           35.9494         estimate D2E/DX2                !
 ! D78   D(4,5,22,45)          -81.5316         estimate D2E/DX2                !
 ! D79   D(4,5,22,46)          157.585          estimate D2E/DX2                !
 ! D80   D(6,5,22,23)          -82.5236         estimate D2E/DX2                !
 ! D81   D(6,5,22,45)          159.9955         estimate D2E/DX2                !
 ! D82   D(6,5,22,46)           39.1121         estimate D2E/DX2                !
 ! D83   D(10,5,22,23)         159.4441         estimate D2E/DX2                !
 ! D84   D(10,5,22,45)          41.9631         estimate D2E/DX2                !
 ! D85   D(10,5,22,46)         -78.9203         estimate D2E/DX2                !
 ! D86   D(4,7,8,9)            -32.0974         estimate D2E/DX2                !
 ! D87   D(4,7,8,19)           144.9719         estimate D2E/DX2                !
 ! D88   D(17,7,8,9)          -146.1284         estimate D2E/DX2                !
 ! D89   D(17,7,8,19)           30.9409         estimate D2E/DX2                !
 ! D90   D(21,7,8,9)            92.7377         estimate D2E/DX2                !
 ! D91   D(21,7,8,19)          -90.193          estimate D2E/DX2                !
 ! D92   D(4,7,17,18)         -154.9136         estimate D2E/DX2                !
 ! D93   D(4,7,17,20)          -34.514          estimate D2E/DX2                !
 ! D94   D(4,7,17,30)           84.9652         estimate D2E/DX2                !
 ! D95   D(8,7,17,18)          -37.1611         estimate D2E/DX2                !
 ! D96   D(8,7,17,20)           83.2384         estimate D2E/DX2                !
 ! D97   D(8,7,17,30)         -157.2824         estimate D2E/DX2                !
 ! D98   D(21,7,17,18)          77.5841         estimate D2E/DX2                !
 ! D99   D(21,7,17,20)        -162.0163         estimate D2E/DX2                !
 ! D100  D(21,7,17,30)         -42.5371         estimate D2E/DX2                !
 ! D101  D(4,7,21,44)          -36.9051         estimate D2E/DX2                !
 ! D102  D(8,7,21,44)         -161.9248         estimate D2E/DX2                !
 ! D103  D(17,7,21,44)          88.3182         estimate D2E/DX2                !
 ! D104  D(7,8,9,10)             5.3785         estimate D2E/DX2                !
 ! D105  D(7,8,9,11)           179.3629         estimate D2E/DX2                !
 ! D106  D(19,8,9,10)         -171.3069         estimate D2E/DX2                !
 ! D107  D(19,8,9,11)            2.6776         estimate D2E/DX2                !
 ! D108  D(7,8,19,18)          -11.3654         estimate D2E/DX2                !
 ! D109  D(9,8,19,18)          165.7394         estimate D2E/DX2                !
 ! D110  D(8,9,10,5)             9.5144         estimate D2E/DX2                !
 ! D111  D(8,9,10,16)         -169.8804         estimate D2E/DX2                !
 ! D112  D(11,9,10,5)         -164.7224         estimate D2E/DX2                !
 ! D113  D(11,9,10,16)          15.8828         estimate D2E/DX2                !
 ! D114  D(8,9,11,12)         -119.5624         estimate D2E/DX2                !
 ! D115  D(8,9,11,13)           63.4936         estimate D2E/DX2                !
 ! D116  D(10,9,11,12)          54.455          estimate D2E/DX2                !
 ! D117  D(10,9,11,13)        -122.489          estimate D2E/DX2                !
 ! D118  D(9,11,13,14)        -157.1545         estimate D2E/DX2                !
 ! D119  D(9,11,13,15)          79.7625         estimate D2E/DX2                !
 ! D120  D(9,11,13,36)         -36.3252         estimate D2E/DX2                !
 ! D121  D(12,11,13,14)         25.9809         estimate D2E/DX2                !
 ! D122  D(12,11,13,15)        -97.1021         estimate D2E/DX2                !
 ! D123  D(12,11,13,36)        146.8102         estimate D2E/DX2                !
 ! D124  D(11,13,14,37)       -170.4832         estimate D2E/DX2                !
 ! D125  D(11,13,14,38)        -54.8475         estimate D2E/DX2                !
 ! D126  D(11,13,14,62)         67.524          estimate D2E/DX2                !
 ! D127  D(15,13,14,37)        -49.9522         estimate D2E/DX2                !
 ! D128  D(15,13,14,38)         65.6836         estimate D2E/DX2                !
 ! D129  D(15,13,14,62)       -171.945          estimate D2E/DX2                !
 ! D130  D(36,13,14,37)         69.665          estimate D2E/DX2                !
 ! D131  D(36,13,14,38)       -174.6992         estimate D2E/DX2                !
 ! D132  D(36,13,14,62)        -52.3278         estimate D2E/DX2                !
 ! D133  D(11,13,15,39)        -55.6954         estimate D2E/DX2                !
 ! D134  D(11,13,15,40)       -175.9112         estimate D2E/DX2                !
 ! D135  D(11,13,15,41)         64.3683         estimate D2E/DX2                !
 ! D136  D(14,13,15,39)       -179.1048         estimate D2E/DX2                !
 ! D137  D(14,13,15,40)         60.6794         estimate D2E/DX2                !
 ! D138  D(14,13,15,41)        -59.0412         estimate D2E/DX2                !
 ! D139  D(36,13,15,39)         60.3371         estimate D2E/DX2                !
 ! D140  D(36,13,15,40)        -59.8787         estimate D2E/DX2                !
 ! D141  D(36,13,15,41)       -179.5993         estimate D2E/DX2                !
 ! D142  D(13,14,62,63)        178.034          estimate D2E/DX2                !
 ! D143  D(13,14,62,64)        -62.2027         estimate D2E/DX2                !
 ! D144  D(13,14,62,65)         58.0794         estimate D2E/DX2                !
 ! D145  D(37,14,62,63)         56.7647         estimate D2E/DX2                !
 ! D146  D(37,14,62,64)        176.5281         estimate D2E/DX2                !
 ! D147  D(37,14,62,65)        -63.1898         estimate D2E/DX2                !
 ! D148  D(38,14,62,63)        -60.1505         estimate D2E/DX2                !
 ! D149  D(38,14,62,64)         59.6129         estimate D2E/DX2                !
 ! D150  D(38,14,62,65)        179.895          estimate D2E/DX2                !
 ! D151  D(7,17,18,19)          31.9864         estimate D2E/DX2                !
 ! D152  D(7,17,18,28)         -83.5828         estimate D2E/DX2                !
 ! D153  D(7,17,18,29)         146.8968         estimate D2E/DX2                !
 ! D154  D(20,17,18,19)        -77.8956         estimate D2E/DX2                !
 ! D155  D(20,17,18,28)        166.5352         estimate D2E/DX2                !
 ! D156  D(20,17,18,29)         37.0147         estimate D2E/DX2                !
 ! D157  D(30,17,18,19)        152.1788         estimate D2E/DX2                !
 ! D158  D(30,17,18,28)         36.6096         estimate D2E/DX2                !
 ! D159  D(30,17,18,29)        -92.9108         estimate D2E/DX2                !
 ! D160  D(7,17,20,3)           35.7777         estimate D2E/DX2                !
 ! D161  D(7,17,20,42)         158.6972         estimate D2E/DX2                !
 ! D162  D(7,17,20,43)         -82.0748         estimate D2E/DX2                !
 ! D163  D(18,17,20,3)         146.4611         estimate D2E/DX2                !
 ! D164  D(18,17,20,42)        -90.6194         estimate D2E/DX2                !
 ! D165  D(18,17,20,43)         28.6086         estimate D2E/DX2                !
 ! D166  D(30,17,20,3)         -83.6784         estimate D2E/DX2                !
 ! D167  D(30,17,20,42)         39.2411         estimate D2E/DX2                !
 ! D168  D(30,17,20,43)        158.4691         estimate D2E/DX2                !
 ! D169  D(17,18,19,8)         -13.5458         estimate D2E/DX2                !
 ! D170  D(28,18,19,8)         105.6918         estimate D2E/DX2                !
 ! D171  D(29,18,19,8)        -135.5438         estimate D2E/DX2                !
 ! D172  D(17,18,28,53)        169.4878         estimate D2E/DX2                !
 ! D173  D(17,18,28,54)        -71.6505         estimate D2E/DX2                !
 ! D174  D(17,18,28,55)         48.7036         estimate D2E/DX2                !
 ! D175  D(19,18,28,53)         57.402          estimate D2E/DX2                !
 ! D176  D(19,18,28,54)        176.2637         estimate D2E/DX2                !
 ! D177  D(19,18,28,55)        -63.3821         estimate D2E/DX2                !
 ! D178  D(29,18,28,53)        -58.3425         estimate D2E/DX2                !
 ! D179  D(29,18,28,54)         60.5192         estimate D2E/DX2                !
 ! D180  D(29,18,28,55)       -179.1266         estimate D2E/DX2                !
 ! D181  D(17,18,29,56)         65.3842         estimate D2E/DX2                !
 ! D182  D(17,18,29,57)       -175.7371         estimate D2E/DX2                !
 ! D183  D(17,18,29,58)        -55.4226         estimate D2E/DX2                !
 ! D184  D(19,18,29,56)        178.0033         estimate D2E/DX2                !
 ! D185  D(19,18,29,57)        -63.118          estimate D2E/DX2                !
 ! D186  D(19,18,29,58)         57.1965         estimate D2E/DX2                !
 ! D187  D(28,18,29,56)        -65.1792         estimate D2E/DX2                !
 ! D188  D(28,18,29,57)         53.6996         estimate D2E/DX2                !
 ! D189  D(28,18,29,58)        174.014          estimate D2E/DX2                !
 ! D190  D(5,22,23,24)         -31.9502         estimate D2E/DX2                !
 ! D191  D(5,22,23,25)        -155.1622         estimate D2E/DX2                !
 ! D192  D(5,22,23,47)          83.4046         estimate D2E/DX2                !
 ! D193  D(45,22,23,24)         85.8875         estimate D2E/DX2                !
 ! D194  D(45,22,23,25)        -37.3245         estimate D2E/DX2                !
 ! D195  D(45,22,23,47)       -158.7577         estimate D2E/DX2                !
 ! D196  D(46,22,23,24)       -152.4286         estimate D2E/DX2                !
 ! D197  D(46,22,23,25)         84.3594         estimate D2E/DX2                !
 ! D198  D(46,22,23,47)        -37.0738         estimate D2E/DX2                !
 ! D199  D(22,23,24,4)          15.0709         estimate D2E/DX2                !
 ! D200  D(25,23,24,4)         140.8504         estimate D2E/DX2                !
 ! D201  D(47,23,24,4)        -101.4075         estimate D2E/DX2                !
 ! D202  D(22,23,25,26)        -54.7679         estimate D2E/DX2                !
 ! D203  D(22,23,25,27)        127.6591         estimate D2E/DX2                !
 ! D204  D(24,23,25,26)       -174.4636         estimate D2E/DX2                !
 ! D205  D(24,23,25,27)          7.9634         estimate D2E/DX2                !
 ! D206  D(47,23,25,26)         67.6574         estimate D2E/DX2                !
 ! D207  D(47,23,25,27)       -109.9156         estimate D2E/DX2                !
 ! D208  D(23,25,26,48)        -54.7966         estimate D2E/DX2                !
 ! D209  D(23,25,26,49)         64.1323         estimate D2E/DX2                !
 ! D210  D(23,25,26,50)       -175.0495         estimate D2E/DX2                !
 ! D211  D(27,25,26,48)        122.7694         estimate D2E/DX2                !
 ! D212  D(27,25,26,49)       -118.3017         estimate D2E/DX2                !
 ! D213  D(27,25,26,50)          2.5165         estimate D2E/DX2                !
 ! D214  D(23,25,27,51)        179.1594         estimate D2E/DX2                !
 ! D215  D(23,25,27,52)          0.8522         estimate D2E/DX2                !
 ! D216  D(26,25,27,51)          1.7673         estimate D2E/DX2                !
 ! D217  D(26,25,27,52)       -176.5399         estimate D2E/DX2                !
 --------------------------------------------------------------------------------
 Trust Radius=3.00D-01 FncErr=1.00D-07 GrdErr=1.00D-06
 Number of steps in this run=    390 maximum allowed number of steps=    390.
 GradGradGradGradGradGradGradGradGradGradGradGradGradGradGradGradGradGrad

 Stoichiometry    C26H34O5
 Framework group  C1[X(C26H34O5)]
 Deg. of freedom   189
 Full point group                 C1      NOp   1
 Largest Abelian subgroup         C1      NOp   1
 Largest concise Abelian subgroup C1      NOp   1
                         Standard orientation:                         
 ---------------------------------------------------------------------
 Center     Atomic      Atomic             Coordinates (Angstroms)
 Number     Number       Type             X           Y           Z
 ---------------------------------------------------------------------
      1          6           0        1.438473    0.349739    3.224901
      2          6           0        1.223864    1.552338    2.679447
      3          6           0        1.376860    1.780362    1.189725
      4          6           0        1.485528    0.494366    0.312381
      5          6           0        1.332835   -0.891704    0.992026
      6          6           0        1.851390   -0.871575    2.451566
      7          6           0        0.461945    0.718977   -0.834453
      8          6           0       -0.926531    0.226699   -0.488671
      9          6           0       -1.201705   -0.829615    0.308402
     10          6           0       -0.092824   -1.508160    0.998313
     11          6           0       -2.616205   -1.261612    0.625665
     12          8           0       -3.007241   -1.270170    1.777679
     13          6           0       -3.481401   -1.743957   -0.538948
     14          6           0       -4.982486   -1.618511   -0.239318
     15          6           0       -3.077264   -3.206679   -0.835425
     16          8           0       -0.259164   -2.571618    1.580785
     17          6           0        0.166713    2.232510   -0.922573
     18          6           0       -1.242458    2.273150   -1.562100
     19          8           0       -1.861756    1.025234   -1.033676
     20          6           0        0.249118    2.649721    0.560319
     21          8           0        0.851257    0.090042   -2.041118
     22          6           0        2.251767   -1.778197    0.112838
     23          6           0        3.403848   -0.825782   -0.238287
     24          8           0        2.800916    0.480037   -0.299060
     25          6           0        4.153462   -1.150243   -1.512961
     26          6           0        4.707958   -2.551505   -1.590208
     27          6           0        4.351608   -0.243808   -2.475770
     28          6           0       -1.208619    2.170277   -3.088743
     29          6           0       -2.148509    3.417611   -1.116363
     30          1           0        0.906020    2.757032   -1.535924
     31          1           0        2.327844    2.306459    1.023823
     32          6           0        0.891546    2.759330    3.521738
     33          1           0        1.351395    0.236778    4.304597
     34          1           0        2.950017   -0.941058    2.453380
     35          1           0        1.490267   -1.782264    2.938688
     36          1           0       -3.230122   -1.137992   -1.419321
     37          1           0       -5.535444   -2.135090   -1.035526
     38          1           0       -5.197729   -2.150842    0.694422
     39          1           0       -2.004338   -3.299441   -1.033719
     40          1           0       -3.619951   -3.576087   -1.712649
     41          1           0       -3.317220   -3.851716    0.016845
     42          1           0        0.436218    3.719905    0.686400
     43          1           0       -0.698526    2.428166    1.062933
     44          1           0        1.822895    0.187350   -2.080021
     45          1           0        1.730276   -2.089945   -0.797587
     46          1           0        2.579221   -2.672876    0.648446
     47          1           0        4.136904   -0.819382    0.585283
     48          1           0        5.344824   -2.773016   -0.722766
     49          1           0        3.908926   -3.303698   -1.594050
     50          1           0        5.308622   -2.689184   -2.493618
     51          1           0        4.904294   -0.493712   -3.377444
     52          1           0        3.994488    0.776719   -2.383199
     53          1           0       -2.222088    2.015833   -3.473448
     54          1           0       -0.819259    3.100973   -3.517462
     55          1           0       -0.573590    1.342986   -3.410439
     56          1           0       -1.727885    4.374595   -1.444678
     57          1           0       -3.139478    3.308820   -1.568399
     58          1           0       -2.272061    3.446025   -0.031452
     59          1           0        0.872828    2.503660    4.585506
     60          1           0        1.632795    3.558883    3.378933
     61          1           0       -0.085467    3.187820    3.264041
     62          6           0       -5.474927   -0.171306   -0.130609
     63          1           0       -6.555694   -0.138016    0.048887
     64          1           0       -4.983494    0.350318    0.696907
     65          1           0       -5.271506    0.389270   -1.051626
 ---------------------------------------------------------------------
 Rotational constants (GHZ):      0.2028421      0.1246444      0.1188140
 Standard basis: 6-311+G(d) (5D, 7F)
 There are   784 symmetry adapted basis functions of A   symmetry.
 Integral buffers will be    131072 words long.
 Raffenetti 2 integral format.
 Two-electron integral symmetry is turned on.
   784 basis functions,  1286 primitive gaussians,   815 cartesian basis functions
   115 alpha electrons      115 beta electrons
       nuclear repulsion energy      3516.9748273065 Hartrees.
 NAtoms=   65 NActive=   65 NUniq=   65 SFac= 1.00D+00 NAtFMM=   50 NAOKFM=T Big=T
 One-electron integrals computed using PRISM.
 NBasis=   784 RedAO= T  NBF=   784
 NBsUse=   777 1.00D-06 NBFU=   777
 Harris functional with IExCor=  402 diagonalized for initial guess.
 ExpMin= 4.38D-02 ExpMax= 8.59D+03 ExpMxC= 1.30D+03 IAcc=2 IRadAn=         0 AccDes= 0.00D+00
 HarFok:  IExCor=  402 AccDes= 0.00D+00 IRadAn=         0 IDoV= 1
 ScaDFX=  1.000000  1.000000  1.000000  1.000000
 FoFCou: FMM=F IPFlag=           0 FMFlag=      100000 FMFlg1=        2001
         NFxFlg=           0 DoJE=T BraDBF=F KetDBF=T FulRan=T
         Omega=  0.000000  0.000000  1.000000  0.000000  0.000000 ICntrl=     500 IOpCl=  0
         NMat0=    1 NMatS0=    1 NMatT0=    0 NMatD0=    1 NMtDS0=    0 NMtDT0=    0
         I1Cent=           4 NGrid=           0.
 Petite list used in FoFCou.
 Initial guess orbital symmetries:
       Occupied  (A) (A) (A) (A) (A) (A) (A) (A) (A) (A) (A) (A)
                 (A) (A) (A) (A) (A) (A) (A) (A) (A) (A) (A) (A)
                 (A) (A) (A) (A) (A) (A) (A) (A) (A) (A) (A) (A)
                 (A) (A) (A) (A) (A) (A) (A) (A) (A) (A) (A) (A)
                 (A) (A) (A) (A) (A) (A) (A) (A) (A) (A) (A) (A)
                 (A) (A) (A) (A) (A) (A) (A) (A) (A) (A) (A) (A)
                 (A) (A) (A) (A) (A) (A) (A) (A) (A) (A) (A) (A)
                 (A) (A) (A) (A) (A) (A) (A) (A) (A) (A) (A) (A)
                 (A) (A) (A) (A) (A) (A) (A) (A) (A) (A) (A) (A)
                 (A) (A) (A) (A) (A) (A) (A)
       Virtual   (A) (A) (A) (A) (A) (A) (A) (A) (A) (A) (A) (A)
                 (A) (A) (A) (A) (A) (A) (A) (A) (A) (A) (A) (A)
                 (A) (A) (A) (A) (A) (A) (A) (A) (A) (A) (A) (A)
                 (A) (A) (A) (A) (A) (A) (A) (A) (A) (A) (A) (A)
                 (A) (A) (A) (A) (A) (A) (A) (A) (A) (A) (A) (A)
                 (A) (A) (A) (A) (A) (A) (A) (A) (A) (A) (A) (A)
                 (A) (A) (A) (A) (A) (A) (A) (A) (A) (A) (A) (A)
                 (A) (A) (A) (A) (A) (A) (A) (A) (A) (A) (A) (A)
                 (A) (A) (A) (A) (A) (A) (A) (A) (A) (A) (A) (A)
                 (A) (A) (A) (A) (A) (A) (A) (A) (A) (A) (A) (A)
                 (A) (A) (A) (A) (A) (A) (A) (A) (A) (A) (A) (A)
                 (A) (A) (A) (A) (A) (A) (A) (A) (A) (A) (A) (A)
                 (A) (A) (A) (A) (A) (A) (A) (A) (A) (A) (A) (A)
                 (A) (A) (A) (A) (A) (A) (A) (A) (A) (A) (A) (A)
                 (A) (A) (A) (A) (A) (A) (A) (A) (A) (A) (A) (A)
                 (A) (A) (A) (A) (A) (A) (A) (A) (A) (A) (A) (A)
                 (A) (A) (A) (A) (A) (A) (A) (A) (A) (A) (A) (A)
                 (A) (A) (A) (A) (A) (A) (A) (A) (A) (A) (A) (A)
                 (A) (A) (A) (A) (A) (A) (A) (A) (A) (A) (A) (A)
                 (A) (A) (A) (A) (A) (A) (A) (A) (A) (A) (A) (A)
                 (A) (A) (A) (A) (A) (A) (A) (A) (A) (A) (A) (A)
                 (A) (A) (A) (A) (A) (A) (A) (A) (A) (A) (A) (A)
                 (A) (A) (A) (A) (A) (A) (A) (A) (A) (A) (A) (A)
                 (A) (A) (A) (A) (A) (A) (A) (A) (A) (A) (A) (A)
                 (A) (A) (A) (A) (A) (A) (A) (A) (A) (A) (A) (A)
                 (A) (A) (A) (A) (A) (A) (A) (A) (A) (A) (A) (A)
                 (A) (A) (A) (A) (A) (A) (A) (A) (A) (A) (A) (A)
                 (A) (A) (A) (A) (A) (A) (A) (A) (A) (A) (A) (A)
                 (A) (A) (A) (A) (A) (A) (A) (A) (A) (A) (A) (A)
                 (A) (A) (A) (A) (A) (A) (A) (A) (A) (A) (A) (A)
                 (A) (A) (A) (A) (A) (A) (A) (A) (A) (A) (A) (A)
                 (A) (A) (A) (A) (A) (A) (A) (A) (A) (A) (A) (A)
                 (A) (A) (A) (A) (A) (A) (A) (A) (A) (A) (A) (A)
                 (A) (A) (A) (A) (A) (A) (A) (A) (A) (A) (A) (A)
                 (A) (A) (A) (A) (A) (A) (A) (A) (A) (A) (A) (A)
                 (A) (A) (A) (A) (A) (A) (A) (A) (A) (A) (A) (A)
                 (A) (A) (A) (A) (A) (A) (A) (A) (A) (A) (A) (A)
                 (A) (A) (A) (A) (A) (A) (A) (A) (A) (A) (A) (A)
                 (A) (A) (A) (A) (A) (A) (A) (A) (A) (A) (A) (A)
                 (A) (A) (A) (A) (A) (A) (A) (A) (A) (A) (A) (A)
                 (A) (A) (A) (A) (A) (A) (A) (A) (A) (A) (A) (A)
                 (A) (A) (A) (A) (A) (A) (A) (A) (A) (A) (A) (A)
                 (A) (A) (A) (A) (A) (A) (A) (A) (A) (A) (A) (A)
                 (A) (A) (A) (A) (A) (A) (A) (A) (A) (A) (A) (A)
                 (A) (A) (A) (A) (A) (A) (A) (A) (A) (A) (A) (A)
                 (A) (A) (A) (A) (A) (A) (A) (A) (A) (A) (A) (A)
                 (A) (A) (A) (A) (A) (A) (A) (A) (A) (A) (A) (A)
                 (A) (A) (A) (A) (A) (A) (A) (A) (A) (A) (A) (A)
                 (A) (A) (A) (A) (A) (A) (A) (A) (A) (A) (A) (A)
                 (A) (A) (A) (A) (A) (A) (A) (A) (A) (A) (A) (A)
                 (A) (A) (A) (A) (A) (A) (A) (A) (A) (A) (A) (A)
                 (A) (A) (A) (A) (A) (A) (A) (A) (A) (A) (A) (A)
                 (A) (A) (A) (A) (A) (A) (A) (A) (A) (A) (A) (A)
                 (A) (A) (A) (A) (A) (A) (A) (A) (A) (A) (A) (A)
                 (A) (A) (A) (A) (A) (A) (A) (A) (A) (A) (A) (A)
                 (A) (A)
 The electronic state of the initial guess is 1-A.
 Requested convergence on RMS density matrix=1.00D-08 within 128 cycles.
 Requested convergence on MAX density matrix=1.00D-06.
 Requested convergence on             energy=1.00D-06.
 No special actions if energy rises.
 SCF Done:  E(RB3LYP) =  -1387.64962300     A.U. after   17 cycles
             Convg  =    0.5834D-08             -V/T =  2.0043

 **********************************************************************

            Population analysis using the SCF density.

 **********************************************************************

 Orbital symmetries:
       Occupied  (A) (A) (A) (A) (A) (A) (A) (A) (A) (A) (A) (A)
                 (A) (A) (A) (A) (A) (A) (A) (A) (A) (A) (A) (A)
                 (A) (A) (A) (A) (A) (A) (A) (A) (A) (A) (A) (A)
                 (A) (A) (A) (A) (A) (A) (A) (A) (A) (A) (A) (A)
                 (A) (A) (A) (A) (A) (A) (A) (A) (A) (A) (A) (A)
                 (A) (A) (A) (A) (A) (A) (A) (A) (A) (A) (A) (A)
                 (A) (A) (A) (A) (A) (A) (A) (A) (A) (A) (A) (A)
                 (A) (A) (A) (A) (A) (A) (A) (A) (A) (A) (A) (A)
                 (A) (A) (A) (A) (A) (A) (A) (A) (A) (A) (A) (A)
                 (A) (A) (A) (A) (A) (A) (A)
       Virtual   (A) (A) (A) (A) (A) (A) (A) (A) (A) (A) (A) (A)
                 (A) (A) (A) (A) (A) (A) (A) (A) (A) (A) (A) (A)
                 (A) (A) (A) (A) (A) (A) (A) (A) (A) (A) (A) (A)
                 (A) (A) (A) (A) (A) (A) (A) (A) (A) (A) (A) (A)
                 (A) (A) (A) (A) (A) (A) (A) (A) (A) (A) (A) (A)
                 (A) (A) (A) (A) (A) (A) (A) (A) (A) (A) (A) (A)
                 (A) (A) (A) (A) (A) (A) (A) (A) (A) (A) (A) (A)
                 (A) (A) (A) (A) (A) (A) (A) (A) (A) (A) (A) (A)
                 (A) (A) (A) (A) (A) (A) (A) (A) (A) (A) (A) (A)
                 (A) (A) (A) (A) (A) (A) (A) (A) (A) (A) (A) (A)
                 (A) (A) (A) (A) (A) (A) (A) (A) (A) (A) (A) (A)
                 (A) (A) (A) (A) (A) (A) (A) (A) (A) (A) (A) (A)
                 (A) (A) (A) (A) (A) (A) (A) (A) (A) (A) (A) (A)
                 (A) (A) (A) (A) (A) (A) (A) (A) (A) (A) (A) (A)
                 (A) (A) (A) (A) (A) (A) (A) (A) (A) (A) (A) (A)
                 (A) (A) (A) (A) (A) (A) (A) (A) (A) (A) (A) (A)
                 (A) (A) (A) (A) (A) (A) (A) (A) (A) (A) (A) (A)
                 (A) (A) (A) (A) (A) (A) (A) (A) (A) (A) (A) (A)
                 (A) (A) (A) (A) (A) (A) (A) (A) (A) (A) (A) (A)
                 (A) (A) (A) (A) (A) (A) (A) (A) (A) (A) (A) (A)
                 (A) (A) (A) (A) (A) (A) (A) (A) (A) (A) (A) (A)
                 (A) (A) (A) (A) (A) (A) (A) (A) (A) (A) (A) (A)
                 (A) (A) (A) (A) (A) (A) (A) (A) (A) (A) (A) (A)
                 (A) (A) (A) (A) (A) (A) (A) (A) (A) (A) (A) (A)
                 (A) (A) (A) (A) (A) (A) (A) (A) (A) (A) (A) (A)
                 (A) (A) (A) (A) (A) (A) (A) (A) (A) (A) (A) (A)
                 (A) (A) (A) (A) (A) (A) (A) (A) (A) (A) (A) (A)
                 (A) (A) (A) (A) (A) (A) (A) (A) (A) (A) (A) (A)
                 (A) (A) (A) (A) (A) (A) (A) (A) (A) (A) (A) (A)
                 (A) (A) (A) (A) (A) (A) (A) (A) (A) (A) (A) (A)
                 (A) (A) (A) (A) (A) (A) (A) (A) (A) (A) (A) (A)
                 (A) (A) (A) (A) (A) (A) (A) (A) (A) (A) (A) (A)
                 (A) (A) (A) (A) (A) (A) (A) (A) (A) (A) (A) (A)
                 (A) (A) (A) (A) (A) (A) (A) (A) (A) (A) (A) (A)
                 (A) (A) (A) (A) (A) (A) (A) (A) (A) (A) (A) (A)
                 (A) (A) (A) (A) (A) (A) (A) (A) (A) (A) (A) (A)
                 (A) (A) (A) (A) (A) (A) (A) (A) (A) (A) (A) (A)
                 (A) (A) (A) (A) (A) (A) (A) (A) (A) (A) (A) (A)
                 (A) (A) (A) (A) (A) (A) (A) (A) (A) (A) (A) (A)
                 (A) (A) (A) (A) (A) (A) (A) (A) (A) (A) (A) (A)
                 (A) (A) (A) (A) (A) (A) (A) (A) (A) (A) (A) (A)
                 (A) (A) (A) (A) (A) (A) (A) (A) (A) (A) (A) (A)
                 (A) (A) (A) (A) (A) (A) (A) (A) (A) (A) (A) (A)
                 (A) (A) (A) (A) (A) (A) (A) (A) (A) (A) (A) (A)
                 (A) (A) (A) (A) (A) (A) (A) (A) (A) (A) (A) (A)
                 (A) (A) (A) (A) (A) (A) (A) (A) (A) (A) (A) (A)
                 (A) (A) (A) (A) (A) (A) (A) (A) (A) (A) (A) (A)
                 (A) (A) (A) (A) (A) (A) (A) (A) (A) (A) (A) (A)
                 (A) (A) (A) (A) (A) (A) (A) (A) (A) (A) (A) (A)
                 (A) (A) (A) (A) (A) (A) (A) (A) (A) (A) (A) (A)
                 (A) (A) (A) (A) (A) (A) (A) (A) (A) (A) (A) (A)
                 (A) (A) (A) (A) (A) (A) (A) (A) (A) (A) (A) (A)
                 (A) (A) (A) (A) (A) (A) (A) (A) (A) (A) (A) (A)
                 (A) (A) (A) (A) (A) (A) (A) (A) (A) (A) (A) (A)
                 (A) (A) (A) (A) (A) (A) (A) (A) (A) (A) (A) (A)
                 (A) (A)
 The electronic state is 1-A.
 Alpha  occ. eigenvalues --  -19.17828 -19.14784 -19.14072 -19.10859 -19.10558
 Alpha  occ. eigenvalues --  -10.26557 -10.26409 -10.26093 -10.25864 -10.25471
 Alpha  occ. eigenvalues --  -10.25342 -10.24454 -10.20743 -10.20006 -10.19971
 Alpha  occ. eigenvalues --  -10.19541 -10.18915 -10.18742 -10.18600 -10.18387
 Alpha  occ. eigenvalues --  -10.18100 -10.17990 -10.17833 -10.17468 -10.17252
 Alpha  occ. eigenvalues --  -10.17179 -10.17174 -10.16989 -10.15882 -10.15732
 Alpha  occ. eigenvalues --  -10.14767  -1.10229  -1.07236  -1.04491  -1.03914
 Alpha  occ. eigenvalues --   -1.03447  -0.87716  -0.84721  -0.83392  -0.82390
 Alpha  occ. eigenvalues --   -0.81130  -0.80360  -0.77709  -0.75139  -0.74135
 Alpha  occ. eigenvalues --   -0.72916  -0.72231  -0.70833  -0.70329  -0.68816
 Alpha  occ. eigenvalues --   -0.65830  -0.65087  -0.63864  -0.62695  -0.61581
 Alpha  occ. eigenvalues --   -0.60326  -0.59961  -0.57898  -0.56056  -0.54813
 Alpha  occ. eigenvalues --   -0.53787  -0.53324  -0.51593  -0.51276  -0.50213
 Alpha  occ. eigenvalues --   -0.49442  -0.48720  -0.47801  -0.47394  -0.46812
 Alpha  occ. eigenvalues --   -0.45964  -0.45461  -0.44762  -0.44437  -0.44152
 Alpha  occ. eigenvalues --   -0.44063  -0.43044  -0.42836  -0.42589  -0.42183
 Alpha  occ. eigenvalues --   -0.41986  -0.41672  -0.41334  -0.41147  -0.40913
 Alpha  occ. eigenvalues --   -0.40130  -0.39929  -0.39595  -0.39279  -0.38672
 Alpha  occ. eigenvalues --   -0.38527  -0.38388  -0.38263  -0.37943  -0.37469
 Alpha  occ. eigenvalues --   -0.37086  -0.36604  -0.36180  -0.35758  -0.35444
 Alpha  occ. eigenvalues --   -0.35016  -0.34820  -0.33910  -0.33540  -0.32999
 Alpha  occ. eigenvalues --   -0.32715  -0.32222  -0.31987  -0.29607  -0.27864
 Alpha  occ. eigenvalues --   -0.26938  -0.26041  -0.25323  -0.24406  -0.24150
 Alpha virt. eigenvalues --   -0.05962  -0.03037  -0.01614  -0.01216  -0.00159
 Alpha virt. eigenvalues --    0.00085   0.00622   0.00948   0.01519   0.01735
 Alpha virt. eigenvalues --    0.02028   0.02413   0.02961   0.03265   0.03515
 Alpha virt. eigenvalues --    0.03662   0.04266   0.04317   0.04440   0.04823
 Alpha virt. eigenvalues --    0.05095   0.05313   0.05841   0.05922   0.06411
 Alpha virt. eigenvalues --    0.06556   0.06805   0.07039   0.07306   0.07588
 Alpha virt. eigenvalues --    0.07645   0.07951   0.08285   0.08843   0.08882
 Alpha virt. eigenvalues --    0.08994   0.09169   0.09388   0.09605   0.09764
 Alpha virt. eigenvalues --    0.09963   0.10331   0.10527   0.10745   0.10821
 Alpha virt. eigenvalues --    0.11310   0.11807   0.12055   0.12155   0.12218
 Alpha virt. eigenvalues --    0.12717   0.12752   0.12915   0.13128   0.13458
 Alpha virt. eigenvalues --    0.13625   0.13780   0.14430   0.14706   0.15023
 Alpha virt. eigenvalues --    0.15067   0.15317   0.15598   0.15929   0.16102
 Alpha virt. eigenvalues --    0.16173   0.16509   0.16581   0.16749   0.17178
 Alpha virt. eigenvalues --    0.17326   0.17581   0.17650   0.17824   0.18148
 Alpha virt. eigenvalues --    0.18369   0.18478   0.18644   0.18763   0.18998
 Alpha virt. eigenvalues --    0.19357   0.19514   0.19679   0.19796   0.19969
 Alpha virt. eigenvalues --    0.20261   0.20344   0.20778   0.20830   0.21035
 Alpha virt. eigenvalues --    0.21257   0.21604   0.21685   0.21776   0.22182
 Alpha virt. eigenvalues --    0.22237   0.22420   0.22514   0.22749   0.23067
 Alpha virt. eigenvalues --    0.23144   0.23283   0.23498   0.23647   0.24132
 Alpha virt. eigenvalues --    0.24197   0.24270   0.24498   0.24815   0.24940
 Alpha virt. eigenvalues --    0.25136   0.25365   0.25632   0.25802   0.26019
 Alpha virt. eigenvalues --    0.26121   0.26409   0.26582   0.26645   0.26874
 Alpha virt. eigenvalues --    0.26928   0.27468   0.27745   0.28022   0.28095
 Alpha virt. eigenvalues --    0.28380   0.28442   0.28741   0.29019   0.29252
 Alpha virt. eigenvalues --    0.29572   0.29842   0.30211   0.30448   0.30643
 Alpha virt. eigenvalues --    0.30827   0.31191   0.31563   0.31777   0.31972
 Alpha virt. eigenvalues --    0.32130   0.32516   0.32850   0.33296   0.33788
 Alpha virt. eigenvalues --    0.33948   0.34175   0.34401   0.34586   0.34960
 Alpha virt. eigenvalues --    0.35389   0.35773   0.36140   0.36273   0.37027
 Alpha virt. eigenvalues --    0.37344   0.37599   0.37719   0.37973   0.38389
 Alpha virt. eigenvalues --    0.39002   0.39327   0.39693   0.40096   0.40716
 Alpha virt. eigenvalues --    0.40856   0.41063   0.41487   0.41746   0.42103
 Alpha virt. eigenvalues --    0.42146   0.43069   0.43930   0.44019   0.44232
 Alpha virt. eigenvalues --    0.44486   0.44757   0.45159   0.45478   0.45699
 Alpha virt. eigenvalues --    0.46124   0.46394   0.46800   0.47103   0.47558
 Alpha virt. eigenvalues --    0.47793   0.48044   0.48310   0.48928   0.49751
 Alpha virt. eigenvalues --    0.50230   0.50582   0.50608   0.51201   0.51467
 Alpha virt. eigenvalues --    0.52004   0.53067   0.53546   0.53738   0.54124
 Alpha virt. eigenvalues --    0.54605   0.54748   0.54965   0.55611   0.56017
 Alpha virt. eigenvalues --    0.56562   0.56895   0.57617   0.57759   0.58126
 Alpha virt. eigenvalues --    0.58369   0.58645   0.59249   0.59380   0.59876
 Alpha virt. eigenvalues --    0.60168   0.60332   0.60862   0.61905   0.62265
 Alpha virt. eigenvalues --    0.62281   0.63073   0.63452   0.63727   0.64185
 Alpha virt. eigenvalues --    0.64632   0.64697   0.65145   0.65347   0.65566
 Alpha virt. eigenvalues --    0.66286   0.66389   0.66603   0.67175   0.67406
 Alpha virt. eigenvalues --    0.67505   0.67914   0.68363   0.68797   0.69137
 Alpha virt. eigenvalues --    0.69253   0.69444   0.69812   0.69961   0.70039
 Alpha virt. eigenvalues --    0.70400   0.70490   0.70990   0.71277   0.71631
 Alpha virt. eigenvalues --    0.72305   0.72358   0.72743   0.72859   0.73173
 Alpha virt. eigenvalues --    0.73967   0.74040   0.74216   0.74581   0.75137
 Alpha virt. eigenvalues --    0.75352   0.75740   0.75994   0.76315   0.76640
 Alpha virt. eigenvalues --    0.77018   0.77555   0.78011   0.78658   0.78924
 Alpha virt. eigenvalues --    0.79236   0.79499   0.79883   0.80187   0.80721
 Alpha virt. eigenvalues --    0.81454   0.81545   0.81783   0.82123   0.82727
 Alpha virt. eigenvalues --    0.82888   0.83572   0.84067   0.85067   0.85128
 Alpha virt. eigenvalues --    0.85839   0.86758   0.87461   0.88492   0.89091
 Alpha virt. eigenvalues --    0.89390   0.90420   0.90935   0.91762   0.92155
 Alpha virt. eigenvalues --    0.93946   0.94424   0.95538   0.95688   0.96394
 Alpha virt. eigenvalues --    0.97004   0.98278   0.99335   0.99735   1.01277
 Alpha virt. eigenvalues --    1.01817   1.03147   1.03955   1.04660   1.05413
 Alpha virt. eigenvalues --    1.06478   1.07026   1.08444   1.08607   1.09882
 Alpha virt. eigenvalues --    1.10121   1.11834   1.12920   1.13291   1.14149
 Alpha virt. eigenvalues --    1.15287   1.15700   1.16697   1.17407   1.18790
 Alpha virt. eigenvalues --    1.20271   1.21043   1.21517   1.23382   1.24232
 Alpha virt. eigenvalues --    1.24297   1.25556   1.27005   1.27233   1.27284
 Alpha virt. eigenvalues --    1.29064   1.29801   1.30281   1.31641   1.32588
 Alpha virt. eigenvalues --    1.32626   1.34199   1.34284   1.35225   1.35439
 Alpha virt. eigenvalues --    1.36739   1.36959   1.37840   1.38885   1.39839
 Alpha virt. eigenvalues --    1.40104   1.41244   1.41872   1.42429   1.44411
 Alpha virt. eigenvalues --    1.44658   1.46399   1.47518   1.47789   1.49050
 Alpha virt. eigenvalues --    1.49650   1.50271   1.51610   1.52027   1.52700
 Alpha virt. eigenvalues --    1.53390   1.53837   1.54529   1.54860   1.55525
 Alpha virt. eigenvalues --    1.56388   1.56725   1.57252   1.57978   1.58155
 Alpha virt. eigenvalues --    1.58652   1.59206   1.60045   1.60355   1.60423
 Alpha virt. eigenvalues --    1.61003   1.61258   1.61675   1.62364   1.62834
 Alpha virt. eigenvalues --    1.63003   1.63468   1.64138   1.64635   1.65153
 Alpha virt. eigenvalues --    1.65371   1.66102   1.66334   1.66970   1.67037
 Alpha virt. eigenvalues --    1.67645   1.67821   1.68799   1.69467   1.69946
 Alpha virt. eigenvalues --    1.70933   1.71138   1.71949   1.72190   1.72796
 Alpha virt. eigenvalues --    1.73570   1.74420   1.75237   1.76040   1.76129
 Alpha virt. eigenvalues --    1.77175   1.77431   1.78204   1.78587   1.79263
 Alpha virt. eigenvalues --    1.79646   1.81026   1.82471   1.82843   1.83785
 Alpha virt. eigenvalues --    1.84377   1.85050   1.86037   1.86887   1.87253
 Alpha virt. eigenvalues --    1.88068   1.89299   1.89642   1.90883   1.91132
 Alpha virt. eigenvalues --    1.91854   1.93287   1.94369   1.94924   1.95481
 Alpha virt. eigenvalues --    1.96973   1.97143   1.98760   1.99574   2.00323
 Alpha virt. eigenvalues --    2.01817   2.03300   2.03834   2.05042   2.06135
 Alpha virt. eigenvalues --    2.06991   2.08356   2.08947   2.10130   2.12186
 Alpha virt. eigenvalues --    2.12586   2.13758   2.14158   2.15016   2.16354
 Alpha virt. eigenvalues --    2.17611   2.19569   2.20921   2.21536   2.22107
 Alpha virt. eigenvalues --    2.22538   2.22905   2.24329   2.26428   2.27435
 Alpha virt. eigenvalues --    2.28697   2.29284   2.31337   2.31668   2.33250
 Alpha virt. eigenvalues --    2.34718   2.37068   2.38484   2.39348   2.43546
 Alpha virt. eigenvalues --    2.44527   2.47812   2.48214   2.49808   2.51457
 Alpha virt. eigenvalues --    2.51770   2.52630   2.53409   2.53826   2.54544
 Alpha virt. eigenvalues --    2.55570   2.55706   2.57163   2.57561   2.57587
 Alpha virt. eigenvalues --    2.58663   2.59410   2.60100   2.60646   2.61633
 Alpha virt. eigenvalues --    2.62784   2.63015   2.64500   2.64690   2.66071
 Alpha virt. eigenvalues --    2.66936   2.67581   2.68465   2.69634   2.70953
 Alpha virt. eigenvalues --    2.71348   2.71787   2.72925   2.73461   2.74800
 Alpha virt. eigenvalues --    2.75748   2.77464   2.79092   2.83714   2.84681
 Alpha virt. eigenvalues --    2.86035   2.87610   2.88328   2.89508   2.91019
 Alpha virt. eigenvalues --    2.91689   2.92654   2.93402   2.94605   2.95768
 Alpha virt. eigenvalues --    2.96760   2.97838   2.98503   2.99010   2.99591
 Alpha virt. eigenvalues --    3.00285   3.00603   3.01918   3.02738   3.03940
 Alpha virt. eigenvalues --    3.04929   3.06629   3.07206   3.07550   3.08777
 Alpha virt. eigenvalues --    3.09013   3.10989   3.12196   3.12676   3.13786
 Alpha virt. eigenvalues --    3.14078   3.15191   3.15938   3.16514   3.17219
 Alpha virt. eigenvalues --    3.17795   3.19653   3.20492   3.20937   3.21246
 Alpha virt. eigenvalues --    3.22711   3.24195   3.24833   3.25363   3.26109
 Alpha virt. eigenvalues --    3.27271   3.27717   3.28223   3.29008   3.29697
 Alpha virt. eigenvalues --    3.29828   3.31426   3.32743   3.32918   3.33931
 Alpha virt. eigenvalues --    3.34559   3.35922   3.36860   3.37878   3.38775
 Alpha virt. eigenvalues --    3.39722   3.40406   3.41658   3.42505   3.43595
 Alpha virt. eigenvalues --    3.46196   3.47792   3.50511   3.51455   3.53555
 Alpha virt. eigenvalues --    3.54964   3.60544   3.62383   3.64867   3.74622
 Alpha virt. eigenvalues --    3.76530   3.78822   3.79947   3.87812   3.89174
 Alpha virt. eigenvalues --    3.89885   3.96604   3.97916   4.01118   4.02496
 Alpha virt. eigenvalues --    4.05293   4.06987   4.07848   4.10607   4.12384
 Alpha virt. eigenvalues --    4.17092   4.17949   4.19832   4.21620   4.22211
 Alpha virt. eigenvalues --    4.23344   4.24484   4.29252   4.32274   4.44763
 Alpha virt. eigenvalues --    4.61136   5.15007   5.16252   5.17831   5.22134
 Alpha virt. eigenvalues --    5.23400   5.28293   5.32486   5.32898   5.42936
 Alpha virt. eigenvalues --    5.43895   5.57561   5.67864   5.74361   5.78273
 Alpha virt. eigenvalues --    5.82708  23.46278  23.47266  23.51049  23.53627
 Alpha virt. eigenvalues --   23.62022  23.63702  23.66131  23.66701  23.68402
 Alpha virt. eigenvalues --   23.70302  23.73130  23.74332  23.76755  23.78430
 Alpha virt. eigenvalues --   23.79373  23.79610  23.82082  23.84335  23.86301
 Alpha virt. eigenvalues --   23.87133  23.89405  23.90009  23.96077  24.18707
 Alpha virt. eigenvalues --   24.19026  24.22346  49.98892  50.00059  50.02499
 Alpha virt. eigenvalues --   50.03300  50.06884
          Condensed to atoms (all electrons):
 Mulliken atomic charges:
              1
     1  C   -0.453743
     2  C    0.754524
     3  C   -0.245357
     4  C   -0.337039
     5  C    1.263432
     6  C   -0.746869
     7  C   -1.317005
     8  C   -0.058898
     9  C    0.202659
    10  C   -0.438859
    11  C    0.221726
    12  O   -0.176295
    13  C    0.022855
    14  C   -0.320130
    15  C   -1.036265
    16  O   -0.152667
    17  C    0.130708
    18  C    0.455991
    19  O    0.166965
    20  C   -1.233920
    21  O    0.027824
    22  C   -0.904882
    23  C   -0.345918
    24  O   -0.048363
    25  C    1.069532
    26  C   -1.132533
    27  C   -0.779780
    28  C   -0.699600
    29  C   -0.677814
    30  H    0.229412
    31  H    0.274451
    32  C   -1.073726
    33  H    0.205211
    34  H    0.243603
    35  H    0.279355
    36  H    0.235602
    37  H    0.220562
    38  H    0.261408
    39  H    0.276283
    40  H    0.255259
    41  H    0.280226
    42  H    0.268276
    43  H    0.277780
    44  H    0.270844
    45  H    0.298106
    46  H    0.283286
    47  H    0.247325
    48  H    0.261200
    49  H    0.267563
    50  H    0.258802
    51  H    0.223371
    52  H    0.245094
    53  H    0.262561
    54  H    0.247903
    55  H    0.310610
    56  H    0.262560
    57  H    0.273042
    58  H    0.262696
    59  H    0.257274
    60  H    0.254870
    61  H    0.255396
    62  C   -0.917341
    63  H    0.242046
    64  H    0.260398
    65  H    0.228413
 Sum of Mulliken atomic charges =   0.00000
 Mulliken charges with hydrogens summed into heavy atoms:
              1
     1  C   -0.248532
     2  C    0.754524
     3  C    0.029094
     4  C   -0.337039
     5  C    1.263432
     6  C   -0.223911
     7  C   -1.317005
     8  C   -0.058898
     9  C    0.202659
    10  C   -0.438859
    11  C    0.221726
    12  O   -0.176295
    13  C    0.258456
    14  C    0.161841
    15  C   -0.224497
    16  O   -0.152667
    17  C    0.360120
    18  C    0.455991
    19  O    0.166965
    20  C   -0.687863
    21  O    0.298668
    22  C   -0.323491
    23  C   -0.098594
    24  O   -0.048363
    25  C    1.069532
    26  C   -0.344968
    27  C   -0.311316
    28  C    0.121473
    29  C    0.120484
    32  C   -0.306186
    62  C   -0.186483
 Sum of Mulliken charges with hydrogens summed into heavy atoms =   0.00000
 Electronic spatial extent (au):  <R**2>=          11398.1135
 Charge=              0.0000 electrons
 Dipole moment (field-independent basis, Debye):
    X=              3.4961    Y=              3.9594    Z=             -3.0232  Tot=              6.0860
 Quadrupole moment (field-independent basis, Debye-Ang):
   XX=           -186.8919   YY=           -182.2334   ZZ=           -191.7404
   XY=             -9.9628   XZ=              8.9860   YZ=              5.6953
 Traceless Quadrupole moment (field-independent basis, Debye-Ang):
   XX=              0.0634   YY=              4.7218   ZZ=             -4.7851
   XY=             -9.9628   XZ=              8.9860   YZ=              5.6953
 Octapole moment (field-independent basis, Debye-Ang**2):
  XXX=             24.4276  YYY=             44.4645  ZZZ=             -5.3225  XYY=             10.0351
  XXY=            -33.9750  XXZ=            -38.5172  XZZ=             27.4965  YZZ=             23.2399
  YYZ=            -30.9236  XYZ=             -7.4506
 Hexadecapole moment (field-independent basis, Debye-Ang**3):
 XXXX=          -8349.3978 YYYY=          -3990.7449 ZZZZ=          -3351.5656 XXXY=           -122.1954
 XXXZ=              3.5352 YYYX=            -18.7987 YYYZ=             -0.5655 ZZZX=              5.8488
 ZZZY=            -12.6481 XXYY=          -1983.0813 XXZZ=          -1935.9401 YYZZ=          -1234.2461
 XXYZ=             37.9077 YYXZ=             12.9156 ZZXY=            -43.7794
 N-N= 3.516974827306D+03 E-N=-1.026680381579D+04  KE= 1.381709768606D+03
 Calling FoFJK, ICntrl=      2127 FMM=T ISym2X=0 I1Cent= 0 IOpClX= 0 NMat=1 NMatS=1 NMatT=0.
 ***** Axes restored to original set *****
 -------------------------------------------------------------------
 Center     Atomic                   Forces (Hartrees/Bohr)
 Number     Number              X              Y              Z
 -------------------------------------------------------------------
      1        6          -0.000101379    0.002104144   -0.000883086
      2        6           0.000842263   -0.002011548    0.001059667
      3        6          -0.000545001    0.000271575   -0.000244148
      4        6          -0.000298242    0.001089835    0.000983396
      5        6           0.000140237   -0.000529081    0.000057356
      6        6          -0.000019562   -0.000065098   -0.000096839
      7        6          -0.002405333    0.000407011    0.001743727
      8        6          -0.002956637   -0.001665356    0.000513179
      9        6           0.001101036    0.001863740    0.000382683
     10        6          -0.001045999   -0.006354191    0.002220671
     11        6          -0.002939673   -0.000648632    0.006599550
     12        8           0.003202833    0.000881567   -0.008353969
     13        6          -0.000314414    0.000140346    0.000089465
     14        6           0.000104205   -0.000110433    0.000050300
     15        6           0.000165234   -0.000151214    0.000354639
     16        8           0.001271689    0.007050080   -0.003884968
     17        6           0.000391947    0.000249984   -0.000191866
     18        6           0.000058551    0.001682855   -0.000884404
     19        8           0.002445155   -0.002592240    0.001744939
     20        6          -0.000435950   -0.000019653    0.000231331
     21        8           0.006049460    0.002358027    0.000776006
     22        6           0.000095940   -0.000344405   -0.000380741
     23        6           0.001197978   -0.001988470    0.000030521
     24        8          -0.000011857   -0.000135492    0.000721652
     25        6           0.001107420    0.001157245   -0.001336681
     26        6          -0.000143913   -0.000224207    0.000191175
     27        6          -0.000384402   -0.001520311    0.001676125
     28        6           0.000228818    0.000129042    0.000448159
     29        6           0.000501689   -0.000245535    0.000033575
     30        1          -0.000919978   -0.000696055    0.000638841
     31        1          -0.001132024   -0.000594609    0.000560829
     32        6          -0.000190089    0.000351769   -0.000021418
     33        1          -0.000026162    0.000036253   -0.000871483
     34        1          -0.001682171   -0.000025340    0.000133886
     35        1           0.001170903    0.001439601   -0.000229008
     36        1          -0.000195471   -0.000692626    0.001084572
     37        1           0.000659347    0.000362806    0.001149357
     38        1          -0.000343141    0.000320687   -0.001543646
     39        1          -0.001680875   -0.000360702   -0.000010167
     40        1           0.000918953    0.000498931    0.001235714
     41        1           0.000474604    0.000598899   -0.001545201
     42        1          -0.000433090   -0.001503986   -0.000138786
     43        1           0.001434421    0.000572791   -0.000563986
     44        1          -0.004966199   -0.001492850   -0.002508358
     45        1           0.000834629   -0.000265475    0.001443440
     46        1          -0.000493404    0.001259334   -0.000727014
     47        1          -0.000940980    0.000410544   -0.001373765
     48        1          -0.000863274    0.000209411   -0.001359802
     49        1           0.001345574    0.001048544   -0.000075969
     50        1          -0.000831574    0.000008465    0.001471362
     51        1          -0.000494260    0.000292042    0.000838775
     52        1           0.000558644   -0.000882227   -0.000338758
     53        1           0.001559599    0.000281160    0.000214880
     54        1          -0.000545070   -0.001406092    0.000305537
     55        1          -0.001361614    0.001524915   -0.000264685
     56        1          -0.000813777   -0.001121043    0.000595038
     57        1           0.001452524    0.000482393    0.000725607
     58        1          -0.000057963    0.000273975   -0.001729003
     59        1          -0.000004046    0.000630276   -0.001609015
     60        1          -0.001071769   -0.001124273    0.000332019
     61        1           0.001513327   -0.000621953    0.000615681
     62        6           0.000224740    0.000003498   -0.000000513
     63        1           0.001500848    0.000194422   -0.000207962
     64        1          -0.001272219   -0.000213579   -0.001239106
[...]
                 (A) (A) (A) (A) (A) (A) (A) (A) (A) (A) (A) (A)
                 (A) (A) (A) (A) (A) (A) (A) (A) (A) (A) (A) (A)
                 (A) (A) (A) (A) (A) (A) (A) (A) (A) (A) (A) (A)
                 (A) (A) (A) (A) (A) (A) (A) (A) (A) (A) (A) (A)
                 (A) (A)
 The electronic state is 1-A.
 Alpha  occ. eigenvalues --  -19.17701 -19.14635 -19.13968 -19.10979 -19.10554
 Alpha  occ. eigenvalues --  -10.26354 -10.26337 -10.26042 -10.25884 -10.25398
 Alpha  occ. eigenvalues --  -10.25288 -10.24328 -10.20686 -10.19877 -10.19844
 Alpha  occ. eigenvalues --  -10.19411 -10.18764 -10.18652 -10.18422 -10.18263
 Alpha  occ. eigenvalues --  -10.17973 -10.17862 -10.17746 -10.17476 -10.17119
 Alpha  occ. eigenvalues --  -10.17085 -10.17058 -10.16880 -10.15776 -10.15695
 Alpha  occ. eigenvalues --  -10.14670  -1.10156  -1.07037  -1.04813  -1.03877
 Alpha  occ. eigenvalues --   -1.03814  -0.87731  -0.84748  -0.83425  -0.82424
 Alpha  occ. eigenvalues --   -0.81165  -0.80444  -0.77747  -0.75143  -0.74143
 Alpha  occ. eigenvalues --   -0.72969  -0.72263  -0.70870  -0.70351  -0.68836
 Alpha  occ. eigenvalues --   -0.65835  -0.65106  -0.63906  -0.62756  -0.61558
 Alpha  occ. eigenvalues --   -0.60366  -0.60025  -0.57903  -0.56107  -0.54858
 Alpha  occ. eigenvalues --   -0.53761  -0.53332  -0.51566  -0.51289  -0.50215
 Alpha  occ. eigenvalues --   -0.49500  -0.48728  -0.47783  -0.47415  -0.46795
 Alpha  occ. eigenvalues --   -0.45987  -0.45514  -0.44753  -0.44492  -0.44199
 Alpha  occ. eigenvalues --   -0.44138  -0.43041  -0.42843  -0.42614  -0.42234
 Alpha  occ. eigenvalues --   -0.42028  -0.41684  -0.41336  -0.41160  -0.40916
 Alpha  occ. eigenvalues --   -0.40129  -0.39905  -0.39579  -0.39249  -0.38655
 Alpha  occ. eigenvalues --   -0.38556  -0.38418  -0.38255  -0.37944  -0.37487
 Alpha  occ. eigenvalues --   -0.37050  -0.36756  -0.36177  -0.35805  -0.35475
 Alpha  occ. eigenvalues --   -0.34958  -0.34754  -0.33879  -0.33539  -0.32975
 Alpha  occ. eigenvalues --   -0.32816  -0.32249  -0.32011  -0.29535  -0.27809
 Alpha  occ. eigenvalues --   -0.26888  -0.26001  -0.25302  -0.24379  -0.24212
 Alpha virt. eigenvalues --   -0.05764  -0.02811  -0.01516  -0.01176  -0.00144
 Alpha virt. eigenvalues --    0.00142   0.00651   0.01028   0.01549   0.01747
 Alpha virt. eigenvalues --    0.02027   0.02420   0.02982   0.03266   0.03521
 Alpha virt. eigenvalues --    0.03658   0.04311   0.04323   0.04446   0.04783
 Alpha virt. eigenvalues --    0.05053   0.05330   0.05867   0.05952   0.06435
 Alpha virt. eigenvalues --    0.06511   0.06837   0.07074   0.07306   0.07622
 Alpha virt. eigenvalues --    0.07669   0.07940   0.08213   0.08814   0.08846
 Alpha virt. eigenvalues --    0.09009   0.09199   0.09390   0.09603   0.09827
 Alpha virt. eigenvalues --    0.09977   0.10337   0.10591   0.10773   0.10898
 Alpha virt. eigenvalues --    0.11342   0.11802   0.12085   0.12196   0.12261
 Alpha virt. eigenvalues --    0.12683   0.12764   0.12990   0.13203   0.13447
 Alpha virt. eigenvalues --    0.13532   0.13774   0.14420   0.14744   0.15047
 Alpha virt. eigenvalues --    0.15156   0.15352   0.15640   0.15939   0.16103
 Alpha virt. eigenvalues --    0.16219   0.16510   0.16553   0.16740   0.17160
 Alpha virt. eigenvalues --    0.17391   0.17659   0.17767   0.17893   0.18165
 Alpha virt. eigenvalues --    0.18345   0.18478   0.18663   0.18855   0.19004
 Alpha virt. eigenvalues --    0.19410   0.19559   0.19683   0.19849   0.19975
 Alpha virt. eigenvalues --    0.20266   0.20392   0.20814   0.20899   0.21084
 Alpha virt. eigenvalues --    0.21377   0.21728   0.21803   0.21851   0.22224
 Alpha virt. eigenvalues --    0.22305   0.22414   0.22532   0.22833   0.23108
 Alpha virt. eigenvalues --    0.23195   0.23279   0.23635   0.23648   0.24146
 Alpha virt. eigenvalues --    0.24255   0.24396   0.24467   0.24925   0.25072
 Alpha virt. eigenvalues --    0.25212   0.25372   0.25641   0.25796   0.26065
 Alpha virt. eigenvalues --    0.26145   0.26417   0.26627   0.26708   0.26951
 Alpha virt. eigenvalues --    0.27046   0.27578   0.27812   0.28067   0.28175
 Alpha virt. eigenvalues --    0.28398   0.28610   0.28894   0.29056   0.29417
 Alpha virt. eigenvalues --    0.29593   0.29848   0.30255   0.30465   0.30762
 Alpha virt. eigenvalues --    0.30876   0.31192   0.31583   0.31882   0.32087
 Alpha virt. eigenvalues --    0.32335   0.32725   0.33060   0.33369   0.33748
 Alpha virt. eigenvalues --    0.34034   0.34180   0.34288   0.34646   0.35036
 Alpha virt. eigenvalues --    0.35473   0.35863   0.36339   0.36387   0.37023
 Alpha virt. eigenvalues --    0.37489   0.37658   0.37770   0.37946   0.38469
 Alpha virt. eigenvalues --    0.39001   0.39433   0.39787   0.40074   0.40552
 Alpha virt. eigenvalues --    0.40764   0.41230   0.41549   0.41678   0.42113
 Alpha virt. eigenvalues --    0.42230   0.43126   0.43843   0.44003   0.44340
 Alpha virt. eigenvalues --    0.44550   0.44949   0.45238   0.45433   0.45704
 Alpha virt. eigenvalues --    0.46249   0.46343   0.46776   0.47074   0.47777
 Alpha virt. eigenvalues --    0.47831   0.48264   0.48464   0.49027   0.49914
 Alpha virt. eigenvalues --    0.50183   0.50598   0.50638   0.51121   0.51789
 Alpha virt. eigenvalues --    0.51968   0.53087   0.53461   0.53584   0.54292
 Alpha virt. eigenvalues --    0.54598   0.54834   0.55076   0.55447   0.56127
 Alpha virt. eigenvalues --    0.56546   0.56975   0.57487   0.57812   0.58219
 Alpha virt. eigenvalues --    0.58510   0.58782   0.59264   0.59663   0.59758
 Alpha virt. eigenvalues --    0.60398   0.60435   0.61005   0.61853   0.62295
 Alpha virt. eigenvalues --    0.62431   0.63091   0.63545   0.63733   0.64294
 Alpha virt. eigenvalues --    0.64523   0.64774   0.65448   0.65472   0.65718
 Alpha virt. eigenvalues --    0.66354   0.66473   0.66680   0.67244   0.67580
 Alpha virt. eigenvalues --    0.67696   0.67980   0.68421   0.68967   0.69099
 Alpha virt. eigenvalues --    0.69308   0.69570   0.69888   0.69975   0.70213
 Alpha virt. eigenvalues --    0.70502   0.70660   0.71033   0.71383   0.71797
 Alpha virt. eigenvalues --    0.72158   0.72539   0.72754   0.72933   0.73196
 Alpha virt. eigenvalues --    0.73969   0.74111   0.74322   0.74575   0.75005
 Alpha virt. eigenvalues --    0.75461   0.75853   0.76163   0.76585   0.76811
 Alpha virt. eigenvalues --    0.77137   0.77618   0.78307   0.78804   0.79076
 Alpha virt. eigenvalues --    0.79461   0.79567   0.80105   0.80318   0.80746
 Alpha virt. eigenvalues --    0.81399   0.81682   0.82047   0.82330   0.82605
 Alpha virt. eigenvalues --    0.83031   0.83661   0.84058   0.84963   0.85086
 Alpha virt. eigenvalues --    0.85733   0.86720   0.87548   0.88246   0.89168
 Alpha virt. eigenvalues --    0.89222   0.90478   0.90988   0.91897   0.92215
 Alpha virt. eigenvalues --    0.93928   0.94403   0.95647   0.95888   0.96465
 Alpha virt. eigenvalues --    0.97105   0.98427   0.99448   0.99744   1.01175
 Alpha virt. eigenvalues --    1.01890   1.03060   1.03642   1.04679   1.05402
 Alpha virt. eigenvalues --    1.06624   1.07101   1.08547   1.08619   1.10025
 Alpha virt. eigenvalues --    1.10228   1.11873   1.12819   1.13418   1.14259
 Alpha virt. eigenvalues --    1.15331   1.15832   1.16649   1.17443   1.18723
 Alpha virt. eigenvalues --    1.20566   1.21170   1.21388   1.23398   1.24130
 Alpha virt. eigenvalues --    1.24474   1.25778   1.26409   1.27218   1.27442
 Alpha virt. eigenvalues --    1.29334   1.29509   1.29949   1.31527   1.32506
 Alpha virt. eigenvalues --    1.32666   1.34005   1.34376   1.35290   1.35425
 Alpha virt. eigenvalues --    1.36741   1.37056   1.37526   1.38476   1.39481
 Alpha virt. eigenvalues --    1.40517   1.41561   1.42012   1.42412   1.44436
 Alpha virt. eigenvalues --    1.44696   1.46293   1.47653   1.47934   1.48982
 Alpha virt. eigenvalues --    1.50007   1.50288   1.51627   1.51921   1.52579
 Alpha virt. eigenvalues --    1.53338   1.53954   1.54660   1.54973   1.55567
 Alpha virt. eigenvalues --    1.56383   1.56836   1.57306   1.57951   1.58226
 Alpha virt. eigenvalues --    1.58548   1.59287   1.60227   1.60466   1.60561
 Alpha virt. eigenvalues --    1.61216   1.61463   1.61820   1.62406   1.62677
 Alpha virt. eigenvalues --    1.63089   1.63595   1.64175   1.64581   1.65143
 Alpha virt. eigenvalues --    1.65416   1.66282   1.66548   1.66836   1.67137
 Alpha virt. eigenvalues --    1.67499   1.67896   1.68922   1.69276   1.69987
 Alpha virt. eigenvalues --    1.70758   1.71296   1.72156   1.72351   1.72894
 Alpha virt. eigenvalues --    1.73733   1.74315   1.74885   1.75959   1.76358
 Alpha virt. eigenvalues --    1.77135   1.77529   1.78169   1.78568   1.79315
 Alpha virt. eigenvalues --    1.79715   1.81169   1.82483   1.83020   1.83875
 Alpha virt. eigenvalues --    1.84710   1.84949   1.86127   1.87044   1.87194
 Alpha virt. eigenvalues --    1.88196   1.88789   1.89581   1.90848   1.91194
 Alpha virt. eigenvalues --    1.91950   1.93581   1.94286   1.94893   1.95452
 Alpha virt. eigenvalues --    1.96968   1.97331   1.98845   1.99962   2.00551
 Alpha virt. eigenvalues --    2.02222   2.03458   2.04064   2.05501   2.06290
 Alpha virt. eigenvalues --    2.07022   2.08526   2.08982   2.10303   2.12370
 Alpha virt. eigenvalues --    2.12795   2.14021   2.14368   2.15144   2.16349
 Alpha virt. eigenvalues --    2.17839   2.19689   2.21268   2.21601   2.22209
 Alpha virt. eigenvalues --    2.22766   2.23089   2.24764   2.26821   2.27549
 Alpha virt. eigenvalues --    2.28994   2.29454   2.31821   2.32231   2.33521
 Alpha virt. eigenvalues --    2.34949   2.37259   2.38479   2.39579   2.43663
 Alpha virt. eigenvalues --    2.44726   2.47422   2.47935   2.49905   2.51524
 Alpha virt. eigenvalues --    2.51807   2.52497   2.53495   2.54000   2.54910
 Alpha virt. eigenvalues --    2.55635   2.55954   2.57271   2.57715   2.57897
 Alpha virt. eigenvalues --    2.58708   2.59324   2.59876   2.60890   2.61495
 Alpha virt. eigenvalues --    2.62637   2.63309   2.64746   2.65035   2.65909
 Alpha virt. eigenvalues --    2.67032   2.67773   2.68834   2.69695   2.71007
 Alpha virt. eigenvalues --    2.71403   2.72015   2.72741   2.73524   2.75005
 Alpha virt. eigenvalues --    2.76010   2.77860   2.79059   2.83905   2.84799
 Alpha virt. eigenvalues --    2.85885   2.87448   2.88163   2.89779   2.91061
 Alpha virt. eigenvalues --    2.91609   2.92864   2.93407   2.94849   2.95879
 Alpha virt. eigenvalues --    2.96978   2.97952   2.98878   2.99184   2.99773
 Alpha virt. eigenvalues --    3.00474   3.00983   3.02136   3.02825   3.04090
 Alpha virt. eigenvalues --    3.05112   3.06849   3.07467   3.07703   3.09127
 Alpha virt. eigenvalues --    3.09288   3.11270   3.12535   3.12936   3.13943
 Alpha virt. eigenvalues --    3.14351   3.15483   3.16205   3.16570   3.17513
 Alpha virt. eigenvalues --    3.17983   3.20032   3.20607   3.21177   3.21471
 Alpha virt. eigenvalues --    3.23065   3.24887   3.25262   3.25791   3.26649
 Alpha virt. eigenvalues --    3.27737   3.28165   3.28609   3.29183   3.29838
 Alpha virt. eigenvalues --    3.30201   3.31728   3.32754   3.33527   3.33976
 Alpha virt. eigenvalues --    3.34978   3.36205   3.37151   3.38255   3.39332
 Alpha virt. eigenvalues --    3.40079   3.41115   3.42094   3.42790   3.44308
 Alpha virt. eigenvalues --    3.46533   3.48376   3.50906   3.51871   3.53897
 Alpha virt. eigenvalues --    3.55309   3.60992   3.62474   3.65488   3.75224
 Alpha virt. eigenvalues --    3.76984   3.79012   3.80301   3.88030   3.89544
 Alpha virt. eigenvalues --    3.90052   3.97207   3.98237   4.01315   4.02925
 Alpha virt. eigenvalues --    4.05417   4.07022   4.07786   4.10748   4.12498
 Alpha virt. eigenvalues --    4.17177   4.18141   4.20095   4.21715   4.22490
 Alpha virt. eigenvalues --    4.23619   4.24521   4.28798   4.32522   4.45249
 Alpha virt. eigenvalues --    4.61609   5.14804   5.16041   5.17668   5.21924
 Alpha virt. eigenvalues --    5.23539   5.28202   5.32723   5.33304   5.42519
 Alpha virt. eigenvalues --    5.43700   5.57684   5.68299   5.74823   5.78522
 Alpha virt. eigenvalues --    5.83111  23.46199  23.47118  23.51034  23.53724
 Alpha virt. eigenvalues --   23.62350  23.63932  23.66403  23.66998  23.68615
 Alpha virt. eigenvalues --   23.70644  23.73254  23.74579  23.77150  23.78601
 Alpha virt. eigenvalues --   23.79634  23.79885  23.82425  23.84799  23.86629
 Alpha virt. eigenvalues --   23.87285  23.89692  23.90796  23.96752  24.20242
 Alpha virt. eigenvalues --   24.20542  24.23790  49.99106  49.99924  50.02600
 Alpha virt. eigenvalues --   50.03429  50.07313
          Condensed to atoms (all electrons):
 Mulliken atomic charges:
              1
     1  C   -0.376216
     2  C    0.732656
     3  C   -0.298066
     4  C   -0.441907
     5  C    1.377754
     6  C   -0.764364
     7  C   -1.272548
     8  C   -0.066359
     9  C    0.229677
    10  C   -0.473858
    11  C    0.236548
    12  O   -0.173027
    13  C   -0.002985
    14  C   -0.286289
    15  C   -1.036287
    16  O   -0.151112
    17  C    0.071157
    18  C    0.505043
    19  O    0.163939
    20  C   -1.204203
    21  O    0.015248
    22  C   -0.929977
    23  C   -0.351011
    24  O   -0.043742
    25  C    1.075576
    26  C   -1.144596
    27  C   -0.773474
    28  C   -0.708744
    29  C   -0.685007
    30  H    0.229242
    31  H    0.275313
    32  C   -1.082855
    33  H    0.204746
    34  H    0.244253
    35  H    0.278866
    36  H    0.239835
    37  H    0.220249
    38  H    0.260301
    39  H    0.279403
    40  H    0.255763
    41  H    0.280535
    42  H    0.268257
    43  H    0.279429
    44  H    0.275705
    45  H    0.296454
    46  H    0.283790
    47  H    0.247764
    48  H    0.260872
    49  H    0.267997
    50  H    0.259407
    51  H    0.223389
    52  H    0.243229
    53  H    0.263234
    54  H    0.249236
    55  H    0.309037
    56  H    0.263684
    57  H    0.272400
    58  H    0.263434
    59  H    0.257737
    60  H    0.254421
    61  H    0.255888
    62  C   -0.938750
    63  H    0.242371
    64  H    0.262196
    65  H    0.229342
 Sum of Mulliken atomic charges =   0.00000
 Mulliken charges with hydrogens summed into heavy atoms:
              1
     1  C   -0.171470
     2  C    0.732656
     3  C   -0.022753
     4  C   -0.441907
     5  C    1.377754
     6  C   -0.241246
     7  C   -1.272548
     8  C   -0.066359
     9  C    0.229677
    10  C   -0.473858
    11  C    0.236548
    12  O   -0.173027
    13  C    0.236850
    14  C    0.194261
    15  C   -0.220586
    16  O   -0.151112
    17  C    0.300399
    18  C    0.505043
    19  O    0.163939
    20  C   -0.656517
    21  O    0.290953
    22  C   -0.349733
    23  C   -0.103246
    24  O   -0.043742
    25  C    1.075576
    26  C   -0.356320
    27  C   -0.306855
    28  C    0.112763
    29  C    0.114512
    32  C   -0.314810
    62  C   -0.204842
 Sum of Mulliken charges with hydrogens summed into heavy atoms =   0.00000
 Electronic spatial extent (au):  <R**2>=          11444.5913
 Charge=              0.0000 electrons
 Dipole moment (field-independent basis, Debye):
    X=              3.4890    Y=              3.6935    Z=             -3.0356  Tot=              5.9186
 Quadrupole moment (field-independent basis, Debye-Ang):
   XX=           -187.1485   YY=           -180.8907   ZZ=           -191.8347
   XY=             -9.1904   XZ=              9.1881   YZ=              4.9875
 Traceless Quadrupole moment (field-independent basis, Debye-Ang):
   XX=             -0.5238   YY=              5.7339   ZZ=             -5.2101
   XY=             -9.1904   XZ=              9.1881   YZ=              4.9875
 Octapole moment (field-independent basis, Debye-Ang**2):
  XXX=             23.2137  YYY=             42.8739  ZZZ=             -7.1346  XYY=              7.9597
  XXY=            -36.0056  XXZ=            -37.2190  XZZ=             28.3481  YZZ=             23.2310
  YYZ=            -29.5893  XYZ=             -5.2685
 Hexadecapole moment (field-independent basis, Debye-Ang**3):
 XXXX=          -8394.0116 YYYY=          -4049.3599 ZZZZ=          -3306.4670 XXXY=           -117.9073
 XXXZ=              6.9983 YYYX=            -20.7249 YYYZ=             -2.1420 ZZZX=              8.7875
 ZZZY=            -13.4563 XXYY=          -1988.8680 XXZZ=          -1938.6447 YYZZ=          -1234.7321
 XXYZ=             34.1142 YYXZ=              8.3635 ZZXY=            -41.2112
 N-N= 3.514678117043D+03 E-N=-1.026242068288D+04  KE= 1.381921760509D+03
 1\1\GINC-B0604\FOpt\RB3LYP\6-311+G(d)\C26H34O5\CAOFEI\13-Apr-2021\0\\#
  opt b3lyp/6-311+g(d) geom=connectivity\\Title Card Required\\0,1\C,1.
 456477185,0.3565277094,3.2110970367\C,1.2636666912,1.5605335698,2.6689
 909452\C,1.3954987134,1.7834259713,1.1787459604\C,1.4800162623,0.49911
 27744,0.29715141\C,1.313990779,-0.8872114382,0.9761197117\C,1.83389740
 92,-0.8716660615,2.4346357333\C,0.4467906888,0.7440046475,-0.837486499
 1\C,-0.9428595667,0.2615745902,-0.4858725268\C,-1.2200995544,-0.792827
 4305,0.306390936\C,-0.1169145236,-1.4908962565,0.9794190917\C,-2.64319
 04206,-1.2083224678,0.6219866698\O,-3.0578229581,-1.1245670297,1.75611
 64418\C,-3.4769932064,-1.766847557,-0.5293360696\C,-4.9853961945,-1.69
 87064098,-0.2558853757\C,-3.0108954162,-3.2160041426,-0.7917731279\O,-
 0.292660135,-2.5525810779,1.5526241938\C,0.1666698519,2.2591003326,-0.
 9112888044\C,-1.246549345,2.3242331438,-1.5354917955\O,-1.8715718855,1
 .0680665325,-1.0219644668\C,0.2695073491,2.6649007937,0.5706992776\O,0
 .8118326704,0.1287377273,-2.0599431332\C,2.2287257439,-1.7837183222,0.
 1045353774\C,3.3866884352,-0.8429916489,-0.2482081907\O,2.7896629252,0
 .4657098872,-0.3267579467\C,4.1511281196,-1.1871847282,-1.5061160087\C
 ,4.707558699,-2.5873621638,-1.5462624013\C,4.3591869533,-0.3019644049,
 -2.4824319261\C,-1.2336842018,2.2551152629,-3.0618051397\C,-2.13211807
 14,3.4685421639,-1.0575591335\H,0.9047955617,2.7774177614,-1.527784251
 8\H,2.3475671511,2.2998186116,1.0016724246\C,0.9727946141,2.7759752024
 ,3.5115945153\H,1.381503401,0.244863127,4.2906353402\H,2.9282515368,-0
 .964284329,2.4328883779\H,1.4636678619,-1.7721838454,2.9283561753\H,-3
 .239971195,-1.1730914451,-1.4207498838\H,-5.4965729771,-2.2775955516,-
 1.0341809069\H,-5.1961553396,-2.2022360269,0.6925339771\H,-1.937839698
 5,-3.2740410758,-0.9872192628\H,-3.5336075685,-3.6232518816,-1.6613408
 213\H,-3.2266471722,-3.8555654026,0.0677914333\H,0.466469182,3.7303844
 936,0.701366822\H,-0.6708526511,2.4505430583,1.0846512782\H,1.77723818
 45,0.2010672891,-2.1331411377\H,1.710565588,-2.1045479713,-0.802070127
 1\H,2.5487305786,-2.6736150107,0.6479993777\H,4.1107127328,-0.82690220
 4,0.5798787714\H,5.3225046647,-2.7945386474,-0.6628066712\H,3.91207652
 99,-3.3395444424,-1.5575189017\H,5.3290669624,-2.7409826219,-2.4297794
 371\H,4.9257016389,-0.5675362475,-3.3692526697\H,3.9996887725,0.718337
 6747,-2.4177191053\H,-2.2521459192,2.1344324578,-3.4387696206\H,-0.830
 2600797,3.1845316249,-3.474319708\H,-0.6252336411,1.4251971835,-3.4173
 11293\H,-1.6964943029,4.4262032495,-1.3558793771\H,-3.1223866392,3.394
 3368873,-1.5120750721\H,-2.2587458002,3.4708214762,0.0247005266\H,0.97
 58391032,2.5284761011,4.5748496355\H,1.7221920616,3.5602680475,3.34757
 82182\H,-0.0004915679,3.2197277671,3.2778522839\C,-5.5560281347,-0.278
 6568362,-0.2234219624\H,-6.6366574646,-0.2968446474,-0.0545691215\H,-5
 .108442984,0.3142866058,0.5771105141\H,-5.3793959868,0.2452196011,-1.1
 686155801\\Version=EM64L-G09RevB.01\State=1-A\HF=-1387.6502887\RMSD=3.
 793e-09\RMSF=8.165e-06\Dipole=1.3783477,1.4802325,-1.1538\Quadrupole=-
 0.4570056,4.0850173,-3.6280117,-7.0081423,6.6936558,3.849431\PG=C01 [X
 (C26H34O5)]\\@


 QED = W**5 (WHICH WAS WHAT WE WANTED)
 Job cpu time:  0 days 23 hours 51 minutes 15.7 seconds.
 File lengths (MBytes):  RWF=    372 Int=      0 D2E=      0 Chk=     38 Scr=      1
 Normal termination of Gaussian 09 at Tue Apr 13 22:31:10 2021.
