 Entering Gaussian System, Link 0=g09
 Initial command:
 /public/software/g09/g09/l1.exe /tmp/Gau-9156.inp -scrdir=/tmp/
 Entering Link 1 = /public/software/g09/g09/l1.exe PID=      9157.
  
 Copyright (c) 1988,1990,1992,1993,1995,1998,2003,2009,2010,
            Gaussian, Inc.  All Rights Reserved.
  
 This is part of the Gaussian(R) 09 program.  It is based on
 the Gaussian(R) 03 system (copyright 2003, Gaussian, Inc.),
 the Gaussian(R) 98 system (copyright 1998, Gaussian, Inc.),
 the Gaussian(R) 94 system (copyright 1995, Gaussian, Inc.),
 the Gaussian 92(TM) system (copyright 1992, Gaussian, Inc.),
 the Gaussian 90(TM) system (copyright 1990, Gaussian, Inc.),
 the Gaussian 88(TM) system (copyright 1988, Gaussian, Inc.),
 the Gaussian 86(TM) system (copyright 1986, Carnegie Mellon
 University), and the Gaussian 82(TM) system (copyright 1983,
 Carnegie Mellon University). Gaussian is a federally registered
 trademark of Gaussian, Inc.
  
 This software contains proprietary and confidential information,
 including trade secrets, belonging to Gaussian, Inc.
  
 This software is provided under written license and may be
 used, copied, transmitted, or stored only in accord with that
 written license.
  
 The following legend is applicable only to US Government
 contracts under FAR:
  
                    RESTRICTED RIGHTS LEGEND
  
 Use, reproduction and disclosure by the US Government is
 subject to restrictions as set forth in subparagraphs (a)
 and (c) of the Commercial Computer Software - Restricted
 Rights clause in FAR 52.227-19.
  
 Gaussian, Inc.
 340 Quinnipiac St., Bldg. 40, Wallingford CT 06492
  
  
 ---------------------------------------------------------------
 Warning -- This program may not be used in any manner that
 competes with the business of Gaussian, Inc. or will provide
 assistance to any competitor of Gaussian, Inc.  The licensee
 of this program is prohibited from giving any competitor of
 Gaussian, Inc. access to this program.  By using this program,
 the user acknowledges that Gaussian, Inc. is engaged in the
 business of creating and licensing software in the field of
 computational chemistry and represents and warrants to the
 licensee that it is not a competitor of Gaussian, Inc. and that
 it will not use this program in any manner prohibited above.
 ---------------------------------------------------------------
  

 Cite this work as:
 Gaussian 09, Revision B.01,
 M. J. Frisch, G. W. Trucks, H. B. Schlegel, G. E. Scuseria, 
 M. A. Robb, J. R. Cheeseman, G. Scalmani, V. Barone, B. Mennucci, 
 G. A. Petersson, H. Nakatsuji, M. Caricato, X. Li, H. P. Hratchian, 
 A. F. Izmaylov, J. Bloino, G. Zheng, J. L. Sonnenberg, M. Hada, 
 M. Ehara, K. Toyota, R. Fukuda, J. Hasegawa, M. Ishida, T. Nakajima, 
 Y. Honda, O. Kitao, H. Nakai, T. Vreven, J. A. Montgomery, Jr., 
 J. E. Peralta, F. Ogliaro, M. Bearpark, J. J. Heyd, E. Brothers, 
 K. N. Kudin, V. N. Staroverov, T. Keith, R. Kobayashi, J. Normand, 
 K. Raghavachari, A. Rendell, J. C. Burant, S. S. Iyengar, J. Tomasi, 
 M. Cossi, N. Rega, J. M. Millam, M. Klene, J. E. Knox, J. B. Cross, 
 V. Bakken, C. Adamo, J. Jaramillo, R. Gomperts, R. E. Stratmann, 
 O. Yazyev, A. J. Austin, R. Cammi, C. Pomelli, J. W. Ochterski, 
 R. L. Martin, K. Morokuma, V. G. Zakrzewski, G. A. Voth, 
 P. Salvador, J. J. Dannenberg, S. Dapprich, A. D. Daniels, 
 O. Farkas, J. B. Foresman, J. V. Ortiz, J. Cioslowski, 
 and D. J. Fox, Gaussian, Inc., Wallingford CT, 2010.
 
 ******************************************
 Gaussian 09:  EM64L-G09RevB.01 12-Aug-2010
                 2-Feb-2021 
 ******************************************
 %mem=600MW
 %nprocshared=10
 Will use up to   10 processors via shared memory.
 --------------------------------------
 # opt b3lyp/6-31g(d) geom=connectivity
 --------------------------------------
 1/14=-1,18=20,19=15,26=3,38=1,57=2/1,3;
 2/9=110,12=2,17=6,18=5,40=1/2;
 3/5=1,6=6,7=1,11=2,16=1,25=1,30=1,71=1,74=-5/1,2,3;
 4//1;
 5/5=2,38=5/2;
 6/7=2,8=2,9=2,10=2,28=1/1;
 7//1,2,3,16;
 1/14=-1,18=20,19=15/3(2);
 2/9=110/2;
 99//99;
 2/9=110/2;
 3/5=1,6=6,7=1,11=2,16=1,25=1,30=1,71=1,74=-5/1,2,3;
 4/5=5,16=3/1;
 5/5=2,38=5/2;
 7//1,2,3,16;
 1/14=-1,18=20,19=15/3(-5);
 2/9=110/2;
 6/7=2,8=2,9=2,10=2,19=2,28=1/1;
 99/9=1/99;
 -------------------
 Title Card Required
 -------------------
 Symbolic Z-matrix:
 Charge =  0 Multiplicity = 1
 C                     4.11149  -1.22979  -1.09421 
 C                     3.70218   0.10258  -0.99424 
 C                     2.39307   0.48981  -1.2906 
 C                     1.43712  -0.44612  -1.70632 
 C                     1.84236  -1.77893  -1.85253 
 C                     3.16636  -2.16434  -1.54588 
 C                     0.03796  -0.07498  -1.97727 
 C                    -0.78643  -1.02876  -2.44047 
 O                    -0.37792  -2.35934  -2.65054 
 C                     0.87669  -2.78699  -2.34471 
 C                    -0.46715   1.32462  -1.69245 
 C                    -2.00696   1.40573  -1.52852 
 C                    -2.6476    0.67816  -2.72476 
 C                    -2.23724  -0.79641  -2.76337 
 C                     5.5191   -1.64364  -0.76451 
 O                     3.59226  -3.46546  -1.674 
 O                     4.53793   1.1119   -0.60499 
 O                     1.2176   -3.95937  -2.47922 
 O                    -2.50108   0.74046  -0.3497 
 C                    -1.97764   1.14908   0.92687 
 C                    -3.16393   1.23827   1.90222 
 C                    -2.68496   1.59012   3.32216 
 C                    -1.48779   0.80959   3.75637 
 C                    -0.71607   0.11495   2.90084 
 C                    -0.97584   0.08936   1.42132 
 O                    -4.09005   2.25257   1.47427 
 O                    -3.74003   1.33325   4.24586 
 C                     0.45853  -0.62539   3.4428 
 O                     0.99844  -1.40181   2.46914 
 O                     0.86888  -0.52965   4.58866 
 C                     2.14955  -2.13947   2.88151 
 C                    -2.46119   2.87577  -1.58677 
 O                    -3.73914   3.05013  -1.17892 
 O                    -1.79785   3.83477  -1.94544 
 H                     2.15159   1.54502  -1.19179 
 H                    -0.13978   1.96675  -2.52169 
 H                     0.00077   1.72823  -0.78987 
 H                    -2.35624   1.16746  -3.66406 
 H                    -3.74268   0.73011  -2.67177 
 H                    -2.84467  -1.36335  -2.04676 
 H                    -2.46316  -1.19949  -3.75774 
 H                     5.81019  -1.25108   0.21574 
 H                     5.6428   -2.72915  -0.71076 
 H                     6.20766  -1.2631   -1.52568 
 H                     2.85109  -4.02029  -2.00687 
 H                     5.44367   0.77484  -0.51592 
 H                    -1.50734   2.13743   0.85123 
 H                    -3.73189   0.29897   1.90431 
 H                    -2.45781   2.66048   3.39402 
 H                    -1.25862   0.82911   4.82074 
 H                    -0.03076   0.24081   0.89245 
 H                    -1.32948  -0.91052   1.13683 
 H                    -4.22985   2.10264   0.51508 
 H                    -4.52072   1.78889   3.87712 
 H                     2.50171  -2.72265   2.02604 
 H                     2.95001  -1.45958   3.1896 
 H                     1.89279  -2.83023   3.69063 
 H                    -3.88991   4.01804  -1.2535 
 

 GradGradGradGradGradGradGradGradGradGradGradGradGradGradGradGradGradGrad
 Berny optimization.
 Initialization pass.
                           ----------------------------
                           !    Initial Parameters    !
                           ! (Angstroms and Degrees)  !
 --------------------------                            --------------------------
 ! Name  Definition              Value          Derivative Info.                !
 --------------------------------------------------------------------------------
 ! R1    R(1,2)                  1.3974         estimate D2E/DX2                !
 ! R2    R(1,6)                  1.4038         estimate D2E/DX2                !
 ! R3    R(1,15)                 1.5038         estimate D2E/DX2                !
 ! R4    R(2,3)                  1.397          estimate D2E/DX2                !
 ! R5    R(2,17)                 1.367          estimate D2E/DX2                !
 ! R6    R(3,4)                  1.4009         estimate D2E/DX2                !
 ! R7    R(3,35)                 1.087          estimate D2E/DX2                !
 ! R8    R(4,5)                  1.4007         estimate D2E/DX2                !
 ! R9    R(4,7)                  1.4727         estimate D2E/DX2                !
 ! R10   R(5,6)                  1.4126         estimate D2E/DX2                !
 ! R11   R(5,10)                 1.4802         estimate D2E/DX2                !
 ! R12   R(6,16)                 1.375          estimate D2E/DX2                !
 ! R13   R(7,8)                  1.3431         estimate D2E/DX2                !
 ! R14   R(7,11)                 1.515          estimate D2E/DX2                !
 ! R15   R(8,9)                  1.4076         estimate D2E/DX2                !
 ! R16   R(8,14)                 1.5044         estimate D2E/DX2                !
 ! R17   R(9,10)                 1.3603         estimate D2E/DX2                !
 ! R18   R(10,18)                1.2283         estimate D2E/DX2                !
 ! R19   R(11,12)                1.5506         estimate D2E/DX2                !
 ! R20   R(11,36)                1.0987         estimate D2E/DX2                !
 ! R21   R(11,37)                1.0938         estimate D2E/DX2                !
 ! R22   R(12,13)                1.5397         estimate D2E/DX2                !
 ! R23   R(12,19)                1.441          estimate D2E/DX2                !
 ! R24   R(12,32)                1.5397         estimate D2E/DX2                !
 ! R25   R(13,14)                1.5311         estimate D2E/DX2                !
 ! R26   R(13,38)                1.0984         estimate D2E/DX2                !
 ! R27   R(13,39)                1.0976         estimate D2E/DX2                !
 ! R28   R(14,40)                1.0972         estimate D2E/DX2                !
 ! R29   R(14,41)                1.0965         estimate D2E/DX2                !
 ! R30   R(15,42)                1.0953         estimate D2E/DX2                !
 ! R31   R(15,43)                1.0939         estimate D2E/DX2                !
 ! R32   R(15,44)                1.0947         estimate D2E/DX2                !
 ! R33   R(16,45)                0.9839         estimate D2E/DX2                !
 ! R34   R(17,46)                0.9705         estimate D2E/DX2                !
 ! R35   R(18,45)                1.7015         estimate D2E/DX2                !
 ! R36   R(19,20)                1.439          estimate D2E/DX2                !
 ! R37   R(20,21)                1.5384         estimate D2E/DX2                !
 ! R38   R(20,25)                1.5398         estimate D2E/DX2                !
 ! R39   R(20,47)                1.0972         estimate D2E/DX2                !
 ! R40   R(21,22)                1.5393         estimate D2E/DX2                !
 ! R41   R(21,26)                1.4386         estimate D2E/DX2                !
 ! R42   R(21,48)                1.0977         estimate D2E/DX2                !
 ! R43   R(22,23)                1.4936         estimate D2E/DX2                !
 ! R44   R(22,27)                1.4256         estimate D2E/DX2                !
 ! R45   R(22,49)                1.0966         estimate D2E/DX2                !
 ! R46   R(23,24)                1.3454         estimate D2E/DX2                !
 ! R47   R(23,50)                1.0889         estimate D2E/DX2                !
 ! R48   R(24,25)                1.5024         estimate D2E/DX2                !
 ! R49   R(24,28)                1.4905         estimate D2E/DX2                !
 ! R50   R(25,51)                1.0935         estimate D2E/DX2                !
 ! R51   R(25,52)                1.0981         estimate D2E/DX2                !
 ! R52   R(26,53)                0.9808         estimate D2E/DX2                !
 ! R53   R(27,54)                0.9763         estimate D2E/DX2                !
 ! R54   R(28,29)                1.3573         estimate D2E/DX2                !
 ! R55   R(28,30)                1.2209         estimate D2E/DX2                !
 ! R56   R(29,31)                1.428          estimate D2E/DX2                !
 ! R57   R(31,55)                1.0936         estimate D2E/DX2                !
 ! R58   R(31,56)                1.0945         estimate D2E/DX2                !
 ! R59   R(31,57)                1.0944         estimate D2E/DX2                !
 ! R60   R(32,33)                1.3527         estimate D2E/DX2                !
 ! R61   R(32,34)                1.22           estimate D2E/DX2                !
 ! R62   R(33,58)                0.9824         estimate D2E/DX2                !
 ! A1    A(2,1,6)              117.4234         estimate D2E/DX2                !
 ! A2    A(2,1,15)             121.3915         estimate D2E/DX2                !
 ! A3    A(6,1,15)             121.1676         estimate D2E/DX2                !
 ! A4    A(1,2,3)              121.5736         estimate D2E/DX2                !
 ! A5    A(1,2,17)             123.0437         estimate D2E/DX2                !
 ! A6    A(3,2,17)             115.3826         estimate D2E/DX2                !
 ! A7    A(2,3,4)              121.1455         estimate D2E/DX2                !
 ! A8    A(2,3,35)             117.2571         estimate D2E/DX2                !
 ! A9    A(4,3,35)             121.596          estimate D2E/DX2                !
 ! A10   A(3,4,5)              117.9859         estimate D2E/DX2                !
 ! A11   A(3,4,7)              122.3116         estimate D2E/DX2                !
 ! A12   A(5,4,7)              119.7001         estimate D2E/DX2                !
 ! A13   A(4,5,6)              120.5374         estimate D2E/DX2                !
 ! A14   A(4,5,10)             119.6032         estimate D2E/DX2                !
 ! A15   A(6,5,10)             119.8569         estimate D2E/DX2                !
 ! A16   A(1,6,5)              121.2807         estimate D2E/DX2                !
 ! A17   A(1,6,16)             116.833          estimate D2E/DX2                !
 ! A18   A(5,6,16)             121.8863         estimate D2E/DX2                !
 ! A19   A(4,7,8)              117.8811         estimate D2E/DX2                !
 ! A20   A(4,7,11)             120.9975         estimate D2E/DX2                !
 ! A21   A(8,7,11)             121.0814         estimate D2E/DX2                !
 ! A22   A(7,8,9)              122.9978         estimate D2E/DX2                !
 ! A23   A(7,8,14)             123.7999         estimate D2E/DX2                !
 ! A24   A(9,8,14)             113.1937         estimate D2E/DX2                !
 ! A25   A(8,9,10)             122.091          estimate D2E/DX2                !
 ! A26   A(5,10,9)             117.5397         estimate D2E/DX2                !
 ! A27   A(5,10,18)            120.3554         estimate D2E/DX2                !
 ! A28   A(9,10,18)            122.1005         estimate D2E/DX2                !
 ! A29   A(7,11,12)            113.5332         estimate D2E/DX2                !
 ! A30   A(7,11,36)            107.3792         estimate D2E/DX2                !
 ! A31   A(7,11,37)            110.6943         estimate D2E/DX2                !
 ! A32   A(12,11,36)           110.1883         estimate D2E/DX2                !
 ! A33   A(12,11,37)           108.5577         estimate D2E/DX2                !
 ! A34   A(36,11,37)           106.2403         estimate D2E/DX2                !
 ! A35   A(11,12,13)           107.8375         estimate D2E/DX2                !
 ! A36   A(11,12,19)           113.7571         estimate D2E/DX2                !
 ! A37   A(11,12,32)           109.8093         estimate D2E/DX2                !
 ! A38   A(13,12,19)           105.9466         estimate D2E/DX2                !
 ! A39   A(13,12,32)           107.3981         estimate D2E/DX2                !
 ! A40   A(19,12,32)           111.7511         estimate D2E/DX2                !
 ! A41   A(12,13,14)           111.2945         estimate D2E/DX2                !
 ! A42   A(12,13,38)           110.0907         estimate D2E/DX2                !
 ! A43   A(12,13,39)           110.8087         estimate D2E/DX2                !
 ! A44   A(14,13,38)           109.6545         estimate D2E/DX2                !
 ! A45   A(14,13,39)           108.3127         estimate D2E/DX2                !
 ! A46   A(38,13,39)           106.5492         estimate D2E/DX2                !
 ! A47   A(8,14,13)            113.6916         estimate D2E/DX2                !
 ! A48   A(8,14,40)            108.2947         estimate D2E/DX2                !
 ! A49   A(8,14,41)            109.669          estimate D2E/DX2                !
 ! A50   A(13,14,40)           109.4375         estimate D2E/DX2                !
 ! A51   A(13,14,41)           108.7647         estimate D2E/DX2                !
 ! A52   A(40,14,41)           106.7547         estimate D2E/DX2                !
 ! A53   A(1,15,42)            110.2644         estimate D2E/DX2                !
 ! A54   A(1,15,43)            112.9375         estimate D2E/DX2                !
 ! A55   A(1,15,44)            109.9172         estimate D2E/DX2                !
 ! A56   A(42,15,43)           106.3582         estimate D2E/DX2                !
 ! A57   A(42,15,44)           109.3013         estimate D2E/DX2                !
 ! A58   A(43,15,44)           107.9392         estimate D2E/DX2                !
 ! A59   A(6,16,45)            109.379          estimate D2E/DX2                !
 ! A60   A(2,17,46)            109.8928         estimate D2E/DX2                !
 ! A61   A(12,19,20)           118.0289         estimate D2E/DX2                !
 ! A62   A(19,20,21)           107.3631         estimate D2E/DX2                !
 ! A63   A(19,20,25)           109.0327         estimate D2E/DX2                !
 ! A64   A(19,20,47)           110.5221         estimate D2E/DX2                !
 ! A65   A(21,20,25)           109.7559         estimate D2E/DX2                !
 ! A66   A(21,20,47)           108.7858         estimate D2E/DX2                !
 ! A67   A(25,20,47)           111.2977         estimate D2E/DX2                !
 ! A68   A(20,21,22)           110.9874         estimate D2E/DX2                !
 ! A69   A(20,21,26)           110.4079         estimate D2E/DX2                !
 ! A70   A(20,21,48)           110.5235         estimate D2E/DX2                !
 ! A71   A(22,21,26)           108.2742         estimate D2E/DX2                !
 ! A72   A(22,21,48)           110.7837         estimate D2E/DX2                !
 ! A73   A(26,21,48)           105.7121         estimate D2E/DX2                !
 ! A74   A(21,22,23)           113.4606         estimate D2E/DX2                !
 ! A75   A(21,22,27)           109.0395         estimate D2E/DX2                !
 ! A76   A(21,22,49)           110.3662         estimate D2E/DX2                !
 ! A77   A(23,22,27)           108.0995         estimate D2E/DX2                !
 ! A78   A(23,22,49)           108.9654         estimate D2E/DX2                !
 ! A79   A(27,22,49)           106.6622         estimate D2E/DX2                !
 ! A80   A(22,23,24)           123.0045         estimate D2E/DX2                !
 ! A81   A(22,23,50)           116.325          estimate D2E/DX2                !
 ! A82   A(24,23,50)           120.6703         estimate D2E/DX2                !
 ! A83   A(23,24,25)           122.4018         estimate D2E/DX2                !
 ! A84   A(23,24,28)           118.5083         estimate D2E/DX2                !
 ! A85   A(25,24,28)           119.0706         estimate D2E/DX2                !
 ! A86   A(20,25,24)           114.6447         estimate D2E/DX2                !
 ! A87   A(20,25,51)           108.1591         estimate D2E/DX2                !
 ! A88   A(20,25,52)           109.5083         estimate D2E/DX2                !
 ! A89   A(24,25,51)           108.9347         estimate D2E/DX2                !
 ! A90   A(24,25,52)           109.0463         estimate D2E/DX2                !
 ! A91   A(51,25,52)           106.2095         estimate D2E/DX2                !
 ! A92   A(21,26,53)           105.955          estimate D2E/DX2                !
 ! A93   A(22,27,54)           105.2482         estimate D2E/DX2                !
 ! A94   A(24,28,29)           109.6802         estimate D2E/DX2                !
 ! A95   A(24,28,30)           124.5548         estimate D2E/DX2                !
 ! A96   A(29,28,30)           125.7623         estimate D2E/DX2                !
 ! A97   A(28,29,31)           114.1405         estimate D2E/DX2                !
 ! A98   A(29,31,55)           108.0078         estimate D2E/DX2                !
 ! A99   A(29,31,56)           110.4829         estimate D2E/DX2                !
 ! A100  A(29,31,57)           110.5133         estimate D2E/DX2                !
 ! A101  A(55,31,56)           108.4182         estimate D2E/DX2                !
 ! A102  A(55,31,57)           108.4998         estimate D2E/DX2                !
 ! A103  A(56,31,57)           110.8274         estimate D2E/DX2                !
 ! A104  A(12,32,33)           112.9765         estimate D2E/DX2                !
 ! A105  A(12,32,34)           126.9574         estimate D2E/DX2                !
 ! A106  A(33,32,34)           120.0656         estimate D2E/DX2                !
 ! A107  A(32,33,58)           104.4234         estimate D2E/DX2                !
 ! D1    D(6,1,2,3)              1.9568         estimate D2E/DX2                !
 ! D2    D(6,1,2,17)          -178.0537         estimate D2E/DX2                !
 ! D3    D(15,1,2,3)          -179.5471         estimate D2E/DX2                !
 ! D4    D(15,1,2,17)            0.4424         estimate D2E/DX2                !
 ! D5    D(2,1,6,5)             -1.6892         estimate D2E/DX2                !
 ! D6    D(2,1,6,16)           178.3003         estimate D2E/DX2                !
 ! D7    D(15,1,6,5)           179.8111         estimate D2E/DX2                !
 ! D8    D(15,1,6,16)           -0.1993         estimate D2E/DX2                !
 ! D9    D(2,1,15,42)           50.5977         estimate D2E/DX2                !
 ! D10   D(2,1,15,43)          169.4298         estimate D2E/DX2                !
 ! D11   D(2,1,15,44)          -69.9686         estimate D2E/DX2                !
 ! D12   D(6,1,15,42)         -130.9624         estimate D2E/DX2                !
 ! D13   D(6,1,15,43)          -12.1303         estimate D2E/DX2                !
 ! D14   D(6,1,15,44)          108.4713         estimate D2E/DX2                !
 ! D15   D(1,2,3,4)             -0.2503         estimate D2E/DX2                !
 ! D16   D(1,2,3,35)          -179.832          estimate D2E/DX2                !
 ! D17   D(17,2,3,4)           179.7594         estimate D2E/DX2                !
 ! D18   D(17,2,3,35)            0.1778         estimate D2E/DX2                !
 ! D19   D(1,2,17,46)            6.3057         estimate D2E/DX2                !
 ! D20   D(3,2,17,46)         -173.7042         estimate D2E/DX2                !
 ! D21   D(2,3,4,5)             -1.7466         estimate D2E/DX2                !
 ! D22   D(2,3,4,7)            177.6845         estimate D2E/DX2                !
 ! D23   D(35,3,4,5)           177.8168         estimate D2E/DX2                !
 ! D24   D(35,3,4,7)            -2.7521         estimate D2E/DX2                !
 ! D25   D(3,4,5,6)              1.9942         estimate D2E/DX2                !
 ! D26   D(3,4,5,10)          -177.4265         estimate D2E/DX2                !
 ! D27   D(7,4,5,6)           -177.4523         estimate D2E/DX2                !
 ! D28   D(7,4,5,10)             3.127          estimate D2E/DX2                !
 ! D29   D(3,4,7,8)            176.4849         estimate D2E/DX2                !
 ! D30   D(3,4,7,11)            -5.7907         estimate D2E/DX2                !
 ! D31   D(5,4,7,8)             -4.0935         estimate D2E/DX2                !
 ! D32   D(5,4,7,11)           173.6309         estimate D2E/DX2                !
 ! D33   D(4,5,6,1)             -0.2821         estimate D2E/DX2                !
 ! D34   D(4,5,6,16)           179.7289         estimate D2E/DX2                !
 ! D35   D(10,5,6,1)           179.1371         estimate D2E/DX2                !
 ! D36   D(10,5,6,16)           -0.8518         estimate D2E/DX2                !
 ! D37   D(4,5,10,9)             0.6883         estimate D2E/DX2                !
 ! D38   D(4,5,10,18)          179.9373         estimate D2E/DX2                !
 ! D39   D(6,5,10,9)          -178.7363         estimate D2E/DX2                !
 ! D40   D(6,5,10,18)            0.5126         estimate D2E/DX2                !
 ! D41   D(1,6,16,45)         -179.2442         estimate D2E/DX2                !
 ! D42   D(5,6,16,45)            0.7453         estimate D2E/DX2                !
 ! D43   D(4,7,8,9)              1.2414         estimate D2E/DX2                !
 ! D44   D(4,7,8,14)          -179.8935         estimate D2E/DX2                !
 ! D45   D(11,7,8,9)          -176.4809         estimate D2E/DX2                !
 ! D46   D(11,7,8,14)            2.3842         estimate D2E/DX2                !
 ! D47   D(4,7,11,12)         -158.5661         estimate D2E/DX2                !
 ! D48   D(4,7,11,36)           79.3795         estimate D2E/DX2                !
 ! D49   D(4,7,11,37)          -36.1824         estimate D2E/DX2                !
 ! D50   D(8,7,11,12)           19.0852         estimate D2E/DX2                !
 ! D51   D(8,7,11,36)         -102.9692         estimate D2E/DX2                !
 ! D52   D(8,7,11,37)          141.4689         estimate D2E/DX2                !
 ! D53   D(7,8,9,10)             2.7521         estimate D2E/DX2                !
 ! D54   D(14,8,9,10)         -176.2218         estimate D2E/DX2                !
 ! D55   D(7,8,14,13)            8.9701         estimate D2E/DX2                !
 ! D56   D(7,8,14,40)         -112.8885         estimate D2E/DX2                !
 ! D57   D(7,8,14,41)          130.9687         estimate D2E/DX2                !
 ! D58   D(9,8,14,13)         -172.0654         estimate D2E/DX2                !
 ! D59   D(9,8,14,40)           66.076          estimate D2E/DX2                !
 ! D60   D(9,8,14,41)          -50.0668         estimate D2E/DX2                !
 ! D61   D(8,9,10,5)            -3.6539         estimate D2E/DX2                !
 ! D62   D(8,9,10,18)          177.1112         estimate D2E/DX2                !
 ! D63   D(7,11,12,13)         -49.5534         estimate D2E/DX2                !
 ! D64   D(7,11,12,19)          67.6386         estimate D2E/DX2                !
 ! D65   D(7,11,12,32)        -166.2825         estimate D2E/DX2                !
 ! D66   D(36,11,12,13)         70.9274         estimate D2E/DX2                !
 ! D67   D(36,11,12,19)       -171.8806         estimate D2E/DX2                !
 ! D68   D(36,11,12,32)        -45.8017         estimate D2E/DX2                !
 ! D69   D(37,11,12,13)       -173.1117         estimate D2E/DX2                !
 ! D70   D(37,11,12,19)        -55.9198         estimate D2E/DX2                !
 ! D71   D(37,11,12,32)         70.1591         estimate D2E/DX2                !
 ! D72   D(11,12,13,14)         60.968          estimate D2E/DX2                !
 ! D73   D(11,12,13,38)        -60.8315         estimate D2E/DX2                !
 ! D74   D(11,12,13,39)       -178.4423         estimate D2E/DX2                !
 ! D75   D(19,12,13,14)        -61.1786         estimate D2E/DX2                !
 ! D76   D(19,12,13,38)        177.0219         estimate D2E/DX2                !
 ! D77   D(19,12,13,39)         59.4111         estimate D2E/DX2                !
 ! D78   D(32,12,13,14)        179.2559         estimate D2E/DX2                !
 ! D79   D(32,12,13,38)         57.4564         estimate D2E/DX2                !
 ! D80   D(32,12,13,39)        -60.1544         estimate D2E/DX2                !
 ! D81   D(11,12,19,20)         56.8412         estimate D2E/DX2                !
 ! D82   D(13,12,19,20)        175.1252         estimate D2E/DX2                !
 ! D83   D(32,12,19,20)        -68.2069         estimate D2E/DX2                !
 ! D84   D(11,12,32,33)       -167.1369         estimate D2E/DX2                !
 ! D85   D(11,12,32,34)         12.6151         estimate D2E/DX2                !
 ! D86   D(13,12,32,33)         75.8585         estimate D2E/DX2                !
 ! D87   D(13,12,32,34)       -104.3895         estimate D2E/DX2                !
 ! D88   D(19,12,32,33)        -39.9269         estimate D2E/DX2                !
 ! D89   D(19,12,32,34)        139.8251         estimate D2E/DX2                !
 ! D90   D(12,13,14,8)         -41.3017         estimate D2E/DX2                !
 ! D91   D(12,13,14,40)         79.9206         estimate D2E/DX2                !
 ! D92   D(12,13,14,41)       -163.7999         estimate D2E/DX2                !
 ! D93   D(38,13,14,8)          80.7508         estimate D2E/DX2                !
 ! D94   D(38,13,14,40)       -158.0268         estimate D2E/DX2                !
 ! D95   D(38,13,14,41)        -41.7473         estimate D2E/DX2                !
 ! D96   D(39,13,14,8)        -163.3492         estimate D2E/DX2                !
 ! D97   D(39,13,14,40)        -42.1268         estimate D2E/DX2                !
 ! D98   D(39,13,14,41)         74.1527         estimate D2E/DX2                !
 ! D99   D(12,19,20,21)        136.9954         estimate D2E/DX2                !
 ! D100  D(12,19,20,25)       -104.1562         estimate D2E/DX2                !
 ! D101  D(12,19,20,47)         18.4855         estimate D2E/DX2                !
 ! D102  D(19,20,21,22)        176.6301         estimate D2E/DX2                !
 ! D103  D(19,20,21,26)        -63.2997         estimate D2E/DX2                !
 ! D104  D(19,20,21,48)         53.3029         estimate D2E/DX2                !
 ! D105  D(25,20,21,22)         58.2484         estimate D2E/DX2                !
 ! D106  D(25,20,21,26)        178.3186         estimate D2E/DX2                !
 ! D107  D(25,20,21,48)        -65.0787         estimate D2E/DX2                !
 ! D108  D(47,20,21,22)        -63.7443         estimate D2E/DX2                !
 ! D109  D(47,20,21,26)         56.3259         estimate D2E/DX2                !
 ! D110  D(47,20,21,48)        172.9286         estimate D2E/DX2                !
 ! D111  D(19,20,25,24)       -159.6144         estimate D2E/DX2                !
 ! D112  D(19,20,25,51)         78.6366         estimate D2E/DX2                !
 ! D113  D(19,20,25,52)        -36.6963         estimate D2E/DX2                !
 ! D114  D(21,20,25,24)        -42.2711         estimate D2E/DX2                !
 ! D115  D(21,20,25,51)       -164.0201         estimate D2E/DX2                !
 ! D116  D(21,20,25,52)         80.6471         estimate D2E/DX2                !
 ! D117  D(47,20,25,24)         78.2106         estimate D2E/DX2                !
 ! D118  D(47,20,25,51)        -43.5384         estimate D2E/DX2                !
 ! D119  D(47,20,25,52)       -158.8712         estimate D2E/DX2                !
 ! D120  D(20,21,22,23)        -44.9021         estimate D2E/DX2                !
 ! D121  D(20,21,22,27)       -165.4352         estimate D2E/DX2                !
 ! D122  D(20,21,22,49)         77.7147         estimate D2E/DX2                !
 ! D123  D(26,21,22,23)       -166.2337         estimate D2E/DX2                !
 ! D124  D(26,21,22,27)         73.2332         estimate D2E/DX2                !
 ! D125  D(26,21,22,49)        -43.6169         estimate D2E/DX2                !
 ! D126  D(48,21,22,23)         78.2755         estimate D2E/DX2                !
 ! D127  D(48,21,22,27)        -42.2576         estimate D2E/DX2                !
 ! D128  D(48,21,22,49)       -159.1077         estimate D2E/DX2                !
 ! D129  D(20,21,26,53)         46.9772         estimate D2E/DX2                !
 ! D130  D(22,21,26,53)        168.666          estimate D2E/DX2                !
 ! D131  D(48,21,26,53)        -72.5776         estimate D2E/DX2                !
 ! D132  D(21,22,23,24)         15.0284         estimate D2E/DX2                !
 ! D133  D(21,22,23,50)       -165.1338         estimate D2E/DX2                !
 ! D134  D(27,22,23,24)        136.0913         estimate D2E/DX2                !
 ! D135  D(27,22,23,50)        -44.0709         estimate D2E/DX2                !
 ! D136  D(49,22,23,24)       -108.3593         estimate D2E/DX2                !
 ! D137  D(49,22,23,50)         71.4785         estimate D2E/DX2                !
 ! D138  D(21,22,27,54)        -50.8041         estimate D2E/DX2                !
 ! D139  D(23,22,27,54)       -174.5752         estimate D2E/DX2                !
 ! D140  D(49,22,27,54)         68.3777         estimate D2E/DX2                !
 ! D141  D(22,23,24,25)          1.4099         estimate D2E/DX2                !
 ! D142  D(22,23,24,28)        179.7916         estimate D2E/DX2                !
 ! D143  D(50,23,24,25)       -178.4211         estimate D2E/DX2                !
 ! D144  D(50,23,24,28)         -0.0394         estimate D2E/DX2                !
 ! D145  D(23,24,25,20)         12.9879         estimate D2E/DX2                !
 ! D146  D(23,24,25,51)        134.3129         estimate D2E/DX2                !
 ! D147  D(23,24,25,52)       -110.1787         estimate D2E/DX2                !
 ! D148  D(28,24,25,20)       -165.3851         estimate D2E/DX2                !
 ! D149  D(28,24,25,51)        -44.0601         estimate D2E/DX2                !
 ! D150  D(28,24,25,52)         71.4483         estimate D2E/DX2                !
 ! D151  D(23,24,28,29)        171.7906         estimate D2E/DX2                !
 ! D152  D(23,24,28,30)         -8.7783         estimate D2E/DX2                !
 ! D153  D(25,24,28,29)         -9.7726         estimate D2E/DX2                !
 ! D154  D(25,24,28,30)        169.6585         estimate D2E/DX2                !
 ! D155  D(24,28,29,31)        178.9981         estimate D2E/DX2                !
 ! D156  D(30,28,29,31)         -0.4245         estimate D2E/DX2                !
 ! D157  D(28,29,31,55)       -179.8109         estimate D2E/DX2                !
 ! D158  D(28,29,31,56)        -61.3816         estimate D2E/DX2                !
 ! D159  D(28,29,31,57)         61.6436         estimate D2E/DX2                !
 ! D160  D(12,32,33,58)        179.2077         estimate D2E/DX2                !
 ! D161  D(34,32,33,58)         -0.5633         estimate D2E/DX2                !
 --------------------------------------------------------------------------------
 Trust Radius=3.00D-01 FncErr=1.00D-07 GrdErr=1.00D-06
 Number of steps in this run=    340 maximum allowed number of steps=    348.
 GradGradGradGradGradGradGradGradGradGradGradGradGradGradGradGradGradGrad

 Stoichiometry    C23H24O11
 Framework group  C1[X(C23H24O11)]
 Deg. of freedom   168
 Full point group                 C1      NOp   1
 Largest Abelian subgroup         C1      NOp   1
 Largest concise Abelian subgroup C1      NOp   1
                         Standard orientation:                         
 ---------------------------------------------------------------------
 Center     Atomic      Atomic             Coordinates (Angstroms)
 Number     Number       Type             X           Y           Z
 ---------------------------------------------------------------------
      1          6           0       -4.313457    0.372369    1.063781
      2          6           0       -3.309900    0.164507    2.013738
      3          6           0       -2.145451   -0.542727    1.704815
      4          6           0       -1.940259   -1.077719    0.426420
      5          6           0       -2.955294   -0.914805   -0.524969
      6          6           0       -4.127836   -0.193845   -0.207279
      7          6           0       -0.701640   -1.784176    0.058228
      8          6           0       -0.627824   -2.324328   -1.169235
      9          8           0       -1.664662   -2.221375   -2.115718
     10          6           0       -2.800748   -1.514996   -1.869148
     11          6           0        0.470970   -1.853334    1.014961
     12          6           0        1.823752   -2.146684    0.316125
     13          6           0        1.623359   -3.361587   -0.608335
     14          6           0        0.570410   -3.075323   -1.682392
     15          6           0       -5.560827    1.142937    1.397901
     16          8           0       -5.138951   -0.012338   -1.121288
     17          8           0       -3.389867    0.629975    3.296571
     18          8           0       -3.682727   -1.381703   -2.713630
     19          8           0        2.283533   -1.075870   -0.531407
     20          6           0        2.453026    0.226551    0.056442
     21          6           0        3.776295    0.802168   -0.476646
     22          6           0        4.000428    2.235885    0.036833
     23          6           0        2.783432    3.097082   -0.053926
     24          6           0        1.548663    2.602029   -0.254639
     25          6           0        1.281854    1.128439   -0.374890
     26          8           0        4.884740   -0.008785   -0.048471
     27          8           0        5.034494    2.848203   -0.730067
     28          6           0        0.403414    3.553398   -0.324044
     29          8           0       -0.717720    2.891874   -0.708470
     30          8           0        0.474862    4.743467   -0.061045
     31          6           0       -1.883378    3.713276   -0.784509
     32          6           0        2.879898   -2.536649    1.366469
     33          8           0        4.139650   -2.537281    0.873599
     34          8           0        2.680881   -2.822547    2.535653
     35          1           0       -1.412230   -0.665233    2.497861
     36          1           0        0.247296   -2.636704    1.752136
     37          1           0        0.565400   -0.920734    1.578724
     38          1           0        1.321426   -4.238208   -0.019305
     39          1           0        2.562599   -3.629732   -1.108970
     40          1           0        1.023985   -2.488870   -2.491258
     41          1           0        0.248848   -4.026312   -2.123426
     42          1           0       -5.302175    2.100515    1.862515
     43          1           0       -6.163763    1.380919    0.516789
     44          1           0       -6.184026    0.563343    2.086385
     45          1           0       -4.901601   -0.461038   -1.964080
     46          1           0       -4.265201    1.018955    3.452768
     47          1           0        2.515710    0.150154    1.149137
     48          1           0        3.793850    0.774189   -1.573815
     49          1           0        4.348211    2.218841    1.076638
     50          1           0        2.941232    4.169042    0.054568
     51          1           0        0.412363    0.874122    0.237571
     52          1           0        1.004233    0.898002   -1.411996
     53          1           0        4.624615   -0.937345   -0.227847
     54          1           0        5.775586    2.212884   -0.715345
     55          1           0       -2.720958    3.083477   -1.097195
     56          1           0       -2.117426    4.137815    0.196766
     57          1           0       -1.747183    4.504431   -1.528327
     58          1           0        4.702019   -2.786271    1.639684
 ---------------------------------------------------------------------
 Rotational constants (GHZ):      0.1582629      0.0947166      0.0741002
 Standard basis: 6-31G(d) (6D, 7F)
 There are   558 symmetry adapted basis functions of A   symmetry.
 Integral buffers will be    131072 words long.
 Raffenetti 2 integral format.
 Two-electron integral symmetry is turned on.
   558 basis functions,  1048 primitive gaussians,   558 cartesian basis functions
   125 alpha electrons      125 beta electrons
       nuclear repulsion energy      3844.9890607134 Hartrees.
 NAtoms=   58 NActive=   58 NUniq=   58 SFac= 1.00D+00 NAtFMM=   50 NAOKFM=T Big=T
 One-electron integrals computed using PRISM.
 NBasis=   558 RedAO= T  NBF=   558
 NBsUse=   558 1.00D-06 NBFU=   558
 Harris functional with IExCor=  402 diagonalized for initial guess.
 ExpMin= 1.61D-01 ExpMax= 5.48D+03 ExpMxC= 8.25D+02 IAcc=1 IRadAn=         1 AccDes= 0.00D+00
 HarFok:  IExCor=  402 AccDes= 0.00D+00 IRadAn=         1 IDoV= 1
 ScaDFX=  1.000000  1.000000  1.000000  1.000000
 FoFCou: FMM=F IPFlag=           0 FMFlag=      100000 FMFlg1=        2001
         NFxFlg=           0 DoJE=T BraDBF=F KetDBF=T FulRan=T
         Omega=  0.000000  0.000000  1.000000  0.000000  0.000000 ICntrl=     500 IOpCl=  0
         NMat0=    1 NMatS0=    1 NMatT0=    0 NMatD0=    1 NMtDS0=    0 NMtDT0=    0
         I1Cent=           4 NGrid=           0.
 Petite list used in FoFCou.
 Initial guess orbital symmetries:
       Occupied  (A) (A) (A) (A) (A) (A) (A) (A) (A) (A) (A) (A)
                 (A) (A) (A) (A) (A) (A) (A) (A) (A) (A) (A) (A)
                 (A) (A) (A) (A) (A) (A) (A) (A) (A) (A) (A) (A)
                 (A) (A) (A) (A) (A) (A) (A) (A) (A) (A) (A) (A)
                 (A) (A) (A) (A) (A) (A) (A) (A) (A) (A) (A) (A)
                 (A) (A) (A) (A) (A) (A) (A) (A) (A) (A) (A) (A)
                 (A) (A) (A) (A) (A) (A) (A) (A) (A) (A) (A) (A)
                 (A) (A) (A) (A) (A) (A) (A) (A) (A) (A) (A) (A)
                 (A) (A) (A) (A) (A) (A) (A) (A) (A) (A) (A) (A)
                 (A) (A) (A) (A) (A) (A) (A) (A) (A) (A) (A) (A)
                 (A) (A) (A) (A) (A)
       Virtual   (A) (A) (A) (A) (A) (A) (A) (A) (A) (A) (A) (A)
                 (A) (A) (A) (A) (A) (A) (A) (A) (A) (A) (A) (A)
                 (A) (A) (A) (A) (A) (A) (A) (A) (A) (A) (A) (A)
                 (A) (A) (A) (A) (A) (A) (A) (A) (A) (A) (A) (A)
                 (A) (A) (A) (A) (A) (A) (A) (A) (A) (A) (A) (A)
                 (A) (A) (A) (A) (A) (A) (A) (A) (A) (A) (A) (A)
                 (A) (A) (A) (A) (A) (A) (A) (A) (A) (A) (A) (A)
                 (A) (A) (A) (A) (A) (A) (A) (A) (A) (A) (A) (A)
                 (A) (A) (A) (A) (A) (A) (A) (A) (A) (A) (A) (A)
                 (A) (A) (A) (A) (A) (A) (A) (A) (A) (A) (A) (A)
                 (A) (A) (A) (A) (A) (A) (A) (A) (A) (A) (A) (A)
                 (A) (A) (A) (A) (A) (A) (A) (A) (A) (A) (A) (A)
                 (A) (A) (A) (A) (A) (A) (A) (A) (A) (A) (A) (A)
                 (A) (A) (A) (A) (A) (A) (A) (A) (A) (A) (A) (A)
                 (A) (A) (A) (A) (A) (A) (A) (A) (A) (A) (A) (A)
                 (A) (A) (A) (A) (A) (A) (A) (A) (A) (A) (A) (A)
                 (A) (A) (A) (A) (A) (A) (A) (A) (A) (A) (A) (A)
                 (A) (A) (A) (A) (A) (A) (A) (A) (A) (A) (A) (A)
                 (A) (A) (A) (A) (A) (A) (A) (A) (A) (A) (A) (A)
                 (A) (A) (A) (A) (A) (A) (A) (A) (A) (A) (A) (A)
                 (A) (A) (A) (A) (A) (A) (A) (A) (A) (A) (A) (A)
                 (A) (A) (A) (A) (A) (A) (A) (A) (A) (A) (A) (A)
                 (A) (A) (A) (A) (A) (A) (A) (A) (A) (A) (A) (A)
                 (A) (A) (A) (A) (A) (A) (A) (A) (A) (A) (A) (A)
                 (A) (A) (A) (A) (A) (A) (A) (A) (A) (A) (A) (A)
                 (A) (A) (A) (A) (A) (A) (A) (A) (A) (A) (A) (A)
                 (A) (A) (A) (A) (A) (A) (A) (A) (A) (A) (A) (A)
                 (A) (A) (A) (A) (A) (A) (A) (A) (A) (A) (A) (A)
                 (A) (A) (A) (A) (A) (A) (A) (A) (A) (A) (A) (A)
                 (A) (A) (A) (A) (A) (A) (A) (A) (A) (A) (A) (A)
                 (A) (A) (A) (A) (A) (A) (A) (A) (A) (A) (A) (A)
                 (A) (A) (A) (A) (A) (A) (A) (A) (A) (A) (A) (A)
                 (A) (A) (A) (A) (A) (A) (A) (A) (A) (A) (A) (A)
                 (A) (A) (A) (A) (A) (A) (A) (A) (A) (A) (A) (A)
                 (A) (A) (A) (A) (A) (A) (A) (A) (A) (A) (A) (A)
                 (A) (A) (A) (A) (A) (A) (A) (A) (A) (A) (A) (A)
                 (A)
 The electronic state of the initial guess is 1-A.
 Requested convergence on RMS density matrix=1.00D-08 within 128 cycles.
 Requested convergence on MAX density matrix=1.00D-06.
 Requested convergence on             energy=1.00D-06.
 No special actions if energy rises.
 Integral accuracy reduced to 1.0D-05 until final iterations.
 Initial convergence to 1.0D-05 achieved.  Increase integral accuracy.
 SCF Done:  E(RB3LYP) =  -1718.35899105     A.U. after   15 cycles
             Convg  =    0.3981D-08             -V/T =  2.0091

 **********************************************************************

            Population analysis using the SCF density.

 **********************************************************************

 Orbital symmetries:
       Occupied  (A) (A) (A) (A) (A) (A) (A) (A) (A) (A) (A) (A)
                 (A) (A) (A) (A) (A) (A) (A) (A) (A) (A) (A) (A)
                 (A) (A) (A) (A) (A) (A) (A) (A) (A) (A) (A) (A)
                 (A) (A) (A) (A) (A) (A) (A) (A) (A) (A) (A) (A)
                 (A) (A) (A) (A) (A) (A) (A) (A) (A) (A) (A) (A)
                 (A) (A) (A) (A) (A) (A) (A) (A) (A) (A) (A) (A)
                 (A) (A) (A) (A) (A) (A) (A) (A) (A) (A) (A) (A)
                 (A) (A) (A) (A) (A) (A) (A) (A) (A) (A) (A) (A)
                 (A) (A) (A) (A) (A) (A) (A) (A) (A) (A) (A) (A)
                 (A) (A) (A) (A) (A) (A) (A) (A) (A) (A) (A) (A)
                 (A) (A) (A) (A) (A)
       Virtual   (A) (A) (A) (A) (A) (A) (A) (A) (A) (A) (A) (A)
                 (A) (A) (A) (A) (A) (A) (A) (A) (A) (A) (A) (A)
                 (A) (A) (A) (A) (A) (A) (A) (A) (A) (A) (A) (A)
                 (A) (A) (A) (A) (A) (A) (A) (A) (A) (A) (A) (A)
                 (A) (A) (A) (A) (A) (A) (A) (A) (A) (A) (A) (A)
                 (A) (A) (A) (A) (A) (A) (A) (A) (A) (A) (A) (A)
                 (A) (A) (A) (A) (A) (A) (A) (A) (A) (A) (A) (A)
                 (A) (A) (A) (A) (A) (A) (A) (A) (A) (A) (A) (A)
                 (A) (A) (A) (A) (A) (A) (A) (A) (A) (A) (A) (A)
                 (A) (A) (A) (A) (A) (A) (A) (A) (A) (A) (A) (A)
                 (A) (A) (A) (A) (A) (A) (A) (A) (A) (A) (A) (A)
                 (A) (A) (A) (A) (A) (A) (A) (A) (A) (A) (A) (A)
                 (A) (A) (A) (A) (A) (A) (A) (A) (A) (A) (A) (A)
                 (A) (A) (A) (A) (A) (A) (A) (A) (A) (A) (A) (A)
                 (A) (A) (A) (A) (A) (A) (A) (A) (A) (A) (A) (A)
                 (A) (A) (A) (A) (A) (A) (A) (A) (A) (A) (A) (A)
                 (A) (A) (A) (A) (A) (A) (A) (A) (A) (A) (A) (A)
                 (A) (A) (A) (A) (A) (A) (A) (A) (A) (A) (A) (A)
                 (A) (A) (A) (A) (A) (A) (A) (A) (A) (A) (A) (A)
                 (A) (A) (A) (A) (A) (A) (A) (A) (A) (A) (A) (A)
                 (A) (A) (A) (A) (A) (A) (A) (A) (A) (A) (A) (A)
                 (A) (A) (A) (A) (A) (A) (A) (A) (A) (A) (A) (A)
                 (A) (A) (A) (A) (A) (A) (A) (A) (A) (A) (A) (A)
                 (A) (A) (A) (A) (A) (A) (A) (A) (A) (A) (A) (A)
                 (A) (A) (A) (A) (A) (A) (A) (A) (A) (A) (A) (A)
                 (A) (A) (A) (A) (A) (A) (A) (A) (A) (A) (A) (A)
                 (A) (A) (A) (A) (A) (A) (A) (A) (A) (A) (A) (A)
                 (A) (A) (A) (A) (A) (A) (A) (A) (A) (A) (A) (A)
                 (A) (A) (A) (A) (A) (A) (A) (A) (A) (A) (A) (A)
                 (A) (A) (A) (A) (A) (A) (A) (A) (A) (A) (A) (A)
                 (A) (A) (A) (A) (A) (A) (A) (A) (A) (A) (A) (A)
                 (A) (A) (A) (A) (A) (A) (A) (A) (A) (A) (A) (A)
                 (A) (A) (A) (A) (A) (A) (A) (A) (A) (A) (A) (A)
                 (A) (A) (A) (A) (A) (A) (A) (A) (A) (A) (A) (A)
                 (A) (A) (A) (A) (A) (A) (A) (A) (A) (A) (A) (A)
                 (A) (A) (A) (A) (A) (A) (A) (A) (A) (A) (A) (A)
                 (A)
 The electronic state is 1-A.
 Alpha  occ. eigenvalues --  -19.22905 -19.22756 -19.19774 -19.19696 -19.18386
 Alpha  occ. eigenvalues --  -19.16909 -19.16887 -19.14666 -19.14339 -19.14207
 Alpha  occ. eigenvalues --  -19.13491 -10.34814 -10.33474 -10.31591 -10.29190
 Alpha  occ. eigenvalues --  -10.27589 -10.27046 -10.26900 -10.25793 -10.24543
 Alpha  occ. eigenvalues --  -10.24158 -10.24028 -10.22515 -10.22120 -10.21964
 Alpha  occ. eigenvalues --  -10.21939 -10.21762 -10.20971 -10.20849 -10.20658
 Alpha  occ. eigenvalues --  -10.20351 -10.19965 -10.19821 -10.19373  -1.13785
 Alpha  occ. eigenvalues --   -1.12300  -1.10172  -1.07675  -1.06259  -1.05638
 Alpha  occ. eigenvalues --   -1.03904  -1.02906  -1.02660  -1.01288  -1.00465
 Alpha  occ. eigenvalues --   -0.88212  -0.86417  -0.84379  -0.81310  -0.79213
 Alpha  occ. eigenvalues --   -0.77445  -0.76165  -0.75912  -0.74625  -0.71676
 Alpha  occ. eigenvalues --   -0.71063  -0.69906  -0.66518  -0.65629  -0.64549
 Alpha  occ. eigenvalues --   -0.63787  -0.62955  -0.61641  -0.59164  -0.58530
 Alpha  occ. eigenvalues --   -0.57227  -0.55602  -0.55185  -0.54029  -0.52945
 Alpha  occ. eigenvalues --   -0.51925  -0.51619  -0.51189  -0.50468  -0.50000
 Alpha  occ. eigenvalues --   -0.49281  -0.48558  -0.48321  -0.47928  -0.47683
 Alpha  occ. eigenvalues --   -0.46954  -0.46546  -0.46031  -0.45672  -0.45058
 Alpha  occ. eigenvalues --   -0.44754  -0.44453  -0.43586  -0.43298  -0.43120
 Alpha  occ. eigenvalues --   -0.42824  -0.42307  -0.41843  -0.41388  -0.40926
 Alpha  occ. eigenvalues --   -0.40629  -0.40079  -0.39836  -0.39455  -0.39088
 Alpha  occ. eigenvalues --   -0.38839  -0.38290  -0.37831  -0.37811  -0.37493
 Alpha  occ. eigenvalues --   -0.36189  -0.35748  -0.35294  -0.34985  -0.34731
 Alpha  occ. eigenvalues --   -0.34586  -0.34021  -0.33653  -0.32465  -0.31395
 Alpha  occ. eigenvalues --   -0.30439  -0.28870  -0.28332  -0.27603  -0.27451
 Alpha  occ. eigenvalues --   -0.26911  -0.26716  -0.25255  -0.23699  -0.22220
 Alpha virt. eigenvalues --   -0.04560  -0.04225  -0.03353  -0.02904   0.03230
 Alpha virt. eigenvalues --    0.04426   0.05162   0.05813   0.06766   0.07682
 Alpha virt. eigenvalues --    0.08013   0.09621   0.10104   0.10211   0.10801
 Alpha virt. eigenvalues --    0.11621   0.11762   0.12121   0.12692   0.13382
 Alpha virt. eigenvalues --    0.13743   0.13838   0.14339   0.14975   0.15343
 Alpha virt. eigenvalues --    0.15816   0.15993   0.16425   0.16609   0.16911
 Alpha virt. eigenvalues --    0.17259   0.17434   0.17702   0.18159   0.18529
 Alpha virt. eigenvalues --    0.19419   0.19855   0.19962   0.20484   0.20973
 Alpha virt. eigenvalues --    0.21435   0.21983   0.23124   0.23752   0.24168
 Alpha virt. eigenvalues --    0.25137   0.25587   0.25809   0.26573   0.27177
 Alpha virt. eigenvalues --    0.27946   0.28990   0.29922   0.30386   0.31632
 Alpha virt. eigenvalues --    0.32211   0.32372   0.33785   0.36855   0.37667
 Alpha virt. eigenvalues --    0.38971   0.40083   0.40432   0.40799   0.41926
 Alpha virt. eigenvalues --    0.42952   0.45021   0.46411   0.47556   0.49530
 Alpha virt. eigenvalues --    0.49837   0.50143   0.50758   0.51035   0.51629
 Alpha virt. eigenvalues --    0.52188   0.52461   0.52871   0.53648   0.54021
 Alpha virt. eigenvalues --    0.54679   0.55350   0.56122   0.56590   0.56845
 Alpha virt. eigenvalues --    0.57321   0.57563   0.58352   0.58490   0.58597
 Alpha virt. eigenvalues --    0.59312   0.59745   0.60093   0.60802   0.61967
 Alpha virt. eigenvalues --    0.62290   0.62521   0.62889   0.63884   0.64414
 Alpha virt. eigenvalues --    0.65188   0.65314   0.65511   0.66031   0.66776
 Alpha virt. eigenvalues --    0.67277   0.68250   0.69020   0.69166   0.70083
 Alpha virt. eigenvalues --    0.70423   0.71252   0.71976   0.72699   0.73251
 Alpha virt. eigenvalues --    0.73424   0.73784   0.74904   0.75047   0.75387
 Alpha virt. eigenvalues --    0.75686   0.76435   0.76744   0.78186   0.78783
 Alpha virt. eigenvalues --    0.79647   0.80295   0.80963   0.81889   0.82199
 Alpha virt. eigenvalues --    0.82957   0.83507   0.83950   0.84326   0.84582
 Alpha virt. eigenvalues --    0.84883   0.85329   0.85846   0.86277   0.86810
 Alpha virt. eigenvalues --    0.87475   0.87822   0.88217   0.88935   0.89824
 Alpha virt. eigenvalues --    0.89983   0.90673   0.91047   0.91250   0.92455
 Alpha virt. eigenvalues --    0.92548   0.93447   0.94135   0.94299   0.94998
 Alpha virt. eigenvalues --    0.95486   0.95971   0.96724   0.97100   0.97472
 Alpha virt. eigenvalues --    0.97999   0.98680   1.00001   1.00355   1.00581
 Alpha virt. eigenvalues --    1.00820   1.01221   1.02455   1.02941   1.03177
 Alpha virt. eigenvalues --    1.04080   1.05079   1.05458   1.06687   1.07364
 Alpha virt. eigenvalues --    1.07912   1.08579   1.09844   1.10377   1.10908
 Alpha virt. eigenvalues --    1.11537   1.12258   1.12513   1.14281   1.15779
 Alpha virt. eigenvalues --    1.16182   1.17636   1.19208   1.20337   1.20444
 Alpha virt. eigenvalues --    1.21657   1.22134   1.23351   1.23715   1.24372
 Alpha virt. eigenvalues --    1.24460   1.25718   1.26437   1.27001   1.27571
 Alpha virt. eigenvalues --    1.28540   1.29877   1.32055   1.32971   1.33593
 Alpha virt. eigenvalues --    1.34283   1.34917   1.36144   1.37193   1.37304
 Alpha virt. eigenvalues --    1.37875   1.38616   1.39231   1.40172   1.41528
 Alpha virt. eigenvalues --    1.41779   1.42132   1.42816   1.43156   1.44563
 Alpha virt. eigenvalues --    1.44821   1.45899   1.46799   1.49055   1.49268
 Alpha virt. eigenvalues --    1.51263   1.51374   1.54525   1.55724   1.58348
 Alpha virt. eigenvalues --    1.59676   1.60956   1.62148   1.62803   1.64805
 Alpha virt. eigenvalues --    1.65713   1.66239   1.67235   1.68247   1.68454
 Alpha virt. eigenvalues --    1.69196   1.70198   1.70515   1.70619   1.71425
 Alpha virt. eigenvalues --    1.71770   1.72351   1.73127   1.73611   1.73959
 Alpha virt. eigenvalues --    1.74587   1.75454   1.75618   1.76952   1.77144
 Alpha virt. eigenvalues --    1.78162   1.78753   1.79549   1.79952   1.80629
 Alpha virt. eigenvalues --    1.80747   1.81316   1.82376   1.83090   1.83490
 Alpha virt. eigenvalues --    1.83748   1.84254   1.85059   1.85446   1.85925
 Alpha virt. eigenvalues --    1.87016   1.87680   1.87953   1.88425   1.88962
 Alpha virt. eigenvalues --    1.89516   1.89926   1.90402   1.91947   1.93031
 Alpha virt. eigenvalues --    1.93144   1.93326   1.93996   1.94324   1.95263
 Alpha virt. eigenvalues --    1.96147   1.96933   1.98078   1.98690   1.99523
 Alpha virt. eigenvalues --    2.00620   2.00956   2.01404   2.02631   2.03714
 Alpha virt. eigenvalues --    2.04062   2.04796   2.05012   2.05846   2.06105
 Alpha virt. eigenvalues --    2.06841   2.08277   2.09176   2.10842   2.11285
 Alpha virt. eigenvalues --    2.12655   2.13030   2.13896   2.14871   2.15724
 Alpha virt. eigenvalues --    2.18521   2.19610   2.21234   2.22375   2.22854
 Alpha virt. eigenvalues --    2.24391   2.24598   2.26499   2.26650   2.27246
 Alpha virt. eigenvalues --    2.27840   2.28506   2.29627   2.30186   2.30476
 Alpha virt. eigenvalues --    2.30741   2.32081   2.33301   2.33783   2.34525
 Alpha virt. eigenvalues --    2.34644   2.35308   2.36007   2.37048   2.37706
 Alpha virt. eigenvalues --    2.38515   2.40189   2.40881   2.42030   2.42574
 Alpha virt. eigenvalues --    2.43207   2.43737   2.45228   2.46712   2.47331
 Alpha virt. eigenvalues --    2.47751   2.49225   2.49782   2.52214   2.52731
 Alpha virt. eigenvalues --    2.53322   2.54568   2.56265   2.56911   2.58493
 Alpha virt. eigenvalues --    2.59231   2.59498   2.61144   2.63612   2.65046
 Alpha virt. eigenvalues --    2.65443   2.65620   2.66971   2.69051   2.69692
 Alpha virt. eigenvalues --    2.70665   2.71031   2.71082   2.72848   2.74303
 Alpha virt. eigenvalues --    2.76665   2.76913   2.77112   2.80741   2.81385
 Alpha virt. eigenvalues --    2.84021   2.84574   2.85296   2.87935   2.90668
 Alpha virt. eigenvalues --    2.91080   2.93187   2.94110   2.95387   2.95948
 Alpha virt. eigenvalues --    2.98800   3.00450   3.01960   3.03490   3.05906
 Alpha virt. eigenvalues --    3.06544   3.10382   3.11747   3.13682   3.16667
 Alpha virt. eigenvalues --    3.22549   3.22801   3.40949   3.49470   3.77021
 Alpha virt. eigenvalues --    3.87985   3.95098   3.96216   3.96875   3.99336
 Alpha virt. eigenvalues --    4.05226   4.08215   4.09273   4.14851   4.17208
 Alpha virt. eigenvalues --    4.18196   4.19333   4.22957   4.23551   4.25406
 Alpha virt. eigenvalues --    4.26752   4.30076   4.33196   4.36100   4.38688
 Alpha virt. eigenvalues --    4.39849   4.43876   4.44870   4.48364   4.52509
 Alpha virt. eigenvalues --    4.53752   4.57767   4.59628   4.63426   4.72877
 Alpha virt. eigenvalues --    4.73692   4.78753   4.87316
          Condensed to atoms (all electrons):
 Mulliken atomic charges:
              1
     1  C    0.111848
     2  C    0.296375
     3  C   -0.275402
     4  C    0.126371
     5  C   -0.063567
     6  C    0.227935
     7  C    0.067907
     8  C    0.281399
     9  O   -0.514185
    10  C    0.638414
    11  C   -0.358358
    12  C    0.230961
    13  C   -0.308094
    14  C   -0.340038
    15  C   -0.572201
    16  O   -0.672657
    17  O   -0.640914
    18  O   -0.535405
    19  O   -0.541181
    20  C    0.090403
    21  C    0.101622
    22  C    0.102884
    23  C   -0.137509
    24  C    0.052186
    25  C   -0.350757
    26  O   -0.689723
    27  O   -0.639581
    28  C    0.602197
    29  O   -0.458607
    30  O   -0.490137
    31  C   -0.224023
    32  C    0.598156
    33  O   -0.580633
    34  O   -0.466952
    35  H    0.143635
    36  H    0.190922
    37  H    0.170298
    38  H    0.166780
    39  H    0.171411
    40  H    0.188361
    41  H    0.174720
    42  H    0.154034
    43  H    0.206640
    44  H    0.167460
    45  H    0.450431
    46  H    0.419686
    47  H    0.144174
    48  H    0.142112
    49  H    0.144944
    50  H    0.180575
    51  H    0.169947
    52  H    0.176555
    53  H    0.428167
    54  H    0.404702
    55  H    0.171133
    56  H    0.168028
    57  H    0.172014
    58  H    0.424535
 Sum of Mulliken atomic charges =   0.00000
 Mulliken charges with hydrogens summed into heavy atoms:
              1
     1  C    0.111848
     2  C    0.296375
     3  C   -0.131766
     4  C    0.126371
     5  C   -0.063567
     6  C    0.227935
     7  C    0.067907
     8  C    0.281399
     9  O   -0.514185
    10  C    0.638414
    11  C    0.002862
    12  C    0.230961
    13  C    0.030096
    14  C    0.023043
    15  C   -0.044066
    16  O   -0.222226
    17  O   -0.221228
    18  O   -0.535405
    19  O   -0.541181
    20  C    0.234577
    21  C    0.243734
    22  C    0.247827
    23  C    0.043066
    24  C    0.052186
    25  C   -0.004254
    26  O   -0.261557
    27  O   -0.234879
    28  C    0.602197
    29  O   -0.458607
    30  O   -0.490137
    31  C    0.287152
    32  C    0.598156
    33  O   -0.156098
    34  O   -0.466952
 Sum of Mulliken charges with hydrogens summed into heavy atoms =   0.00000
 Electronic spatial extent (au):  <R**2>=          15057.4411
 Charge=              0.0000 electrons
 Dipole moment (field-independent basis, Debye):
    X=             -0.0711    Y=             -3.5616    Z=              2.2941  Tot=              4.2370
 Quadrupole moment (field-independent basis, Debye-Ang):
   XX=           -186.4620   YY=           -201.7220   ZZ=           -201.4340
   XY=            -26.6555   XZ=            -12.5447   YZ=              3.2979
 Traceless Quadrupole moment (field-independent basis, Debye-Ang):
   XX=             10.0773   YY=             -5.1827   ZZ=             -4.8947
   XY=            -26.6555   XZ=            -12.5447   YZ=              3.2979
 Octapole moment (field-independent basis, Debye-Ang**2):
  XXX=             29.5583  YYY=           -133.1449  ZZZ=              2.2280  XYY=            -18.2316
  XXY=             -6.4730  XXZ=            105.1970  XZZ=              7.0547  YZZ=             38.1170
  YYZ=             -9.2822  XYZ=             14.2033
 Hexadecapole moment (field-independent basis, Debye-Ang**3):
 XXXX=         -10461.8809 YYYY=          -6263.0560 ZZZZ=          -2299.9471 XXXY=           -542.0195
 XXXZ=           -207.1115 YYYX=           -380.5876 YYYZ=             28.6061 ZZZX=           -144.8257
 ZZZY=             25.5005 XXYY=          -2723.4786 XXZZ=          -2060.0772 YYZZ=          -1368.3050
 XXYZ=             20.5203 YYXZ=             40.4583 ZZXY=           -114.8053
 N-N= 3.844989060713D+03 E-N=-1.170301593137D+04  KE= 1.702872667435D+03
 Calling FoFJK, ICntrl=      2127 FMM=T ISym2X=0 I1Cent= 0 IOpClX= 0 NMat=1 NMatS=1 NMatT=0.
 ***** Axes restored to original set *****
 -------------------------------------------------------------------
 Center     Atomic                   Forces (Hartrees/Bohr)
 Number     Number              X              Y              Z
 -------------------------------------------------------------------
      1        6          -0.000724389   -0.008523995   -0.000946770
      2        6          -0.004176348    0.006355857   -0.001238644
      3        6          -0.007411191    0.006138654    0.000426004
      4        6           0.002342055    0.021663643    0.005342472
      5        6          -0.019668420   -0.016487522   -0.009115384
      6        6           0.008889441   -0.023752801   -0.002421925
      7        6           0.011278129   -0.009137092    0.006779067
      8        6          -0.001153088   -0.007192377   -0.003822472
      9        8          -0.009507070    0.007768665   -0.000880208
     10        6           0.034238201    0.014573452    0.013461141
     11        6           0.000430125   -0.000168995   -0.002764359
     12        6           0.003860208   -0.002549071   -0.005628446
     13        6          -0.004727498   -0.004081120   -0.002280503
     14        6           0.001347093   -0.011035451    0.001498153
     15        6          -0.000092770   -0.000644024    0.002075252
     16        8           0.004605417    0.021277844    0.005606909
     17        8           0.000310461   -0.004687684   -0.000891814
     18        8          -0.023973763   -0.004191024   -0.008263550
     19        8           0.001601893    0.010323261   -0.011933576
     20        6          -0.004348946   -0.013529480    0.012196865
     21        6          -0.001415376    0.015452687   -0.013576191
     22        6          -0.013401148   -0.003219979   -0.000219640
     23        6           0.003648137   -0.005255996   -0.002409680
     24        6          -0.004483391    0.010034739    0.008366272
     25        6           0.003806410    0.000781574   -0.007371824
     26        8           0.004684499   -0.002211261    0.002061086
     27        8          -0.006884506   -0.000411253    0.002466443
     28        6          -0.005376953    0.008175634    0.004966707
     29        8           0.003889793   -0.000319687    0.007868982
     30        8           0.001097461   -0.007390497   -0.013076543
     31        6           0.008348727   -0.007593639   -0.001600420
     32        6           0.009291815    0.017372042    0.003532481
     33        8          -0.003376094    0.001226453   -0.004142698
     34        8          -0.002425853   -0.015932873    0.000726080
     35        1           0.000421773   -0.002122181   -0.000105438
     36        1          -0.004619364    0.004423046    0.003983241
     37        1           0.001948408   -0.000440595   -0.001226860
     38        1           0.002160946    0.002081336    0.003494947
     39        1           0.002150891    0.001603648    0.001830975
     40        1          -0.000127139   -0.001155626   -0.000718597
     41        1           0.000320012   -0.002124048    0.000258488
     42        1           0.003550112    0.002328407    0.001029806
     43        1          -0.003410985    0.002062764   -0.002935731
     44        1           0.005187103   -0.000079516    0.000401393
     45        1          -0.006781980    0.005532999   -0.000618192
     46        1          -0.000812866   -0.000827072    0.000461046
     47        1          -0.000300625    0.000429182    0.000786583
     48        1           0.009275055   -0.006509111    0.005168056
     49        1           0.003854465    0.004703013   -0.007738987
     50        1           0.000086379   -0.001529924   -0.001843539
     51        1           0.001244707   -0.004015319   -0.000301259
     52        1          -0.001005097    0.001796231   -0.002693097
     53        1          -0.000176454    0.002129540    0.008326256
     54        1           0.003014641   -0.001176812    0.002612962
     55        1          -0.004559213    0.002752190   -0.002320035
     56        1          -0.001706916   -0.000764360    0.003562548
     57        1           0.001417152    0.003071908    0.002006517
     58        1          -0.001654067   -0.004998385    0.001789646
 -------------------------------------------------------------------
 Cartesian Forces:  Max     0.034238201 RMS     0.007259904

 GradGradGradGradGradGradGradGradGradGradGradGradGradGradGradGradGradGrad
 Berny optimization.
 Internal  Forces:  Max     0.027513714 RMS     0.004545641
 Search for a local minimum.
 Step number   1 out of a maximum of  340
 All quantities printed in internal units (Hartrees-Bohrs-Radians)
 Mixed Optimization -- RFO/linear search
 Second derivative matrix not updated -- first step.
 ITU=  0
     Eigenvalues ---    0.00241   0.00499   0.00503   0.00543   0.00563
     Eigenvalues ---    0.00700   0.00716   0.00892   0.01150   0.01165
     Eigenvalues ---    0.01176   0.01181   0.01221   0.01276   0.01305
     Eigenvalues ---    0.01321   0.01353   0.01356   0.01365   0.01425
     Eigenvalues ---    0.01513   0.01648   0.01711   0.01738   0.01807
     Eigenvalues ---    0.01910   0.01982   0.02022   0.02036   0.02100
     Eigenvalues ---    0.02110   0.02126   0.02128   0.02256   0.02317
     Eigenvalues ---    0.02796   0.03049   0.03425   0.03593   0.04025
     Eigenvalues ---    0.04335   0.04735   0.04865   0.04936   0.05001
     Eigenvalues ---    0.05180   0.05430   0.05740   0.05766   0.05843
     Eigenvalues ---    0.06254   0.06645   0.07077   0.07159   0.07316
     Eigenvalues ---    0.07732   0.08090   0.08103   0.08150   0.08264
     Eigenvalues ---    0.09512   0.09566   0.09707   0.09916   0.10041
     Eigenvalues ---    0.10113   0.10503   0.11852   0.12055   0.14231
     Eigenvalues ---    0.14720   0.16000   0.16000   0.16000   0.16000
     Eigenvalues ---    0.16000   0.16000   0.16000   0.16000   0.16000
     Eigenvalues ---    0.16000   0.16000   0.16000   0.16612   0.16717
     Eigenvalues ---    0.17076   0.18810   0.19363   0.19803   0.22997
     Eigenvalues ---    0.23521   0.24324   0.24944   0.24989   0.24989
     Eigenvalues ---    0.24991   0.24994   0.24996   0.24998   0.24999
     Eigenvalues ---    0.24999   0.25000   0.25000   0.25000   0.25000
     Eigenvalues ---    0.25000   0.25000   0.26884   0.27465   0.27634
     Eigenvalues ---    0.27681   0.27953   0.28544   0.28555   0.30425
     Eigenvalues ---    0.31330   0.31435   0.31984   0.32420   0.32655
     Eigenvalues ---    0.33398   0.33827   0.33855   0.33896   0.33942
     Eigenvalues ---    0.33950   0.33990   0.33999   0.34066   0.34073
     Eigenvalues ---    0.34205   0.34278   0.34299   0.34308   0.34371
     Eigenvalues ---    0.34373   0.34400   0.34408   0.34700   0.34936
     Eigenvalues ---    0.35163   0.38378   0.39455   0.39729   0.39775
     Eigenvalues ---    0.40850   0.41275   0.41627   0.43240   0.44391
     Eigenvalues ---    0.45236   0.45477   0.45969   0.49719   0.50205
     Eigenvalues ---    0.50661   0.50918   0.51220   0.51555   0.52120
     Eigenvalues ---    0.52636   0.53270   0.53491   0.53788   0.54443
     Eigenvalues ---    0.91565   0.94996   0.95395
 RFO step:  Lambda=-2.65820437D-02 EMin= 2.40519912D-03
 Linear search not attempted -- first point.
 Maximum step size (   0.300) exceeded in Quadratic search.
    -- Step size scaled by   1.000
 Iteration  1 RMS(Cart)=  0.06441790 RMS(Int)=  0.00167311
 Iteration  2 RMS(Cart)=  0.00364146 RMS(Int)=  0.00039529
 Iteration  3 RMS(Cart)=  0.00000645 RMS(Int)=  0.00039527
 Iteration  4 RMS(Cart)=  0.00000001 RMS(Int)=  0.00039527
 Variable       Old X    -DE/DX   Delta X   Delta X   Delta X     New X
                                 (Linear)    (Quad)   (Total)
    R1        2.64072   0.00638   0.00000   0.01209   0.01239   2.65311
    R2        2.65279  -0.00109   0.00000  -0.00254  -0.00263   2.65016
    R3        2.84172   0.00401   0.00000   0.01158   0.01158   2.85331
    R4        2.63991   0.00194   0.00000   0.00326   0.00364   2.64355
    R5        2.58328  -0.00450   0.00000  -0.00830  -0.00830   2.57498
    R6        2.64738  -0.00431   0.00000  -0.00870  -0.00861   2.63877
    R7        2.05411  -0.00216   0.00000  -0.00572  -0.00572   2.04839
    R8        2.64695   0.01192   0.00000   0.02759   0.02697   2.67392
    R9        2.78299  -0.00916   0.00000  -0.02269  -0.02261   2.76037
   R10        2.66951   0.00140   0.00000   0.00510   0.00366   2.67317
   R11        2.79713  -0.01009   0.00000  -0.02498  -0.02621   2.77092
   R12        2.59843  -0.02751   0.00000  -0.05184  -0.05208   2.54635
   R13        2.53806   0.00389   0.00000   0.00695   0.00736   2.54543
   R14        2.86288  -0.00148   0.00000  -0.00384  -0.00384   2.85904
   R15        2.66006  -0.02003   0.00000  -0.04445  -0.04411   2.61595
   R16        2.84282  -0.00626   0.00000  -0.01682  -0.01681   2.82601
   R17        2.57062  -0.00281   0.00000  -0.00606  -0.00611   2.56452
   R18        2.32121  -0.00086   0.00000  -0.00109  -0.00097   2.32024
   R19        2.93026  -0.00470   0.00000  -0.01807  -0.01806   2.91220
   R20        2.07623  -0.00180   0.00000  -0.00493  -0.00493   2.07130
   R21        2.06706  -0.00034   0.00000  -0.00092  -0.00092   2.06614
   R22        2.90967   0.00033   0.00000   0.00103   0.00098   2.91066
   R23        2.72301  -0.00728   0.00000  -0.01727  -0.01727   2.70574
   R24        2.90965  -0.00284   0.00000  -0.00911  -0.00911   2.90054
   R25        2.89335   0.00326   0.00000   0.00898   0.00900   2.90235
   R26        2.07576  -0.00149   0.00000  -0.00408  -0.00408   2.07169
   R27        2.07415  -0.00198   0.00000  -0.00541  -0.00541   2.06874
   R28        2.07347   0.00020   0.00000   0.00054   0.00054   2.07401
   R29        2.07207   0.00048   0.00000   0.00131   0.00131   2.07338
   R30        2.06985   0.00270   0.00000   0.00732   0.00732   2.07717
   R31        2.06709  -0.00258   0.00000  -0.00696  -0.00696   2.06013
   R32        2.06864   0.00296   0.00000   0.00800   0.00800   2.07664
   R33        1.85921   0.00482   0.00000   0.00810   0.00910   1.86831
   R34        1.83402  -0.00043   0.00000  -0.00077  -0.00077   1.83325
   R35        3.21537   0.00329   0.00000   0.02648   0.02759   3.24296
   R36        2.71923   0.00537   0.00000   0.01267   0.01267   2.73191
   R37        2.90708  -0.00218   0.00000  -0.00524  -0.00529   2.90179
   R38        2.90987   0.00043   0.00000   0.00102   0.00105   2.91092
   R39        2.07332   0.00020   0.00000   0.00055   0.00055   2.07388
   R40        2.90885  -0.00801   0.00000  -0.02530  -0.02530   2.88356
   R41        2.71860  -0.00605   0.00000  -0.01425  -0.01425   2.70435
   R42        2.07429   0.00078   0.00000   0.00213   0.00213   2.07642
   R43        2.82258   0.00244   0.00000   0.00675   0.00673   2.82931
   R44        2.69401   0.00644   0.00000   0.01454   0.01454   2.70855
   R45        2.07219   0.00488   0.00000   0.01329   0.01329   2.08548
   R46        2.54238  -0.00500   0.00000  -0.00898  -0.00897   2.53341
   R47        2.05778  -0.00181   0.00000  -0.00482  -0.00482   2.05297
   R48        2.83907   0.00704   0.00000   0.01944   0.01947   2.85853
   R49        2.81659   0.00399   0.00000   0.01106   0.01106   2.82765
   R50        2.06647   0.00067   0.00000   0.00179   0.00179   2.06826
   R51        2.07506  -0.00061   0.00000  -0.00168  -0.00168   2.07338
   R52        1.85354  -0.00844   0.00000  -0.01566  -0.01566   1.83787
   R53        1.84485  -0.00395   0.00000  -0.00720  -0.00720   1.83764
   R54        2.56498  -0.00226   0.00000  -0.00402  -0.00402   2.56096
   R55        2.30712  -0.01248   0.00000  -0.01278  -0.01278   2.29434
   R56        2.69857   0.00461   0.00000   0.01048   0.01048   2.70905
   R57        2.06660  -0.00112   0.00000  -0.00302  -0.00302   2.06358
   R58        2.06829  -0.00072   0.00000  -0.00195  -0.00195   2.06634
   R59        2.06814  -0.00079   0.00000  -0.00213  -0.00213   2.06601
   R60        2.55630   0.00356   0.00000   0.00623   0.00623   2.56253
   R61        2.30542  -0.01406   0.00000  -0.01433  -0.01433   2.29109
   R62        1.85650  -0.00481   0.00000  -0.00897  -0.00897   1.84753
    A1        2.04943  -0.00054   0.00000  -0.00156  -0.00200   2.04742
    A2        2.11868  -0.00078   0.00000  -0.00299  -0.00277   2.11591
    A3        2.11477   0.00133   0.00000   0.00465   0.00486   2.11964
    A4        2.12186   0.00421   0.00000   0.01486   0.01488   2.13674
    A5        2.14752  -0.00708   0.00000  -0.02539  -0.02541   2.12211
    A6        2.01381   0.00286   0.00000   0.01053   0.01051   2.02431
    A7        2.11439  -0.00590   0.00000  -0.02185  -0.02203   2.09236
    A8        2.04652   0.00298   0.00000   0.01108   0.01116   2.05769
    A9        2.12225   0.00292   0.00000   0.01074   0.01082   2.13307
   A10        2.05924   0.00565   0.00000   0.02155   0.02111   2.08036
   A11        2.13474   0.00385   0.00000   0.00757   0.00841   2.14315
   A12        2.08916  -0.00949   0.00000  -0.02907  -0.02949   2.05967
   A13        2.10377  -0.00370   0.00000  -0.01445  -0.01358   2.09019
   A14        2.08747   0.00283   0.00000   0.01131   0.01220   2.09967
   A15        2.09190   0.00087   0.00000   0.00313   0.00136   2.09326
   A16        2.11675   0.00030   0.00000   0.00183   0.00194   2.11869
   A17        2.03912   0.00489   0.00000   0.01320   0.01499   2.05411
   A18        2.12732  -0.00519   0.00000  -0.01503  -0.01694   2.11038
   A19        2.05741   0.00358   0.00000   0.01468   0.01461   2.07202
   A20        2.11181  -0.00069   0.00000  -0.00510  -0.00507   2.10674
   A21        2.11327  -0.00287   0.00000  -0.00913  -0.00917   2.10410
   A22        2.14672   0.00192   0.00000   0.00333   0.00350   2.15022
   A23        2.16072   0.00800   0.00000   0.03326   0.03316   2.19387
   A24        1.97560  -0.00992   0.00000  -0.03657  -0.03664   1.93897
   A25        2.13089   0.00074   0.00000  -0.00116  -0.00161   2.12928
   A26        2.05145   0.00045   0.00000   0.00164   0.00147   2.05292
   A27        2.10060   0.02586   0.00000   0.09598   0.09478   2.19538
   A28        2.13106  -0.02631   0.00000  -0.09765  -0.09627   2.03479
   A29        1.98153  -0.00241   0.00000  -0.01251  -0.01249   1.96903
   A30        1.87412   0.00595   0.00000   0.04591   0.04586   1.91998
   A31        1.93198  -0.00099   0.00000  -0.00710  -0.00706   1.92492
   A32        1.92315  -0.00463   0.00000  -0.03275  -0.03258   1.89057
   A33        1.89469   0.00327   0.00000   0.01723   0.01727   1.91196
   A34        1.85424  -0.00121   0.00000  -0.01142  -0.01143   1.84282
   A35        1.88212   0.00386   0.00000   0.02073   0.02065   1.90277
   A36        1.98544   0.00103   0.00000   0.00102   0.00119   1.98663
   A37        1.91653  -0.00389   0.00000  -0.01341  -0.01349   1.90304
   A38        1.84912  -0.00418   0.00000  -0.02267  -0.02264   1.82647
   A39        1.87445   0.00123   0.00000   0.00668   0.00680   1.88125
   A40        1.95043   0.00213   0.00000   0.00858   0.00856   1.95898
   A41        1.94245   0.00063   0.00000   0.00113   0.00116   1.94361
   A42        1.92145  -0.00358   0.00000  -0.02656  -0.02663   1.89482
   A43        1.93398  -0.00077   0.00000  -0.01197  -0.01194   1.92204
   A44        1.91383   0.00262   0.00000   0.01602   0.01597   1.92981
   A45        1.89041   0.00018   0.00000   0.01177   0.01169   1.90211
   A46        1.85964   0.00104   0.00000   0.01088   0.01047   1.87010
   A47        1.98429  -0.00683   0.00000  -0.02917  -0.02910   1.95519
   A48        1.89010   0.00147   0.00000   0.00822   0.00830   1.89840
   A49        1.91408   0.00150   0.00000  -0.00233  -0.00221   1.91187
   A50        1.91005   0.00304   0.00000   0.01685   0.01688   1.92693
   A51        1.89830   0.00282   0.00000   0.01419   0.01397   1.91227
   A52        1.86322  -0.00175   0.00000  -0.00657  -0.00672   1.85651
   A53        1.92448   0.00338   0.00000   0.02031   0.02022   1.94469
   A54        1.97113  -0.00687   0.00000  -0.03783  -0.03760   1.93353
   A55        1.91842   0.00603   0.00000   0.03105   0.03098   1.94940
   A56        1.85630   0.00230   0.00000   0.01451   0.01471   1.87101
   A57        1.90767  -0.00432   0.00000  -0.02113  -0.02149   1.88618
   A58        1.88389  -0.00081   0.00000  -0.00845  -0.00821   1.87568
   A59        1.90902  -0.01948   0.00000  -0.10055  -0.10147   1.80755
   A60        1.91799  -0.00162   0.00000  -0.00867  -0.00867   1.90932
   A61        2.05999   0.01016   0.00000   0.03672   0.03672   2.09672
   A62        1.87384   0.00137   0.00000   0.00985   0.00983   1.88366
   A63        1.90298  -0.00067   0.00000   0.00165   0.00147   1.90445
   A64        1.92898  -0.00019   0.00000  -0.00685  -0.00685   1.92213
   A65        1.91560   0.00191   0.00000   0.01298   0.01285   1.92845
   A66        1.89867  -0.00162   0.00000  -0.00822  -0.00817   1.89050
   A67        1.94251  -0.00069   0.00000  -0.00858  -0.00850   1.93402
   A68        1.93710   0.00432   0.00000   0.01775   0.01799   1.95509
   A69        1.92698   0.00685   0.00000   0.04422   0.04440   1.97138
   A70        1.92900  -0.00445   0.00000  -0.02793  -0.02894   1.90006
   A71        1.88974  -0.01041   0.00000  -0.05346  -0.05362   1.83612
   A72        1.93354  -0.00190   0.00000  -0.03807  -0.03786   1.89568
   A73        1.84502   0.00556   0.00000   0.05905   0.05824   1.90327
   A74        1.98026  -0.00257   0.00000  -0.01171  -0.01199   1.96827
   A75        1.90310   0.00433   0.00000   0.02192   0.02205   1.92515
   A76        1.92625  -0.00437   0.00000  -0.03924  -0.03947   1.88678
   A77        1.88669  -0.00144   0.00000  -0.00135  -0.00124   1.88546
   A78        1.90180   0.00239   0.00000   0.00380   0.00306   1.90486
   A79        1.86161   0.00200   0.00000   0.03012   0.03037   1.89198
   A80        2.14683   0.00203   0.00000   0.01011   0.01008   2.15691
   A81        2.03025   0.00029   0.00000   0.00193   0.00195   2.03220
   A82        2.10609  -0.00232   0.00000  -0.01204  -0.01203   2.09407
   A83        2.13631   0.00151   0.00000   0.00618   0.00615   2.14247
   A84        2.06836  -0.00338   0.00000  -0.01249  -0.01254   2.05582
   A85        2.07817   0.00190   0.00000   0.00674   0.00668   2.08486
   A86        2.00093  -0.00539   0.00000  -0.02028  -0.02024   1.98069
   A87        1.88773   0.00395   0.00000   0.02920   0.02932   1.91705
   A88        1.91128  -0.00107   0.00000  -0.01959  -0.01953   1.89175
   A89        1.90127   0.00106   0.00000   0.00555   0.00563   1.90690
   A90        1.90322   0.00356   0.00000   0.01845   0.01810   1.92132
   A91        1.85371  -0.00190   0.00000  -0.01290  -0.01278   1.84092
[...]
     50          1           0        3.699088    3.766594    0.131354
     51          1           0        0.529549    1.026501    0.095167
     52          1           0        1.272509    0.930972   -1.481359
     53          1           0        4.480099   -1.512736   -0.272746
     54          1           0        6.197013    1.302714   -0.206178
     55          1           0       -1.969600    3.910997   -1.210583
     56          1           0       -1.122897    4.978624   -0.039548
     57          1           0       -0.687658    5.041382   -1.762776
     58          1           0        4.243739   -3.448989    1.505970
 ---------------------------------------------------------------------
 Rotational constants (GHZ):      0.1552576      0.0895325      0.0704746

 **********************************************************************

            Population analysis using the SCF density.

 **********************************************************************

 Orbital symmetries:
       Occupied  (A) (A) (A) (A) (A) (A) (A) (A) (A) (A) (A) (A)
                 (A) (A) (A) (A) (A) (A) (A) (A) (A) (A) (A) (A)
                 (A) (A) (A) (A) (A) (A) (A) (A) (A) (A) (A) (A)
                 (A) (A) (A) (A) (A) (A) (A) (A) (A) (A) (A) (A)
                 (A) (A) (A) (A) (A) (A) (A) (A) (A) (A) (A) (A)
                 (A) (A) (A) (A) (A) (A) (A) (A) (A) (A) (A) (A)
                 (A) (A) (A) (A) (A) (A) (A) (A) (A) (A) (A) (A)
                 (A) (A) (A) (A) (A) (A) (A) (A) (A) (A) (A) (A)
                 (A) (A) (A) (A) (A) (A) (A) (A) (A) (A) (A) (A)
                 (A) (A) (A) (A) (A) (A) (A) (A) (A) (A) (A) (A)
                 (A) (A) (A) (A) (A)
       Virtual   (A) (A) (A) (A) (A) (A) (A) (A) (A) (A) (A) (A)
                 (A) (A) (A) (A) (A) (A) (A) (A) (A) (A) (A) (A)
                 (A) (A) (A) (A) (A) (A) (A) (A) (A) (A) (A) (A)
                 (A) (A) (A) (A) (A) (A) (A) (A) (A) (A) (A) (A)
                 (A) (A) (A) (A) (A) (A) (A) (A) (A) (A) (A) (A)
                 (A) (A) (A) (A) (A) (A) (A) (A) (A) (A) (A) (A)
                 (A) (A) (A) (A) (A) (A) (A) (A) (A) (A) (A) (A)
                 (A) (A) (A) (A) (A) (A) (A) (A) (A) (A) (A) (A)
                 (A) (A) (A) (A) (A) (A) (A) (A) (A) (A) (A) (A)
                 (A) (A) (A) (A) (A) (A) (A) (A) (A) (A) (A) (A)
                 (A) (A) (A) (A) (A) (A) (A) (A) (A) (A) (A) (A)
                 (A) (A) (A) (A) (A) (A) (A) (A) (A) (A) (A) (A)
                 (A) (A) (A) (A) (A) (A) (A) (A) (A) (A) (A) (A)
                 (A) (A) (A) (A) (A) (A) (A) (A) (A) (A) (A) (A)
                 (A) (A) (A) (A) (A) (A) (A) (A) (A) (A) (A) (A)
                 (A) (A) (A) (A) (A) (A) (A) (A) (A) (A) (A) (A)
                 (A) (A) (A) (A) (A) (A) (A) (A) (A) (A) (A) (A)
                 (A) (A) (A) (A) (A) (A) (A) (A) (A) (A) (A) (A)
                 (A) (A) (A) (A) (A) (A) (A) (A) (A) (A) (A) (A)
                 (A) (A) (A) (A) (A) (A) (A) (A) (A) (A) (A) (A)
                 (A) (A) (A) (A) (A) (A) (A) (A) (A) (A) (A) (A)
                 (A) (A) (A) (A) (A) (A) (A) (A) (A) (A) (A) (A)
                 (A) (A) (A) (A) (A) (A) (A) (A) (A) (A) (A) (A)
                 (A) (A) (A) (A) (A) (A) (A) (A) (A) (A) (A) (A)
                 (A) (A) (A) (A) (A) (A) (A) (A) (A) (A) (A) (A)
                 (A) (A) (A) (A) (A) (A) (A) (A) (A) (A) (A) (A)
                 (A) (A) (A) (A) (A) (A) (A) (A) (A) (A) (A) (A)
                 (A) (A) (A) (A) (A) (A) (A) (A) (A) (A) (A) (A)
                 (A) (A) (A) (A) (A) (A) (A) (A) (A) (A) (A) (A)
                 (A) (A) (A) (A) (A) (A) (A) (A) (A) (A) (A) (A)
                 (A) (A) (A) (A) (A) (A) (A) (A) (A) (A) (A) (A)
                 (A) (A) (A) (A) (A) (A) (A) (A) (A) (A) (A) (A)
                 (A) (A) (A) (A) (A) (A) (A) (A) (A) (A) (A) (A)
                 (A) (A) (A) (A) (A) (A) (A) (A) (A) (A) (A) (A)
                 (A) (A) (A) (A) (A) (A) (A) (A) (A) (A) (A) (A)
                 (A) (A) (A) (A) (A) (A) (A) (A) (A) (A) (A) (A)
                 (A)
 The electronic state is 1-A.
 Alpha  occ. eigenvalues --  -19.22574 -19.22206 -19.19783 -19.19391 -19.17947
 Alpha  occ. eigenvalues --  -19.17518 -19.16938 -19.15453 -19.14551 -19.14440
 Alpha  occ. eigenvalues --  -19.13213 -10.34448 -10.32962 -10.31418 -10.28471
 Alpha  occ. eigenvalues --  -10.27230 -10.27227 -10.27126 -10.25645 -10.24679
 Alpha  occ. eigenvalues --  -10.24245 -10.24059 -10.22696 -10.21455 -10.21428
 Alpha  occ. eigenvalues --  -10.21354 -10.21299 -10.21171 -10.20879 -10.20555
 Alpha  occ. eigenvalues --  -10.20430 -10.20136 -10.20109 -10.19390  -1.13402
 Alpha  occ. eigenvalues --   -1.12627  -1.10080  -1.08053  -1.06876  -1.06161
 Alpha  occ. eigenvalues --   -1.04388  -1.03504  -1.03021  -1.01288  -1.01073
 Alpha  occ. eigenvalues --   -0.88008  -0.86215  -0.84460  -0.81127  -0.79039
 Alpha  occ. eigenvalues --   -0.77278  -0.76460  -0.76095  -0.74596  -0.71918
 Alpha  occ. eigenvalues --   -0.71028  -0.69580  -0.66568  -0.66123  -0.64546
 Alpha  occ. eigenvalues --   -0.63775  -0.62812  -0.61635  -0.59047  -0.58424
 Alpha  occ. eigenvalues --   -0.57419  -0.55729  -0.55316  -0.54331  -0.52772
 Alpha  occ. eigenvalues --   -0.52002  -0.51752  -0.51255  -0.50753  -0.50042
 Alpha  occ. eigenvalues --   -0.49384  -0.48388  -0.48196  -0.47860  -0.47707
 Alpha  occ. eigenvalues --   -0.46807  -0.46571  -0.45876  -0.45407  -0.44847
 Alpha  occ. eigenvalues --   -0.44503  -0.44296  -0.43545  -0.43425  -0.43082
 Alpha  occ. eigenvalues --   -0.42695  -0.42150  -0.41899  -0.41531  -0.40841
 Alpha  occ. eigenvalues --   -0.40516  -0.40161  -0.40037  -0.39939  -0.39223
 Alpha  occ. eigenvalues --   -0.38807  -0.38492  -0.37836  -0.37722  -0.37552
 Alpha  occ. eigenvalues --   -0.36006  -0.35882  -0.35413  -0.35236  -0.34975
 Alpha  occ. eigenvalues --   -0.34741  -0.33996  -0.33671  -0.32668  -0.31445
 Alpha  occ. eigenvalues --   -0.30248  -0.28851  -0.28577  -0.27975  -0.27753
 Alpha  occ. eigenvalues --   -0.26779  -0.26633  -0.25482  -0.23695  -0.21997
 Alpha virt. eigenvalues --   -0.04821  -0.04199  -0.03104  -0.02620   0.03590
 Alpha virt. eigenvalues --    0.04539   0.05472   0.05972   0.07069   0.07732
 Alpha virt. eigenvalues --    0.08211   0.09806   0.10162   0.11177   0.11542
 Alpha virt. eigenvalues --    0.12031   0.12378   0.12597   0.12775   0.13055
 Alpha virt. eigenvalues --    0.13510   0.14130   0.14601   0.15326   0.15504
 Alpha virt. eigenvalues --    0.16083   0.16430   0.16615   0.16805   0.17277
 Alpha virt. eigenvalues --    0.17347   0.17469   0.17985   0.18345   0.18866
 Alpha virt. eigenvalues --    0.19463   0.19775   0.20052   0.20672   0.21237
 Alpha virt. eigenvalues --    0.21929   0.22004   0.23447   0.23695   0.23931
 Alpha virt. eigenvalues --    0.25567   0.25809   0.26431   0.26691   0.27579
 Alpha virt. eigenvalues --    0.28600   0.29584   0.30436   0.30781   0.31905
 Alpha virt. eigenvalues --    0.32255   0.32736   0.33359   0.37247   0.37526
 Alpha virt. eigenvalues --    0.39609   0.40088   0.40530   0.40831   0.42078
 Alpha virt. eigenvalues --    0.43385   0.45240   0.46595   0.48068   0.49413
 Alpha virt. eigenvalues --    0.50132   0.50675   0.51010   0.51492   0.51730
 Alpha virt. eigenvalues --    0.51843   0.52414   0.52649   0.53223   0.53823
 Alpha virt. eigenvalues --    0.54865   0.55330   0.55791   0.56322   0.56625
 Alpha virt. eigenvalues --    0.56955   0.57466   0.58030   0.58577   0.58961
 Alpha virt. eigenvalues --    0.59635   0.59861   0.60572   0.61046   0.61427
 Alpha virt. eigenvalues --    0.62211   0.62312   0.62885   0.63499   0.64043
 Alpha virt. eigenvalues --    0.64990   0.65506   0.65889   0.66004   0.66977
 Alpha virt. eigenvalues --    0.67081   0.67885   0.68860   0.69395   0.69762
 Alpha virt. eigenvalues --    0.70017   0.71092   0.71626   0.72690   0.72825
 Alpha virt. eigenvalues --    0.73504   0.73781   0.74263   0.75344   0.75544
 Alpha virt. eigenvalues --    0.75703   0.76491   0.76599   0.78510   0.79095
 Alpha virt. eigenvalues --    0.79714   0.80264   0.81251   0.81573   0.82116
 Alpha virt. eigenvalues --    0.82760   0.83768   0.84058   0.84422   0.84645
 Alpha virt. eigenvalues --    0.84969   0.85055   0.85873   0.86065   0.86447
 Alpha virt. eigenvalues --    0.87167   0.87923   0.88294   0.88728   0.90065
 Alpha virt. eigenvalues --    0.90458   0.90678   0.91544   0.91852   0.92325
 Alpha virt. eigenvalues --    0.92650   0.93387   0.94201   0.94296   0.95090
 Alpha virt. eigenvalues --    0.95661   0.96359   0.96716   0.96797   0.97729
 Alpha virt. eigenvalues --    0.98581   0.99025   0.99574   0.99791   1.00385
 Alpha virt. eigenvalues --    1.01065   1.01371   1.01991   1.02576   1.03536
 Alpha virt. eigenvalues --    1.03819   1.04822   1.05007   1.06329   1.06641
 Alpha virt. eigenvalues --    1.07029   1.08681   1.10247   1.10703   1.11325
 Alpha virt. eigenvalues --    1.11863   1.13251   1.13819   1.15159   1.15531
 Alpha virt. eigenvalues --    1.16564   1.17057   1.18634   1.20337   1.20821
 Alpha virt. eigenvalues --    1.21407   1.22427   1.23636   1.23994   1.24201
 Alpha virt. eigenvalues --    1.25662   1.26662   1.27032   1.27213   1.28158
 Alpha virt. eigenvalues --    1.28818   1.29800   1.32134   1.33086   1.33803
 Alpha virt. eigenvalues --    1.34118   1.35679   1.36302   1.37096   1.37784
 Alpha virt. eigenvalues --    1.38204   1.38615   1.39354   1.40291   1.41199
 Alpha virt. eigenvalues --    1.42314   1.42768   1.42888   1.43839   1.45168
 Alpha virt. eigenvalues --    1.45458   1.46290   1.47022   1.49370   1.49570
 Alpha virt. eigenvalues --    1.51561   1.52775   1.55888   1.56061   1.58629
 Alpha virt. eigenvalues --    1.60810   1.61359   1.62007   1.63589   1.64170
 Alpha virt. eigenvalues --    1.65255   1.66476   1.67375   1.68145   1.69033
 Alpha virt. eigenvalues --    1.69921   1.70068   1.70244   1.70685   1.70956
 Alpha virt. eigenvalues --    1.71450   1.71978   1.73333   1.73521   1.73708
 Alpha virt. eigenvalues --    1.74133   1.75205   1.75708   1.76517   1.76728
 Alpha virt. eigenvalues --    1.77967   1.79130   1.79519   1.79793   1.80073
 Alpha virt. eigenvalues --    1.80588   1.81467   1.82321   1.82942   1.83801
 Alpha virt. eigenvalues --    1.84021   1.84479   1.84831   1.85371   1.85998
 Alpha virt. eigenvalues --    1.86814   1.87605   1.87795   1.89024   1.89133
 Alpha virt. eigenvalues --    1.89944   1.90922   1.91343   1.91694   1.92499
 Alpha virt. eigenvalues --    1.94015   1.94211   1.94926   1.95357   1.95863
 Alpha virt. eigenvalues --    1.96177   1.97966   1.98414   1.98603   1.99816
 Alpha virt. eigenvalues --    2.00656   2.01068   2.02083   2.02751   2.04043
 Alpha virt. eigenvalues --    2.04406   2.04819   2.05192   2.05808   2.06837
 Alpha virt. eigenvalues --    2.07836   2.09033   2.09494   2.10679   2.11333
 Alpha virt. eigenvalues --    2.11949   2.13463   2.14712   2.15989   2.16870
 Alpha virt. eigenvalues --    2.18840   2.20220   2.20948   2.21679   2.22551
 Alpha virt. eigenvalues --    2.23963   2.24908   2.26454   2.26531   2.27306
 Alpha virt. eigenvalues --    2.27986   2.28399   2.29019   2.29471   2.30137
 Alpha virt. eigenvalues --    2.31535   2.32796   2.33840   2.34130   2.34447
 Alpha virt. eigenvalues --    2.35054   2.36029   2.36769   2.38017   2.38882
 Alpha virt. eigenvalues --    2.39576   2.40992   2.41216   2.42438   2.42790
 Alpha virt. eigenvalues --    2.43300   2.44932   2.46558   2.47154   2.47716
 Alpha virt. eigenvalues --    2.48334   2.49448   2.50105   2.52726   2.53649
 Alpha virt. eigenvalues --    2.54681   2.55197   2.56515   2.57279   2.58260
 Alpha virt. eigenvalues --    2.58727   2.59725   2.61540   2.63373   2.65034
 Alpha virt. eigenvalues --    2.65952   2.68271   2.68888   2.69428   2.69634
 Alpha virt. eigenvalues --    2.70467   2.70801   2.71787   2.73549   2.75355
 Alpha virt. eigenvalues --    2.77076   2.77565   2.78597   2.80709   2.81779
 Alpha virt. eigenvalues --    2.83890   2.85965   2.86411   2.87433   2.90501
 Alpha virt. eigenvalues --    2.91069   2.93096   2.94667   2.96115   2.96444
 Alpha virt. eigenvalues --    2.98844   3.00137   3.03215   3.05181   3.06556
 Alpha virt. eigenvalues --    3.07642   3.09973   3.13005   3.15776   3.17026
 Alpha virt. eigenvalues --    3.22822   3.23335   3.43937   3.50160   3.79284
 Alpha virt. eigenvalues --    3.90980   3.93243   3.95746   3.96772   3.99711
 Alpha virt. eigenvalues --    4.05105   4.06386   4.09052   4.14577   4.15864
 Alpha virt. eigenvalues --    4.17081   4.19081   4.22278   4.23340   4.25571
 Alpha virt. eigenvalues --    4.26016   4.30725   4.33880   4.34186   4.38501
 Alpha virt. eigenvalues --    4.39783   4.44209   4.47754   4.51118   4.52699
 Alpha virt. eigenvalues --    4.55076   4.58010   4.60302   4.65612   4.71503
 Alpha virt. eigenvalues --    4.75419   4.79803   4.87687
          Condensed to atoms (all electrons):
 Mulliken atomic charges:
              1
     1  C    0.108863
     2  C    0.300777
     3  C   -0.276745
     4  C    0.141489
     5  C   -0.061201
     6  C    0.237520
     7  C    0.055896
     8  C    0.286583
     9  O   -0.499145
    10  C    0.599789
    11  C   -0.360892
    12  C    0.224674
    13  C   -0.303360
    14  C   -0.341132
    15  C   -0.585801
    16  O   -0.660097
    17  O   -0.636734
    18  O   -0.537723
    19  O   -0.542485
    20  C    0.099407
    21  C    0.105788
    22  C    0.106976
    23  C   -0.148375
    24  C    0.055404
    25  C   -0.351181
    26  O   -0.677783
    27  O   -0.637975
    28  C    0.596526
    29  O   -0.465752
    30  O   -0.490268
    31  C   -0.218086
    32  C    0.600462
    33  O   -0.584434
    34  O   -0.457917
    35  H    0.147550
    36  H    0.182946
    37  H    0.170536
    38  H    0.157665
    39  H    0.172774
    40  H    0.189237
    41  H    0.174700
    42  H    0.160769
    43  H    0.209445
    44  H    0.162388
    45  H    0.449143
    46  H    0.422389
    47  H    0.146807
    48  H    0.135897
    49  H    0.141121
    50  H    0.183746
    51  H    0.173510
    52  H    0.174315
    53  H    0.421048
    54  H    0.407338
    55  H    0.167515
    56  H    0.170861
    57  H    0.172914
    58  H    0.422318
 Sum of Mulliken atomic charges =   0.00000
 Mulliken charges with hydrogens summed into heavy atoms:
              1
     1  C    0.108863
     2  C    0.300777
     3  C   -0.129195
     4  C    0.141489
     5  C   -0.061201
     6  C    0.237520
     7  C    0.055896
     8  C    0.286583
     9  O   -0.499145
    10  C    0.599789
    11  C   -0.007411
    12  C    0.224674
    13  C    0.027079
    14  C    0.022806
    15  C   -0.053201
    16  O   -0.210954
    17  O   -0.214345
    18  O   -0.537723
    19  O   -0.542485
    20  C    0.246214
    21  C    0.241685
    22  C    0.248097
    23  C    0.035371
    24  C    0.055404
    25  C   -0.003356
    26  O   -0.256735
    27  O   -0.230637
    28  C    0.596526
    29  O   -0.465752
    30  O   -0.490268
    31  C    0.293203
    32  C    0.600462
    33  O   -0.162116
    34  O   -0.457917
 Sum of Mulliken charges with hydrogens summed into heavy atoms =   0.00000
 Electronic spatial extent (au):  <R**2>=          15737.9407
 Charge=              0.0000 electrons
 Dipole moment (field-independent basis, Debye):
    X=             -0.5420    Y=             -3.2043    Z=              2.2598  Tot=              3.9583
 Quadrupole moment (field-independent basis, Debye-Ang):
   XX=           -193.1964   YY=           -194.5596   ZZ=           -201.8704
   XY=            -31.2760   XZ=            -13.9857   YZ=              2.1010
 Traceless Quadrupole moment (field-independent basis, Debye-Ang):
   XX=              3.3457   YY=              1.9826   ZZ=             -5.3283
   XY=            -31.2760   XZ=            -13.9857   YZ=              2.1010
 Octapole moment (field-independent basis, Debye-Ang**2):
  XXX=             21.0615  YYY=           -118.1461  ZZZ=              1.1626  XYY=            -37.8766
  XXY=            -29.4429  XXZ=            113.5253  XZZ=             15.2541  YZZ=             36.4027
  YYZ=             -1.7877  XYZ=              1.5205
 Hexadecapole moment (field-independent basis, Debye-Ang**3):
 XXXX=         -11362.6660 YYYY=          -6182.2585 ZZZZ=          -2348.4406 XXXY=           -673.6304
 XXXZ=           -253.9599 YYYX=           -554.3836 YYYZ=            -36.2582 ZZZX=           -156.0994
 ZZZY=             20.5069 XXYY=          -2902.9012 XXZZ=          -2232.9726 YYZZ=          -1337.3776
 XXYZ=             36.8801 YYXZ=             53.1200 ZZXY=           -130.7978
 N-N= 3.806668646324D+03 E-N=-1.162657321207D+04  KE= 1.703112720468D+03
 1\1\GINC-B0600\FOpt\RB3LYP\6-31G(d)\C23H24O11\CAOFEI\02-Feb-2021\0\\# 
 opt b3lyp/6-31g(d) geom=connectivity\\Title Card Required\\0,1\C,4.256
 873527,-1.1795881571,-1.4622578136\C,3.8062168046,0.1232079971,-1.1885
 666056\C,2.4685249427,0.5096104616,-1.3317373348\C,1.5240740745,-0.419
 5232873,-1.7645657199\C,1.9440338048,-1.7460122151,-2.0588750493\C,3.3
 100501292,-2.1151568639,-1.9027531009\C,0.113382263,-0.1018548062,-1.9
 358504435\C,-0.7198792369,-1.0606493042,-2.3954042956\O,-0.3043475301,
 -2.3354295677,-2.6827657876\C,1.000057865,-2.7331693822,-2.5235952225\
 C,-0.4084901331,1.2815894668,-1.6140193712\C,-1.9401256386,1.345166592
 ,-1.4883715486\C,-2.5915732328,0.5865281052,-2.6589867419\C,-2.1887714
 237,-0.8925278183,-2.635492581\C,5.7084376793,-1.5563834691,-1.2930562
 314\O,3.7273838813,-3.3632681481,-2.1710569321\O,4.6644884986,1.088805
 7351,-0.7635032236\O,1.2580599921,-3.9042893629,-2.7994946292\O,-2.452
 1641924,0.7053524295,-0.311283748\C,-1.9676388184,1.102058644,0.988243
 0541\C,-3.1959661281,1.2870954404,1.8814358338\C,-2.7781347839,1.75901
 29896,3.2731692645\C,-1.6845970964,0.8982282652,3.8318902342\C,-0.8870
 344038,0.1350642949,3.0691983206\C,-1.0367333744,0.0246900768,1.563759
 5285\O,-4.0918308896,2.265666019,1.3761110817\O,-3.8790857654,1.744327
 4529,4.1721272738\C,0.17122783,-0.6604936984,3.7606066443\O,0.85763863
 24,-1.4351809707,2.8864195507\O,0.4047771102,-0.639552317,4.9526862001
 \C,1.8921561095,-2.2450445587,3.4657083077\C,-2.3933713908,2.819204673
 5,-1.4914629224\O,-3.746930489,2.9292681481,-1.4422973612\O,-1.6669305
 891,3.7852581006,-1.5205979228\H,2.2088378725,1.5372163438,-1.10917325
 6\H,-0.0971238903,1.998333654,-2.3836247897\H,0.0442930412,1.649515119
 7,-0.6882624378\H,-2.2649342159,1.051944215,-3.5971185943\H,-3.6782853
 492,0.6841874055,-2.6007307687\H,-2.7422408103,-1.4238160289,-1.851314
 1113\H,-2.4527731314,-1.3735608557,-3.5847239881\H,6.0505748613,-1.422
 5949407,-0.2565127609\H,5.8590040482,-2.6049823476,-1.5525047677\H,6.3
 669040665,-0.9613845243,-1.942563941\H,2.9305004617,-3.8788006703,-2.4
 684652478\H,5.5606706348,0.7222272916,-0.7052041039\H,-1.4486671079,2.
 0674846279,0.915202146\H,-3.7026978115,0.3144724492,1.9873222919\H,-2.
 3984968274,2.7928014265,3.1692834324\H,-1.5384175743,0.9188360405,4.90
 8305487\H,-0.054144884,0.0665034354,1.0839286221\H,-1.4491915961,-0.95
 92578705,1.3034923904\H,-4.2899020637,2.0290023011,0.4539295232\H,-4.5
 828026336,2.2499246512,3.7317924565\H,2.3403051526,-2.7866452114,2.632
 2157481\H,2.6358907834,-1.6175875242,3.9641276013\H,1.4703778578,-2.94
 07214641,4.1960404997\H,-3.9414589222,3.8848915009,-1.3908021188\\Vers
 ion=EM64L-G09RevB.01\State=1-A\HF=-1718.3748627\RMSD=3.738e-09\RMSF=2.
 950e-06\Dipole=0.1419893,0.9476053,-1.2276505\Quadrupole=22.9093316,-6
 .6968248,-16.2125068,-5.0809996,11.2814313,-9.691872\PG=C01 [X(C23H24O
 11)]\\@


    WHAT WE HAVE LEARNED
 IS LIKE A HANDFUL OF EARTH;
  WHAT WE HAVE YET TO LEARN
   IS LIKE THE WHOLE WORLD.

         -- AVVAYIAR
 Job cpu time:  0 days  5 hours 58 minutes 51.0 seconds.
 File lengths (MBytes):  RWF=    201 Int=      0 D2E=      0 Chk=     21 Scr=      1
 Normal termination of Gaussian 09 at Tue Feb  2 12:34:09 2021.
