 Entering Gaussian System, Link 0=g09
 Initial command:
 /public/software/g09/g09/l1.exe /tmp/Gau-8847.inp -scrdir=/tmp/
 Entering Link 1 = /public/software/g09/g09/l1.exe PID=      8848.
  
 Copyright (c) 1988,1990,1992,1993,1995,1998,2003,2009,2010,
            Gaussian, Inc.  All Rights Reserved.
  
 This is part of the Gaussian(R) 09 program.  It is based on
 the Gaussian(R) 03 system (copyright 2003, Gaussian, Inc.),
 the Gaussian(R) 98 system (copyright 1998, Gaussian, Inc.),
 the Gaussian(R) 94 system (copyright 1995, Gaussian, Inc.),
 the Gaussian 92(TM) system (copyright 1992, Gaussian, Inc.),
 the Gaussian 90(TM) system (copyright 1990, Gaussian, Inc.),
 the Gaussian 88(TM) system (copyright 1988, Gaussian, Inc.),
 the Gaussian 86(TM) system (copyright 1986, Carnegie Mellon
 University), and the Gaussian 82(TM) system (copyright 1983,
 Carnegie Mellon University). Gaussian is a federally registered
 trademark of Gaussian, Inc.
  
 This software contains proprietary and confidential information,
 including trade secrets, belonging to Gaussian, Inc.
  
 This software is provided under written license and may be
 used, copied, transmitted, or stored only in accord with that
 written license.
  
 The following legend is applicable only to US Government
 contracts under FAR:
  
                    RESTRICTED RIGHTS LEGEND
  
 Use, reproduction and disclosure by the US Government is
 subject to restrictions as set forth in subparagraphs (a)
 and (c) of the Commercial Computer Software - Restricted
 Rights clause in FAR 52.227-19.
  
 Gaussian, Inc.
 340 Quinnipiac St., Bldg. 40, Wallingford CT 06492
  
  
 ---------------------------------------------------------------
 Warning -- This program may not be used in any manner that
 competes with the business of Gaussian, Inc. or will provide
 assistance to any competitor of Gaussian, Inc.  The licensee
 of this program is prohibited from giving any competitor of
 Gaussian, Inc. access to this program.  By using this program,
 the user acknowledges that Gaussian, Inc. is engaged in the
 business of creating and licensing software in the field of
 computational chemistry and represents and warrants to the
 licensee that it is not a competitor of Gaussian, Inc. and that
 it will not use this program in any manner prohibited above.
 ---------------------------------------------------------------
  

 Cite this work as:
 Gaussian 09, Revision B.01,
 M. J. Frisch, G. W. Trucks, H. B. Schlegel, G. E. Scuseria, 
 M. A. Robb, J. R. Cheeseman, G. Scalmani, V. Barone, B. Mennucci, 
 G. A. Petersson, H. Nakatsuji, M. Caricato, X. Li, H. P. Hratchian, 
 A. F. Izmaylov, J. Bloino, G. Zheng, J. L. Sonnenberg, M. Hada, 
 M. Ehara, K. Toyota, R. Fukuda, J. Hasegawa, M. Ishida, T. Nakajima, 
 Y. Honda, O. Kitao, H. Nakai, T. Vreven, J. A. Montgomery, Jr., 
 J. E. Peralta, F. Ogliaro, M. Bearpark, J. J. Heyd, E. Brothers, 
 K. N. Kudin, V. N. Staroverov, T. Keith, R. Kobayashi, J. Normand, 
 K. Raghavachari, A. Rendell, J. C. Burant, S. S. Iyengar, J. Tomasi, 
 M. Cossi, N. Rega, J. M. Millam, M. Klene, J. E. Knox, J. B. Cross, 
 V. Bakken, C. Adamo, J. Jaramillo, R. Gomperts, R. E. Stratmann, 
 O. Yazyev, A. J. Austin, R. Cammi, C. Pomelli, J. W. Ochterski, 
 R. L. Martin, K. Morokuma, V. G. Zakrzewski, G. A. Voth, 
 P. Salvador, J. J. Dannenberg, S. Dapprich, A. D. Daniels, 
 O. Farkas, J. B. Foresman, J. V. Ortiz, J. Cioslowski, 
 and D. J. Fox, Gaussian, Inc., Wallingford CT, 2010.
 
 ******************************************
 Gaussian 09:  EM64L-G09RevB.01 12-Aug-2010
                 2-Feb-2021 
 ******************************************
 %mem=600MW
 %nprocshared=10
 Will use up to   10 processors via shared memory.
 --------------------------------------
 # opt b3lyp/6-31g(d) geom=connectivity
 --------------------------------------
 1/14=-1,18=20,19=15,26=3,38=1,57=2/1,3;
 2/9=110,12=2,17=6,18=5,40=1/2;
 3/5=1,6=6,7=1,11=2,16=1,25=1,30=1,71=1,74=-5/1,2,3;
 4//1;
 5/5=2,38=5/2;
 6/7=2,8=2,9=2,10=2,28=1/1;
 7//1,2,3,16;
 1/14=-1,18=20,19=15/3(2);
 2/9=110/2;
 99//99;
 2/9=110/2;
 3/5=1,6=6,7=1,11=2,16=1,25=1,30=1,71=1,74=-5/1,2,3;
 4/5=5,16=3/1;
 5/5=2,38=5/2;
 7//1,2,3,16;
 1/14=-1,18=20,19=15/3(-5);
 2/9=110/2;
 6/7=2,8=2,9=2,10=2,19=2,28=1/1;
 99/9=1/99;
 -------------------
 Title Card Required
 -------------------
 Symbolic Z-matrix:
 Charge =  0 Multiplicity = 1
 C                    -1.37985  -3.07325  -2.81621 
 C                    -0.76421  -1.89174  -3.23413 
 C                    -0.89315  -0.70562  -2.50609 
 C                    -1.65621  -0.6651   -1.32794 
 C                    -2.31835  -1.83429  -0.92575 
 C                    -2.17833  -3.02662  -1.66538 
 C                    -1.76847   0.55304  -0.50468 
 C                    -2.58637   0.51726   0.56077 
 O                    -3.30961  -0.63082   0.93449 
 C                    -3.18386  -1.81305   0.27431 
 C                    -0.94318   1.78625  -0.81665 
 C                    -0.79739   2.75358   0.38454 
 C                    -2.19386   2.98905   0.98864 
 C                    -2.80607   1.67954   1.49092 
 C                    -1.25249  -4.34228  -3.61372 
 O                    -2.81048  -4.19262  -1.30419 
 O                    -0.02255  -1.9075   -4.38241 
 O                    -3.7718   -2.82854   0.63654 
 O                     0.00403   2.237     1.46864 
 C                     1.32842   1.74642   1.18554 
 C                     2.2561    2.21608   2.32413 
 C                     3.66848   1.6178    2.17802 
 C                     3.68053   0.16854   1.82314 
 C                     2.5964   -0.48134   1.36563 
 C                     1.28029   0.2062    1.14893 
 O                     2.40279   3.64711   2.33607 
 O                     4.37107   1.77828   3.40835 
 C                     2.7233   -1.92759   1.02666 
 O                     1.49816  -2.44039   0.7459 
 O                     3.77881  -2.53987   0.99161 
 C                     1.51208  -3.82175   0.38147 
 C                    -0.25128   4.11907  -0.06243 
 O                    -0.87926   4.64969  -1.12906 
 O                     0.65843   4.73327   0.47615 
 H                    -0.39515   0.18567  -2.87358 
 H                    -1.42558   2.29298  -1.66281 
 H                     0.05606   1.50516  -1.1618 
 H                    -2.86207   3.44074   0.24326 
 H                    -2.1386    3.6943    1.82804 
 H                    -2.37776   1.42533   2.46854 
 H                    -3.88109   1.8297    1.64626 
 H                    -0.33348  -4.35834  -4.20827 
 H                    -1.20657  -5.21791  -2.95766 
 H                    -2.10777  -4.44568  -4.28865 
 H                    -3.34743  -4.03567  -0.49547 
 H                     0.32745  -1.02118  -4.56585 
 H                     1.6959    2.15719   0.23722 
 H                     1.82094   1.95614   3.29745 
 H                     4.23673   2.17028   1.41987 
 H                     4.62919  -0.35137   1.94774 
 H                     0.88745  -0.09556   0.1746 
 H                     0.56188  -0.15584   1.89636 
 H                     1.5824    4.03736   1.96731 
 H                     4.25083   2.71773   3.64789 
 H                     0.48001  -4.13411   0.19994 
 H                     2.08549  -3.96731  -0.53926 
 H                     1.92033  -4.42994   1.19464 
 H                    -0.45125   5.52453  -1.25754 
 

 GradGradGradGradGradGradGradGradGradGradGradGradGradGradGradGradGradGrad
 Berny optimization.
 Initialization pass.
                           ----------------------------
                           !    Initial Parameters    !
                           ! (Angstroms and Degrees)  !
 --------------------------                            --------------------------
 ! Name  Definition              Value          Derivative Info.                !
 --------------------------------------------------------------------------------
 ! R1    R(1,2)                  1.3963         estimate D2E/DX2                !
 ! R2    R(1,6)                  1.4015         estimate D2E/DX2                !
 ! R3    R(1,15)                 1.5042         estimate D2E/DX2                !
 ! R4    R(2,3)                  1.3977         estimate D2E/DX2                !
 ! R5    R(2,17)                 1.3671         estimate D2E/DX2                !
 ! R6    R(3,4)                  1.4043         estimate D2E/DX2                !
 ! R7    R(3,35)                 1.0851         estimate D2E/DX2                !
 ! R8    R(4,5)                  1.4026         estimate D2E/DX2                !
 ! R9    R(4,7)                  1.4745         estimate D2E/DX2                !
 ! R10   R(5,6)                  1.4101         estimate D2E/DX2                !
 ! R11   R(5,10)                 1.4798         estimate D2E/DX2                !
 ! R12   R(6,16)                 1.3746         estimate D2E/DX2                !
 ! R13   R(7,8)                  1.3437         estimate D2E/DX2                !
 ! R14   R(7,11)                 1.5163         estimate D2E/DX2                !
 ! R15   R(8,9)                  1.4074         estimate D2E/DX2                !
 ! R16   R(8,14)                 1.5048         estimate D2E/DX2                !
 ! R17   R(9,10)                 1.3599         estimate D2E/DX2                !
 ! R18   R(10,18)                1.228          estimate D2E/DX2                !
 ! R19   R(11,12)                1.5491         estimate D2E/DX2                !
 ! R20   R(11,36)                1.0979         estimate D2E/DX2                !
 ! R21   R(11,37)                1.0939         estimate D2E/DX2                !
 ! R22   R(12,13)                1.5397         estimate D2E/DX2                !
 ! R23   R(12,19)                1.4437         estimate D2E/DX2                !
 ! R24   R(12,32)                1.5371         estimate D2E/DX2                !
 ! R25   R(13,14)                1.5303         estimate D2E/DX2                !
 ! R26   R(13,38)                1.0982         estimate D2E/DX2                !
 ! R27   R(13,39)                1.0977         estimate D2E/DX2                !
 ! R28   R(14,40)                1.0972         estimate D2E/DX2                !
 ! R29   R(14,41)                1.0965         estimate D2E/DX2                !
 ! R30   R(15,42)                1.0947         estimate D2E/DX2                !
 ! R31   R(15,43)                1.0951         estimate D2E/DX2                !
 ! R32   R(15,44)                1.0944         estimate D2E/DX2                !
 ! R33   R(16,45)                0.9834         estimate D2E/DX2                !
 ! R34   R(17,46)                0.9704         estimate D2E/DX2                !
 ! R35   R(18,45)                1.7084         estimate D2E/DX2                !
 ! R36   R(19,20)                1.4404         estimate D2E/DX2                !
 ! R37   R(20,21)                1.5419         estimate D2E/DX2                !
 ! R38   R(20,25)                1.5414         estimate D2E/DX2                !
 ! R39   R(20,47)                1.0969         estimate D2E/DX2                !
 ! R40   R(21,22)                1.5408         estimate D2E/DX2                !
 ! R41   R(21,26)                1.4386         estimate D2E/DX2                !
 ! R42   R(21,48)                1.0974         estimate D2E/DX2                !
 ! R43   R(22,23)                1.4921         estimate D2E/DX2                !
 ! R44   R(22,27)                1.4259         estimate D2E/DX2                !
 ! R45   R(22,49)                1.0968         estimate D2E/DX2                !
 ! R46   R(23,24)                1.3442         estimate D2E/DX2                !
 ! R47   R(23,50)                1.0889         estimate D2E/DX2                !
 ! R48   R(24,25)                1.5006         estimate D2E/DX2                !
 ! R49   R(24,28)                1.4908         estimate D2E/DX2                !
 ! R50   R(25,51)                1.093          estimate D2E/DX2                !
 ! R51   R(25,52)                1.0981         estimate D2E/DX2                !
 ! R52   R(26,53)                0.9805         estimate D2E/DX2                !
 ! R53   R(27,54)                0.9769         estimate D2E/DX2                !
 ! R54   R(28,29)                1.3575         estimate D2E/DX2                !
 ! R55   R(28,30)                1.2207         estimate D2E/DX2                !
 ! R56   R(29,31)                1.4287         estimate D2E/DX2                !
 ! R57   R(31,55)                1.0935         estimate D2E/DX2                !
 ! R58   R(31,56)                1.0944         estimate D2E/DX2                !
 ! R59   R(31,57)                1.0944         estimate D2E/DX2                !
 ! R60   R(32,33)                1.3467         estimate D2E/DX2                !
 ! R61   R(32,34)                1.2227         estimate D2E/DX2                !
 ! R62   R(33,58)                0.9824         estimate D2E/DX2                !
 ! R63   R(34,53)                1.8872         estimate D2E/DX2                !
 ! A1    A(2,1,6)              117.9585         estimate D2E/DX2                !
 ! A2    A(2,1,15)             121.1885         estimate D2E/DX2                !
 ! A3    A(6,1,15)             120.7745         estimate D2E/DX2                !
 ! A4    A(1,2,3)              121.4333         estimate D2E/DX2                !
 ! A5    A(1,2,17)             118.7413         estimate D2E/DX2                !
 ! A6    A(3,2,17)             119.8253         estimate D2E/DX2                !
 ! A7    A(2,3,4)              120.7727         estimate D2E/DX2                !
 ! A8    A(2,3,35)             118.5745         estimate D2E/DX2                !
 ! A9    A(4,3,35)             120.6519         estimate D2E/DX2                !
 ! A10   A(3,4,5)              118.2329         estimate D2E/DX2                !
 ! A11   A(3,4,7)              122.2513         estimate D2E/DX2                !
 ! A12   A(5,4,7)              119.5129         estimate D2E/DX2                !
 ! A13   A(4,5,6)              120.5035         estimate D2E/DX2                !
 ! A14   A(4,5,10)             119.7828         estimate D2E/DX2                !
 ! A15   A(6,5,10)             119.7094         estimate D2E/DX2                !
 ! A16   A(1,6,5)              121.0258         estimate D2E/DX2                !
 ! A17   A(1,6,16)             116.7148         estimate D2E/DX2                !
 ! A18   A(5,6,16)             122.2593         estimate D2E/DX2                !
 ! A19   A(4,7,8)              117.8438         estimate D2E/DX2                !
 ! A20   A(4,7,11)             121.0355         estimate D2E/DX2                !
 ! A21   A(8,7,11)             121.0712         estimate D2E/DX2                !
 ! A22   A(7,8,9)              123.0303         estimate D2E/DX2                !
 ! A23   A(7,8,14)             123.9484         estimate D2E/DX2                !
 ! A24   A(9,8,14)             113.011          estimate D2E/DX2                !
 ! A25   A(8,9,10)             122.1903         estimate D2E/DX2                !
 ! A26   A(5,10,9)             117.4042         estimate D2E/DX2                !
 ! A27   A(5,10,18)            120.4885         estimate D2E/DX2                !
 ! A28   A(9,10,18)            122.1012         estimate D2E/DX2                !
 ! A29   A(7,11,12)            113.5491         estimate D2E/DX2                !
 ! A30   A(7,11,36)            107.1448         estimate D2E/DX2                !
 ! A31   A(7,11,37)            110.6773         estimate D2E/DX2                !
 ! A32   A(12,11,36)           110.5323         estimate D2E/DX2                !
 ! A33   A(12,11,37)           108.6107         estimate D2E/DX2                !
 ! A34   A(36,11,37)           106.0676         estimate D2E/DX2                !
 ! A35   A(11,12,13)           108.3228         estimate D2E/DX2                !
 ! A36   A(11,12,19)           114.2713         estimate D2E/DX2                !
 ! A37   A(11,12,32)           111.2653         estimate D2E/DX2                !
 ! A38   A(13,12,19)           105.2822         estimate D2E/DX2                !
 ! A39   A(13,12,32)           107.4865         estimate D2E/DX2                !
 ! A40   A(19,12,32)           109.8159         estimate D2E/DX2                !
 ! A41   A(12,13,14)           111.1468         estimate D2E/DX2                !
 ! A42   A(12,13,38)           110.3931         estimate D2E/DX2                !
 ! A43   A(12,13,39)           110.6475         estimate D2E/DX2                !
 ! A44   A(14,13,38)           109.3477         estimate D2E/DX2                !
 ! A45   A(14,13,39)           108.5976         estimate D2E/DX2                !
 ! A46   A(38,13,39)           106.5819         estimate D2E/DX2                !
 ! A47   A(8,14,13)            113.5567         estimate D2E/DX2                !
 ! A48   A(8,14,40)            108.3496         estimate D2E/DX2                !
 ! A49   A(8,14,41)            109.663          estimate D2E/DX2                !
 ! A50   A(13,14,40)           109.5449         estimate D2E/DX2                !
 ! A51   A(13,14,41)           108.7549         estimate D2E/DX2                !
 ! A52   A(40,14,41)           106.7512         estimate D2E/DX2                !
 ! A53   A(1,15,42)            111.8023         estimate D2E/DX2                !
 ! A54   A(1,15,43)            111.1304         estimate D2E/DX2                !
 ! A55   A(1,15,44)            109.9082         estimate D2E/DX2                !
 ! A56   A(42,15,43)           106.167          estimate D2E/DX2                !
 ! A57   A(42,15,44)           108.6482         estimate D2E/DX2                !
 ! A58   A(43,15,44)           109.0681         estimate D2E/DX2                !
 ! A59   A(6,16,45)            109.3792         estimate D2E/DX2                !
 ! A60   A(2,17,46)            110.1161         estimate D2E/DX2                !
 ! A61   A(12,19,20)           118.9901         estimate D2E/DX2                !
 ! A62   A(19,20,21)           107.7165         estimate D2E/DX2                !
 ! A63   A(19,20,25)           108.4379         estimate D2E/DX2                !
 ! A64   A(19,20,47)           110.5132         estimate D2E/DX2                !
 ! A65   A(21,20,25)           109.9186         estimate D2E/DX2                !
 ! A66   A(21,20,47)           108.8313         estimate D2E/DX2                !
 ! A67   A(25,20,47)           111.3541         estimate D2E/DX2                !
 ! A68   A(20,21,22)           111.2965         estimate D2E/DX2                !
 ! A69   A(20,21,26)           111.7449         estimate D2E/DX2                !
 ! A70   A(20,21,48)           110.1329         estimate D2E/DX2                !
 ! A71   A(22,21,26)           107.0721         estimate D2E/DX2                !
 ! A72   A(22,21,48)           110.831          estimate D2E/DX2                !
 ! A73   A(26,21,48)           105.5871         estimate D2E/DX2                !
 ! A74   A(21,22,23)           114.0227         estimate D2E/DX2                !
 ! A75   A(21,22,27)           109.0353         estimate D2E/DX2                !
 ! A76   A(21,22,49)           110.174          estimate D2E/DX2                !
 ! A77   A(23,22,27)           108.0927         estimate D2E/DX2                !
 ! A78   A(23,22,49)           108.703          estimate D2E/DX2                !
 ! A79   A(27,22,49)           106.5269         estimate D2E/DX2                !
 ! A80   A(22,23,24)           122.956          estimate D2E/DX2                !
 ! A81   A(22,23,50)           116.3307         estimate D2E/DX2                !
 ! A82   A(24,23,50)           120.7123         estimate D2E/DX2                !
 ! A83   A(23,24,25)           122.3426         estimate D2E/DX2                !
 ! A84   A(23,24,28)           118.5369         estimate D2E/DX2                !
 ! A85   A(25,24,28)           119.0971         estimate D2E/DX2                !
 ! A86   A(20,25,24)           115.2781         estimate D2E/DX2                !
 ! A87   A(20,25,51)           107.9543         estimate D2E/DX2                !
 ! A88   A(20,25,52)           109.4936         estimate D2E/DX2                !
 ! A89   A(24,25,51)           108.5087         estimate D2E/DX2                !
 ! A90   A(24,25,52)           108.9318         estimate D2E/DX2                !
 ! A91   A(51,25,52)           106.2951         estimate D2E/DX2                !
 ! A92   A(21,26,53)           107.9083         estimate D2E/DX2                !
 ! A93   A(22,27,54)           105.0199         estimate D2E/DX2                !
 ! A94   A(24,28,29)           109.6736         estimate D2E/DX2                !
 ! A95   A(24,28,30)           124.5192         estimate D2E/DX2                !
 ! A96   A(29,28,30)           125.7988         estimate D2E/DX2                !
 ! A97   A(28,29,31)           114.155          estimate D2E/DX2                !
 ! A98   A(29,31,55)           108.0197         estimate D2E/DX2                !
 ! A99   A(29,31,56)           110.3832         estimate D2E/DX2                !
 ! A100  A(29,31,57)           110.5732         estimate D2E/DX2                !
 ! A101  A(55,31,56)           108.4736         estimate D2E/DX2                !
 ! A102  A(55,31,57)           108.4621         estimate D2E/DX2                !
 ! A103  A(56,31,57)           110.8386         estimate D2E/DX2                !
 ! A104  A(12,32,33)           114.4989         estimate D2E/DX2                !
 ! A105  A(12,32,34)           125.6291         estimate D2E/DX2                !
 ! A106  A(33,32,34)           119.8614         estimate D2E/DX2                !
 ! A107  A(32,33,58)           104.555          estimate D2E/DX2                !
 ! D1    D(6,1,2,3)              2.3738         estimate D2E/DX2                !
 ! D2    D(6,1,2,17)          -177.5803         estimate D2E/DX2                !
 ! D3    D(15,1,2,3)           179.1772         estimate D2E/DX2                !
 ! D4    D(15,1,2,17)           -0.7768         estimate D2E/DX2                !
 ! D5    D(2,1,6,5)             -2.1682         estimate D2E/DX2                !
 ! D6    D(2,1,6,16)           177.739          estimate D2E/DX2                !
 ! D7    D(15,1,6,5)          -178.9855         estimate D2E/DX2                !
 ! D8    D(15,1,6,16)            0.9217         estimate D2E/DX2                !
 ! D9    D(2,1,15,42)           26.2059         estimate D2E/DX2                !
 ! D10   D(2,1,15,43)          144.6372         estimate D2E/DX2                !
 ! D11   D(2,1,15,44)          -94.5345         estimate D2E/DX2                !
 ! D12   D(6,1,15,42)         -157.0804         estimate D2E/DX2                !
 ! D13   D(6,1,15,43)          -38.6491         estimate D2E/DX2                !
 ! D14   D(6,1,15,44)           82.1792         estimate D2E/DX2                !
 ! D15   D(1,2,3,4)             -0.3087         estimate D2E/DX2                !
 ! D16   D(1,2,3,35)          -179.9797         estimate D2E/DX2                !
 ! D17   D(17,2,3,4)           179.6449         estimate D2E/DX2                !
 ! D18   D(17,2,3,35)           -0.0262         estimate D2E/DX2                !
 ! D19   D(1,2,17,46)          178.6021         estimate D2E/DX2                !
 ! D20   D(3,2,17,46)           -1.3527         estimate D2E/DX2                !
 ! D21   D(2,3,4,5)             -1.9782         estimate D2E/DX2                !
 ! D22   D(2,3,4,7)            177.3955         estimate D2E/DX2                !
 ! D23   D(35,3,4,5)           177.686          estimate D2E/DX2                !
 ! D24   D(35,3,4,7)            -2.9402         estimate D2E/DX2                !
 ! D25   D(3,4,5,6)              2.1661         estimate D2E/DX2                !
 ! D26   D(3,4,5,10)          -177.08           estimate D2E/DX2                !
 ! D27   D(7,4,5,6)           -177.2253         estimate D2E/DX2                !
 ! D28   D(7,4,5,10)             3.5285         estimate D2E/DX2                !
 ! D29   D(3,4,7,8)            176.0513         estimate D2E/DX2                !
 ! D30   D(3,4,7,11)            -6.4792         estimate D2E/DX2                !
 ! D31   D(5,4,7,8)             -4.5827         estimate D2E/DX2                !
 ! D32   D(5,4,7,11)           172.8868         estimate D2E/DX2                !
 ! D33   D(4,5,6,1)             -0.0943         estimate D2E/DX2                !
 ! D34   D(4,5,6,16)          -179.9963         estimate D2E/DX2                !
 ! D35   D(10,5,6,1)           179.1523         estimate D2E/DX2                !
 ! D36   D(10,5,6,16)           -0.7497         estimate D2E/DX2                !
 ! D37   D(4,5,10,9)             0.7391         estimate D2E/DX2                !
 ! D38   D(4,5,10,18)          179.8536         estimate D2E/DX2                !
 ! D39   D(6,5,10,9)          -178.513          estimate D2E/DX2                !
 ! D40   D(6,5,10,18)            0.6015         estimate D2E/DX2                !
 ! D41   D(1,6,16,45)         -179.2211         estimate D2E/DX2                !
 ! D42   D(5,6,16,45)            0.6849         estimate D2E/DX2                !
 ! D43   D(4,7,8,9)              1.3746         estimate D2E/DX2                !
 ! D44   D(4,7,8,14)          -179.8756         estimate D2E/DX2                !
 ! D45   D(11,7,8,9)          -176.0939         estimate D2E/DX2                !
 ! D46   D(11,7,8,14)            2.6558         estimate D2E/DX2                !
 ! D47   D(4,7,11,12)         -159.4739         estimate D2E/DX2                !
 ! D48   D(4,7,11,36)           78.1928         estimate D2E/DX2                !
 ! D49   D(4,7,11,37)          -37.0222         estimate D2E/DX2                !
 ! D50   D(8,7,11,12)           17.9137         estimate D2E/DX2                !
 ! D51   D(8,7,11,36)         -104.4196         estimate D2E/DX2                !
 ! D52   D(8,7,11,37)          140.3654         estimate D2E/DX2                !
 ! D53   D(7,8,9,10)             3.1082         estimate D2E/DX2                !
 ! D54   D(14,8,9,10)         -175.765          estimate D2E/DX2                !
 ! D55   D(7,8,14,13)            9.606          estimate D2E/DX2                !
 ! D56   D(7,8,14,40)         -112.34           estimate D2E/DX2                !
 ! D57   D(7,8,14,41)          131.4939         estimate D2E/DX2                !
 ! D58   D(9,8,14,13)         -171.5329         estimate D2E/DX2                !
 ! D59   D(9,8,14,40)           66.5212         estimate D2E/DX2                !
 ! D60   D(9,8,14,41)          -49.6449         estimate D2E/DX2                !
 ! D61   D(8,9,10,5)            -4.0909         estimate D2E/DX2                !
 ! D62   D(8,9,10,18)          176.8099         estimate D2E/DX2                !
 ! D63   D(7,11,12,13)         -48.5912         estimate D2E/DX2                !
 ! D64   D(7,11,12,19)          68.4027         estimate D2E/DX2                !
 ! D65   D(7,11,12,32)        -166.5307         estimate D2E/DX2                !
 ! D66   D(36,11,12,13)         71.8473         estimate D2E/DX2                !
 ! D67   D(36,11,12,19)       -171.1588         estimate D2E/DX2                !
 ! D68   D(36,11,12,32)        -46.0922         estimate D2E/DX2                !
 ! D69   D(37,11,12,13)       -172.178          estimate D2E/DX2                !
 ! D70   D(37,11,12,19)        -55.1842         estimate D2E/DX2                !
 ! D71   D(37,11,12,32)         69.8825         estimate D2E/DX2                !
 ! D72   D(11,12,13,14)         60.8775         estimate D2E/DX2                !
 ! D73   D(11,12,13,38)        -60.6409         estimate D2E/DX2                !
 ! D74   D(11,12,13,39)       -178.3804         estimate D2E/DX2                !
 ! D75   D(19,12,13,14)        -61.7632         estimate D2E/DX2                !
 ! D76   D(19,12,13,38)        176.7185         estimate D2E/DX2                !
 ! D77   D(19,12,13,39)         58.9789         estimate D2E/DX2                !
 ! D78   D(32,12,13,14)       -178.798          estimate D2E/DX2                !
 ! D79   D(32,12,13,38)         59.6837         estimate D2E/DX2                !
 ! D80   D(32,12,13,39)        -58.0559         estimate D2E/DX2                !
 ! D81   D(11,12,19,20)         53.1914         estimate D2E/DX2                !
 ! D82   D(13,12,19,20)        171.9224         estimate D2E/DX2                !
 ! D83   D(32,12,19,20)        -72.6381         estimate D2E/DX2                !
 ! D84   D(11,12,32,33)         48.4576         estimate D2E/DX2                !
 ! D85   D(11,12,32,34)       -132.7321         estimate D2E/DX2                !
 ! D86   D(13,12,32,33)        -69.986          estimate D2E/DX2                !
 ! D87   D(13,12,32,34)        108.8243         estimate D2E/DX2                !
 ! D88   D(19,12,32,33)        175.9814         estimate D2E/DX2                !
 ! D89   D(19,12,32,34)         -5.2083         estimate D2E/DX2                !
 ! D90   D(12,13,14,8)         -41.8071         estimate D2E/DX2                !
 ! D91   D(12,13,14,40)         79.4721         estimate D2E/DX2                !
 ! D92   D(12,13,14,41)       -164.1987         estimate D2E/DX2                !
 ! D93   D(38,13,14,8)          80.32           estimate D2E/DX2                !
 ! D94   D(38,13,14,40)       -158.4007         estimate D2E/DX2                !
 ! D95   D(38,13,14,41)        -42.0715         estimate D2E/DX2                !
 ! D96   D(39,13,14,8)        -163.7494         estimate D2E/DX2                !
 ! D97   D(39,13,14,40)        -42.4701         estimate D2E/DX2                !
 ! D98   D(39,13,14,41)         73.8591         estimate D2E/DX2                !
 ! D99   D(12,19,20,21)        139.329          estimate D2E/DX2                !
 ! D100  D(12,19,20,25)       -101.7565         estimate D2E/DX2                !
 ! D101  D(12,19,20,47)         20.5574         estimate D2E/DX2                !
 ! D102  D(19,20,21,22)        174.3161         estimate D2E/DX2                !
 ! D103  D(19,20,21,26)        -66.0334         estimate D2E/DX2                !
 ! D104  D(19,20,21,48)         50.9888         estimate D2E/DX2                !
 ! D105  D(25,20,21,22)         56.3525         estimate D2E/DX2                !
 ! D106  D(25,20,21,26)        176.003          estimate D2E/DX2                !
 ! D107  D(25,20,21,48)        -66.9747         estimate D2E/DX2                !
 ! D108  D(47,20,21,22)        -65.8412         estimate D2E/DX2                !
 ! D109  D(47,20,21,26)         53.8093         estimate D2E/DX2                !
 ! D110  D(47,20,21,48)        170.8315         estimate D2E/DX2                !
 ! D111  D(19,20,25,24)       -158.6597         estimate D2E/DX2                !
 ! D112  D(19,20,25,51)         79.87           estimate D2E/DX2                !
 ! D113  D(19,20,25,52)        -35.4446         estimate D2E/DX2                !
 ! D114  D(21,20,25,24)        -41.1439         estimate D2E/DX2                !
 ! D115  D(21,20,25,51)       -162.6142         estimate D2E/DX2                !
 ! D116  D(21,20,25,52)         82.0711         estimate D2E/DX2                !
 ! D117  D(47,20,25,24)         79.5401         estimate D2E/DX2                !
 ! D118  D(47,20,25,51)        -41.9302         estimate D2E/DX2                !
 ! D119  D(47,20,25,52)       -157.2449         estimate D2E/DX2                !
 ! D120  D(20,21,22,23)        -43.7773         estimate D2E/DX2                !
 ! D121  D(20,21,22,27)       -164.671          estimate D2E/DX2                !
 ! D122  D(20,21,22,49)         78.7549         estimate D2E/DX2                !
 ! D123  D(26,21,22,23)       -166.1666         estimate D2E/DX2                !
 ! D124  D(26,21,22,27)         72.9396         estimate D2E/DX2                !
 ! D125  D(26,21,22,49)        -43.6344         estimate D2E/DX2                !
 ! D126  D(48,21,22,23)         79.1504         estimate D2E/DX2                !
 ! D127  D(48,21,22,27)        -41.7433         estimate D2E/DX2                !
 ! D128  D(48,21,22,49)       -158.3174         estimate D2E/DX2                !
 ! D129  D(20,21,26,53)         28.8943         estimate D2E/DX2                !
 ! D130  D(22,21,26,53)        151.0034         estimate D2E/DX2                !
 ! D131  D(48,21,26,53)        -90.8402         estimate D2E/DX2                !
 ! D132  D(21,22,23,24)         14.873          estimate D2E/DX2                !
 ! D133  D(21,22,23,50)       -165.4962         estimate D2E/DX2                !
 ! D134  D(27,22,23,24)        136.2904         estimate D2E/DX2                !
 ! D135  D(27,22,23,50)        -44.0787         estimate D2E/DX2                !
 ! D136  D(49,22,23,24)       -108.4607         estimate D2E/DX2                !
 ! D137  D(49,22,23,50)         71.1702         estimate D2E/DX2                !
 ! D138  D(21,22,27,54)        -49.4153         estimate D2E/DX2                !
 ! D139  D(23,22,27,54)       -173.8709         estimate D2E/DX2                !
 ! D140  D(49,22,27,54)         69.4609         estimate D2E/DX2                !
 ! D141  D(22,23,24,25)          1.1107         estimate D2E/DX2                !
 ! D142  D(22,23,24,28)        179.3318         estimate D2E/DX2                !
 ! D143  D(50,23,24,25)       -178.5044         estimate D2E/DX2                !
 ! D144  D(50,23,24,28)         -0.2834         estimate D2E/DX2                !
 ! D145  D(23,24,25,20)         12.8651         estimate D2E/DX2                !
 ! D146  D(23,24,25,51)        134.0353         estimate D2E/DX2                !
 ! D147  D(23,24,25,52)       -110.6472         estimate D2E/DX2                !
 ! D148  D(28,24,25,20)       -165.3463         estimate D2E/DX2                !
 ! D149  D(28,24,25,51)        -44.1761         estimate D2E/DX2                !
 ! D150  D(28,24,25,52)         71.1413         estimate D2E/DX2                !
 ! D151  D(23,24,28,29)        172.4518         estimate D2E/DX2                !
 ! D152  D(23,24,28,30)         -8.5473         estimate D2E/DX2                !
 ! D153  D(25,24,28,29)         -9.2683         estimate D2E/DX2                !
 ! D154  D(25,24,28,30)        169.7326         estimate D2E/DX2                !
 ! D155  D(24,28,29,31)        178.8515         estimate D2E/DX2                !
 ! D156  D(30,28,29,31)         -0.1335         estimate D2E/DX2                !
 ! D157  D(28,29,31,55)        178.7678         estimate D2E/DX2                !
 ! D158  D(28,29,31,56)        -62.7857         estimate D2E/DX2                !
 ! D159  D(28,29,31,57)         60.2263         estimate D2E/DX2                !
 ! D160  D(12,32,33,58)        177.2518         estimate D2E/DX2                !
 ! D161  D(34,32,33,58)         -1.6331         estimate D2E/DX2                !
 --------------------------------------------------------------------------------
 Trust Radius=3.00D-01 FncErr=1.00D-07 GrdErr=1.00D-06
 Number of steps in this run=    341 maximum allowed number of steps=    348.
 GradGradGradGradGradGradGradGradGradGradGradGradGradGradGradGradGradGrad

 Stoichiometry    C23H24O11
 Framework group  C1[X(C23H24O11)]
 Deg. of freedom   168
 Full point group                 C1      NOp   1
 Largest Abelian subgroup         C1      NOp   1
 Largest concise Abelian subgroup C1      NOp   1
                         Standard orientation:                         
 ---------------------------------------------------------------------
 Center     Atomic      Atomic             Coordinates (Angstroms)
 Number     Number       Type             X           Y           Z
 ---------------------------------------------------------------------
      1          6           0       -4.264680    0.287476    1.127010
      2          6           0       -3.275437   -0.002680    2.068729
      3          6           0       -2.105986   -0.680098    1.712294
      4          6           0       -1.892552   -1.097553    0.388623
      5          6           0       -2.901476   -0.854010   -0.554755
      6          6           0       -4.075744   -0.166221   -0.185475
      7          6           0       -0.647467   -1.764193   -0.035127
      8          6           0       -0.569009   -2.199212   -1.304001
      9          8           0       -1.603625   -2.021184   -2.241386
     10          6           0       -2.740526   -1.336700   -1.944289
     11          6           0        0.527542   -1.901712    0.913379
     12          6           0        1.877184   -2.150638    0.194809
     13          6           0        1.678257   -3.281975   -0.830391
     14          6           0        0.632582   -2.898439   -1.879848
     15          6           0       -5.529356    1.000664    1.520266
     16          8           0       -5.087001    0.091830   -1.080120
     17          8           0       -3.466490    0.388497    3.364623
     18          8           0       -3.616904   -1.133000   -2.780084
     19          8           0        2.358996   -1.024688   -0.569712
     20          6           0        2.478587    0.257502    0.075663
     21          6           0        3.789578    0.907242   -0.410867
     22          6           0        3.931775    2.346438    0.120725
     23          6           0        2.679856    3.153402    0.031546
     24          6           0        1.471662    2.606826   -0.188750
     25          6           0        1.275664    1.126830   -0.340472
     26          8           0        4.944837    0.175817    0.036212
     27          8           0        4.945859    3.018738   -0.622741
     28          6           0        0.283079    3.505033   -0.244546
     29          8           0       -0.806545    2.797278   -0.637699
     30          8           0        0.298553    4.691532    0.042170
     31          6           0       -2.010674    3.563765   -0.698912
     32          6           0        2.959562   -2.609641    1.184935
     33          8           0        2.577563   -3.604570    2.008226
     34          8           0        4.096313   -2.164786    1.254179
     35          1           0       -1.367952   -0.881735    2.481777
     36          1           0        0.296699   -2.729470    1.596747
     37          1           0        0.624745   -1.010155    1.539720
     38          1           0        1.365040   -4.205463   -0.325243
     39          1           0        2.621689   -3.509922   -1.343225
     40          1           0        1.089140   -2.239950   -2.629352
     41          1           0        0.313991   -3.805115   -2.407857
     42          1           0       -5.383796    1.628321    2.405243
     43          1           0       -5.868665    1.670960    0.723506
     44          1           0       -6.317212    0.271742    1.733967
     45          1           0       -4.849099   -0.281668   -1.958118
     46          1           0       -2.717128    0.105728    3.912536
     47          1           0        2.526262    0.136649    1.164798
     48          1           0        3.835622    0.889825   -1.507159
     49          1           0        4.267662    2.332591    1.164724
     50          1           0        2.788278    4.229078    0.161670
     51          1           0        0.417190    0.826555    0.265797
     52          1           0        1.008437    0.907840   -1.382813
     53          1           0        4.686592   -0.764910    0.134596
     54          1           0        5.709114    2.408955   -0.618637
     55          1           0       -2.813001    2.906216   -1.044730
     56          1           0       -2.274245    3.939548    0.294592
     57          1           0       -1.906305    4.387662   -1.411732
     58          1           0        3.379963   -3.809610    2.536580
 ---------------------------------------------------------------------
 Rotational constants (GHZ):      0.1578819      0.0957294      0.0750388
 Standard basis: 6-31G(d) (6D, 7F)
 There are   558 symmetry adapted basis functions of A   symmetry.
 Integral buffers will be    131072 words long.
 Raffenetti 2 integral format.
 Two-electron integral symmetry is turned on.
   558 basis functions,  1048 primitive gaussians,   558 cartesian basis functions
   125 alpha electrons      125 beta electrons
       nuclear repulsion energy      3854.2772539576 Hartrees.
 NAtoms=   58 NActive=   58 NUniq=   58 SFac= 1.00D+00 NAtFMM=   50 NAOKFM=T Big=T
 One-electron integrals computed using PRISM.
 NBasis=   558 RedAO= T  NBF=   558
 NBsUse=   558 1.00D-06 NBFU=   558
 Harris functional with IExCor=  402 diagonalized for initial guess.
 ExpMin= 1.61D-01 ExpMax= 5.48D+03 ExpMxC= 8.25D+02 IAcc=1 IRadAn=         1 AccDes= 0.00D+00
 HarFok:  IExCor=  402 AccDes= 0.00D+00 IRadAn=         1 IDoV= 1
 ScaDFX=  1.000000  1.000000  1.000000  1.000000
 FoFCou: FMM=F IPFlag=           0 FMFlag=      100000 FMFlg1=        2001
         NFxFlg=           0 DoJE=T BraDBF=F KetDBF=T FulRan=T
         Omega=  0.000000  0.000000  1.000000  0.000000  0.000000 ICntrl=     500 IOpCl=  0
         NMat0=    1 NMatS0=    1 NMatT0=    0 NMatD0=    1 NMtDS0=    0 NMtDT0=    0
         I1Cent=           4 NGrid=           0.
 Petite list used in FoFCou.
 Initial guess orbital symmetries:
       Occupied  (A) (A) (A) (A) (A) (A) (A) (A) (A) (A) (A) (A)
                 (A) (A) (A) (A) (A) (A) (A) (A) (A) (A) (A) (A)
                 (A) (A) (A) (A) (A) (A) (A) (A) (A) (A) (A) (A)
                 (A) (A) (A) (A) (A) (A) (A) (A) (A) (A) (A) (A)
                 (A) (A) (A) (A) (A) (A) (A) (A) (A) (A) (A) (A)
                 (A) (A) (A) (A) (A) (A) (A) (A) (A) (A) (A) (A)
                 (A) (A) (A) (A) (A) (A) (A) (A) (A) (A) (A) (A)
                 (A) (A) (A) (A) (A) (A) (A) (A) (A) (A) (A) (A)
                 (A) (A) (A) (A) (A) (A) (A) (A) (A) (A) (A) (A)
                 (A) (A) (A) (A) (A) (A) (A) (A) (A) (A) (A) (A)
                 (A) (A) (A) (A) (A)
       Virtual   (A) (A) (A) (A) (A) (A) (A) (A) (A) (A) (A) (A)
                 (A) (A) (A) (A) (A) (A) (A) (A) (A) (A) (A) (A)
                 (A) (A) (A) (A) (A) (A) (A) (A) (A) (A) (A) (A)
                 (A) (A) (A) (A) (A) (A) (A) (A) (A) (A) (A) (A)
                 (A) (A) (A) (A) (A) (A) (A) (A) (A) (A) (A) (A)
                 (A) (A) (A) (A) (A) (A) (A) (A) (A) (A) (A) (A)
                 (A) (A) (A) (A) (A) (A) (A) (A) (A) (A) (A) (A)
                 (A) (A) (A) (A) (A) (A) (A) (A) (A) (A) (A) (A)
                 (A) (A) (A) (A) (A) (A) (A) (A) (A) (A) (A) (A)
                 (A) (A) (A) (A) (A) (A) (A) (A) (A) (A) (A) (A)
                 (A) (A) (A) (A) (A) (A) (A) (A) (A) (A) (A) (A)
                 (A) (A) (A) (A) (A) (A) (A) (A) (A) (A) (A) (A)
                 (A) (A) (A) (A) (A) (A) (A) (A) (A) (A) (A) (A)
                 (A) (A) (A) (A) (A) (A) (A) (A) (A) (A) (A) (A)
                 (A) (A) (A) (A) (A) (A) (A) (A) (A) (A) (A) (A)
                 (A) (A) (A) (A) (A) (A) (A) (A) (A) (A) (A) (A)
                 (A) (A) (A) (A) (A) (A) (A) (A) (A) (A) (A) (A)
                 (A) (A) (A) (A) (A) (A) (A) (A) (A) (A) (A) (A)
                 (A) (A) (A) (A) (A) (A) (A) (A) (A) (A) (A) (A)
                 (A) (A) (A) (A) (A) (A) (A) (A) (A) (A) (A) (A)
                 (A) (A) (A) (A) (A) (A) (A) (A) (A) (A) (A) (A)
                 (A) (A) (A) (A) (A) (A) (A) (A) (A) (A) (A) (A)
                 (A) (A) (A) (A) (A) (A) (A) (A) (A) (A) (A) (A)
                 (A) (A) (A) (A) (A) (A) (A) (A) (A) (A) (A) (A)
                 (A) (A) (A) (A) (A) (A) (A) (A) (A) (A) (A) (A)
                 (A) (A) (A) (A) (A) (A) (A) (A) (A) (A) (A) (A)
                 (A) (A) (A) (A) (A) (A) (A) (A) (A) (A) (A) (A)
                 (A) (A) (A) (A) (A) (A) (A) (A) (A) (A) (A) (A)
                 (A) (A) (A) (A) (A) (A) (A) (A) (A) (A) (A) (A)
                 (A) (A) (A) (A) (A) (A) (A) (A) (A) (A) (A) (A)
                 (A) (A) (A) (A) (A) (A) (A) (A) (A) (A) (A) (A)
                 (A) (A) (A) (A) (A) (A) (A) (A) (A) (A) (A) (A)
                 (A) (A) (A) (A) (A) (A) (A) (A) (A) (A) (A) (A)
                 (A) (A) (A) (A) (A) (A) (A) (A) (A) (A) (A) (A)
                 (A) (A) (A) (A) (A) (A) (A) (A) (A) (A) (A) (A)
                 (A) (A) (A) (A) (A) (A) (A) (A) (A) (A) (A) (A)
                 (A)
 The electronic state of the initial guess is 1-A.
 Requested convergence on RMS density matrix=1.00D-08 within 128 cycles.
 Requested convergence on MAX density matrix=1.00D-06.
 Requested convergence on             energy=1.00D-06.
 No special actions if energy rises.
 Integral accuracy reduced to 1.0D-05 until final iterations.
 Initial convergence to 1.0D-05 achieved.  Increase integral accuracy.
 SCF Done:  E(RB3LYP) =  -1718.35904463     A.U. after   15 cycles
             Convg  =    0.4295D-08             -V/T =  2.0091

 **********************************************************************

            Population analysis using the SCF density.

 **********************************************************************

 Orbital symmetries:
       Occupied  (A) (A) (A) (A) (A) (A) (A) (A) (A) (A) (A) (A)
                 (A) (A) (A) (A) (A) (A) (A) (A) (A) (A) (A) (A)
                 (A) (A) (A) (A) (A) (A) (A) (A) (A) (A) (A) (A)
                 (A) (A) (A) (A) (A) (A) (A) (A) (A) (A) (A) (A)
                 (A) (A) (A) (A) (A) (A) (A) (A) (A) (A) (A) (A)
                 (A) (A) (A) (A) (A) (A) (A) (A) (A) (A) (A) (A)
                 (A) (A) (A) (A) (A) (A) (A) (A) (A) (A) (A) (A)
                 (A) (A) (A) (A) (A) (A) (A) (A) (A) (A) (A) (A)
                 (A) (A) (A) (A) (A) (A) (A) (A) (A) (A) (A) (A)
                 (A) (A) (A) (A) (A) (A) (A) (A) (A) (A) (A) (A)
                 (A) (A) (A) (A) (A)
       Virtual   (A) (A) (A) (A) (A) (A) (A) (A) (A) (A) (A) (A)
                 (A) (A) (A) (A) (A) (A) (A) (A) (A) (A) (A) (A)
                 (A) (A) (A) (A) (A) (A) (A) (A) (A) (A) (A) (A)
                 (A) (A) (A) (A) (A) (A) (A) (A) (A) (A) (A) (A)
                 (A) (A) (A) (A) (A) (A) (A) (A) (A) (A) (A) (A)
                 (A) (A) (A) (A) (A) (A) (A) (A) (A) (A) (A) (A)
                 (A) (A) (A) (A) (A) (A) (A) (A) (A) (A) (A) (A)
                 (A) (A) (A) (A) (A) (A) (A) (A) (A) (A) (A) (A)
                 (A) (A) (A) (A) (A) (A) (A) (A) (A) (A) (A) (A)
                 (A) (A) (A) (A) (A) (A) (A) (A) (A) (A) (A) (A)
                 (A) (A) (A) (A) (A) (A) (A) (A) (A) (A) (A) (A)
                 (A) (A) (A) (A) (A) (A) (A) (A) (A) (A) (A) (A)
                 (A) (A) (A) (A) (A) (A) (A) (A) (A) (A) (A) (A)
                 (A) (A) (A) (A) (A) (A) (A) (A) (A) (A) (A) (A)
                 (A) (A) (A) (A) (A) (A) (A) (A) (A) (A) (A) (A)
                 (A) (A) (A) (A) (A) (A) (A) (A) (A) (A) (A) (A)
                 (A) (A) (A) (A) (A) (A) (A) (A) (A) (A) (A) (A)
                 (A) (A) (A) (A) (A) (A) (A) (A) (A) (A) (A) (A)
                 (A) (A) (A) (A) (A) (A) (A) (A) (A) (A) (A) (A)
                 (A) (A) (A) (A) (A) (A) (A) (A) (A) (A) (A) (A)
                 (A) (A) (A) (A) (A) (A) (A) (A) (A) (A) (A) (A)
                 (A) (A) (A) (A) (A) (A) (A) (A) (A) (A) (A) (A)
                 (A) (A) (A) (A) (A) (A) (A) (A) (A) (A) (A) (A)
                 (A) (A) (A) (A) (A) (A) (A) (A) (A) (A) (A) (A)
                 (A) (A) (A) (A) (A) (A) (A) (A) (A) (A) (A) (A)
                 (A) (A) (A) (A) (A) (A) (A) (A) (A) (A) (A) (A)
                 (A) (A) (A) (A) (A) (A) (A) (A) (A) (A) (A) (A)
                 (A) (A) (A) (A) (A) (A) (A) (A) (A) (A) (A) (A)
                 (A) (A) (A) (A) (A) (A) (A) (A) (A) (A) (A) (A)
                 (A) (A) (A) (A) (A) (A) (A) (A) (A) (A) (A) (A)
                 (A) (A) (A) (A) (A) (A) (A) (A) (A) (A) (A) (A)
                 (A) (A) (A) (A) (A) (A) (A) (A) (A) (A) (A) (A)
                 (A) (A) (A) (A) (A) (A) (A) (A) (A) (A) (A) (A)
                 (A) (A) (A) (A) (A) (A) (A) (A) (A) (A) (A) (A)
                 (A) (A) (A) (A) (A) (A) (A) (A) (A) (A) (A) (A)
                 (A) (A) (A) (A) (A) (A) (A) (A) (A) (A) (A) (A)
                 (A)
 The electronic state is 1-A.
 Alpha  occ. eigenvalues --  -19.23691 -19.23085 -19.19967 -19.19564 -19.18187
 Alpha  occ. eigenvalues --  -19.18068 -19.16974 -19.14911 -19.13629 -19.13265
 Alpha  occ. eigenvalues --  -19.12649 -10.35844 -10.33735 -10.31361 -10.29874
 Alpha  occ. eigenvalues --  -10.28095 -10.27235 -10.27002 -10.25656 -10.23832
 Alpha  occ. eigenvalues --  -10.23751 -10.23465 -10.23187 -10.23098 -10.22554
 Alpha  occ. eigenvalues --  -10.22520 -10.22062 -10.21170 -10.20616 -10.20387
 Alpha  occ. eigenvalues --  -10.20363 -10.19960 -10.19652 -10.18120  -1.14809
 Alpha  occ. eigenvalues --   -1.12628  -1.09942  -1.07973  -1.06400  -1.05752
 Alpha  occ. eigenvalues --   -1.04489  -1.03109  -1.01879  -1.01071  -0.99179
 Alpha  occ. eigenvalues --   -0.88671  -0.86765  -0.84118  -0.81460  -0.79718
 Alpha  occ. eigenvalues --   -0.77803  -0.76101  -0.75526  -0.74445  -0.71284
 Alpha  occ. eigenvalues --   -0.70676  -0.70047  -0.67180  -0.65973  -0.64704
 Alpha  occ. eigenvalues --   -0.63448  -0.62865  -0.61837  -0.59768  -0.58256
 Alpha  occ. eigenvalues --   -0.57701  -0.55499  -0.54669  -0.53870  -0.53439
 Alpha  occ. eigenvalues --   -0.53058  -0.51889  -0.51106  -0.50591  -0.49823
 Alpha  occ. eigenvalues --   -0.49037  -0.48743  -0.48323  -0.47880  -0.47867
 Alpha  occ. eigenvalues --   -0.47235  -0.46810  -0.46444  -0.45781  -0.45334
 Alpha  occ. eigenvalues --   -0.44708  -0.44396  -0.44239  -0.43688  -0.42983
 Alpha  occ. eigenvalues --   -0.42578  -0.42373  -0.41710  -0.41187  -0.40601
 Alpha  occ. eigenvalues --   -0.40206  -0.40068  -0.39374  -0.39179  -0.38910
 Alpha  occ. eigenvalues --   -0.38717  -0.38217  -0.37840  -0.37627  -0.37342
 Alpha  occ. eigenvalues --   -0.36009  -0.35811  -0.35539  -0.35343  -0.35100
 Alpha  occ. eigenvalues --   -0.34161  -0.33909  -0.33595  -0.32631  -0.30522
 Alpha  occ. eigenvalues --   -0.30246  -0.29509  -0.28561  -0.27186  -0.27127
 Alpha  occ. eigenvalues --   -0.27002  -0.25624  -0.24950  -0.24068  -0.22447
 Alpha virt. eigenvalues --   -0.04819  -0.03942  -0.03747  -0.03230   0.02778
 Alpha virt. eigenvalues --    0.04126   0.04707   0.05571   0.06355   0.07129
 Alpha virt. eigenvalues --    0.07718   0.09103   0.09450   0.09717   0.10663
 Alpha virt. eigenvalues --    0.11675   0.11785   0.12343   0.12638   0.13588
 Alpha virt. eigenvalues --    0.13776   0.14038   0.14655   0.14997   0.15099
 Alpha virt. eigenvalues --    0.15804   0.16085   0.16587   0.16705   0.16884
 Alpha virt. eigenvalues --    0.17316   0.17609   0.17749   0.18223   0.18807
 Alpha virt. eigenvalues --    0.19586   0.20013   0.20356   0.21120   0.21892
 Alpha virt. eigenvalues --    0.22173   0.22549   0.23216   0.23868   0.24078
 Alpha virt. eigenvalues --    0.25083   0.25346   0.26150   0.26867   0.27681
 Alpha virt. eigenvalues --    0.27978   0.28826   0.29510   0.30552   0.31852
 Alpha virt. eigenvalues --    0.32164   0.32868   0.33800   0.36293   0.37800
 Alpha virt. eigenvalues --    0.38965   0.39648   0.40301   0.40534   0.42130
 Alpha virt. eigenvalues --    0.42439   0.44915   0.46644   0.47296   0.48739
 Alpha virt. eigenvalues --    0.49323   0.49906   0.50440   0.51359   0.51708
 Alpha virt. eigenvalues --    0.52058   0.52695   0.52963   0.54030   0.54197
 Alpha virt. eigenvalues --    0.54543   0.54925   0.56126   0.56264   0.56594
 Alpha virt. eigenvalues --    0.57491   0.57793   0.58156   0.58488   0.58876
 Alpha virt. eigenvalues --    0.59192   0.59793   0.60525   0.60766   0.60984
 Alpha virt. eigenvalues --    0.61621   0.62476   0.62757   0.63666   0.63941
 Alpha virt. eigenvalues --    0.64710   0.65094   0.65809   0.66037   0.66993
 Alpha virt. eigenvalues --    0.67456   0.68040   0.69021   0.69194   0.70042
 Alpha virt. eigenvalues --    0.70977   0.71560   0.71728   0.72342   0.73187
 Alpha virt. eigenvalues --    0.73618   0.73910   0.74134   0.74740   0.75063
 Alpha virt. eigenvalues --    0.75365   0.75881   0.76656   0.76937   0.78460
 Alpha virt. eigenvalues --    0.78825   0.79132   0.80332   0.81623   0.82162
 Alpha virt. eigenvalues --    0.82524   0.82992   0.83336   0.83797   0.85348
 Alpha virt. eigenvalues --    0.85625   0.86362   0.86905   0.86954   0.87245
 Alpha virt. eigenvalues --    0.87718   0.88419   0.88735   0.89137   0.90384
 Alpha virt. eigenvalues --    0.90506   0.90703   0.91290   0.91991   0.92561
 Alpha virt. eigenvalues --    0.92773   0.93112   0.93901   0.94328   0.94497
 Alpha virt. eigenvalues --    0.95614   0.95831   0.96602   0.97368   0.97514
 Alpha virt. eigenvalues --    0.98147   0.98500   0.99260   0.99916   1.00434
 Alpha virt. eigenvalues --    1.00842   1.01217   1.02130   1.02985   1.03459
 Alpha virt. eigenvalues --    1.03820   1.04561   1.05697   1.06828   1.06995
 Alpha virt. eigenvalues --    1.07828   1.08485   1.09234   1.09605   1.11160
 Alpha virt. eigenvalues --    1.11614   1.12242   1.13908   1.15329   1.16511
 Alpha virt. eigenvalues --    1.17031   1.18439   1.18757   1.20019   1.20694
 Alpha virt. eigenvalues --    1.20983   1.21586   1.22493   1.23014   1.24314
 Alpha virt. eigenvalues --    1.24920   1.25885   1.27080   1.27841   1.28842
 Alpha virt. eigenvalues --    1.30992   1.31290   1.31905   1.32846   1.34040
 Alpha virt. eigenvalues --    1.34462   1.35515   1.36152   1.36435   1.37058
 Alpha virt. eigenvalues --    1.37669   1.38497   1.38936   1.39957   1.40167
 Alpha virt. eigenvalues --    1.40941   1.42012   1.42550   1.43055   1.44045
 Alpha virt. eigenvalues --    1.45187   1.46678   1.47977   1.48839   1.49422
 Alpha virt. eigenvalues --    1.51210   1.51782   1.54297   1.55884   1.58601
 Alpha virt. eigenvalues --    1.59768   1.61298   1.61616   1.62569   1.63403
 Alpha virt. eigenvalues --    1.65859   1.66314   1.67390   1.67598   1.68719
 Alpha virt. eigenvalues --    1.69514   1.70206   1.70498   1.70987   1.71320
 Alpha virt. eigenvalues --    1.72005   1.72545   1.72975   1.73748   1.74076
 Alpha virt. eigenvalues --    1.74728   1.75234   1.75891   1.76210   1.76809
 Alpha virt. eigenvalues --    1.77208   1.77608   1.79068   1.79393   1.80266
 Alpha virt. eigenvalues --    1.80874   1.81452   1.82310   1.82685   1.83261
 Alpha virt. eigenvalues --    1.83851   1.84099   1.84626   1.85367   1.85836
 Alpha virt. eigenvalues --    1.86824   1.87198   1.88060   1.88266   1.89067
 Alpha virt. eigenvalues --    1.89587   1.90318   1.90607   1.91487   1.92084
 Alpha virt. eigenvalues --    1.93088   1.93938   1.94430   1.95095   1.95375
 Alpha virt. eigenvalues --    1.96157   1.97404   1.98228   1.98646   1.99555
 Alpha virt. eigenvalues --    2.00418   2.00641   2.01676   2.02341   2.03281
 Alpha virt. eigenvalues --    2.04269   2.04805   2.05320   2.06164   2.06870
 Alpha virt. eigenvalues --    2.08067   2.08970   2.09658   2.10685   2.11666
 Alpha virt. eigenvalues --    2.12771   2.13244   2.13893   2.14565   2.15400
 Alpha virt. eigenvalues --    2.18274   2.19809   2.20545   2.21235   2.23238
 Alpha virt. eigenvalues --    2.23332   2.24871   2.26061   2.26472   2.27329
 Alpha virt. eigenvalues --    2.27935   2.28926   2.29458   2.29820   2.30526
 Alpha virt. eigenvalues --    2.31496   2.31735   2.33047   2.34172   2.34562
 Alpha virt. eigenvalues --    2.35075   2.35620   2.36408   2.37380   2.37766
 Alpha virt. eigenvalues --    2.38825   2.39171   2.40563   2.41855   2.42774
 Alpha virt. eigenvalues --    2.43329   2.44338   2.45028   2.46302   2.47904
 Alpha virt. eigenvalues --    2.48622   2.49048   2.50552   2.52125   2.53413
 Alpha virt. eigenvalues --    2.53960   2.54922   2.55771   2.56118   2.57954
 Alpha virt. eigenvalues --    2.59549   2.60381   2.60866   2.63179   2.64276
 Alpha virt. eigenvalues --    2.65407   2.66294   2.67288   2.68673   2.69440
 Alpha virt. eigenvalues --    2.70409   2.71154   2.73124   2.73214   2.75675
 Alpha virt. eigenvalues --    2.76497   2.76899   2.77125   2.79088   2.80791
 Alpha virt. eigenvalues --    2.82533   2.83455   2.85722   2.86448   2.90364
 Alpha virt. eigenvalues --    2.91278   2.92821   2.94470   2.95727   2.96235
 Alpha virt. eigenvalues --    2.98448   3.00821   3.01596   3.03595   3.04559
 Alpha virt. eigenvalues --    3.07115   3.10097   3.11372   3.16219   3.17586
 Alpha virt. eigenvalues --    3.22011   3.23301   3.40407   3.48960   3.77727
 Alpha virt. eigenvalues --    3.83837   3.94977   3.96547   3.99245   3.99643
 Alpha virt. eigenvalues --    4.05729   4.08037   4.08973   4.15622   4.17105
 Alpha virt. eigenvalues --    4.17795   4.20351   4.22206   4.23605   4.24568
 Alpha virt. eigenvalues --    4.26818   4.32529   4.34143   4.36527   4.38953
 Alpha virt. eigenvalues --    4.39538   4.44628   4.47845   4.49863   4.52613
 Alpha virt. eigenvalues --    4.54196   4.56879   4.59735   4.64511   4.72332
 Alpha virt. eigenvalues --    4.74075   4.78499   4.87039
          Condensed to atoms (all electrons):
 Mulliken atomic charges:
              1
     1  C    0.088851
     2  C    0.333994
     3  C   -0.307280
     4  C    0.124379
     5  C   -0.060824
     6  C    0.232333
     7  C    0.068707
     8  C    0.285150
     9  O   -0.512771
    10  C    0.638944
    11  C   -0.373950
    12  C    0.238443
    13  C   -0.305341
    14  C   -0.339664
    15  C   -0.509843
    16  O   -0.666501
    17  O   -0.643085
    18  O   -0.532412
    19  O   -0.536969
    20  C    0.082220
    21  C    0.116620
    22  C    0.105983
    23  C   -0.136560
    24  C    0.049450
    25  C   -0.349593
    26  O   -0.698881
    27  O   -0.642959
    28  C    0.601013
    29  O   -0.460553
    30  O   -0.490441
    31  C   -0.226147
    32  C    0.600301
    33  O   -0.564791
    34  O   -0.479815
    35  H    0.113440
    36  H    0.188496
    37  H    0.166806
    38  H    0.170946
    39  H    0.171414
    40  H    0.193149
    41  H    0.175519
    42  H    0.169230
    43  H    0.173843
    44  H    0.171481
    45  H    0.450096
    46  H    0.414969
    47  H    0.136018
    48  H    0.139504
    49  H    0.142324
    50  H    0.178593
    51  H    0.162361
    52  H    0.176028
    53  H    0.433399
    54  H    0.406919
    55  H    0.172882
    56  H    0.168900
    57  H    0.172045
    58  H    0.423625
 Sum of Mulliken atomic charges =   0.00000
 Mulliken charges with hydrogens summed into heavy atoms:
              1
     1  C    0.088851
     2  C    0.333994
     3  C   -0.193839
     4  C    0.124379
     5  C   -0.060824
     6  C    0.232333
     7  C    0.068707
     8  C    0.285150
     9  O   -0.512771
    10  C    0.638944
    11  C   -0.018649
    12  C    0.238443
    13  C    0.037018
    14  C    0.029004
    15  C    0.004711
    16  O   -0.216405
    17  O   -0.228116
    18  O   -0.532412
    19  O   -0.536969
    20  C    0.218238
    21  C    0.256125
    22  C    0.248307
    23  C    0.042034
    24  C    0.049450
    25  C   -0.011203
    26  O   -0.265482
    27  O   -0.236040
    28  C    0.601013
    29  O   -0.460553
    30  O   -0.490441
    31  C    0.287681
    32  C    0.600301
    33  O   -0.141166
    34  O   -0.479815
 Sum of Mulliken charges with hydrogens summed into heavy atoms =   0.00000
 Electronic spatial extent (au):  <R**2>=          14925.8700
 Charge=              0.0000 electrons
 Dipole moment (field-independent basis, Debye):
    X=              0.5355    Y=             -6.4138    Z=              4.5005  Tot=              7.8535
 Quadrupole moment (field-independent basis, Debye-Ang):
   XX=           -219.4801   YY=           -198.1075   ZZ=           -186.6561
   XY=            -21.3808   XZ=             -2.7310   YZ=             -6.8722
 Traceless Quadrupole moment (field-independent basis, Debye-Ang):
   XX=            -18.0655   YY=              3.3070   ZZ=             14.7585
   XY=            -21.3808   XZ=             -2.7310   YZ=             -6.8722
 Octapole moment (field-independent basis, Debye-Ang**2):
  XXX=             13.5214  YYY=           -163.7860  ZZZ=             71.6604  XYY=              6.7276
  XXY=            -22.2091  XXZ=             31.8280  XZZ=             49.3364  YZZ=            -12.3846
  YYZ=              9.0164  XYZ=             11.4688
 Hexadecapole moment (field-independent basis, Debye-Ang**3):
 XXXX=         -11365.1561 YYYY=          -6155.6217 ZZZZ=          -2091.2530 XXXY=           -220.0813
 XXXZ=              5.2388 YYYX=           -453.1455 YYYZ=            -90.2867 ZZZX=             -3.2519
 ZZZY=           -143.3050 XXYY=          -2681.6056 XXZZ=          -2208.0354 YYZZ=          -1252.8240
 XXYZ=            -85.0867 YYXZ=            154.9047 ZZXY=           -136.0109
 N-N= 3.854277253958D+03 E-N=-1.172150448921D+04  KE= 1.702854571536D+03
 Calling FoFJK, ICntrl=      2127 FMM=T ISym2X=0 I1Cent= 0 IOpClX= 0 NMat=1 NMatS=1 NMatT=0.
 ***** Axes restored to original set *****
 -------------------------------------------------------------------
 Center     Atomic                   Forces (Hartrees/Bohr)
 Number     Number              X              Y              Z
 -------------------------------------------------------------------
      1        6           0.000545956   -0.007166733   -0.004200341
      2        6           0.002761703    0.010718553    0.000250415
      3        6          -0.001715455    0.004540584    0.006703255
      4        6           0.012338400    0.013970061   -0.011073388
      5        6          -0.014121679    0.006148566    0.022506153
      6        6          -0.010349929   -0.022225604    0.004158041
      7        6           0.002091086   -0.016975866   -0.002418348
      8        6          -0.006841991   -0.003533076    0.004879000
      9        8           0.002619807    0.013424975    0.003108339
     10        6           0.018447801   -0.014861983   -0.031257529
     11        6          -0.003828454   -0.001583610   -0.002807410
     12        6           0.000382983   -0.001378002    0.005338669
     13        6          -0.006127797    0.000873717    0.002545517
     14        6          -0.002573620   -0.009146966    0.005959177
     15        6           0.006312521   -0.003783401    0.001879323
     16        8           0.014428468    0.011744416   -0.014478857
     17        8          -0.002666189   -0.006872889    0.000528492
     18        8          -0.008889053    0.015111977    0.018344588
     19        8          -0.009319818    0.010875088   -0.015345830
     20        6           0.005672919   -0.010115317    0.014321209
     21        6          -0.004240260    0.020383958   -0.012057955
     22        6          -0.001277542    0.004289082    0.010970571
     23        6          -0.003407670   -0.005074378    0.000195495
     24        6           0.012506133    0.005662716    0.000208174
     25        6          -0.005964237    0.000659689   -0.005363641
     26        8           0.001830763   -0.007187012   -0.001996662
     27        8           0.001119024    0.003903333    0.006393731
     28        6           0.008037881    0.008268496    0.000616728
     29        8           0.006634708   -0.006021750   -0.000113109
     30        8          -0.014866660   -0.001408583   -0.000450292
     31        6          -0.004979780   -0.009883289   -0.002562311
     32        6           0.015585274    0.008532224    0.003410846
     33        8          -0.001683857    0.000086198   -0.000649012
     34        8          -0.010254537   -0.007446720   -0.000953079
     35        1           0.000573686    0.001210373    0.000374804
     36        1           0.003737924    0.005283056    0.001956681
     37        1          -0.000410376   -0.002127177   -0.000800258
     38        1           0.004786461   -0.000660972   -0.001674030
     39        1           0.002427876   -0.001067809   -0.001573267
     40        1          -0.001030667   -0.000643258    0.000426534
     41        1          -0.000556148   -0.001886470    0.000798563
     42        1          -0.002289829    0.003995847   -0.001570281
     43        1          -0.005216718    0.001182124    0.000017035
     44        1          -0.000477866   -0.003719818   -0.001272031
     45        1           0.001619662    0.008087053    0.001983723
     46        1          -0.001137815   -0.000494972    0.002576013
     47        1           0.001038404    0.000063900    0.000695065
     48        1           0.001039854   -0.012369528   -0.001545214
     49        1          -0.005178218    0.003736466   -0.007770095
     50        1          -0.002323364   -0.000680335    0.000199955
     51        1          -0.002777190   -0.003516850    0.001115399
     52        1          -0.001494003    0.002927746   -0.001182460
     53        1           0.005209080   -0.001722545    0.001465382
     54        1           0.002136713   -0.003887388   -0.001106257
     55        1          -0.000720575    0.005554977    0.001097142
     56        1           0.002688517   -0.000943570    0.002650529
     57        1           0.003196806    0.000701677   -0.002275998
     58        1          -0.003049112   -0.003550977   -0.001176893
 -------------------------------------------------------------------
 Cartesian Forces:  Max     0.031257529 RMS     0.007347419

 GradGradGradGradGradGradGradGradGradGradGradGradGradGradGradGradGradGrad
 Berny optimization.
 Internal  Forces:  Max     0.028595781 RMS     0.004468332
 Search for a local minimum.
 Step number   1 out of a maximum of  341
 All quantities printed in internal units (Hartrees-Bohrs-Radians)
 Mixed Optimization -- RFO/linear search
 Second derivative matrix not updated -- first step.
 ITU=  0
     Eigenvalues ---    0.00276   0.00492   0.00496   0.00524   0.00566
     Eigenvalues ---    0.00710   0.00757   0.00887   0.01113   0.01156
     Eigenvalues ---    0.01180   0.01230   0.01266   0.01312   0.01318
     Eigenvalues ---    0.01350   0.01354   0.01367   0.01420   0.01530
     Eigenvalues ---    0.01642   0.01709   0.01754   0.01795   0.01907
     Eigenvalues ---    0.02011   0.02027   0.02043   0.02073   0.02112
     Eigenvalues ---    0.02127   0.02129   0.02254   0.02397   0.02798
     Eigenvalues ---    0.02961   0.03179   0.03413   0.03688   0.04029
     Eigenvalues ---    0.04273   0.04689   0.04827   0.04921   0.04970
     Eigenvalues ---    0.05178   0.05386   0.05682   0.05725   0.05774
     Eigenvalues ---    0.06031   0.06403   0.06943   0.07180   0.07214
     Eigenvalues ---    0.07248   0.07814   0.08073   0.08167   0.08204
     Eigenvalues ---    0.09400   0.09527   0.09548   0.09807   0.10026
     Eigenvalues ---    0.10112   0.10500   0.11487   0.11849   0.14285
     Eigenvalues ---    0.14619   0.15652   0.16000   0.16000   0.16000
     Eigenvalues ---    0.16000   0.16000   0.16000   0.16000   0.16000
     Eigenvalues ---    0.16000   0.16000   0.16000   0.16014   0.16725
     Eigenvalues ---    0.16754   0.18678   0.19447   0.19792   0.21762
     Eigenvalues ---    0.23025   0.23522   0.24329   0.24931   0.24956
     Eigenvalues ---    0.24984   0.24987   0.24988   0.24993   0.24998
     Eigenvalues ---    0.24998   0.24999   0.24999   0.25000   0.25000
     Eigenvalues ---    0.25000   0.25000   0.26920   0.27010   0.27471
     Eigenvalues ---    0.27550   0.27851   0.28593   0.28725   0.30326
     Eigenvalues ---    0.31290   0.31595   0.31938   0.32571   0.32691
     Eigenvalues ---    0.33357   0.33879   0.33892   0.33911   0.33934
     Eigenvalues ---    0.33972   0.33996   0.34032   0.34040   0.34070
     Eigenvalues ---    0.34229   0.34277   0.34304   0.34308   0.34309
     Eigenvalues ---    0.34365   0.34414   0.34465   0.34506   0.34937
     Eigenvalues ---    0.35384   0.37815   0.38458   0.39470   0.39751
     Eigenvalues ---    0.40823   0.41177   0.41589   0.43280   0.44427
     Eigenvalues ---    0.45156   0.45411   0.46003   0.49801   0.50249
     Eigenvalues ---    0.50298   0.50672   0.50928   0.51545   0.51984
     Eigenvalues ---    0.52600   0.53292   0.53459   0.54006   0.55728
     Eigenvalues ---    0.91689   0.93333   0.95052
 RFO step:  Lambda=-2.51047400D-02 EMin= 2.75660883D-03
 Linear search not attempted -- first point.
 Iteration  1 RMS(Cart)=  0.09501750 RMS(Int)=  0.00221259
 Iteration  2 RMS(Cart)=  0.00607243 RMS(Int)=  0.00040680
 Iteration  3 RMS(Cart)=  0.00001330 RMS(Int)=  0.00040677
 Iteration  4 RMS(Cart)=  0.00000003 RMS(Int)=  0.00040677
 Variable       Old X    -DE/DX   Delta X   Delta X   Delta X     New X
                                 (Linear)    (Quad)   (Total)
    R1        2.63861   0.00529   0.00000   0.01005   0.01037   2.64897
    R2        2.64842  -0.00062   0.00000  -0.00123  -0.00131   2.64710
    R3        2.84257   0.00232   0.00000   0.00673   0.00673   2.84930
    R4        2.64126   0.00485   0.00000   0.00916   0.00954   2.65081
    R5        2.58338  -0.00459   0.00000  -0.00849  -0.00849   2.57489
    R6        2.65365  -0.00565   0.00000  -0.01197  -0.01189   2.64176
    R7        2.05055   0.00113   0.00000   0.00298   0.00298   2.05353
    R8        2.65047   0.00798   0.00000   0.01923   0.01858   2.66905
    R9        2.78644  -0.01020   0.00000  -0.02599  -0.02592   2.76051
   R10        2.66467   0.00457   0.00000   0.01214   0.01069   2.67536
   R11        2.79635  -0.00992   0.00000  -0.02435  -0.02559   2.77076
   R12        2.59768  -0.02860   0.00000  -0.05395  -0.05420   2.54349
   R13        2.53916   0.00331   0.00000   0.00571   0.00608   2.54524
   R14        2.86543  -0.00217   0.00000  -0.00586  -0.00585   2.85957
   R15        2.65963  -0.02126   0.00000  -0.04704  -0.04669   2.61294
   R16        2.84361  -0.00645   0.00000  -0.01799  -0.01803   2.82557
   R17        2.56984  -0.00165   0.00000  -0.00376  -0.00380   2.56604
   R18        2.32066  -0.00187   0.00000  -0.00217  -0.00206   2.31861
   R19        2.92745  -0.00204   0.00000  -0.00862  -0.00856   2.91889
   R20        2.07480  -0.00071   0.00000  -0.00196  -0.00196   2.07284
   R21        2.06718   0.00042   0.00000   0.00115   0.00115   2.06833
   R22        2.90952   0.00091   0.00000   0.00316   0.00316   2.91268
   R23        2.72828  -0.01473   0.00000  -0.03437  -0.03528   2.69300
   R24        2.90464  -0.00259   0.00000  -0.00773  -0.00806   2.89658
   R25        2.89190   0.00350   0.00000   0.00967   0.00968   2.90158
   R26        2.07535  -0.00205   0.00000  -0.00563  -0.00563   2.06972
   R27        2.07442  -0.00177   0.00000  -0.00484  -0.00484   2.06957
   R28        2.07337   0.00013   0.00000   0.00035   0.00035   2.07372
   R29        2.07212   0.00040   0.00000   0.00109   0.00109   2.07321
   R30        2.06864  -0.00113   0.00000  -0.00307  -0.00307   2.06557
   R31        2.06945  -0.00115   0.00000  -0.00314  -0.00314   2.06630
   R32        2.06812   0.00151   0.00000   0.00411   0.00411   2.07222
   R33        1.85826   0.00487   0.00000   0.00812   0.00913   1.86739
   R34        1.83382  -0.00135   0.00000  -0.00242  -0.00242   1.83141
   R35        3.22845   0.00357   0.00000   0.02940   0.03052   3.25897
   R36        2.72201   0.00462   0.00000   0.01142   0.01093   2.73294
   R37        2.91384  -0.00570   0.00000  -0.01522  -0.01618   2.89766
   R38        2.91283   0.00097   0.00000   0.00262   0.00258   2.91541
   R39        2.07276  -0.00023   0.00000  -0.00063  -0.00063   2.07213
   R40        2.91171  -0.00705   0.00000  -0.02270  -0.02272   2.88899
   R41        2.71850  -0.00774   0.00000  -0.01863  -0.01834   2.70016
   R42        2.07378   0.00115   0.00000   0.00314   0.00314   2.07692
   R43        2.81971   0.00324   0.00000   0.00895   0.00905   2.82876
   R44        2.69450   0.00617   0.00000   0.01399   0.01399   2.70848
   R45        2.07263   0.00457   0.00000   0.01251   0.01251   2.08514
   R46        2.54026  -0.00397   0.00000  -0.00721  -0.00704   2.53322
   R47        2.05778  -0.00168   0.00000  -0.00447  -0.00447   2.05330
   R48        2.83574   0.00794   0.00000   0.02205   0.02214   2.85788
   R49        2.81729   0.00386   0.00000   0.01077   0.01077   2.82806
   R50        2.06552   0.00098   0.00000   0.00264   0.00264   2.06816
   R51        2.07512  -0.00079   0.00000  -0.00218  -0.00218   2.07295
   R52        1.85283  -0.00447   0.00000  -0.00901  -0.00817   1.84467
   R53        1.84615  -0.00427   0.00000  -0.00784  -0.00784   1.83830
   R54        2.56528  -0.00190   0.00000  -0.00339  -0.00339   2.56189
   R55        2.30688  -0.01213   0.00000  -0.01244  -0.01244   2.29444
   R56        2.69985   0.00470   0.00000   0.01076   0.01076   2.71061
   R57        2.06637  -0.00109   0.00000  -0.00294  -0.00294   2.06343
   R58        2.06813  -0.00070   0.00000  -0.00189  -0.00189   2.06624
   R59        2.06821  -0.00089   0.00000  -0.00242  -0.00242   2.06579
   R60        2.54490   0.00229   0.00000   0.00393   0.00393   2.54883
   R61        2.31049  -0.01109   0.00000  -0.01171  -0.01122   2.29927
   R62        1.85641  -0.00434   0.00000  -0.00811  -0.00811   1.84829
   R63        3.56630   0.00132   0.00000   0.01135   0.01227   3.57857
    A1        2.05876  -0.00393   0.00000  -0.01293  -0.01338   2.04538
    A2        2.11514   0.00318   0.00000   0.01115   0.01134   2.12648
    A3        2.10791   0.00078   0.00000   0.00243   0.00262   2.11053
    A4        2.11941   0.00418   0.00000   0.01486   0.01488   2.13430
    A5        2.07243  -0.00961   0.00000  -0.03475  -0.03476   2.03767
    A6        2.09135   0.00543   0.00000   0.01989   0.01987   2.11122
    A7        2.10788  -0.00322   0.00000  -0.01203  -0.01224   2.09565
    A8        2.06952   0.00234   0.00000   0.00996   0.01006   2.07957
    A9        2.10577   0.00088   0.00000   0.00205   0.00215   2.10792
   A10        2.06355   0.00366   0.00000   0.01378   0.01332   2.07688
   A11        2.13369   0.00479   0.00000   0.01202   0.01290   2.14659
   A12        2.08589  -0.00845   0.00000  -0.02578  -0.02622   2.05967
   A13        2.10318  -0.00357   0.00000  -0.01458  -0.01371   2.08947
   A14        2.09060   0.00179   0.00000   0.00717   0.00806   2.09867
   A15        2.08932   0.00177   0.00000   0.00740   0.00564   2.09496
   A16        2.11230   0.00290   0.00000   0.01159   0.01171   2.12401
   A17        2.03706   0.00334   0.00000   0.00709   0.00889   2.04595
   A18        2.13383  -0.00624   0.00000  -0.01868  -0.02060   2.11323
   A19        2.05676   0.00440   0.00000   0.01714   0.01705   2.07381
   A20        2.11247  -0.00131   0.00000  -0.00681  -0.00678   2.10568
   A21        2.11309  -0.00306   0.00000  -0.00988  -0.00986   2.10323
   A22        2.14728   0.00102   0.00000   0.00050   0.00069   2.14797
   A23        2.16331   0.00810   0.00000   0.03284   0.03271   2.19602
   A24        1.97241  -0.00912   0.00000  -0.03329  -0.03335   1.93906
   A25        2.13262   0.00002   0.00000  -0.00297  -0.00339   2.12923
   A26        2.04909   0.00124   0.00000   0.00477   0.00461   2.05370
   A27        2.10292   0.02465   0.00000   0.09228   0.09106   2.19398
   A28        2.13107  -0.02589   0.00000  -0.09708  -0.09570   2.03536
   A29        1.98181  -0.00181   0.00000  -0.01042  -0.01029   1.97151
   A30        1.87003   0.00544   0.00000   0.04340   0.04333   1.91336
   A31        1.93168  -0.00145   0.00000  -0.01219  -0.01218   1.91951
   A32        1.92915  -0.00459   0.00000  -0.03288  -0.03274   1.89641
   A33        1.89561   0.00279   0.00000   0.01481   0.01473   1.91035
   A34        1.85123  -0.00038   0.00000  -0.00277  -0.00271   1.84851
   A35        1.89059   0.00247   0.00000   0.01281   0.01245   1.90304
   A36        1.99441   0.00099   0.00000   0.00126   0.00181   1.99622
   A37        1.94195  -0.00233   0.00000  -0.00726  -0.00685   1.93510
   A38        1.83752  -0.00295   0.00000  -0.01699  -0.01670   1.82082
   A39        1.87599   0.00084   0.00000   0.00260   0.00294   1.87894
   A40        1.91665   0.00102   0.00000   0.00738   0.00620   1.92285
   A41        1.93988   0.00058   0.00000   0.00156   0.00168   1.94155
   A42        1.92672  -0.00363   0.00000  -0.02729  -0.02735   1.89937
   A43        1.93116  -0.00086   0.00000  -0.01363  -0.01367   1.91750
   A44        1.90848   0.00308   0.00000   0.02168   0.02165   1.93013
   A45        1.89539  -0.00016   0.00000   0.00709   0.00698   1.90237
   A46        1.86020   0.00110   0.00000   0.01188   0.01144   1.87164
   A47        1.98194  -0.00644   0.00000  -0.02849  -0.02843   1.95351
   A48        1.89106   0.00148   0.00000   0.00747   0.00760   1.89866
   A49        1.91398   0.00110   0.00000  -0.00375  -0.00367   1.91031
   A50        1.91192   0.00285   0.00000   0.01694   0.01694   1.92886
   A51        1.89813   0.00287   0.00000   0.01452   0.01431   1.91244
   A52        1.86316  -0.00161   0.00000  -0.00549  -0.00565   1.85751
   A53        1.95132  -0.00337   0.00000  -0.01494  -0.01488   1.93644
   A54        1.93959  -0.00145   0.00000  -0.00624  -0.00619   1.93340
   A55        1.91826   0.00460   0.00000   0.02002   0.02009   1.93835
   A56        1.85296   0.00490   0.00000   0.03559   0.03562   1.88859
   A57        1.89627  -0.00147   0.00000  -0.01075  -0.01068   1.88559
   A58        1.90360  -0.00333   0.00000  -0.02424  -0.02419   1.87941
   A59        1.90903  -0.01933   0.00000  -0.10018  -0.10112   1.80791
   A60        1.92189  -0.00452   0.00000  -0.02439  -0.02439   1.89749
   A61        2.07677   0.01096   0.00000   0.04150   0.04061   2.11738
   A62        1.88001  -0.00131   0.00000  -0.00677  -0.00775   1.87226
   A63        1.89260   0.00038   0.00000   0.00758   0.00802   1.90062
   A64        1.92882   0.00051   0.00000  -0.00188  -0.00185   1.92697
   A65        1.91844   0.00307   0.00000   0.01727   0.01769   1.93613
   A66        1.89946  -0.00215   0.00000  -0.01300  -0.01332   1.88614
   A67        1.94350  -0.00048   0.00000  -0.00305  -0.00286   1.94064
   A68        1.94249   0.00383   0.00000   0.01502   0.01508   1.95757
   A69        1.95032   0.00439   0.00000   0.03108   0.03048   1.98079
   A70        1.92218  -0.00416   0.00000  -0.02987  -0.03069   1.89149
   A71        1.86876  -0.00770   0.00000  -0.03807  -0.03767   1.83109
   A72        1.93437  -0.00190   0.00000  -0.03705  -0.03696   1.89740
   A73        1.84284   0.00553   0.00000   0.06057   0.06047   1.90331
   A74        1.99007  -0.00177   0.00000  -0.00872  -0.00902   1.98105
   A75        1.90303   0.00342   0.00000   0.01840   0.01845   1.92148
   A76        1.92290  -0.00463   0.00000  -0.04240  -0.04251   1.88038
   A77        1.88657  -0.00089   0.00000   0.00138   0.00163   1.88820
   A78        1.89722   0.00195   0.00000   0.00385   0.00293   1.90015
   A79        1.85925   0.00226   0.00000   0.03121   0.03144   1.89068
   A80        2.14599   0.00130   0.00000   0.00762   0.00760   2.15358
   A81        2.03035   0.00089   0.00000   0.00450   0.00451   2.03486
   A82        2.10683  -0.00219   0.00000  -0.01214  -0.01213   2.09470
   A83        2.13528   0.00100   0.00000   0.00494   0.00484   2.14012
   A84        2.06886  -0.00275   0.00000  -0.01049  -0.01054   2.05832
   A85        2.07864   0.00179   0.00000   0.00611   0.00606   2.08470
   A86        2.01198  -0.00544   0.00000  -0.02041  -0.02069   1.99130
   A87        1.88416   0.00404   0.00000   0.03074   0.03102   1.91517
   A88        1.91102  -0.00126   0.00000  -0.02183  -0.02178   1.88924
   A89        1.89383   0.00159   0.00000   0.01034   0.01053   1.90437
   A90        1.90122   0.00335   0.00000   0.01667   0.01626   1.91748
[...]
     49          1           0        4.304877    1.739656    1.451590
     50          1           0        3.357125    3.973649    0.251669
     51          1           0        0.480866    0.930460    0.194620
     52          1           0        1.212963    0.936965   -1.386853
     53          1           0        4.596156   -1.213396    0.103752
     54          1           0        6.074494    1.741084   -0.045832
     55          1           0       -2.304595    3.545793   -1.094981
     56          1           0       -1.571538    4.693707    0.076183
     57          1           0       -1.145646    4.802248   -1.647128
     58          1           0        2.823476   -4.216909    2.410085
 ---------------------------------------------------------------------
 Rotational constants (GHZ):      0.1547562      0.0918732      0.0722092

 **********************************************************************

            Population analysis using the SCF density.

 **********************************************************************

 Orbital symmetries:
       Occupied  (A) (A) (A) (A) (A) (A) (A) (A) (A) (A) (A) (A)
                 (A) (A) (A) (A) (A) (A) (A) (A) (A) (A) (A) (A)
                 (A) (A) (A) (A) (A) (A) (A) (A) (A) (A) (A) (A)
                 (A) (A) (A) (A) (A) (A) (A) (A) (A) (A) (A) (A)
                 (A) (A) (A) (A) (A) (A) (A) (A) (A) (A) (A) (A)
                 (A) (A) (A) (A) (A) (A) (A) (A) (A) (A) (A) (A)
                 (A) (A) (A) (A) (A) (A) (A) (A) (A) (A) (A) (A)
                 (A) (A) (A) (A) (A) (A) (A) (A) (A) (A) (A) (A)
                 (A) (A) (A) (A) (A) (A) (A) (A) (A) (A) (A) (A)
                 (A) (A) (A) (A) (A) (A) (A) (A) (A) (A) (A) (A)
                 (A) (A) (A) (A) (A)
       Virtual   (A) (A) (A) (A) (A) (A) (A) (A) (A) (A) (A) (A)
                 (A) (A) (A) (A) (A) (A) (A) (A) (A) (A) (A) (A)
                 (A) (A) (A) (A) (A) (A) (A) (A) (A) (A) (A) (A)
                 (A) (A) (A) (A) (A) (A) (A) (A) (A) (A) (A) (A)
                 (A) (A) (A) (A) (A) (A) (A) (A) (A) (A) (A) (A)
                 (A) (A) (A) (A) (A) (A) (A) (A) (A) (A) (A) (A)
                 (A) (A) (A) (A) (A) (A) (A) (A) (A) (A) (A) (A)
                 (A) (A) (A) (A) (A) (A) (A) (A) (A) (A) (A) (A)
                 (A) (A) (A) (A) (A) (A) (A) (A) (A) (A) (A) (A)
                 (A) (A) (A) (A) (A) (A) (A) (A) (A) (A) (A) (A)
                 (A) (A) (A) (A) (A) (A) (A) (A) (A) (A) (A) (A)
                 (A) (A) (A) (A) (A) (A) (A) (A) (A) (A) (A) (A)
                 (A) (A) (A) (A) (A) (A) (A) (A) (A) (A) (A) (A)
                 (A) (A) (A) (A) (A) (A) (A) (A) (A) (A) (A) (A)
                 (A) (A) (A) (A) (A) (A) (A) (A) (A) (A) (A) (A)
                 (A) (A) (A) (A) (A) (A) (A) (A) (A) (A) (A) (A)
                 (A) (A) (A) (A) (A) (A) (A) (A) (A) (A) (A) (A)
                 (A) (A) (A) (A) (A) (A) (A) (A) (A) (A) (A) (A)
                 (A) (A) (A) (A) (A) (A) (A) (A) (A) (A) (A) (A)
                 (A) (A) (A) (A) (A) (A) (A) (A) (A) (A) (A) (A)
                 (A) (A) (A) (A) (A) (A) (A) (A) (A) (A) (A) (A)
                 (A) (A) (A) (A) (A) (A) (A) (A) (A) (A) (A) (A)
                 (A) (A) (A) (A) (A) (A) (A) (A) (A) (A) (A) (A)
                 (A) (A) (A) (A) (A) (A) (A) (A) (A) (A) (A) (A)
                 (A) (A) (A) (A) (A) (A) (A) (A) (A) (A) (A) (A)
                 (A) (A) (A) (A) (A) (A) (A) (A) (A) (A) (A) (A)
                 (A) (A) (A) (A) (A) (A) (A) (A) (A) (A) (A) (A)
                 (A) (A) (A) (A) (A) (A) (A) (A) (A) (A) (A) (A)
                 (A) (A) (A) (A) (A) (A) (A) (A) (A) (A) (A) (A)
                 (A) (A) (A) (A) (A) (A) (A) (A) (A) (A) (A) (A)
                 (A) (A) (A) (A) (A) (A) (A) (A) (A) (A) (A) (A)
                 (A) (A) (A) (A) (A) (A) (A) (A) (A) (A) (A) (A)
                 (A) (A) (A) (A) (A) (A) (A) (A) (A) (A) (A) (A)
                 (A) (A) (A) (A) (A) (A) (A) (A) (A) (A) (A) (A)
                 (A) (A) (A) (A) (A) (A) (A) (A) (A) (A) (A) (A)
                 (A) (A) (A) (A) (A) (A) (A) (A) (A) (A) (A) (A)
                 (A)
 The electronic state is 1-A.
 Alpha  occ. eigenvalues --  -19.23475 -19.22556 -19.20273 -19.19223 -19.17996
 Alpha  occ. eigenvalues --  -19.17861 -19.17453 -19.14700 -19.13916 -19.13531
 Alpha  occ. eigenvalues --  -19.13039 -10.35465 -10.33245 -10.31242 -10.29293
 Alpha  occ. eigenvalues --  -10.27734 -10.27426 -10.27216 -10.25784 -10.24029
 Alpha  occ. eigenvalues --  -10.23861 -10.23530 -10.23240 -10.22547 -10.22134
 Alpha  occ. eigenvalues --  -10.22015 -10.21711 -10.21226 -10.20894 -10.20448
 Alpha  occ. eigenvalues --  -10.20262 -10.20131 -10.20071 -10.18167  -1.14526
 Alpha  occ. eigenvalues --   -1.12976  -1.09892  -1.08430  -1.06890  -1.06745
 Alpha  occ. eigenvalues --   -1.04863  -1.03314  -1.02635  -1.00897  -1.00140
 Alpha  occ. eigenvalues --   -0.88470  -0.86526  -0.84315  -0.81353  -0.79545
 Alpha  occ. eigenvalues --   -0.77736  -0.76299  -0.75753  -0.74554  -0.71557
 Alpha  occ. eigenvalues --   -0.70665  -0.69767  -0.67311  -0.66370  -0.64966
 Alpha  occ. eigenvalues --   -0.63501  -0.62893  -0.61992  -0.59498  -0.58191
 Alpha  occ. eigenvalues --   -0.57730  -0.55412  -0.55011  -0.54084  -0.53503
 Alpha  occ. eigenvalues --   -0.53090  -0.52032  -0.51304  -0.50788  -0.49931
 Alpha  occ. eigenvalues --   -0.49076  -0.48646  -0.48097  -0.47913  -0.47779
 Alpha  occ. eigenvalues --   -0.47239  -0.46838  -0.46589  -0.45627  -0.45408
 Alpha  occ. eigenvalues --   -0.44545  -0.44389  -0.44283  -0.43561  -0.43013
 Alpha  occ. eigenvalues --   -0.42668  -0.42205  -0.41896  -0.41452  -0.40426
 Alpha  occ. eigenvalues --   -0.40314  -0.39863  -0.39554  -0.39308  -0.39045
 Alpha  occ. eigenvalues --   -0.38853  -0.38439  -0.38188  -0.37806  -0.37449
 Alpha  occ. eigenvalues --   -0.36205  -0.35792  -0.35656  -0.35370  -0.35177
 Alpha  occ. eigenvalues --   -0.34536  -0.34258  -0.33297  -0.32649  -0.30710
 Alpha  occ. eigenvalues --   -0.30086  -0.29511  -0.28813  -0.27690  -0.26888
 Alpha  occ. eigenvalues --   -0.26836  -0.26216  -0.25091  -0.24120  -0.22153
 Alpha virt. eigenvalues --   -0.05160  -0.03964  -0.03468  -0.02883   0.03168
 Alpha virt. eigenvalues --    0.04336   0.04703   0.05767   0.07074   0.07296
 Alpha virt. eigenvalues --    0.07568   0.09435   0.09933   0.10760   0.11135
 Alpha virt. eigenvalues --    0.11956   0.12266   0.12794   0.12968   0.13221
 Alpha virt. eigenvalues --    0.13652   0.14427   0.14985   0.15268   0.15743
 Alpha virt. eigenvalues --    0.16217   0.16503   0.16637   0.16722   0.17208
 Alpha virt. eigenvalues --    0.17408   0.17621   0.17967   0.17985   0.18811
 Alpha virt. eigenvalues --    0.20062   0.20223   0.20711   0.20898   0.21915
 Alpha virt. eigenvalues --    0.22009   0.22367   0.23496   0.23860   0.24248
 Alpha virt. eigenvalues --    0.25078   0.25678   0.26697   0.26970   0.27728
 Alpha virt. eigenvalues --    0.28475   0.29780   0.30117   0.30644   0.32183
 Alpha virt. eigenvalues --    0.32534   0.32745   0.33661   0.36191   0.37902
 Alpha virt. eigenvalues --    0.39030   0.39830   0.40018   0.40744   0.42468
 Alpha virt. eigenvalues --    0.42928   0.45294   0.46973   0.47697   0.49078
 Alpha virt. eigenvalues --    0.49631   0.50206   0.50762   0.51532   0.51682
 Alpha virt. eigenvalues --    0.52004   0.52680   0.52908   0.53319   0.54188
 Alpha virt. eigenvalues --    0.54591   0.54904   0.55624   0.56200   0.56373
 Alpha virt. eigenvalues --    0.56992   0.57356   0.57939   0.58451   0.58641
 Alpha virt. eigenvalues --    0.59283   0.60060   0.60434   0.61140   0.61343
 Alpha virt. eigenvalues --    0.61687   0.62284   0.62842   0.63411   0.63624
 Alpha virt. eigenvalues --    0.64295   0.65105   0.65575   0.66006   0.66739
 Alpha virt. eigenvalues --    0.67101   0.67489   0.68327   0.69273   0.69995
 Alpha virt. eigenvalues --    0.70626   0.71284   0.71555   0.72309   0.73492
 Alpha virt. eigenvalues --    0.73650   0.74038   0.74330   0.74503   0.75282
 Alpha virt. eigenvalues --    0.75472   0.75912   0.77137   0.77541   0.78811
 Alpha virt. eigenvalues --    0.79020   0.79641   0.80524   0.81585   0.81964
 Alpha virt. eigenvalues --    0.82517   0.82656   0.83789   0.84392   0.84848
 Alpha virt. eigenvalues --    0.85108   0.86075   0.86443   0.86776   0.87106
 Alpha virt. eigenvalues --    0.87869   0.88496   0.88703   0.88950   0.90663
 Alpha virt. eigenvalues --    0.90920   0.91158   0.91390   0.91920   0.92288
 Alpha virt. eigenvalues --    0.92770   0.93260   0.93877   0.94868   0.95127
 Alpha virt. eigenvalues --    0.95751   0.96245   0.96473   0.97283   0.97823
 Alpha virt. eigenvalues --    0.97894   0.99011   0.99193   0.99478   0.99937
 Alpha virt. eigenvalues --    1.00771   1.01847   1.02089   1.02305   1.02636
 Alpha virt. eigenvalues --    1.03116   1.03783   1.04163   1.06048   1.06881
 Alpha virt. eigenvalues --    1.07681   1.08328   1.09457   1.09848   1.10775
 Alpha virt. eigenvalues --    1.11408   1.12018   1.14974   1.15262   1.17697
 Alpha virt. eigenvalues --    1.18115   1.18813   1.19066   1.19790   1.20935
 Alpha virt. eigenvalues --    1.21654   1.22396   1.23246   1.23768   1.25395
 Alpha virt. eigenvalues --    1.25616   1.27007   1.28013   1.28359   1.28948
 Alpha virt. eigenvalues --    1.30429   1.31153   1.33503   1.33731   1.33899
 Alpha virt. eigenvalues --    1.35033   1.35659   1.35877   1.36286   1.37139
 Alpha virt. eigenvalues --    1.37466   1.37829   1.39740   1.40227   1.40504
 Alpha virt. eigenvalues --    1.41355   1.42410   1.42982   1.43269   1.44617
 Alpha virt. eigenvalues --    1.44941   1.45832   1.48201   1.49242   1.50419
 Alpha virt. eigenvalues --    1.51849   1.52271   1.55580   1.56489   1.59537
 Alpha virt. eigenvalues --    1.60019   1.61206   1.61972   1.63587   1.63893
 Alpha virt. eigenvalues --    1.65628   1.66448   1.67656   1.68186   1.68792
 Alpha virt. eigenvalues --    1.69706   1.70097   1.70887   1.71001   1.71437
 Alpha virt. eigenvalues --    1.71891   1.72383   1.72815   1.73700   1.74168
 Alpha virt. eigenvalues --    1.74323   1.75367   1.75566   1.76001   1.76653
 Alpha virt. eigenvalues --    1.77454   1.77889   1.78975   1.79899   1.80716
 Alpha virt. eigenvalues --    1.81006   1.81788   1.82477   1.83213   1.83576
 Alpha virt. eigenvalues --    1.83933   1.84271   1.84495   1.85290   1.85436
 Alpha virt. eigenvalues --    1.86908   1.87379   1.88295   1.88812   1.89735
 Alpha virt. eigenvalues --    1.90294   1.90624   1.91238   1.91444   1.92108
 Alpha virt. eigenvalues --    1.93269   1.94620   1.94768   1.95208   1.96079
 Alpha virt. eigenvalues --    1.96787   1.97555   1.98270   1.99076   1.99541
 Alpha virt. eigenvalues --    2.00110   2.00903   2.01705   2.03287   2.03615
 Alpha virt. eigenvalues --    2.04451   2.04618   2.05613   2.06289   2.06405
 Alpha virt. eigenvalues --    2.07895   2.09342   2.09511   2.11425   2.11714
 Alpha virt. eigenvalues --    2.12327   2.13955   2.14664   2.15759   2.16069
 Alpha virt. eigenvalues --    2.18409   2.20409   2.20699   2.21264   2.22154
 Alpha virt. eigenvalues --    2.23731   2.25049   2.26118   2.26936   2.27488
 Alpha virt. eigenvalues --    2.28046   2.28626   2.29295   2.29417   2.30389
 Alpha virt. eigenvalues --    2.31591   2.31933   2.32832   2.33621   2.34485
 Alpha virt. eigenvalues --    2.35175   2.35678   2.37820   2.38555   2.38751
 Alpha virt. eigenvalues --    2.39573   2.40098   2.41909   2.42331   2.42959
 Alpha virt. eigenvalues --    2.44171   2.44936   2.46873   2.46975   2.47310
 Alpha virt. eigenvalues --    2.47836   2.48727   2.50431   2.52063   2.54237
 Alpha virt. eigenvalues --    2.54780   2.55116   2.55767   2.56646   2.57424
 Alpha virt. eigenvalues --    2.59298   2.60166   2.60734   2.63055   2.64666
 Alpha virt. eigenvalues --    2.66572   2.67129   2.68712   2.69088   2.69333
 Alpha virt. eigenvalues --    2.70707   2.71302   2.73437   2.74318   2.75781
 Alpha virt. eigenvalues --    2.77267   2.77786   2.78666   2.80570   2.81231
 Alpha virt. eigenvalues --    2.82551   2.83521   2.86472   2.86622   2.90243
 Alpha virt. eigenvalues --    2.91514   2.92872   2.95328   2.96509   2.96981
 Alpha virt. eigenvalues --    2.98642   3.00567   3.02559   3.04649   3.05780
 Alpha virt. eigenvalues --    3.07380   3.11231   3.12050   3.16885   3.17596
 Alpha virt. eigenvalues --    3.22973   3.23548   3.43220   3.49721   3.81061
 Alpha virt. eigenvalues --    3.84272   3.94608   3.96581   3.98459   3.99691
 Alpha virt. eigenvalues --    4.06111   4.08852   4.09368   4.15225   4.17934
 Alpha virt. eigenvalues --    4.18385   4.21238   4.22039   4.24137   4.25059
 Alpha virt. eigenvalues --    4.26278   4.32256   4.35019   4.35746   4.39088
 Alpha virt. eigenvalues --    4.40513   4.44605   4.47958   4.51405   4.53629
 Alpha virt. eigenvalues --    4.54876   4.56957   4.60206   4.65112   4.71843
 Alpha virt. eigenvalues --    4.73893   4.78819   4.87154
          Condensed to atoms (all electrons):
 Mulliken atomic charges:
              1
     1  C    0.097408
     2  C    0.322846
     3  C   -0.306805
     4  C    0.141573
     5  C   -0.061265
     6  C    0.237742
     7  C    0.055017
     8  C    0.290251
     9  O   -0.497999
    10  C    0.599355
    11  C   -0.377363
    12  C    0.237564
    13  C   -0.302781
    14  C   -0.339618
    15  C   -0.518171
    16  O   -0.654960
    17  O   -0.632391
    18  O   -0.533518
    19  O   -0.537840
    20  C    0.091005
    21  C    0.127653
    22  C    0.110380
    23  C   -0.147776
    24  C    0.053442
    25  C   -0.352358
    26  O   -0.691537
    27  O   -0.642132
    28  C    0.595429
    29  O   -0.467478
    30  O   -0.490713
    31  C   -0.218883
    32  C    0.598047
    33  O   -0.568064
    34  O   -0.474832
    35  H    0.118375
    36  H    0.189711
    37  H    0.161534
    38  H    0.166741
    39  H    0.169377
    40  H    0.194523
    41  H    0.176862
    42  H    0.165607
    43  H    0.185106
    44  H    0.166843
    45  H    0.448561
    46  H    0.414313
    47  H    0.129412
    48  H    0.130962
    49  H    0.133555
    50  H    0.182227
    51  H    0.167143
    52  H    0.175553
    53  H    0.436668
    54  H    0.411127
    55  H    0.169394
    56  H    0.170450
    57  H    0.172810
    58  H    0.421921
 Sum of Mulliken atomic charges =   0.00000
 Mulliken charges with hydrogens summed into heavy atoms:
              1
     1  C    0.097408
     2  C    0.322846
     3  C   -0.188431
     4  C    0.141573
     5  C   -0.061265
     6  C    0.237742
     7  C    0.055017
     8  C    0.290251
     9  O   -0.497999
    10  C    0.599355
    11  C   -0.026118
    12  C    0.237564
    13  C    0.033337
    14  C    0.031767
    15  C   -0.000615
    16  O   -0.206399
    17  O   -0.218078
    18  O   -0.533518
    19  O   -0.537840
    20  C    0.220417
    21  C    0.258615
    22  C    0.243935
    23  C    0.034451
    24  C    0.053442
    25  C   -0.009662
    26  O   -0.254869
    27  O   -0.231005
    28  C    0.595429
    29  O   -0.467478
    30  O   -0.490713
    31  C    0.293770
    32  C    0.598047
    33  O   -0.146144
    34  O   -0.474832
 Sum of Mulliken charges with hydrogens summed into heavy atoms =   0.00000
 Electronic spatial extent (au):  <R**2>=          15441.1749
 Charge=              0.0000 electrons
 Dipole moment (field-independent basis, Debye):
    X=             -0.1645    Y=             -5.7834    Z=              4.6518  Tot=              7.4239
 Quadrupole moment (field-independent basis, Debye-Ang):
   XX=           -225.7316   YY=           -194.9480   ZZ=           -186.3639
   XY=            -21.3257   XZ=             -4.3242   YZ=             -6.7744
 Traceless Quadrupole moment (field-independent basis, Debye-Ang):
   XX=            -23.3838   YY=              7.3998   ZZ=             15.9839
   XY=            -21.3257   XZ=             -4.3242   YZ=             -6.7744
 Octapole moment (field-independent basis, Debye-Ang**2):
  XXX=              9.1161  YYY=           -162.4743  ZZZ=             72.2840  XYY=            -19.9214
  XXY=            -24.2976  XXZ=             39.6000  XZZ=             51.1947  YZZ=            -12.6576
  YYZ=             10.2155  XYZ=              7.4750
 Hexadecapole moment (field-independent basis, Debye-Ang**3):
 XXXX=         -11977.4493 YYYY=          -6099.9440 ZZZZ=          -2149.2679 XXXY=           -205.4834
 XXXZ=              5.6166 YYYX=           -566.2540 YYYZ=           -151.7944 ZZZX=            -44.3780
 ZZZY=           -135.5129 XXYY=          -2913.4767 XXZZ=          -2336.8318 YYZZ=          -1237.8251
 XXYZ=            -61.2599 YYXZ=            144.0570 ZZXY=           -118.8377
 N-N= 3.823729407789D+03 E-N=-1.166051860800D+04  KE= 1.703104894867D+03
 1\1\GINC-B0800\FOpt\RB3LYP\6-31G(d)\C23H24O11\CAOFEI\02-Feb-2021\0\\# 
 opt b3lyp/6-31g(d) geom=connectivity\\Title Card Required\\0,1\C,-1.62
 48622353,-3.0101983735,-3.0454173475\C,-0.8837882858,-1.8609432806,-3.
 3594162199\C,-0.8894686408,-0.7084212167,-2.5629450106\C,-1.6580391768
 ,-0.6719328283,-1.3981532771\C,-2.4265348017,-1.8146176836,-1.05135388
 18\C,-2.4003394139,-2.9763221088,-1.8784954292\C,-1.7167893503,0.48314
 09364,-0.5141213519\C,-2.5209207631,0.4334520581,0.5704097644\O,-3.264
 7478269,-0.6693221332,0.89417939\C,-3.2471718657,-1.815929282,0.136009
 7206\C,-0.8991408338,1.7231067408,-0.8106810262\C,-0.7849463471,2.6896
 162217,0.3904237569\C,-2.1813730958,2.8710131982,1.0353336036\C,-2.705
 3179571,1.5346748926,1.5684398155\C,-1.5811009206,-4.2226300366,-3.938
 196245\O,-3.1168569535,-4.0665452145,-1.5615946436\O,-0.144443016,-1.9
 246569603,-4.5016366335\O,-3.9439601418,-2.7480583682,0.5319777538\O,0
 .0388590946,2.2248719054,1.4467962262\C,1.3677023441,1.7178975095,1.19
 66646253\C,2.2721059072,2.2678933764,2.3027788086\C,3.7063224698,1.762
 0593221,2.1160051484\C,3.7565377617,0.2763736711,1.932896455\C,2.70513
 4449,-0.4359500472,1.501585177\C,1.3478597691,0.1793026764,1.223921159
 9\O,2.3581137244,3.6784296871,2.3230345331\O,4.5162266809,2.1227133155
 ,3.2256514642\C,2.8876792102,-1.9078397047,1.3316574356\O,1.7316893791
 ,-2.5099174775,0.9597345547\O,3.9261669159,-2.5153759381,1.5011001125\
 C,1.80824864,-3.9332683598,0.7843393953\C,-0.3135451607,4.0904499456,-
 0.0447763877\O,-0.902433598,4.5159337365,-1.182904381\O,0.4478391135,4
 .7948319856,0.5843812882\H,-0.3007854743,0.1508854462,-2.8705353033\H,
 -1.3366116087,2.2672565923,-1.6550189845\H,0.1077082332,1.4352541485,-
 1.1333577903\H,-2.8635235345,3.2780692128,0.2811718736\H,-2.1064340641
 ,3.5973202146,1.8507085395\H,-2.1882501922,1.2682285798,2.4982757887\H
 ,-3.77059931,1.6172997604,1.8142431964\H,-0.5600107038,-4.6132861635,-
 4.0227847306\H,-2.2254120442,-5.0103290698,-3.5462299442\H,-1.90819134
 91,-3.9742122412,-4.9546811596\H,-3.6016011636,-3.8652301714,-0.718432
 3596\H,0.3301953713,-1.0873773678,-4.6230943847\H,1.7361526501,2.09278
 43409,0.2314692174\H,1.8982221628,1.8863892239,3.267742564\H,4.0998634
 362,2.2430952264,1.2003888235\H,4.6983825817,-0.2240615531,2.140431474
 \H,0.9423760283,-0.2179287029,0.2885422301\H,0.6392960454,-0.132194172
 4,2.0025598917\H,1.5139265744,4.0543227698,2.0093498938\H,4.3772907117
 ,3.0778254832,3.3451681261\H,0.8095002298,-4.2439501681,0.4764951988\H
 ,2.5451723764,-4.1860431457,0.0173714587\H,2.0925413885,-4.4194083923,
 1.7213763723\H,-0.5939134303,5.4314579741,-1.328788356\\Version=EM64L-
 G09RevB.01\State=1-A\HF=-1718.3747497\RMSD=9.540e-09\RMSF=2.301e-06\Di
 pole=-0.8861357,1.9563862,-1.979469\Quadrupole=-16.5106247,10.1410528,
 6.3695719,-11.0791805,-11.7027084,-7.499902\PG=C01 [X(C23H24O11)]\\@


 ON A CLEAR DISK YOU CAN SEEK FOREVER.
 Job cpu time:  0 days 11 hours 27 minutes 21.7 seconds.
 File lengths (MBytes):  RWF=    201 Int=      0 D2E=      0 Chk=     21 Scr=      1
 Normal termination of Gaussian 09 at Tue Feb  2 13:26:22 2021.
