 Entering Gaussian System, Link 0=g09
 Initial command:
 /public/software/g09/g09/l1.exe /tmp/Gau-25755.inp -scrdir=/tmp/
 Entering Link 1 = /public/software/g09/g09/l1.exe PID=     25756.
  
 Copyright (c) 1988,1990,1992,1993,1995,1998,2003,2009,2010,
            Gaussian, Inc.  All Rights Reserved.
  
 This is part of the Gaussian(R) 09 program.  It is based on
 the Gaussian(R) 03 system (copyright 2003, Gaussian, Inc.),
 the Gaussian(R) 98 system (copyright 1998, Gaussian, Inc.),
 the Gaussian(R) 94 system (copyright 1995, Gaussian, Inc.),
 the Gaussian 92(TM) system (copyright 1992, Gaussian, Inc.),
 the Gaussian 90(TM) system (copyright 1990, Gaussian, Inc.),
 the Gaussian 88(TM) system (copyright 1988, Gaussian, Inc.),
 the Gaussian 86(TM) system (copyright 1986, Carnegie Mellon
 University), and the Gaussian 82(TM) system (copyright 1983,
 Carnegie Mellon University). Gaussian is a federally registered
 trademark of Gaussian, Inc.
  
 This software contains proprietary and confidential information,
 including trade secrets, belonging to Gaussian, Inc.
  
 This software is provided under written license and may be
 used, copied, transmitted, or stored only in accord with that
 written license.
  
 The following legend is applicable only to US Government
 contracts under FAR:
  
                    RESTRICTED RIGHTS LEGEND
  
 Use, reproduction and disclosure by the US Government is
 subject to restrictions as set forth in subparagraphs (a)
 and (c) of the Commercial Computer Software - Restricted
 Rights clause in FAR 52.227-19.
  
 Gaussian, Inc.
 340 Quinnipiac St., Bldg. 40, Wallingford CT 06492
  
  
 ---------------------------------------------------------------
 Warning -- This program may not be used in any manner that
 competes with the business of Gaussian, Inc. or will provide
 assistance to any competitor of Gaussian, Inc.  The licensee
 of this program is prohibited from giving any competitor of
 Gaussian, Inc. access to this program.  By using this program,
 the user acknowledges that Gaussian, Inc. is engaged in the
 business of creating and licensing software in the field of
 computational chemistry and represents and warrants to the
 licensee that it is not a competitor of Gaussian, Inc. and that
 it will not use this program in any manner prohibited above.
 ---------------------------------------------------------------
  

 Cite this work as:
 Gaussian 09, Revision B.01,
 M. J. Frisch, G. W. Trucks, H. B. Schlegel, G. E. Scuseria, 
 M. A. Robb, J. R. Cheeseman, G. Scalmani, V. Barone, B. Mennucci, 
 G. A. Petersson, H. Nakatsuji, M. Caricato, X. Li, H. P. Hratchian, 
 A. F. Izmaylov, J. Bloino, G. Zheng, J. L. Sonnenberg, M. Hada, 
 M. Ehara, K. Toyota, R. Fukuda, J. Hasegawa, M. Ishida, T. Nakajima, 
 Y. Honda, O. Kitao, H. Nakai, T. Vreven, J. A. Montgomery, Jr., 
 J. E. Peralta, F. Ogliaro, M. Bearpark, J. J. Heyd, E. Brothers, 
 K. N. Kudin, V. N. Staroverov, T. Keith, R. Kobayashi, J. Normand, 
 K. Raghavachari, A. Rendell, J. C. Burant, S. S. Iyengar, J. Tomasi, 
 M. Cossi, N. Rega, J. M. Millam, M. Klene, J. E. Knox, J. B. Cross, 
 V. Bakken, C. Adamo, J. Jaramillo, R. Gomperts, R. E. Stratmann, 
 O. Yazyev, A. J. Austin, R. Cammi, C. Pomelli, J. W. Ochterski, 
 R. L. Martin, K. Morokuma, V. G. Zakrzewski, G. A. Voth, 
 P. Salvador, J. J. Dannenberg, S. Dapprich, A. D. Daniels, 
 O. Farkas, J. B. Foresman, J. V. Ortiz, J. Cioslowski, 
 and D. J. Fox, Gaussian, Inc., Wallingford CT, 2010.
 
 ******************************************
 Gaussian 09:  EM64L-G09RevB.01 12-Aug-2010
                 2-Feb-2021 
 ******************************************
 %mem=600MW
 %nprocshared=10
 Will use up to   10 processors via shared memory.
 --------------------------------------
 # opt b3lyp/6-31g(d) geom=connectivity
 --------------------------------------
 1/14=-1,18=20,19=15,26=3,38=1,57=2/1,3;
 2/9=110,12=2,17=6,18=5,40=1/2;
 3/5=1,6=6,7=1,11=2,16=1,25=1,30=1,71=1,74=-5/1,2,3;
 4//1;
 5/5=2,38=5/2;
 6/7=2,8=2,9=2,10=2,28=1/1;
 7//1,2,3,16;
 1/14=-1,18=20,19=15/3(2);
 2/9=110/2;
 99//99;
 2/9=110/2;
 3/5=1,6=6,7=1,11=2,16=1,25=1,30=1,71=1,74=-5/1,2,3;
 4/5=5,16=3/1;
 5/5=2,38=5/2;
 7//1,2,3,16;
 1/14=-1,18=20,19=15/3(-5);
 2/9=110/2;
 6/7=2,8=2,9=2,10=2,19=2,28=1/1;
 99/9=1/99;
 -------------------
 Title Card Required
 -------------------
 Symbolic Z-matrix:
 Charge =  0 Multiplicity = 1
 C                     4.13428  -1.61536  -1.27516 
 C                     3.72375  -0.28372  -1.38518 
 C                     2.38751   0.05349  -1.61331 
 C                     1.40045  -0.93409  -1.72992 
 C                     1.79674  -2.2744   -1.6323 
 C                     3.15059  -2.6085   -1.4047 
 C                    -0.01831  -0.60471  -1.95249 
 C                    -0.87898  -1.62216  -2.12004 
 O                    -0.49092  -2.97366  -2.05566 
 C                     0.78967  -3.34788  -1.78913 
 C                    -0.48555   0.8369   -1.97377 
 C                    -2.01837   1.00463  -1.82441 
 C                    -2.71741  -0.00065  -2.75846 
 C                    -2.34609  -1.4401   -2.3953 
 C                     5.57451  -1.97035  -1.02833 
 O                     3.56914  -3.91477  -1.30627 
 O                     4.58596   0.77287  -1.28186 
 O                     1.11843  -4.52814  -1.70014 
 O                    -2.52609   0.70635  -0.50652 
 C                    -1.93456   1.3551    0.63444 
 C                    -3.07799   1.76887   1.58313 
 C                    -2.52542   2.34899   2.89754 
 C                    -1.40989   1.5535    3.48732 
 C                    -0.72237   0.63177   2.79003 
 C                    -1.00742   0.34454   1.34023 
 O                    -3.92477   2.77774   1.00531 
 O                    -3.57844   2.41104   3.85789 
 C                     0.38195  -0.17444   3.3865 
 O                     0.59845   0.15293   4.68362 
 O                     1.00221  -1.0153    2.75145 
 C                     1.64053  -0.59798   5.30679 
 C                    -2.46127   2.41441  -2.24938 
 O                    -2.00466   2.80459  -3.45477 
 O                    -3.18536   3.15888  -1.60372 
 H                     2.14928   1.10999  -1.69912 
 H                    -0.14565   1.2699   -2.92379 
 H                     0.011     1.40917  -1.18486 
 H                    -2.44397   0.19264  -3.80437 
 H                    -3.80805   0.10621  -2.69414 
 H                    -2.90892  -1.75739  -1.50878 
 H                    -2.65194  -2.09871  -3.21698 
 H                     5.90249  -1.5559   -0.06925 
 H                     5.75246  -3.04881  -0.99268 
 H                     6.20248  -1.56797  -1.83027 
 H                     2.79266  -4.51213  -1.39454 
 H                     5.4772    0.44771  -1.07735 
 H                    -1.38704   2.25437   0.32733 
 H                    -3.73436   0.91163   1.77976 
 H                    -2.18302   3.37952   2.74389 
 H                    -1.18054   1.76197   4.52963 
 H                    -0.05959   0.30958   0.79399 
 H                    -1.43808  -0.66282   1.26062 
 H                    -3.88619   2.68221   0.02998 
 H                    -4.32455   2.82905   3.3847 
 H                     1.7253   -0.26338   6.34439 
 H                     1.39809  -1.66536   5.30603 
 H                     2.59633  -0.41648   4.80526 
 H                    -2.3957    3.69464  -3.59284 
 

 GradGradGradGradGradGradGradGradGradGradGradGradGradGradGradGradGradGrad
 Berny optimization.
 Initialization pass.
                           ----------------------------
                           !    Initial Parameters    !
                           ! (Angstroms and Degrees)  !
 --------------------------                            --------------------------
 ! Name  Definition              Value          Derivative Info.                !
 --------------------------------------------------------------------------------
 ! R1    R(1,2)                  1.3978         estimate D2E/DX2                !
 ! R2    R(1,6)                  1.4038         estimate D2E/DX2                !
 ! R3    R(1,15)                 1.5037         estimate D2E/DX2                !
 ! R4    R(2,3)                  1.3969         estimate D2E/DX2                !
 ! R5    R(2,17)                 1.3677         estimate D2E/DX2                !
 ! R6    R(3,4)                  1.4011         estimate D2E/DX2                !
 ! R7    R(3,35)                 1.0864         estimate D2E/DX2                !
 ! R8    R(4,5)                  1.4011         estimate D2E/DX2                !
 ! R9    R(4,7)                  1.4734         estimate D2E/DX2                !
 ! R10   R(5,6)                  1.4129         estimate D2E/DX2                !
 ! R11   R(5,10)                 1.4803         estimate D2E/DX2                !
 ! R12   R(6,16)                 1.3752         estimate D2E/DX2                !
 ! R13   R(7,8)                  1.3431         estimate D2E/DX2                !
 ! R14   R(7,11)                 1.5156         estimate D2E/DX2                !
 ! R15   R(8,9)                  1.4076         estimate D2E/DX2                !
 ! R16   R(8,14)                 1.5038         estimate D2E/DX2                !
 ! R17   R(9,10)                 1.3605         estimate D2E/DX2                !
 ! R18   R(10,18)                1.2284         estimate D2E/DX2                !
 ! R19   R(11,12)                1.5492         estimate D2E/DX2                !
 ! R20   R(11,36)                1.098          estimate D2E/DX2                !
 ! R21   R(11,37)                1.0938         estimate D2E/DX2                !
 ! R22   R(12,13)                1.54           estimate D2E/DX2                !
 ! R23   R(12,19)                1.4435         estimate D2E/DX2                !
 ! R24   R(12,32)                1.5376         estimate D2E/DX2                !
 ! R25   R(13,14)                1.5303         estimate D2E/DX2                !
 ! R26   R(13,38)                1.0982         estimate D2E/DX2                !
 ! R27   R(13,39)                1.0977         estimate D2E/DX2                !
 ! R28   R(14,40)                1.097          estimate D2E/DX2                !
 ! R29   R(14,41)                1.0966         estimate D2E/DX2                !
 ! R30   R(15,42)                1.0951         estimate D2E/DX2                !
 ! R31   R(15,43)                1.0936         estimate D2E/DX2                !
 ! R32   R(15,44)                1.0952         estimate D2E/DX2                !
 ! R33   R(16,45)                0.9836         estimate D2E/DX2                !
 ! R34   R(17,46)                0.9705         estimate D2E/DX2                !
 ! R35   R(18,45)                1.702          estimate D2E/DX2                !
 ! R36   R(19,20)                1.4396         estimate D2E/DX2                !
 ! R37   R(20,21)                1.5423         estimate D2E/DX2                !
 ! R38   R(20,25)                1.5424         estimate D2E/DX2                !
 ! R39   R(20,47)                1.0967         estimate D2E/DX2                !
 ! R40   R(21,22)                1.5393         estimate D2E/DX2                !
 ! R41   R(21,26)                1.4383         estimate D2E/DX2                !
 ! R42   R(21,48)                1.0974         estimate D2E/DX2                !
 ! R43   R(22,23)                1.4917         estimate D2E/DX2                !
 ! R44   R(22,27)                1.4265         estimate D2E/DX2                !
 ! R45   R(22,49)                1.0967         estimate D2E/DX2                !
 ! R46   R(23,24)                1.3448         estimate D2E/DX2                !
 ! R47   R(23,50)                1.0874         estimate D2E/DX2                !
 ! R48   R(24,25)                1.5052         estimate D2E/DX2                !
 ! R49   R(24,28)                1.4917         estimate D2E/DX2                !
 ! R50   R(25,51)                1.0945         estimate D2E/DX2                !
 ! R51   R(25,52)                1.0984         estimate D2E/DX2                !
 ! R52   R(26,53)                0.9808         estimate D2E/DX2                !
 ! R53   R(27,54)                0.9774         estimate D2E/DX2                !
 ! R54   R(28,29)                1.3552         estimate D2E/DX2                !
 ! R55   R(28,30)                1.2227         estimate D2E/DX2                !
 ! R56   R(29,31)                1.4276         estimate D2E/DX2                !
 ! R57   R(31,55)                1.0935         estimate D2E/DX2                !
 ! R58   R(31,56)                1.0946         estimate D2E/DX2                !
 ! R59   R(31,57)                1.0945         estimate D2E/DX2                !
 ! R60   R(32,33)                1.3467         estimate D2E/DX2                !
 ! R61   R(32,34)                1.2229         estimate D2E/DX2                !
 ! R62   R(33,58)                0.9819         estimate D2E/DX2                !
 ! R63   R(34,53)                1.8405         estimate D2E/DX2                !
 ! A1    A(2,1,6)              117.445          estimate D2E/DX2                !
 ! A2    A(2,1,15)             121.2721         estimate D2E/DX2                !
 ! A3    A(6,1,15)             121.2829         estimate D2E/DX2                !
 ! A4    A(1,2,3)              121.5851         estimate D2E/DX2                !
 ! A5    A(1,2,17)             123.0169         estimate D2E/DX2                !
 ! A6    A(3,2,17)             115.3979         estimate D2E/DX2                !
 ! A7    A(2,3,4)              121.1529         estimate D2E/DX2                !
 ! A8    A(2,3,35)             117.2203         estimate D2E/DX2                !
 ! A9    A(4,3,35)             121.6266         estimate D2E/DX2                !
 ! A10   A(3,4,5)              117.9836         estimate D2E/DX2                !
 ! A11   A(3,4,7)              122.2317         estimate D2E/DX2                !
 ! A12   A(5,4,7)              119.7845         estimate D2E/DX2                !
 ! A13   A(4,5,6)              120.5609         estimate D2E/DX2                !
 ! A14   A(4,5,10)             119.5997         estimate D2E/DX2                !
 ! A15   A(6,5,10)             119.8333         estimate D2E/DX2                !
 ! A16   A(1,6,5)              121.2654         estimate D2E/DX2                !
 ! A17   A(1,6,16)             116.8791         estimate D2E/DX2                !
 ! A18   A(5,6,16)             121.8547         estimate D2E/DX2                !
 ! A19   A(4,7,8)              117.8089         estimate D2E/DX2                !
 ! A20   A(4,7,11)             120.7714         estimate D2E/DX2                !
 ! A21   A(8,7,11)             121.4158         estimate D2E/DX2                !
 ! A22   A(7,8,9)              123.0225         estimate D2E/DX2                !
 ! A23   A(7,8,14)             123.7994         estimate D2E/DX2                !
 ! A24   A(9,8,14)             113.1781         estimate D2E/DX2                !
 ! A25   A(8,9,10)             122.1785         estimate D2E/DX2                !
 ! A26   A(5,10,9)             117.4938         estimate D2E/DX2                !
 ! A27   A(5,10,18)            120.465          estimate D2E/DX2                !
 ! A28   A(9,10,18)            122.0312         estimate D2E/DX2                !
 ! A29   A(7,11,12)            113.9951         estimate D2E/DX2                !
 ! A30   A(7,11,36)            106.9679         estimate D2E/DX2                !
 ! A31   A(7,11,37)            110.3391         estimate D2E/DX2                !
 ! A32   A(12,11,36)           110.3051         estimate D2E/DX2                !
 ! A33   A(12,11,37)           108.8429         estimate D2E/DX2                !
 ! A34   A(36,11,37)           106.0929         estimate D2E/DX2                !
 ! A35   A(11,12,13)           108.6609         estimate D2E/DX2                !
 ! A36   A(11,12,19)           114.4364         estimate D2E/DX2                !
 ! A37   A(11,12,32)           110.9544         estimate D2E/DX2                !
 ! A38   A(13,12,19)           105.0228         estimate D2E/DX2                !
 ! A39   A(13,12,32)           107.4644         estimate D2E/DX2                !
 ! A40   A(19,12,32)           109.9063         estimate D2E/DX2                !
 ! A41   A(12,13,14)           111.0966         estimate D2E/DX2                !
 ! A42   A(12,13,38)           110.4706         estimate D2E/DX2                !
 ! A43   A(12,13,39)           110.6033         estimate D2E/DX2                !
 ! A44   A(14,13,38)           109.339          estimate D2E/DX2                !
 ! A45   A(14,13,39)           108.5865         estimate D2E/DX2                !
 ! A46   A(38,13,39)           106.621          estimate D2E/DX2                !
 ! A47   A(8,14,13)            113.2068         estimate D2E/DX2                !
 ! A48   A(8,14,40)            108.5194         estimate D2E/DX2                !
 ! A49   A(8,14,41)            109.6671         estimate D2E/DX2                !
 ! A50   A(13,14,40)           109.8377         estimate D2E/DX2                !
 ! A51   A(13,14,41)           108.6297         estimate D2E/DX2                !
 ! A52   A(40,14,41)           106.7826         estimate D2E/DX2                !
 ! A53   A(1,15,42)            109.9546         estimate D2E/DX2                !
 ! A54   A(1,15,43)            113.2032         estimate D2E/DX2                !
 ! A55   A(1,15,44)            110.0143         estimate D2E/DX2                !
 ! A56   A(42,15,43)           107.2137         estimate D2E/DX2                !
 ! A57   A(42,15,44)           109.3012         estimate D2E/DX2                !
 ! A58   A(43,15,44)           107.0314         estimate D2E/DX2                !
 ! A59   A(6,16,45)            109.2788         estimate D2E/DX2                !
 ! A60   A(2,17,46)            109.6349         estimate D2E/DX2                !
 ! A61   A(12,19,20)           119.0739         estimate D2E/DX2                !
 ! A62   A(19,20,21)           107.6842         estimate D2E/DX2                !
 ! A63   A(19,20,25)           108.3243         estimate D2E/DX2                !
 ! A64   A(19,20,47)           110.6529         estimate D2E/DX2                !
 ! A65   A(21,20,25)           109.8739         estimate D2E/DX2                !
 ! A66   A(21,20,47)           108.8077         estimate D2E/DX2                !
 ! A67   A(25,20,47)           111.425          estimate D2E/DX2                !
 ! A68   A(20,21,22)           111.1134         estimate D2E/DX2                !
 ! A69   A(20,21,26)           112.1813         estimate D2E/DX2                !
 ! A70   A(20,21,48)           110.1247         estimate D2E/DX2                !
 ! A71   A(22,21,26)           106.8595         estimate D2E/DX2                !
 ! A72   A(22,21,48)           110.8605         estimate D2E/DX2                !
 ! A73   A(26,21,48)           105.5318         estimate D2E/DX2                !
 ! A74   A(21,22,23)           113.8964         estimate D2E/DX2                !
 ! A75   A(21,22,27)           109.0417         estimate D2E/DX2                !
 ! A76   A(21,22,49)           110.2769         estimate D2E/DX2                !
 ! A77   A(23,22,27)           108.0024         estimate D2E/DX2                !
 ! A78   A(23,22,49)           108.8451         estimate D2E/DX2                !
 ! A79   A(27,22,49)           106.4932         estimate D2E/DX2                !
 ! A80   A(22,23,24)           122.8775         estimate D2E/DX2                !
 ! A81   A(22,23,50)           115.7522         estimate D2E/DX2                !
 ! A82   A(24,23,50)           121.3702         estimate D2E/DX2                !
 ! A83   A(23,24,25)           122.235          estimate D2E/DX2                !
 ! A84   A(23,24,28)           122.791          estimate D2E/DX2                !
 ! A85   A(25,24,28)           114.9727         estimate D2E/DX2                !
 ! A86   A(20,25,24)           115.4391         estimate D2E/DX2                !
 ! A87   A(20,25,51)           108.2461         estimate D2E/DX2                !
 ! A88   A(20,25,52)           109.3918         estimate D2E/DX2                !
 ! A89   A(24,25,51)           108.8321         estimate D2E/DX2                !
 ! A90   A(24,25,52)           108.6059         estimate D2E/DX2                !
 ! A91   A(51,25,52)           105.9058         estimate D2E/DX2                !
 ! A92   A(21,26,53)           107.9407         estimate D2E/DX2                !
 ! A93   A(22,27,54)           104.8428         estimate D2E/DX2                !
 ! A94   A(24,28,29)           111.7414         estimate D2E/DX2                !
 ! A95   A(24,28,30)           122.6512         estimate D2E/DX2                !
 ! A96   A(29,28,30)           125.606          estimate D2E/DX2                !
 ! A97   A(28,29,31)           114.0378         estimate D2E/DX2                !
 ! A98   A(29,31,55)           108.0486         estimate D2E/DX2                !
 ! A99   A(29,31,56)           110.5445         estimate D2E/DX2                !
 ! A100  A(29,31,57)           110.4985         estimate D2E/DX2                !
 ! A101  A(55,31,56)           108.4344         estimate D2E/DX2                !
 ! A102  A(55,31,57)           108.4424         estimate D2E/DX2                !
 ! A103  A(56,31,57)           110.7814         estimate D2E/DX2                !
 ! A104  A(12,32,33)           114.5417         estimate D2E/DX2                !
 ! A105  A(12,32,34)           125.6482         estimate D2E/DX2                !
 ! A106  A(33,32,34)           119.7982         estimate D2E/DX2                !
 ! A107  A(32,33,58)           104.6817         estimate D2E/DX2                !
 ! D1    D(6,1,2,3)              0.0889         estimate D2E/DX2                !
 ! D2    D(6,1,2,17)          -179.7905         estimate D2E/DX2                !
 ! D3    D(15,1,2,3)          -179.9461         estimate D2E/DX2                !
 ! D4    D(15,1,2,17)            0.1745         estimate D2E/DX2                !
 ! D5    D(2,1,6,5)             -0.2428         estimate D2E/DX2                !
 ! D6    D(2,1,6,16)           179.443          estimate D2E/DX2                !
 ! D7    D(15,1,6,5)           179.7922         estimate D2E/DX2                !
 ! D8    D(15,1,6,16)           -0.522          estimate D2E/DX2                !
 ! D9    D(2,1,15,42)           61.7056         estimate D2E/DX2                !
 ! D10   D(2,1,15,43)         -178.4147         estimate D2E/DX2                !
 ! D11   D(2,1,15,44)          -58.7253         estimate D2E/DX2                !
 ! D12   D(6,1,15,42)         -118.3308         estimate D2E/DX2                !
 ! D13   D(6,1,15,43)            1.549          estimate D2E/DX2                !
 ! D14   D(6,1,15,44)          121.2383         estimate D2E/DX2                !
 ! D15   D(1,2,3,4)              0.5509         estimate D2E/DX2                !
 ! D16   D(1,2,3,35)          -179.2541         estimate D2E/DX2                !
 ! D17   D(17,2,3,4)          -179.561          estimate D2E/DX2                !
 ! D18   D(17,2,3,35)            0.634          estimate D2E/DX2                !
 ! D19   D(1,2,17,46)           -3.1393         estimate D2E/DX2                !
 ! D20   D(3,2,17,46)          176.9744         estimate D2E/DX2                !
 ! D21   D(2,3,4,5)             -1.0088         estimate D2E/DX2                !
 ! D22   D(2,3,4,7)            179.1635         estimate D2E/DX2                !
 ! D23   D(35,3,4,5)           178.7875         estimate D2E/DX2                !
 ! D24   D(35,3,4,7)            -1.0402         estimate D2E/DX2                !
 ! D25   D(3,4,5,6)              0.85           estimate D2E/DX2                !
 ! D26   D(3,4,5,10)          -178.2484         estimate D2E/DX2                !
 ! D27   D(7,4,5,6)           -179.3179         estimate D2E/DX2                !
 ! D28   D(7,4,5,10)             1.5836         estimate D2E/DX2                !
 ! D29   D(3,4,7,8)            176.6234         estimate D2E/DX2                !
 ! D30   D(3,4,7,11)            -4.0874         estimate D2E/DX2                !
 ! D31   D(5,4,7,8)             -3.2013         estimate D2E/DX2                !
 ! D32   D(5,4,7,11)           176.0879         estimate D2E/DX2                !
 ! D33   D(4,5,6,1)             -0.2355         estimate D2E/DX2                !
 ! D34   D(4,5,6,16)          -179.9055         estimate D2E/DX2                !
 ! D35   D(10,5,6,1)           178.8609         estimate D2E/DX2                !
 ! D36   D(10,5,6,16)           -0.8091         estimate D2E/DX2                !
 ! D37   D(4,5,10,9)             1.4803         estimate D2E/DX2                !
 ! D38   D(4,5,10,18)         -179.6479         estimate D2E/DX2                !
 ! D39   D(6,5,10,9)          -177.6247         estimate D2E/DX2                !
 ! D40   D(6,5,10,18)            1.247          estimate D2E/DX2                !
 ! D41   D(1,6,16,45)          178.8634         estimate D2E/DX2                !
 ! D42   D(5,6,16,45)           -1.4528         estimate D2E/DX2                !
 ! D43   D(4,7,8,9)              1.7832         estimate D2E/DX2                !
 ! D44   D(4,7,8,14)          -178.1513         estimate D2E/DX2                !
 ! D45   D(11,7,8,9)          -177.5011         estimate D2E/DX2                !
 ! D46   D(11,7,8,14)            2.5644         estimate D2E/DX2                !
 ! D47   D(4,7,11,12)         -163.9406         estimate D2E/DX2                !
 ! D48   D(4,7,11,36)           73.8544         estimate D2E/DX2                !
 ! D49   D(4,7,11,37)          -41.1182         estimate D2E/DX2                !
 ! D50   D(8,7,11,12)           15.3226         estimate D2E/DX2                !
 ! D51   D(8,7,11,36)         -106.8824         estimate D2E/DX2                !
 ! D52   D(8,7,11,37)          138.145          estimate D2E/DX2                !
 ! D53   D(7,8,9,10)             1.4122         estimate D2E/DX2                !
 ! D54   D(14,8,9,10)         -178.647          estimate D2E/DX2                !
 ! D55   D(7,8,14,13)           12.1421         estimate D2E/DX2                !
 ! D56   D(7,8,14,40)         -110.0671         estimate D2E/DX2                !
 ! D57   D(7,8,14,41)          133.6314         estimate D2E/DX2                !
 ! D58   D(9,8,14,13)         -167.7981         estimate D2E/DX2                !
 ! D59   D(9,8,14,40)           69.9926         estimate D2E/DX2                !
 ! D60   D(9,8,14,41)          -46.3088         estimate D2E/DX2                !
 ! D61   D(8,9,10,5)            -3.0265         estimate D2E/DX2                !
 ! D62   D(8,9,10,18)          178.1207         estimate D2E/DX2                !
 ! D63   D(7,11,12,13)         -45.8798         estimate D2E/DX2                !
 ! D64   D(7,11,12,19)          71.1183         estimate D2E/DX2                !
 ! D65   D(7,11,12,32)        -163.8187         estimate D2E/DX2                !
 ! D66   D(36,11,12,13)         74.4721         estimate D2E/DX2                !
 ! D67   D(36,11,12,19)       -168.5297         estimate D2E/DX2                !
 ! D68   D(36,11,12,32)        -43.4668         estimate D2E/DX2                !
 ! D69   D(37,11,12,13)       -169.5152         estimate D2E/DX2                !
 ! D70   D(37,11,12,19)        -52.517          estimate D2E/DX2                !
 ! D71   D(37,11,12,32)         72.546          estimate D2E/DX2                !
 ! D72   D(11,12,13,14)         60.5785         estimate D2E/DX2                !
 ! D73   D(11,12,13,38)        -60.9479         estimate D2E/DX2                !
 ! D74   D(11,12,13,39)       -178.7566         estimate D2E/DX2                !
 ! D75   D(19,12,13,14)        -62.2909         estimate D2E/DX2                !
 ! D76   D(19,12,13,38)        176.1827         estimate D2E/DX2                !
 ! D77   D(19,12,13,39)         58.374          estimate D2E/DX2                !
 ! D78   D(32,12,13,14)       -179.2916         estimate D2E/DX2                !
 ! D79   D(32,12,13,38)         59.182          estimate D2E/DX2                !
 ! D80   D(32,12,13,39)        -58.6268         estimate D2E/DX2                !
 ! D81   D(11,12,19,20)         52.6833         estimate D2E/DX2                !
 ! D82   D(13,12,19,20)        171.7503         estimate D2E/DX2                !
 ! D83   D(32,12,19,20)        -72.9303         estimate D2E/DX2                !
 ! D84   D(11,12,32,33)         50.6228         estimate D2E/DX2                !
 ! D85   D(11,12,32,34)       -130.6403         estimate D2E/DX2                !
 ! D86   D(13,12,32,33)        -68.0408         estimate D2E/DX2                !
 ! D87   D(13,12,32,34)        110.6961         estimate D2E/DX2                !
 ! D88   D(19,12,32,33)        178.198          estimate D2E/DX2                !
 ! D89   D(19,12,32,34)         -3.0651         estimate D2E/DX2                !
 ! D90   D(12,13,14,8)         -44.0147         estimate D2E/DX2                !
 ! D91   D(12,13,14,40)         77.4562         estimate D2E/DX2                !
 ! D92   D(12,13,14,41)       -166.0854         estimate D2E/DX2                !
 ! D93   D(38,13,14,8)          78.1711         estimate D2E/DX2                !
 ! D94   D(38,13,14,40)       -160.358          estimate D2E/DX2                !
 ! D95   D(38,13,14,41)        -43.8996         estimate D2E/DX2                !
 ! D96   D(39,13,14,8)        -165.8625         estimate D2E/DX2                !
 ! D97   D(39,13,14,40)        -44.3916         estimate D2E/DX2                !
 ! D98   D(39,13,14,41)         72.0668         estimate D2E/DX2                !
 ! D99   D(12,19,20,21)        138.0539         estimate D2E/DX2                !
 ! D100  D(12,19,20,25)       -103.1648         estimate D2E/DX2                !
 ! D101  D(12,19,20,47)         19.2508         estimate D2E/DX2                !
 ! D102  D(19,20,21,22)        174.4541         estimate D2E/DX2                !
 ! D103  D(19,20,21,26)        -65.9963         estimate D2E/DX2                !
 ! D104  D(19,20,21,48)         51.2218         estimate D2E/DX2                !
 ! D105  D(25,20,21,22)         56.6701         estimate D2E/DX2                !
 ! D106  D(25,20,21,26)        176.2197         estimate D2E/DX2                !
 ! D107  D(25,20,21,48)        -66.5622         estimate D2E/DX2                !
 ! D108  D(47,20,21,22)        -65.5678         estimate D2E/DX2                !
 ! D109  D(47,20,21,26)         53.9818         estimate D2E/DX2                !
 ! D110  D(47,20,21,48)        171.1999         estimate D2E/DX2                !
 ! D111  D(19,20,25,24)       -157.519          estimate D2E/DX2                !
 ! D112  D(19,20,25,51)         80.2594         estimate D2E/DX2                !
 ! D113  D(19,20,25,52)        -34.6993         estimate D2E/DX2                !
 ! D114  D(21,20,25,24)        -40.1332         estimate D2E/DX2                !
 ! D115  D(21,20,25,51)       -162.3548         estimate D2E/DX2                !
 ! D116  D(21,20,25,52)         82.6865         estimate D2E/DX2                !
 ! D117  D(47,20,25,24)         80.5374         estimate D2E/DX2                !
 ! D118  D(47,20,25,51)        -41.6843         estimate D2E/DX2                !
 ! D119  D(47,20,25,52)       -156.6429         estimate D2E/DX2                !
 ! D120  D(20,21,22,23)        -45.2722         estimate D2E/DX2                !
 ! D121  D(20,21,22,27)       -165.9708         estimate D2E/DX2                !
 ! D122  D(20,21,22,49)         77.4336         estimate D2E/DX2                !
 ! D123  D(26,21,22,23)       -167.9492         estimate D2E/DX2                !
 ! D124  D(26,21,22,27)         71.3522         estimate D2E/DX2                !
 ! D125  D(26,21,22,49)        -45.2434         estimate D2E/DX2                !
 ! D126  D(48,21,22,23)         77.5369         estimate D2E/DX2                !
 ! D127  D(48,21,22,27)        -43.1616         estimate D2E/DX2                !
 ! D128  D(48,21,22,49)       -159.7572         estimate D2E/DX2                !
 ! D129  D(20,21,26,53)         27.2345         estimate D2E/DX2                !
 ! D130  D(22,21,26,53)        149.2422         estimate D2E/DX2                !
 ! D131  D(48,21,26,53)        -92.6966         estimate D2E/DX2                !
 ! D132  D(21,22,23,24)         16.181          estimate D2E/DX2                !
 ! D133  D(21,22,23,50)       -163.712          estimate D2E/DX2                !
 ! D134  D(27,22,23,24)        137.4593         estimate D2E/DX2                !
 ! D135  D(27,22,23,50)        -42.4337         estimate D2E/DX2                !
 ! D136  D(49,22,23,24)       -107.3055         estimate D2E/DX2                !
 ! D137  D(49,22,23,50)         72.8016         estimate D2E/DX2                !
 ! D138  D(21,22,27,54)        -48.1347         estimate D2E/DX2                !
 ! D139  D(23,22,27,54)       -172.381          estimate D2E/DX2                !
 ! D140  D(49,22,27,54)         70.8478         estimate D2E/DX2                !
 ! D141  D(22,23,24,25)          1.1977         estimate D2E/DX2                !
 ! D142  D(22,23,24,28)       -179.2346         estimate D2E/DX2                !
 ! D143  D(50,23,24,25)       -178.9152         estimate D2E/DX2                !
 ! D144  D(50,23,24,28)          0.6525         estimate D2E/DX2                !
 ! D145  D(23,24,25,20)         11.6039         estimate D2E/DX2                !
 ! D146  D(23,24,25,51)        133.5119         estimate D2E/DX2                !
 ! D147  D(23,24,25,52)       -111.632          estimate D2E/DX2                !
 ! D148  D(28,24,25,20)       -167.9952         estimate D2E/DX2                !
 ! D149  D(28,24,25,51)        -46.0872         estimate D2E/DX2                !
 ! D150  D(28,24,25,52)         68.7689         estimate D2E/DX2                !
 ! D151  D(23,24,28,29)         -0.6942         estimate D2E/DX2                !
 ! D152  D(23,24,28,30)        179.729          estimate D2E/DX2                !
 ! D153  D(25,24,28,29)        178.9025         estimate D2E/DX2                !
 ! D154  D(25,24,28,30)         -0.6744         estimate D2E/DX2                !
 ! D155  D(24,28,29,31)        179.5443         estimate D2E/DX2                !
 ! D156  D(30,28,29,31)         -0.894          estimate D2E/DX2                !
 ! D157  D(28,29,31,55)       -179.5118         estimate D2E/DX2                !
 ! D158  D(28,29,31,56)        -61.0029         estimate D2E/DX2                !
 ! D159  D(28,29,31,57)         61.9961         estimate D2E/DX2                !
 ! D160  D(12,32,33,58)        177.9335         estimate D2E/DX2                !
 ! D161  D(34,32,33,58)         -0.8837         estimate D2E/DX2                !
 --------------------------------------------------------------------------------
 Trust Radius=3.00D-01 FncErr=1.00D-07 GrdErr=1.00D-06
 Number of steps in this run=    341 maximum allowed number of steps=    348.
 GradGradGradGradGradGradGradGradGradGradGradGradGradGradGradGradGradGrad

 Stoichiometry    C23H24O11
 Framework group  C1[X(C23H24O11)]
 Deg. of freedom   168
 Full point group                 C1      NOp   1
 Largest Abelian subgroup         C1      NOp   1
 Largest concise Abelian subgroup C1      NOp   1
                         Standard orientation:                         
 ---------------------------------------------------------------------
 Center     Atomic      Atomic             Coordinates (Angstroms)
 Number     Number       Type             X           Y           Z
 ---------------------------------------------------------------------
      1          6           0       -4.441960    0.564829    1.139301
      2          6           0       -3.435463    0.229862    2.049610
      3          6           0       -2.308578   -0.497598    1.659438
      4          6           0       -2.137117   -0.911871    0.331968
      5          6           0       -3.141732   -0.593143   -0.591150
      6          6           0       -4.280524    0.140170   -0.188984
      7          6           0       -0.949662   -1.664311   -0.109280
      8          6           0       -0.908428   -2.077102   -1.386752
      9          8           0       -1.924257   -1.791552   -2.318330
     10          6           0       -3.015866   -1.046902   -1.994513
     11          6           0        0.190745   -1.944754    0.848750
     12          6           0        1.503483   -2.385025    0.153866
     13          6           0        1.166429   -3.448914   -0.907376
     14          6           0        0.217095   -2.887363   -1.968134
     15          6           0       -5.651573    1.349271    1.566744
     16          8           0       -5.283183    0.465838   -1.072074
     17          8           0       -3.478321    0.581327    3.370636
     18          8           0       -3.884072   -0.770921   -2.818565
     19          8           0        2.177091   -1.333975   -0.570792
     20          6           0        2.471154   -0.096605    0.103748
     21          6           0        3.894605    0.333359   -0.305617
     22          6           0        4.239945    1.721175    0.263805
     23          6           0        3.153444    2.729701    0.098195
     24          6           0        1.884956    2.394427   -0.196787
     25          6           0        1.449980    0.962602   -0.359133
     26          8           0        4.897202   -0.577350    0.178264
     27          8           0        5.405361    2.216801   -0.392794
     28          6           0        0.803402    3.405654   -0.378324
     29          8           0        1.260606    4.668130   -0.194784
     30          8           0       -0.348130    3.098195   -0.651266
     31          6           0        0.266002    5.677657   -0.367350
     32          6           0        2.470064   -3.028614    1.161719
     33          8           0        1.924301   -3.999941    1.918271
     34          8           0        3.651557   -2.743993    1.297675
     35          1           0       -1.576295   -0.729551    2.427722
     36          1           0       -0.155282   -2.725323    1.539069
     37          1           0        0.395163   -1.064215    1.464621
     38          1           0        0.706832   -4.328462   -0.437018
     39          1           0        2.079302   -3.800304   -1.405614
     40          1           0        0.775075   -2.255349   -2.669967
     41          1           0       -0.191411   -3.722315   -2.549909
     42          1           0       -5.347050    2.334559    1.935053
     43          1           0       -6.367029    1.513708    0.756136
     44          1           0       -6.183691    0.814628    2.360698
     45          1           0       -5.048590    0.132266   -1.967196
     46          1           0       -4.267062    1.121118    3.539052
     47          1           0        2.442012   -0.232660    1.191595
     48          1           0        3.992164    0.324108   -1.398657
     49          1           0        4.491740    1.643291    1.328405
     50          1           0        3.448602    3.768029    0.229477
     51          1           0        0.521055    0.810073    0.199256
     52          1           0        1.198630    0.790185   -1.414439
     53          1           0        4.482424   -1.461080    0.272407
     54          1           0        6.042602    1.476216   -0.364734
     55          1           0        0.739104    6.650339   -0.206684
     56          1           0       -0.135000    5.651757   -1.385486
     57          1           0       -0.534963    5.556388    0.368703
     58          1           0        2.664016   -4.326900    2.475117
 ---------------------------------------------------------------------
 Rotational constants (GHZ):      0.1444371      0.0925654      0.0701494
 Standard basis: 6-31G(d) (6D, 7F)
 There are   558 symmetry adapted basis functions of A   symmetry.
 Integral buffers will be    131072 words long.
 Raffenetti 2 integral format.
 Two-electron integral symmetry is turned on.
   558 basis functions,  1048 primitive gaussians,   558 cartesian basis functions
   125 alpha electrons      125 beta electrons
       nuclear repulsion energy      3792.9125545451 Hartrees.
 NAtoms=   58 NActive=   58 NUniq=   58 SFac= 1.00D+00 NAtFMM=   50 NAOKFM=T Big=T
 One-electron integrals computed using PRISM.
 NBasis=   558 RedAO= T  NBF=   558
 NBsUse=   558 1.00D-06 NBFU=   558
 Harris functional with IExCor=  402 diagonalized for initial guess.
 ExpMin= 1.61D-01 ExpMax= 5.48D+03 ExpMxC= 8.25D+02 IAcc=1 IRadAn=         1 AccDes= 0.00D+00
 HarFok:  IExCor=  402 AccDes= 0.00D+00 IRadAn=         1 IDoV= 1
 ScaDFX=  1.000000  1.000000  1.000000  1.000000
 FoFCou: FMM=F IPFlag=           0 FMFlag=      100000 FMFlg1=        2001
         NFxFlg=           0 DoJE=T BraDBF=F KetDBF=T FulRan=T
         Omega=  0.000000  0.000000  1.000000  0.000000  0.000000 ICntrl=     500 IOpCl=  0
         NMat0=    1 NMatS0=    1 NMatT0=    0 NMatD0=    1 NMtDS0=    0 NMtDT0=    0
         I1Cent=           4 NGrid=           0.
 Petite list used in FoFCou.
 Initial guess orbital symmetries:
       Occupied  (A) (A) (A) (A) (A) (A) (A) (A) (A) (A) (A) (A)
                 (A) (A) (A) (A) (A) (A) (A) (A) (A) (A) (A) (A)
                 (A) (A) (A) (A) (A) (A) (A) (A) (A) (A) (A) (A)
                 (A) (A) (A) (A) (A) (A) (A) (A) (A) (A) (A) (A)
                 (A) (A) (A) (A) (A) (A) (A) (A) (A) (A) (A) (A)
                 (A) (A) (A) (A) (A) (A) (A) (A) (A) (A) (A) (A)
                 (A) (A) (A) (A) (A) (A) (A) (A) (A) (A) (A) (A)
                 (A) (A) (A) (A) (A) (A) (A) (A) (A) (A) (A) (A)
                 (A) (A) (A) (A) (A) (A) (A) (A) (A) (A) (A) (A)
                 (A) (A) (A) (A) (A) (A) (A) (A) (A) (A) (A) (A)
                 (A) (A) (A) (A) (A)
       Virtual   (A) (A) (A) (A) (A) (A) (A) (A) (A) (A) (A) (A)
                 (A) (A) (A) (A) (A) (A) (A) (A) (A) (A) (A) (A)
                 (A) (A) (A) (A) (A) (A) (A) (A) (A) (A) (A) (A)
                 (A) (A) (A) (A) (A) (A) (A) (A) (A) (A) (A) (A)
                 (A) (A) (A) (A) (A) (A) (A) (A) (A) (A) (A) (A)
                 (A) (A) (A) (A) (A) (A) (A) (A) (A) (A) (A) (A)
                 (A) (A) (A) (A) (A) (A) (A) (A) (A) (A) (A) (A)
                 (A) (A) (A) (A) (A) (A) (A) (A) (A) (A) (A) (A)
                 (A) (A) (A) (A) (A) (A) (A) (A) (A) (A) (A) (A)
                 (A) (A) (A) (A) (A) (A) (A) (A) (A) (A) (A) (A)
                 (A) (A) (A) (A) (A) (A) (A) (A) (A) (A) (A) (A)
                 (A) (A) (A) (A) (A) (A) (A) (A) (A) (A) (A) (A)
                 (A) (A) (A) (A) (A) (A) (A) (A) (A) (A) (A) (A)
                 (A) (A) (A) (A) (A) (A) (A) (A) (A) (A) (A) (A)
                 (A) (A) (A) (A) (A) (A) (A) (A) (A) (A) (A) (A)
                 (A) (A) (A) (A) (A) (A) (A) (A) (A) (A) (A) (A)
                 (A) (A) (A) (A) (A) (A) (A) (A) (A) (A) (A) (A)
                 (A) (A) (A) (A) (A) (A) (A) (A) (A) (A) (A) (A)
                 (A) (A) (A) (A) (A) (A) (A) (A) (A) (A) (A) (A)
                 (A) (A) (A) (A) (A) (A) (A) (A) (A) (A) (A) (A)
                 (A) (A) (A) (A) (A) (A) (A) (A) (A) (A) (A) (A)
                 (A) (A) (A) (A) (A) (A) (A) (A) (A) (A) (A) (A)
                 (A) (A) (A) (A) (A) (A) (A) (A) (A) (A) (A) (A)
                 (A) (A) (A) (A) (A) (A) (A) (A) (A) (A) (A) (A)
                 (A) (A) (A) (A) (A) (A) (A) (A) (A) (A) (A) (A)
                 (A) (A) (A) (A) (A) (A) (A) (A) (A) (A) (A) (A)
                 (A) (A) (A) (A) (A) (A) (A) (A) (A) (A) (A) (A)
                 (A) (A) (A) (A) (A) (A) (A) (A) (A) (A) (A) (A)
                 (A) (A) (A) (A) (A) (A) (A) (A) (A) (A) (A) (A)
                 (A) (A) (A) (A) (A) (A) (A) (A) (A) (A) (A) (A)
                 (A) (A) (A) (A) (A) (A) (A) (A) (A) (A) (A) (A)
                 (A) (A) (A) (A) (A) (A) (A) (A) (A) (A) (A) (A)
                 (A) (A) (A) (A) (A) (A) (A) (A) (A) (A) (A) (A)
                 (A) (A) (A) (A) (A) (A) (A) (A) (A) (A) (A) (A)
                 (A) (A) (A) (A) (A) (A) (A) (A) (A) (A) (A) (A)
                 (A) (A) (A) (A) (A) (A) (A) (A) (A) (A) (A) (A)
                 (A)
 The electronic state of the initial guess is 1-A.
 Requested convergence on RMS density matrix=1.00D-08 within 128 cycles.
 Requested convergence on MAX density matrix=1.00D-06.
 Requested convergence on             energy=1.00D-06.
 No special actions if energy rises.
 Integral accuracy reduced to 1.0D-05 until final iterations.
 Initial convergence to 1.0D-05 achieved.  Increase integral accuracy.
 SCF Done:  E(RB3LYP) =  -1718.36096541     A.U. after   15 cycles
             Convg  =    0.4247D-08             -V/T =  2.0091

 **********************************************************************

            Population analysis using the SCF density.

 **********************************************************************

 Orbital symmetries:
       Occupied  (A) (A) (A) (A) (A) (A) (A) (A) (A) (A) (A) (A)
                 (A) (A) (A) (A) (A) (A) (A) (A) (A) (A) (A) (A)
                 (A) (A) (A) (A) (A) (A) (A) (A) (A) (A) (A) (A)
                 (A) (A) (A) (A) (A) (A) (A) (A) (A) (A) (A) (A)
                 (A) (A) (A) (A) (A) (A) (A) (A) (A) (A) (A) (A)
                 (A) (A) (A) (A) (A) (A) (A) (A) (A) (A) (A) (A)
                 (A) (A) (A) (A) (A) (A) (A) (A) (A) (A) (A) (A)
                 (A) (A) (A) (A) (A) (A) (A) (A) (A) (A) (A) (A)
                 (A) (A) (A) (A) (A) (A) (A) (A) (A) (A) (A) (A)
                 (A) (A) (A) (A) (A) (A) (A) (A) (A) (A) (A) (A)
                 (A) (A) (A) (A) (A)
       Virtual   (A) (A) (A) (A) (A) (A) (A) (A) (A) (A) (A) (A)
                 (A) (A) (A) (A) (A) (A) (A) (A) (A) (A) (A) (A)
                 (A) (A) (A) (A) (A) (A) (A) (A) (A) (A) (A) (A)
                 (A) (A) (A) (A) (A) (A) (A) (A) (A) (A) (A) (A)
                 (A) (A) (A) (A) (A) (A) (A) (A) (A) (A) (A) (A)
                 (A) (A) (A) (A) (A) (A) (A) (A) (A) (A) (A) (A)
                 (A) (A) (A) (A) (A) (A) (A) (A) (A) (A) (A) (A)
                 (A) (A) (A) (A) (A) (A) (A) (A) (A) (A) (A) (A)
                 (A) (A) (A) (A) (A) (A) (A) (A) (A) (A) (A) (A)
                 (A) (A) (A) (A) (A) (A) (A) (A) (A) (A) (A) (A)
                 (A) (A) (A) (A) (A) (A) (A) (A) (A) (A) (A) (A)
                 (A) (A) (A) (A) (A) (A) (A) (A) (A) (A) (A) (A)
                 (A) (A) (A) (A) (A) (A) (A) (A) (A) (A) (A) (A)
                 (A) (A) (A) (A) (A) (A) (A) (A) (A) (A) (A) (A)
                 (A) (A) (A) (A) (A) (A) (A) (A) (A) (A) (A) (A)
                 (A) (A) (A) (A) (A) (A) (A) (A) (A) (A) (A) (A)
                 (A) (A) (A) (A) (A) (A) (A) (A) (A) (A) (A) (A)
                 (A) (A) (A) (A) (A) (A) (A) (A) (A) (A) (A) (A)
                 (A) (A) (A) (A) (A) (A) (A) (A) (A) (A) (A) (A)
                 (A) (A) (A) (A) (A) (A) (A) (A) (A) (A) (A) (A)
                 (A) (A) (A) (A) (A) (A) (A) (A) (A) (A) (A) (A)
                 (A) (A) (A) (A) (A) (A) (A) (A) (A) (A) (A) (A)
                 (A) (A) (A) (A) (A) (A) (A) (A) (A) (A) (A) (A)
                 (A) (A) (A) (A) (A) (A) (A) (A) (A) (A) (A) (A)
                 (A) (A) (A) (A) (A) (A) (A) (A) (A) (A) (A) (A)
                 (A) (A) (A) (A) (A) (A) (A) (A) (A) (A) (A) (A)
                 (A) (A) (A) (A) (A) (A) (A) (A) (A) (A) (A) (A)
                 (A) (A) (A) (A) (A) (A) (A) (A) (A) (A) (A) (A)
                 (A) (A) (A) (A) (A) (A) (A) (A) (A) (A) (A) (A)
                 (A) (A) (A) (A) (A) (A) (A) (A) (A) (A) (A) (A)
                 (A) (A) (A) (A) (A) (A) (A) (A) (A) (A) (A) (A)
                 (A) (A) (A) (A) (A) (A) (A) (A) (A) (A) (A) (A)
                 (A) (A) (A) (A) (A) (A) (A) (A) (A) (A) (A) (A)
                 (A) (A) (A) (A) (A) (A) (A) (A) (A) (A) (A) (A)
                 (A) (A) (A) (A) (A) (A) (A) (A) (A) (A) (A) (A)
                 (A) (A) (A) (A) (A) (A) (A) (A) (A) (A) (A) (A)
                 (A)
 The electronic state is 1-A.
 Alpha  occ. eigenvalues --  -19.23247 -19.22343 -19.19414 -19.19306 -19.17708
 Alpha  occ. eigenvalues --  -19.17703 -19.16267 -19.14163 -19.13591 -19.13522
 Alpha  occ. eigenvalues --  -19.12267 -10.35446 -10.32978 -10.31489 -10.29329
 Alpha  occ. eigenvalues --  -10.27330 -10.26476 -10.26412 -10.25265 -10.23988
 Alpha  occ. eigenvalues --  -10.23668 -10.23169 -10.22422 -10.22102 -10.21956
 Alpha  occ. eigenvalues --  -10.21780 -10.21436 -10.20686 -10.20336 -10.20112
 Alpha  occ. eigenvalues --  -10.20062 -10.19431 -10.19211 -10.18975  -1.14395
 Alpha  occ. eigenvalues --   -1.11861  -1.09996  -1.07262  -1.05963  -1.05048
 Alpha  occ. eigenvalues --   -1.04099  -1.02366  -1.01726  -1.01242  -0.98852
 Alpha  occ. eigenvalues --   -0.87910  -0.86091  -0.83805  -0.80953  -0.79177
 Alpha  occ. eigenvalues --   -0.77296  -0.75697  -0.75489  -0.73783  -0.71455
 Alpha  occ. eigenvalues --   -0.70699  -0.69601  -0.66345  -0.65279  -0.64216
 Alpha  occ. eigenvalues --   -0.63150  -0.62407  -0.61159  -0.59314  -0.57962
 Alpha  occ. eigenvalues --   -0.56964  -0.54883  -0.54241  -0.54061  -0.53232
 Alpha  occ. eigenvalues --   -0.52930  -0.51250  -0.50588  -0.50395  -0.49455
 Alpha  occ. eigenvalues --   -0.48938  -0.48320  -0.48134  -0.47667  -0.46932
 Alpha  occ. eigenvalues --   -0.46725  -0.46230  -0.45966  -0.45509  -0.44907
 Alpha  occ. eigenvalues --   -0.44561  -0.44098  -0.43273  -0.42777  -0.42597
 Alpha  occ. eigenvalues --   -0.42108  -0.41889  -0.41708  -0.40867  -0.40359
 Alpha  occ. eigenvalues --   -0.40146  -0.39894  -0.39415  -0.39254  -0.38803
 Alpha  occ. eigenvalues --   -0.38459  -0.37798  -0.37426  -0.37203  -0.37153
 Alpha  occ. eigenvalues --   -0.35791  -0.35507  -0.35353  -0.34857  -0.34543
 Alpha  occ. eigenvalues --   -0.33769  -0.33276  -0.33166  -0.32564  -0.30250
 Alpha  occ. eigenvalues --   -0.30109  -0.28698  -0.27832  -0.27311  -0.27018
 Alpha  occ. eigenvalues --   -0.26533  -0.25306  -0.24999  -0.23189  -0.21748
 Alpha virt. eigenvalues --   -0.04155  -0.03925  -0.03158  -0.02599   0.03661
 Alpha virt. eigenvalues --    0.04656   0.05703   0.06123   0.06966   0.07394
 Alpha virt. eigenvalues --    0.08113   0.09787   0.10413   0.10872   0.11267
 Alpha virt. eigenvalues --    0.11906   0.12323   0.12774   0.13029   0.13396
 Alpha virt. eigenvalues --    0.13971   0.14338   0.14622   0.15242   0.15514
 Alpha virt. eigenvalues --    0.15944   0.16167   0.16857   0.17139   0.17335
 Alpha virt. eigenvalues --    0.17380   0.17888   0.18018   0.18373   0.19101
 Alpha virt. eigenvalues --    0.20097   0.20348   0.20704   0.20972   0.21463
 Alpha virt. eigenvalues --    0.22469   0.23129   0.23685   0.24431   0.24564
 Alpha virt. eigenvalues --    0.25261   0.25544   0.26323   0.27034   0.27534
 Alpha virt. eigenvalues --    0.28237   0.29082   0.30076   0.31236   0.32302
 Alpha virt. eigenvalues --    0.33257   0.33770   0.34339   0.36174   0.37590
 Alpha virt. eigenvalues --    0.39066   0.40037   0.40883   0.41200   0.43199
 Alpha virt. eigenvalues --    0.43884   0.45308   0.47046   0.48559   0.49585
 Alpha virt. eigenvalues --    0.50355   0.50511   0.51088   0.51428   0.51800
 Alpha virt. eigenvalues --    0.52243   0.52936   0.53543   0.54486   0.55049
 Alpha virt. eigenvalues --    0.55457   0.55625   0.56227   0.56796   0.57220
 Alpha virt. eigenvalues --    0.57479   0.57611   0.58259   0.58796   0.59076
 Alpha virt. eigenvalues --    0.59747   0.59956   0.60440   0.60929   0.61671
 Alpha virt. eigenvalues --    0.62535   0.62897   0.63596   0.64098   0.64179
 Alpha virt. eigenvalues --    0.64569   0.64918   0.65669   0.66063   0.66354
 Alpha virt. eigenvalues --    0.67705   0.68170   0.69358   0.70303   0.70819
 Alpha virt. eigenvalues --    0.71193   0.71910   0.72445   0.72736   0.73451
 Alpha virt. eigenvalues --    0.73950   0.74180   0.74841   0.75173   0.75748
 Alpha virt. eigenvalues --    0.75846   0.76539   0.76817   0.77298   0.78506
 Alpha virt. eigenvalues --    0.79126   0.79968   0.80984   0.82244   0.82597
 Alpha virt. eigenvalues --    0.83170   0.83532   0.83926   0.84222   0.84372
 Alpha virt. eigenvalues --    0.85079   0.85482   0.86311   0.86388   0.87231
 Alpha virt. eigenvalues --    0.87790   0.88449   0.89028   0.89260   0.90395
 Alpha virt. eigenvalues --    0.90729   0.91138   0.91474   0.92728   0.93185
 Alpha virt. eigenvalues --    0.93380   0.94035   0.94339   0.95195   0.95244
 Alpha virt. eigenvalues --    0.95726   0.96226   0.96665   0.97398   0.98013
 Alpha virt. eigenvalues --    0.98707   0.99351   0.99810   0.99882   1.00287
 Alpha virt. eigenvalues --    1.00927   1.01641   1.02311   1.02819   1.03881
 Alpha virt. eigenvalues --    1.04092   1.04974   1.05877   1.07196   1.08164
 Alpha virt. eigenvalues --    1.08811   1.09293   1.09952   1.10134   1.11163
 Alpha virt. eigenvalues --    1.11514   1.12597   1.14245   1.15014   1.16816
 Alpha virt. eigenvalues --    1.17152   1.17808   1.18973   1.20823   1.21679
 Alpha virt. eigenvalues --    1.21736   1.23215   1.23778   1.24369   1.24608
 Alpha virt. eigenvalues --    1.25382   1.27047   1.27326   1.27728   1.28392
 Alpha virt. eigenvalues --    1.29632   1.31579   1.32908   1.33791   1.33910
 Alpha virt. eigenvalues --    1.34497   1.36025   1.36549   1.37155   1.37373
 Alpha virt. eigenvalues --    1.38507   1.38904   1.39329   1.40369   1.40862
 Alpha virt. eigenvalues --    1.41816   1.42790   1.43297   1.43673   1.44781
 Alpha virt. eigenvalues --    1.45160   1.45757   1.46922   1.48604   1.50106
 Alpha virt. eigenvalues --    1.50962   1.51464   1.54695   1.55943   1.57217
 Alpha virt. eigenvalues --    1.59523   1.61488   1.61955   1.63069   1.63347
 Alpha virt. eigenvalues --    1.65624   1.66977   1.67927   1.68384   1.69058
 Alpha virt. eigenvalues --    1.69874   1.70717   1.71127   1.71241   1.71763
 Alpha virt. eigenvalues --    1.71956   1.73046   1.73619   1.74265   1.74356
 Alpha virt. eigenvalues --    1.74899   1.76082   1.76312   1.76533   1.77423
 Alpha virt. eigenvalues --    1.77757   1.78537   1.79210   1.80064   1.80896
 Alpha virt. eigenvalues --    1.81110   1.81684   1.82075   1.82848   1.83261
 Alpha virt. eigenvalues --    1.83691   1.85462   1.85731   1.85951   1.86340
 Alpha virt. eigenvalues --    1.87129   1.87476   1.87915   1.88993   1.89732
 Alpha virt. eigenvalues --    1.90364   1.90509   1.91296   1.91657   1.93257
 Alpha virt. eigenvalues --    1.93651   1.94451   1.94853   1.95897   1.96186
 Alpha virt. eigenvalues --    1.96740   1.97919   1.98402   1.98855   1.99467
 Alpha virt. eigenvalues --    2.00740   2.01718   2.02225   2.02993   2.03814
 Alpha virt. eigenvalues --    2.04219   2.04933   2.05729   2.06210   2.06310
 Alpha virt. eigenvalues --    2.07539   2.08339   2.09699   2.10383   2.11351
 Alpha virt. eigenvalues --    2.11912   2.12927   2.13734   2.15514   2.15995
 Alpha virt. eigenvalues --    2.18698   2.20288   2.20491   2.21455   2.23473
 Alpha virt. eigenvalues --    2.24629   2.24931   2.26288   2.27146   2.27484
 Alpha virt. eigenvalues --    2.28299   2.28903   2.29862   2.30026   2.30620
 Alpha virt. eigenvalues --    2.30991   2.32073   2.32586   2.33755   2.34620
 Alpha virt. eigenvalues --    2.35168   2.35813   2.36728   2.38245   2.38992
 Alpha virt. eigenvalues --    2.39125   2.39760   2.41094   2.42411   2.43099
 Alpha virt. eigenvalues --    2.43616   2.44446   2.45399   2.46051   2.48271
 Alpha virt. eigenvalues --    2.48872   2.49816   2.52448   2.52979   2.53620
 Alpha virt. eigenvalues --    2.54541   2.55471   2.56222   2.56702   2.57826
 Alpha virt. eigenvalues --    2.58711   2.60987   2.62681   2.64134   2.64319
 Alpha virt. eigenvalues --    2.65950   2.66599   2.67316   2.68677   2.70101
 Alpha virt. eigenvalues --    2.70594   2.71565   2.72856   2.74297   2.75918
 Alpha virt. eigenvalues --    2.76939   2.77064   2.77712   2.79383   2.79767
 Alpha virt. eigenvalues --    2.83088   2.83509   2.86639   2.87280   2.90187
 Alpha virt. eigenvalues --    2.91412   2.93908   2.95561   2.96257   2.96452
 Alpha virt. eigenvalues --    2.98620   3.01394   3.02122   3.04460   3.05443
 Alpha virt. eigenvalues --    3.07245   3.10583   3.12822   3.16621   3.17766
 Alpha virt. eigenvalues --    3.22829   3.23385   3.41245   3.49866   3.78380
 Alpha virt. eigenvalues --    3.84377   3.96547   3.96764   3.99412   4.00199
 Alpha virt. eigenvalues --    4.05407   4.08217   4.09281   4.15716   4.17043
 Alpha virt. eigenvalues --    4.17867   4.20492   4.22662   4.23659   4.24852
 Alpha virt. eigenvalues --    4.25675   4.32405   4.33931   4.34835   4.37382
 Alpha virt. eigenvalues --    4.39149   4.48317   4.48652   4.51728   4.54062
 Alpha virt. eigenvalues --    4.54410   4.55002   4.58754   4.64945   4.72362
 Alpha virt. eigenvalues --    4.73778   4.79066   4.87759
          Condensed to atoms (all electrons):
 Mulliken atomic charges:
              1
     1  C    0.121447
     2  C    0.296540
     3  C   -0.272529
     4  C    0.130397
     5  C   -0.059423
     6  C    0.233016
     7  C    0.071944
     8  C    0.280657
     9  O   -0.514563
    10  C    0.640327
    11  C   -0.374408
    12  C    0.239623
    13  C   -0.305186
    14  C   -0.340148
    15  C   -0.576201
    16  O   -0.672279
    17  O   -0.643978
    18  O   -0.535077
    19  O   -0.537194
    20  C    0.080698
    21  C    0.117395
    22  C    0.110535
    23  C   -0.146093
    24  C    0.045651
    25  C   -0.351013
    26  O   -0.702735
    27  O   -0.646940
    28  C    0.610982
    29  O   -0.459635
    30  O   -0.490443
    31  C   -0.219473
    32  C    0.601528
    33  O   -0.563097
    34  O   -0.483042
    35  H    0.132529
    36  H    0.190728
    37  H    0.173212
    38  H    0.171350
    39  H    0.168893
    40  H    0.191881
    41  H    0.173681
    42  H    0.161431
    43  H    0.209218
    44  H    0.158640
    45  H    0.450575
    46  H    0.419374
    47  H    0.138005
    48  H    0.138463
    49  H    0.141619
    50  H    0.173248
    51  H    0.171522
    52  H    0.177066
    53  H    0.436491
    54  H    0.408136
    55  H    0.164235
    56  H    0.171585
    57  H    0.167390
    58  H    0.423444
 Sum of Mulliken atomic charges =   0.00000
 Mulliken charges with hydrogens summed into heavy atoms:
              1
     1  C    0.121447
     2  C    0.296540
     3  C   -0.139999
     4  C    0.130397
     5  C   -0.059423
     6  C    0.233016
     7  C    0.071944
     8  C    0.280657
     9  O   -0.514563
    10  C    0.640327
    11  C   -0.010468
    12  C    0.239623
    13  C    0.035057
    14  C    0.025415
    15  C   -0.046911
    16  O   -0.221705
    17  O   -0.224603
    18  O   -0.535077
    19  O   -0.537194
    20  C    0.218703
    21  C    0.255858
    22  C    0.252154
    23  C    0.027155
    24  C    0.045651
    25  C   -0.002426
    26  O   -0.266245
    27  O   -0.238804
    28  C    0.610982
    29  O   -0.459635
    30  O   -0.490443
    31  C    0.283738
    32  C    0.601528
    33  O   -0.139654
    34  O   -0.483042
 Sum of Mulliken charges with hydrogens summed into heavy atoms =   0.00000
 Electronic spatial extent (au):  <R**2>=          15863.4076
 Charge=              0.0000 electrons
 Dipole moment (field-independent basis, Debye):
    X=             -0.5773    Y=             -2.2292    Z=              4.5013  Tot=              5.0561
 Quadrupole moment (field-independent basis, Debye-Ang):
   XX=           -215.3433   YY=           -165.6147   ZZ=           -193.1153
   XY=            -16.6911   XZ=            -13.1699   YZ=              0.4317
 Traceless Quadrupole moment (field-independent basis, Debye-Ang):
   XX=            -23.9855   YY=             25.7431   ZZ=             -1.7576
   XY=            -16.6911   XZ=            -13.1699   YZ=              0.4317
 Octapole moment (field-independent basis, Debye-Ang**2):
  XXX=            -87.8246  YYY=             23.7772  ZZZ=             39.6562  XYY=             18.2082
  XXY=             -1.4978  XXZ=             93.7860  XZZ=             30.7757  YZZ=             -2.2884
  YYZ=             24.2722  XYZ=            -19.5350
 Hexadecapole moment (field-independent basis, Debye-Ang**3):
 XXXX=         -11535.7876 YYYY=          -5493.4581 ZZZZ=          -2274.4097 XXXY=           -330.7824
 XXXZ=           -363.7854 YYYX=           -342.3429 YYYZ=           -143.3853 ZZZX=            -77.7438
 ZZZY=            -89.3599 XXYY=          -3012.7327 XXZZ=          -2140.7419 YYZZ=          -1328.9817
 XXYZ=             76.5773 YYXZ=             93.4461 ZZXY=           -195.7149
 N-N= 3.792912554545D+03 E-N=-1.159973861446D+04  KE= 1.702842029414D+03
 Calling FoFJK, ICntrl=      2127 FMM=T ISym2X=0 I1Cent= 0 IOpClX= 0 NMat=1 NMatS=1 NMatT=0.
 ***** Axes restored to original set *****
 -------------------------------------------------------------------
 Center     Atomic                   Forces (Hartrees/Bohr)
 Number     Number              X              Y              Z
 -------------------------------------------------------------------
      1        6          -0.001076891   -0.008424408   -0.000084372
      2        6          -0.004603513    0.005106290   -0.000790949
      3        6          -0.007395503    0.005358190   -0.000959307
      4        6           0.003168462    0.022520037    0.000172549
      5        6          -0.020469723   -0.017546191   -0.003690260
      6        6           0.008856854   -0.023974296    0.001976244
      7        6           0.012247981   -0.008540704    0.007073022
      8        6          -0.001345353   -0.008687972   -0.003011540
      9        8          -0.010182022    0.008440468   -0.001829273
     10        6           0.036348326    0.016072754    0.006243589
     11        6           0.002525921   -0.002315428   -0.003252620
     12        6          -0.003305727   -0.002826230    0.002809840
     13        6          -0.002740686   -0.005208569   -0.003887294
     14        6           0.000687324   -0.009841546    0.004268567
     15        6           0.000586696   -0.000142258   -0.000340770
     16        8           0.004524363    0.022647700    0.000505676
     17        8           0.000352052   -0.005068494    0.000392544
     18        8          -0.024825798   -0.004583739   -0.004383396
     19        8           0.005480990    0.008249746   -0.018207346
     20        6          -0.005498147   -0.009023831    0.015525896
     21        6          -0.002591991    0.015623340   -0.017796332
     22        6          -0.011523462   -0.002319762    0.001428966
     23        6           0.003558730   -0.006796182    0.001117432
     24        6          -0.001705589    0.007841988    0.002085005
     25        6           0.004113254   -0.000395142   -0.005946183
     26        8           0.006222159   -0.003136000    0.004570799
     27        8          -0.007325435    0.000593389    0.001193212
     28        6          -0.004848868    0.003607070   -0.009352746
     29        8           0.004204606   -0.006011905   -0.002635011
     30        8          -0.002436979    0.006658196    0.013033781
     31        6           0.006158815   -0.002945123    0.007615838
     32        6          -0.006529268    0.013168045    0.008654242
     33        8           0.000630129   -0.001025772   -0.000758714
     34        8           0.004454474   -0.009872751   -0.005372265
     35        1           0.000377093   -0.001648989    0.000476760
     36        1          -0.003984086    0.004440176    0.001485480
     37        1           0.001507630   -0.000660443   -0.000041743
     38        1           0.002118823    0.003083228    0.003330680
     39        1           0.001961283    0.001792295    0.001778278
     40        1          -0.000604052   -0.000762098   -0.000342690
     41        1           0.000729192   -0.001894173    0.000878149
     42        1           0.004385198    0.001205189    0.001420690
     43        1          -0.004577812    0.001932367   -0.000434474
     44        1           0.004382672    0.001561580    0.000219396
     45        1          -0.006580587    0.005105001   -0.001554536
     46        1          -0.000453098   -0.000588696   -0.000472820
     47        1          -0.000439771    0.000291148    0.000953894
     48        1           0.008532835   -0.006578548    0.006209557
     49        1           0.003873804    0.002283762   -0.009035706
     50        1          -0.000268945   -0.001680697   -0.000956684
     51        1           0.001172730   -0.004224274    0.001399497
     52        1          -0.000870239    0.001534695   -0.002769549
     53        1          -0.000118841    0.001547223    0.005377895
     54        1           0.003474355   -0.000656313    0.003282025
     55        1          -0.004271708    0.003382461   -0.001799859
     56        1           0.002374250    0.000276634   -0.003008873
     57        1          -0.000948964   -0.003364623   -0.001610607
     58        1           0.002512057   -0.003577816   -0.001153581
 -------------------------------------------------------------------
 Cartesian Forces:  Max     0.036348326 RMS     0.007235352

 GradGradGradGradGradGradGradGradGradGradGradGradGradGradGradGradGradGrad
 Berny optimization.
 Internal  Forces:  Max     0.028077222 RMS     0.004409814
 Search for a local minimum.
 Step number   1 out of a maximum of  341
 All quantities printed in internal units (Hartrees-Bohrs-Radians)
 Mixed Optimization -- RFO/linear search
 Second derivative matrix not updated -- first step.
 ITU=  0
     Eigenvalues ---    0.00268   0.00480   0.00481   0.00542   0.00571
     Eigenvalues ---    0.00717   0.00751   0.00875   0.01117   0.01161
     Eigenvalues ---    0.01184   0.01221   0.01272   0.01324   0.01326
     Eigenvalues ---    0.01341   0.01363   0.01367   0.01419   0.01510
     Eigenvalues ---    0.01643   0.01710   0.01777   0.01802   0.01905
     Eigenvalues ---    0.01981   0.02023   0.02033   0.02098   0.02107
     Eigenvalues ---    0.02120   0.02123   0.02284   0.02396   0.02797
     Eigenvalues ---    0.02952   0.03187   0.03431   0.03707   0.04026
     Eigenvalues ---    0.04260   0.04685   0.04855   0.04927   0.05039
     Eigenvalues ---    0.05181   0.05419   0.05703   0.05763   0.05797
     Eigenvalues ---    0.06125   0.06418   0.06966   0.07053   0.07210
     Eigenvalues ---    0.07333   0.07819   0.08063   0.08202   0.08260
     Eigenvalues ---    0.09406   0.09499   0.09601   0.09833   0.10051
     Eigenvalues ---    0.10111   0.10499   0.11479   0.11831   0.14327
     Eigenvalues ---    0.14589   0.15649   0.16000   0.16000   0.16000
     Eigenvalues ---    0.16000   0.16000   0.16000   0.16000   0.16000
     Eigenvalues ---    0.16000   0.16000   0.16000   0.16012   0.16708
     Eigenvalues ---    0.16720   0.18663   0.19422   0.19808   0.21701
     Eigenvalues ---    0.23059   0.23525   0.24353   0.24980   0.24992
     Eigenvalues ---    0.24997   0.24998   0.24999   0.24999   0.24999
     Eigenvalues ---    0.25000   0.25000   0.25000   0.25000   0.25000
     Eigenvalues ---    0.25000   0.25000   0.26905   0.27065   0.27407
     Eigenvalues ---    0.27534   0.27885   0.28580   0.28680   0.30383
     Eigenvalues ---    0.31192   0.31382   0.31989   0.32590   0.32648
     Eigenvalues ---    0.33259   0.33855   0.33881   0.33906   0.33932
     Eigenvalues ---    0.33969   0.34019   0.34045   0.34049   0.34063
     Eigenvalues ---    0.34224   0.34233   0.34290   0.34293   0.34296
     Eigenvalues ---    0.34375   0.34398   0.34411   0.34628   0.35113
     Eigenvalues ---    0.35230   0.37849   0.38357   0.39565   0.39790
     Eigenvalues ---    0.40830   0.41330   0.41493   0.43238   0.44370
     Eigenvalues ---    0.45218   0.45441   0.45945   0.49713   0.50162
     Eigenvalues ---    0.50213   0.50648   0.51014   0.51430   0.51891
     Eigenvalues ---    0.52605   0.53277   0.53891   0.53930   0.55721
     Eigenvalues ---    0.91535   0.93215   0.94187
 RFO step:  Lambda=-2.44156435D-02 EMin= 2.68405294D-03
 Linear search not attempted -- first point.
 Iteration  1 RMS(Cart)=  0.08524500 RMS(Int)=  0.00246921
 Iteration  2 RMS(Cart)=  0.00636341 RMS(Int)=  0.00044618
 Iteration  3 RMS(Cart)=  0.00001933 RMS(Int)=  0.00044614
 Iteration  4 RMS(Cart)=  0.00000008 RMS(Int)=  0.00044614
 Variable       Old X    -DE/DX   Delta X   Delta X   Delta X     New X
                                 (Linear)    (Quad)   (Total)
    R1        2.64150   0.00509   0.00000   0.00952   0.00981   2.65131
    R2        2.65285  -0.00137   0.00000  -0.00313  -0.00322   2.64963
    R3        2.84165   0.00364   0.00000   0.01057   0.01057   2.85222
    R4        2.63974   0.00165   0.00000   0.00267   0.00304   2.64278
    R5        2.58449  -0.00444   0.00000  -0.00824  -0.00824   2.57625
    R6        2.64777  -0.00483   0.00000  -0.00985  -0.00976   2.63801
    R7        2.05303  -0.00172   0.00000  -0.00458  -0.00458   2.04845
    R8        2.64763   0.01101   0.00000   0.02583   0.02522   2.67285
    R9        2.78433  -0.00984   0.00000  -0.02480  -0.02472   2.75961
   R10        2.67003   0.00096   0.00000   0.00419   0.00278   2.67280
   R11        2.79729  -0.01052   0.00000  -0.02618  -0.02740   2.76989
   R12        2.59879  -0.02808   0.00000  -0.05319  -0.05343   2.54536
   R13        2.53817   0.00346   0.00000   0.00608   0.00642   2.54459
   R14        2.86404  -0.00191   0.00000  -0.00508  -0.00507   2.85897
   R15        2.65994  -0.02077   0.00000  -0.04622  -0.04590   2.61404
   R16        2.84172  -0.00604   0.00000  -0.01655  -0.01661   2.82511
   R17        2.57098  -0.00205   0.00000  -0.00462  -0.00468   2.56630
   R18        2.32137  -0.00166   0.00000  -0.00195  -0.00183   2.31954
   R19        2.92754  -0.00202   0.00000  -0.00877  -0.00869   2.91885
   R20        2.07488  -0.00077   0.00000  -0.00211  -0.00211   2.07277
   R21        2.06701   0.00031   0.00000   0.00084   0.00084   2.06785
   R22        2.91024   0.00113   0.00000   0.00382   0.00382   2.91406
   R23        2.72775  -0.01406   0.00000  -0.03264  -0.03381   2.69393
   R24        2.90567  -0.00276   0.00000  -0.00826  -0.00867   2.89699
   R25        2.89182   0.00278   0.00000   0.00726   0.00727   2.89910
   R26        2.07532  -0.00210   0.00000  -0.00579  -0.00579   2.06953
   R27        2.07445  -0.00167   0.00000  -0.00459  -0.00459   2.06986
   R28        2.07298   0.00025   0.00000   0.00070   0.00070   2.07368
   R29        2.07223   0.00028   0.00000   0.00076   0.00076   2.07299
   R30        2.06938   0.00301   0.00000   0.00821   0.00821   2.07760
   R31        2.06664  -0.00266   0.00000  -0.00723  -0.00723   2.05941
   R32        2.06954   0.00293   0.00000   0.00798   0.00798   2.07752
   R33        1.85881   0.00490   0.00000   0.00829   0.00927   1.86808
   R34        1.83396  -0.00032   0.00000  -0.00057  -0.00057   1.83339
   R35        3.21624   0.00334   0.00000   0.02765   0.02875   3.24499
   R36        2.72053   0.00481   0.00000   0.01193   0.01127   2.73180
   R37        2.91451  -0.00600   0.00000  -0.01567  -0.01689   2.89762
   R38        2.91470   0.00026   0.00000   0.00030   0.00023   2.91493
   R39        2.07248  -0.00025   0.00000  -0.00068  -0.00068   2.07180
   R40        2.90891  -0.00659   0.00000  -0.02106  -0.02106   2.88785
   R41        2.71801  -0.00797   0.00000  -0.01922  -0.01885   2.69916
   R42        2.07383   0.00115   0.00000   0.00315   0.00315   2.07698
   R43        2.81882   0.00371   0.00000   0.01026   0.01040   2.82922
   R44        2.69573   0.00585   0.00000   0.01332   0.01332   2.70906
   R45        2.07254   0.00462   0.00000   0.01267   0.01267   2.08520
   R46        2.54130  -0.00416   0.00000  -0.00770  -0.00749   2.53381
   R47        2.05492  -0.00130   0.00000  -0.00345  -0.00345   2.05147
   R48        2.84445   0.00462   0.00000   0.01247   0.01257   2.85702
   R49        2.81898   0.00021   0.00000   0.00058   0.00058   2.81957
   R50        2.06834   0.00045   0.00000   0.00123   0.00123   2.06957
   R51        2.07575  -0.00087   0.00000  -0.00238  -0.00238   2.07337
   R52        1.85336  -0.00345   0.00000  -0.00724  -0.00613   1.84723
   R53        1.84704  -0.00452   0.00000  -0.00832  -0.00832   1.83871
   R54        2.56096  -0.00227   0.00000  -0.00403  -0.00403   2.55693
   R55        2.31061  -0.01258   0.00000  -0.01302  -0.01302   2.29759
   R56        2.69785   0.00434   0.00000   0.00991   0.00991   2.70776
   R57        2.06642  -0.00100   0.00000  -0.00273  -0.00273   2.06370
   R58        2.06843  -0.00079   0.00000  -0.00216  -0.00216   2.06627
   R59        2.06839  -0.00065   0.00000  -0.00176  -0.00176   2.06662
   R60        2.54497   0.00144   0.00000   0.00248   0.00248   2.54745
   R61        2.31090  -0.01022   0.00000  -0.01086  -0.01021   2.30068
   R62        1.85555  -0.00408   0.00000  -0.00763  -0.00763   1.84792
   R63        3.47801   0.00235   0.00000   0.02283   0.02400   3.50201
    A1        2.04980  -0.00044   0.00000  -0.00128  -0.00171   2.04810
    A2        2.11660  -0.00118   0.00000  -0.00445  -0.00424   2.11236
    A3        2.11679   0.00162   0.00000   0.00573   0.00595   2.12273
    A4        2.12206   0.00426   0.00000   0.01509   0.01512   2.13718
    A5        2.14705  -0.00731   0.00000  -0.02642  -0.02643   2.12062
    A6        2.01407   0.00305   0.00000   0.01132   0.01130   2.02538
    A7        2.11452  -0.00605   0.00000  -0.02271  -0.02287   2.09165
    A8        2.04588   0.00297   0.00000   0.01105   0.01113   2.05701
    A9        2.12278   0.00308   0.00000   0.01165   0.01173   2.13452
   A10        2.05920   0.00581   0.00000   0.02238   0.02197   2.08117
   A11        2.13335   0.00397   0.00000   0.00826   0.00909   2.14243
   A12        2.09063  -0.00978   0.00000  -0.03065  -0.03106   2.05958
   A13        2.10418  -0.00381   0.00000  -0.01497  -0.01411   2.09008
   A14        2.08741   0.00278   0.00000   0.01125   0.01212   2.09953
   A15        2.09149   0.00103   0.00000   0.00378   0.00204   2.09353
   A16        2.11648   0.00023   0.00000   0.00153   0.00164   2.11812
   A17        2.03993   0.00494   0.00000   0.01354   0.01529   2.05522
   A18        2.12677  -0.00517   0.00000  -0.01507  -0.01694   2.10983
   A19        2.05615   0.00446   0.00000   0.01770   0.01764   2.07379
   A20        2.10786  -0.00144   0.00000  -0.00753  -0.00752   2.10034
   A21        2.11911  -0.00302   0.00000  -0.01007  -0.01005   2.10905
   A22        2.14715   0.00144   0.00000   0.00176   0.00195   2.14910
   A23        2.16071   0.00774   0.00000   0.03186   0.03172   2.19242
   A24        1.97533  -0.00918   0.00000  -0.03362  -0.03367   1.94166
   A25        2.13242   0.00043   0.00000  -0.00220  -0.00264   2.12978
   A26        2.05065   0.00068   0.00000   0.00270   0.00250   2.05315
   A27        2.10251   0.02551   0.00000   0.09550   0.09432   2.19683
   A28        2.12985  -0.02618   0.00000  -0.09805  -0.09671   2.03314
   A29        1.98959  -0.00166   0.00000  -0.00997  -0.00981   1.97978
   A30        1.86694   0.00481   0.00000   0.03992   0.03985   1.90679
   A31        1.92578  -0.00082   0.00000  -0.00766  -0.00770   1.91809
   A32        1.92519  -0.00396   0.00000  -0.02844  -0.02834   1.89685
   A33        1.89967   0.00218   0.00000   0.01115   0.01106   1.91073
   A34        1.85167  -0.00052   0.00000  -0.00491  -0.00493   1.84674
   A35        1.89649   0.00207   0.00000   0.01109   0.01064   1.90713
   A36        1.99729   0.00106   0.00000   0.00115   0.00182   1.99911
   A37        1.93652  -0.00203   0.00000  -0.00567  -0.00513   1.93138
   A38        1.83299  -0.00260   0.00000  -0.01501  -0.01463   1.81836
   A39        1.87561   0.00085   0.00000   0.00214   0.00256   1.87817
   A40        1.91823   0.00069   0.00000   0.00612   0.00460   1.92282
   A41        1.93900   0.00096   0.00000   0.00272   0.00292   1.94192
   A42        1.92808  -0.00366   0.00000  -0.02692  -0.02702   1.90106
   A43        1.93039  -0.00105   0.00000  -0.01500  -0.01506   1.91533
   A44        1.90833   0.00284   0.00000   0.01981   0.01977   1.92809
   A45        1.89519  -0.00020   0.00000   0.00812   0.00800   1.90319
   A46        1.86089   0.00121   0.00000   0.01253   0.01209   1.87298
   A47        1.97583  -0.00633   0.00000  -0.02874  -0.02870   1.94713
   A48        1.89402   0.00197   0.00000   0.01160   0.01169   1.90571
   A49        1.91405   0.00089   0.00000  -0.00491  -0.00481   1.90924
   A50        1.91703   0.00215   0.00000   0.01204   0.01210   1.92913
   A51        1.89595   0.00307   0.00000   0.01601   0.01579   1.91173
   A52        1.86371  -0.00153   0.00000  -0.00486  -0.00498   1.85873
   A53        1.91907   0.00504   0.00000   0.02759   0.02748   1.94655
   A54        1.97577  -0.00766   0.00000  -0.04282  -0.04256   1.93321
   A55        1.92011   0.00475   0.00000   0.02671   0.02661   1.94672
   A56        1.87123   0.00074   0.00000   0.00213   0.00237   1.87361
   A57        1.90767  -0.00436   0.00000  -0.02112  -0.02155   1.88611
   A58        1.86805   0.00123   0.00000   0.00608   0.00633   1.87438
   A59        1.90728  -0.01890   0.00000  -0.09867  -0.09957   1.80770
   A60        1.91349  -0.00130   0.00000  -0.00707  -0.00707   1.90642
   A61        2.07823   0.01213   0.00000   0.04624   0.04501   2.12324
   A62        1.87944  -0.00100   0.00000  -0.00527  -0.00646   1.87298
   A63        1.89061   0.00028   0.00000   0.00614   0.00672   1.89734
   A64        1.93126   0.00054   0.00000  -0.00084  -0.00077   1.93049
   A65        1.91766   0.00278   0.00000   0.01627   0.01682   1.93448
   A66        1.89905  -0.00209   0.00000  -0.01208  -0.01247   1.88658
   A67        1.94473  -0.00047   0.00000  -0.00397  -0.00376   1.94097
   A68        1.93929   0.00374   0.00000   0.01555   0.01555   1.95485
   A69        1.95793   0.00393   0.00000   0.02843   0.02763   1.98557
   A70        1.92204  -0.00409   0.00000  -0.03034  -0.03109   1.89095
   A71        1.86505  -0.00720   0.00000  -0.03614  -0.03557   1.82948
   A72        1.93488  -0.00197   0.00000  -0.03757  -0.03747   1.89741
   A73        1.84188   0.00557   0.00000   0.06144   0.06142   1.90330
   A74        1.98787  -0.00184   0.00000  -0.00822  -0.00852   1.97934
   A75        1.90314   0.00346   0.00000   0.01873   0.01877   1.92191
   A76        1.92469  -0.00460   0.00000  -0.04293  -0.04304   1.88165
   A77        1.88500  -0.00086   0.00000   0.00121   0.00149   1.88649
   A78        1.89970   0.00195   0.00000   0.00360   0.00263   1.90234
   A79        1.85866   0.00224   0.00000   0.03141   0.03165   1.89031
   A80        2.14462   0.00017   0.00000   0.00328   0.00323   2.14785
   A81        2.02026   0.00092   0.00000   0.00382   0.00383   2.02409
   A82        2.11831  -0.00109   0.00000  -0.00708  -0.00707   2.11124
   A83        2.13340   0.00223   0.00000   0.00923   0.00913   2.14253
   A84        2.14311  -0.00242   0.00000  -0.00936  -0.00934   2.13377
   A85        2.00665   0.00020   0.00000   0.00020   0.00022   2.00688
   A86        2.01479  -0.00501   0.00000  -0.01861  -0.01899   1.99581
   A87        1.88925   0.00447   0.00000   0.03399   0.03427   1.92352
   A88        1.90925  -0.00113   0.00000  -0.01976  -0.01968   1.88956
   A89        1.89948   0.00063   0.00000   0.00185   0.00214   1.90162
   A90        1.89553   0.00306   0.00000   0.01529   0.01496   1.91049
[...]
     52          1           0        1.271175    0.776976   -1.412091
     53          1           0        4.393355   -1.696311    0.152478
     54          1           0        6.179027    1.066117   -0.070539
     55          1           0        1.338234    6.671322   -0.307044
     56          1           0        0.313754    5.742281   -1.451778
     57          1           0       -0.075097    5.734739    0.283839
     58          1           0        2.315318   -4.433618    2.515001
 ---------------------------------------------------------------------
 Rotational constants (GHZ):      0.1440723      0.0909999      0.0690244

 **********************************************************************

            Population analysis using the SCF density.

 **********************************************************************

 Orbital symmetries:
       Occupied  (A) (A) (A) (A) (A) (A) (A) (A) (A) (A) (A) (A)
                 (A) (A) (A) (A) (A) (A) (A) (A) (A) (A) (A) (A)
                 (A) (A) (A) (A) (A) (A) (A) (A) (A) (A) (A) (A)
                 (A) (A) (A) (A) (A) (A) (A) (A) (A) (A) (A) (A)
                 (A) (A) (A) (A) (A) (A) (A) (A) (A) (A) (A) (A)
                 (A) (A) (A) (A) (A) (A) (A) (A) (A) (A) (A) (A)
                 (A) (A) (A) (A) (A) (A) (A) (A) (A) (A) (A) (A)
                 (A) (A) (A) (A) (A) (A) (A) (A) (A) (A) (A) (A)
                 (A) (A) (A) (A) (A) (A) (A) (A) (A) (A) (A) (A)
                 (A) (A) (A) (A) (A) (A) (A) (A) (A) (A) (A) (A)
                 (A) (A) (A) (A) (A)
       Virtual   (A) (A) (A) (A) (A) (A) (A) (A) (A) (A) (A) (A)
                 (A) (A) (A) (A) (A) (A) (A) (A) (A) (A) (A) (A)
                 (A) (A) (A) (A) (A) (A) (A) (A) (A) (A) (A) (A)
                 (A) (A) (A) (A) (A) (A) (A) (A) (A) (A) (A) (A)
                 (A) (A) (A) (A) (A) (A) (A) (A) (A) (A) (A) (A)
                 (A) (A) (A) (A) (A) (A) (A) (A) (A) (A) (A) (A)
                 (A) (A) (A) (A) (A) (A) (A) (A) (A) (A) (A) (A)
                 (A) (A) (A) (A) (A) (A) (A) (A) (A) (A) (A) (A)
                 (A) (A) (A) (A) (A) (A) (A) (A) (A) (A) (A) (A)
                 (A) (A) (A) (A) (A) (A) (A) (A) (A) (A) (A) (A)
                 (A) (A) (A) (A) (A) (A) (A) (A) (A) (A) (A) (A)
                 (A) (A) (A) (A) (A) (A) (A) (A) (A) (A) (A) (A)
                 (A) (A) (A) (A) (A) (A) (A) (A) (A) (A) (A) (A)
                 (A) (A) (A) (A) (A) (A) (A) (A) (A) (A) (A) (A)
                 (A) (A) (A) (A) (A) (A) (A) (A) (A) (A) (A) (A)
                 (A) (A) (A) (A) (A) (A) (A) (A) (A) (A) (A) (A)
                 (A) (A) (A) (A) (A) (A) (A) (A) (A) (A) (A) (A)
                 (A) (A) (A) (A) (A) (A) (A) (A) (A) (A) (A) (A)
                 (A) (A) (A) (A) (A) (A) (A) (A) (A) (A) (A) (A)
                 (A) (A) (A) (A) (A) (A) (A) (A) (A) (A) (A) (A)
                 (A) (A) (A) (A) (A) (A) (A) (A) (A) (A) (A) (A)
                 (A) (A) (A) (A) (A) (A) (A) (A) (A) (A) (A) (A)
                 (A) (A) (A) (A) (A) (A) (A) (A) (A) (A) (A) (A)
                 (A) (A) (A) (A) (A) (A) (A) (A) (A) (A) (A) (A)
                 (A) (A) (A) (A) (A) (A) (A) (A) (A) (A) (A) (A)
                 (A) (A) (A) (A) (A) (A) (A) (A) (A) (A) (A) (A)
                 (A) (A) (A) (A) (A) (A) (A) (A) (A) (A) (A) (A)
                 (A) (A) (A) (A) (A) (A) (A) (A) (A) (A) (A) (A)
                 (A) (A) (A) (A) (A) (A) (A) (A) (A) (A) (A) (A)
                 (A) (A) (A) (A) (A) (A) (A) (A) (A) (A) (A) (A)
                 (A) (A) (A) (A) (A) (A) (A) (A) (A) (A) (A) (A)
                 (A) (A) (A) (A) (A) (A) (A) (A) (A) (A) (A) (A)
                 (A) (A) (A) (A) (A) (A) (A) (A) (A) (A) (A) (A)
                 (A) (A) (A) (A) (A) (A) (A) (A) (A) (A) (A) (A)
                 (A) (A) (A) (A) (A) (A) (A) (A) (A) (A) (A) (A)
                 (A) (A) (A) (A) (A) (A) (A) (A) (A) (A) (A) (A)
                 (A)
 The electronic state is 1-A.
 Alpha  occ. eigenvalues --  -19.23016 -19.21907 -19.19505 -19.18970 -19.17577
 Alpha  occ. eigenvalues --  -19.17379 -19.17130 -19.14098 -19.13795 -19.13257
 Alpha  occ. eigenvalues --  -19.13181 -10.35027 -10.32619 -10.31224 -10.28744
 Alpha  occ. eigenvalues --  -10.27052 -10.26847 -10.26790 -10.25378 -10.23898
 Alpha  occ. eigenvalues --  -10.23829 -10.23233 -10.22403 -10.21787 -10.21621
 Alpha  occ. eigenvalues --  -10.21302 -10.21155 -10.20822 -10.20520 -10.20180
 Alpha  occ. eigenvalues --  -10.20175 -10.19735 -10.19524 -10.19140  -1.14096
 Alpha  occ. eigenvalues --   -1.12318  -1.09861  -1.07754  -1.06501  -1.06274
 Alpha  occ. eigenvalues --   -1.04408  -1.02705  -1.02421  -1.00952  -0.99868
 Alpha  occ. eigenvalues --   -0.87790  -0.85978  -0.84036  -0.80907  -0.79055
 Alpha  occ. eigenvalues --   -0.77235  -0.76171  -0.75656  -0.73930  -0.71558
 Alpha  occ. eigenvalues --   -0.70808  -0.69341  -0.66461  -0.65932  -0.64492
 Alpha  occ. eigenvalues --   -0.63155  -0.62522  -0.61335  -0.59047  -0.57852
 Alpha  occ. eigenvalues --   -0.57222  -0.55163  -0.54557  -0.54100  -0.53437
 Alpha  occ. eigenvalues --   -0.52931  -0.51351  -0.50862  -0.50557  -0.49728
 Alpha  occ. eigenvalues --   -0.49208  -0.48201  -0.47910  -0.47737  -0.46884
 Alpha  occ. eigenvalues --   -0.46713  -0.46266  -0.45916  -0.45458  -0.44964
 Alpha  occ. eigenvalues --   -0.44572  -0.43888  -0.43244  -0.43083  -0.42656
 Alpha  occ. eigenvalues --   -0.42081  -0.41996  -0.41733  -0.41250  -0.40454
 Alpha  occ. eigenvalues --   -0.40089  -0.39949  -0.39709  -0.39651  -0.38990
 Alpha  occ. eigenvalues --   -0.38685  -0.38106  -0.37537  -0.37363  -0.37112
 Alpha  occ. eigenvalues --   -0.35858  -0.35479  -0.35284  -0.35095  -0.34666
 Alpha  occ. eigenvalues --   -0.34157  -0.33595  -0.32926  -0.32509  -0.30321
 Alpha  occ. eigenvalues --   -0.29924  -0.28848  -0.28251  -0.27494  -0.26983
 Alpha  occ. eigenvalues --   -0.26378  -0.25958  -0.25031  -0.23344  -0.21701
 Alpha virt. eigenvalues --   -0.04487  -0.03952  -0.02936  -0.02392   0.03856
 Alpha virt. eigenvalues --    0.04863   0.05767   0.06227   0.07544   0.07701
 Alpha virt. eigenvalues --    0.08020   0.09936   0.10968   0.11407   0.11573
 Alpha virt. eigenvalues --    0.12338   0.12477   0.12854   0.13401   0.13605
 Alpha virt. eigenvalues --    0.14041   0.14506   0.15045   0.15434   0.15554
 Alpha virt. eigenvalues --    0.16077   0.16354   0.16980   0.17237   0.17437
 Alpha virt. eigenvalues --    0.17793   0.17934   0.18215   0.18553   0.19211
 Alpha virt. eigenvalues --    0.20250   0.20550   0.20884   0.21048   0.21643
 Alpha virt. eigenvalues --    0.22441   0.23081   0.23840   0.24364   0.24688
 Alpha virt. eigenvalues --    0.25757   0.26140   0.26470   0.27333   0.27775
 Alpha virt. eigenvalues --    0.28961   0.29770   0.30610   0.31002   0.32461
 Alpha virt. eigenvalues --    0.33406   0.33479   0.34163   0.36159   0.38083
 Alpha virt. eigenvalues --    0.39308   0.39995   0.40817   0.41300   0.43534
 Alpha virt. eigenvalues --    0.43923   0.45509   0.47199   0.48442   0.49717
 Alpha virt. eigenvalues --    0.50065   0.50655   0.51259   0.51446   0.51857
 Alpha virt. eigenvalues --    0.52085   0.53105   0.53510   0.54051   0.55009
 Alpha virt. eigenvalues --    0.55383   0.55551   0.56000   0.56714   0.57114
 Alpha virt. eigenvalues --    0.57259   0.57782   0.58230   0.58658   0.59273
 Alpha virt. eigenvalues --    0.59977   0.60112   0.60512   0.61296   0.61756
 Alpha virt. eigenvalues --    0.62265   0.62776   0.63353   0.63673   0.64009
 Alpha virt. eigenvalues --    0.64830   0.64943   0.65800   0.66389   0.66571
 Alpha virt. eigenvalues --    0.67655   0.68009   0.69437   0.69744   0.70594
 Alpha virt. eigenvalues --    0.71177   0.71719   0.72214   0.72338   0.73433
 Alpha virt. eigenvalues --    0.73812   0.74241   0.74637   0.75052   0.75597
 Alpha virt. eigenvalues --    0.76071   0.76303   0.77433   0.77981   0.78910
 Alpha virt. eigenvalues --    0.79614   0.80246   0.81136   0.82186   0.82707
 Alpha virt. eigenvalues --    0.82873   0.83884   0.83953   0.84258   0.84741
 Alpha virt. eigenvalues --    0.84914   0.85193   0.86062   0.86725   0.87091
 Alpha virt. eigenvalues --    0.88057   0.88796   0.88895   0.89517   0.90819
 Alpha virt. eigenvalues --    0.90913   0.91392   0.91537   0.92637   0.93088
 Alpha virt. eigenvalues --    0.93221   0.94117   0.94709   0.95342   0.95375
 Alpha virt. eigenvalues --    0.96026   0.96522   0.96719   0.97209   0.98133
 Alpha virt. eigenvalues --    0.98900   0.99491   0.99758   1.00203   1.00479
 Alpha virt. eigenvalues --    1.01082   1.01674   1.01886   1.02671   1.03764
 Alpha virt. eigenvalues --    1.04009   1.04350   1.05789   1.07483   1.07787
 Alpha virt. eigenvalues --    1.08801   1.09208   1.09777   1.10423   1.10846
 Alpha virt. eigenvalues --    1.11908   1.12200   1.14483   1.15105   1.17275
 Alpha virt. eigenvalues --    1.18061   1.19010   1.20375   1.21265   1.21570
 Alpha virt. eigenvalues --    1.22364   1.22902   1.23989   1.24473   1.25496
 Alpha virt. eigenvalues --    1.26135   1.27082   1.28020   1.28082   1.29134
 Alpha virt. eigenvalues --    1.30043   1.31187   1.33464   1.34168   1.34451
 Alpha virt. eigenvalues --    1.34650   1.36406   1.36839   1.37269   1.37567
 Alpha virt. eigenvalues --    1.38570   1.38650   1.39125   1.40242   1.41096
 Alpha virt. eigenvalues --    1.42460   1.43121   1.43428   1.43622   1.44062
 Alpha virt. eigenvalues --    1.45224   1.45623   1.46121   1.49331   1.50936
 Alpha virt. eigenvalues --    1.51741   1.52868   1.56093   1.56761   1.58834
 Alpha virt. eigenvalues --    1.60645   1.61144   1.61847   1.63757   1.64387
 Alpha virt. eigenvalues --    1.66277   1.66955   1.67636   1.69023   1.69377
 Alpha virt. eigenvalues --    1.70222   1.70586   1.70951   1.70991   1.71778
 Alpha virt. eigenvalues --    1.72088   1.73073   1.73709   1.74039   1.74543
 Alpha virt. eigenvalues --    1.74640   1.75906   1.76036   1.76600   1.77266
 Alpha virt. eigenvalues --    1.77987   1.78840   1.79274   1.80536   1.80779
 Alpha virt. eigenvalues --    1.81000   1.81885   1.82025   1.82898   1.84211
 Alpha virt. eigenvalues --    1.84221   1.85361   1.85870   1.85976   1.86381
 Alpha virt. eigenvalues --    1.87526   1.87929   1.88737   1.89042   1.89701
 Alpha virt. eigenvalues --    1.90210   1.91467   1.91770   1.91815   1.92840
 Alpha virt. eigenvalues --    1.93707   1.95016   1.95545   1.96201   1.96385
 Alpha virt. eigenvalues --    1.97298   1.98156   1.98634   1.99493   1.99902
 Alpha virt. eigenvalues --    2.00697   2.00977   2.02237   2.03154   2.04113
 Alpha virt. eigenvalues --    2.04558   2.04905   2.05391   2.06194   2.06725
 Alpha virt. eigenvalues --    2.08595   2.09173   2.09827   2.10781   2.11868
 Alpha virt. eigenvalues --    2.12206   2.12500   2.14244   2.16034   2.16869
 Alpha virt. eigenvalues --    2.19255   2.20809   2.21061   2.21775   2.22961
 Alpha virt. eigenvalues --    2.24423   2.25105   2.26493   2.27083   2.27573
 Alpha virt. eigenvalues --    2.28273   2.28814   2.29668   2.30208   2.30553
 Alpha virt. eigenvalues --    2.31355   2.31865   2.32799   2.33998   2.34709
 Alpha virt. eigenvalues --    2.35081   2.36124   2.38426   2.39067   2.39308
 Alpha virt. eigenvalues --    2.39808   2.40317   2.42114   2.42703   2.43287
 Alpha virt. eigenvalues --    2.43540   2.44431   2.46132   2.47296   2.47519
 Alpha virt. eigenvalues --    2.48554   2.49566   2.52336   2.53524   2.54710
 Alpha virt. eigenvalues --    2.55321   2.55471   2.55905   2.56656   2.57525
 Alpha virt. eigenvalues --    2.58483   2.61249   2.63090   2.64044   2.64633
 Alpha virt. eigenvalues --    2.67130   2.67306   2.68208   2.69296   2.69974
 Alpha virt. eigenvalues --    2.70851   2.72136   2.74019   2.75086   2.77067
 Alpha virt. eigenvalues --    2.77505   2.78181   2.78583   2.79891   2.81369
 Alpha virt. eigenvalues --    2.83128   2.83764   2.86955   2.87303   2.90645
 Alpha virt. eigenvalues --    2.91743   2.93611   2.96302   2.96766   2.96852
 Alpha virt. eigenvalues --    2.99116   3.01474   3.03148   3.05382   3.06704
 Alpha virt. eigenvalues --    3.07718   3.11597   3.13127   3.16897   3.18035
 Alpha virt. eigenvalues --    3.23393   3.24161   3.44151   3.50500   3.81403
 Alpha virt. eigenvalues --    3.84754   3.95888   3.96561   3.99353   4.00099
 Alpha virt. eigenvalues --    4.06361   4.09349   4.09825   4.15737   4.17323
 Alpha virt. eigenvalues --    4.18648   4.21368   4.22024   4.25031   4.25827
 Alpha virt. eigenvalues --    4.26129   4.32334   4.33623   4.35017   4.37606
 Alpha virt. eigenvalues --    4.39852   4.48361   4.49960   4.52035   4.53561
 Alpha virt. eigenvalues --    4.55088   4.55544   4.59651   4.65880   4.71273
 Alpha virt. eigenvalues --    4.74529   4.79415   4.87927
          Condensed to atoms (all electrons):
 Mulliken atomic charges:
              1
     1  C    0.112709
     2  C    0.302222
     3  C   -0.273216
     4  C    0.147229
     5  C   -0.056417
     6  C    0.241808
     7  C    0.054796
     8  C    0.288066
     9  O   -0.499759
    10  C    0.602266
    11  C   -0.376477
    12  C    0.238216
    13  C   -0.302675
    14  C   -0.339490
    15  C   -0.585821
    16  O   -0.659772
    17  O   -0.639622
    18  O   -0.536686
    19  O   -0.538583
    20  C    0.089070
    21  C    0.129552
    22  C    0.112932
    23  C   -0.157301
    24  C    0.052971
    25  C   -0.352650
    26  O   -0.694156
    27  O   -0.645213
    28  C    0.603230
    29  O   -0.466141
    30  O   -0.491619
    31  C   -0.215472
    32  C    0.598308
    33  O   -0.566154
    34  O   -0.477751
    35  H    0.137607
    36  H    0.190996
    37  H    0.167159
    38  H    0.166589
    39  H    0.167262
    40  H    0.193458
    41  H    0.174975
    42  H    0.163008
    43  H    0.209636
    44  H    0.159660
    45  H    0.449448
    46  H    0.422077
    47  H    0.131279
    48  H    0.130019
    49  H    0.133824
    50  H    0.175841
    51  H    0.176227
    52  H    0.176966
    53  H    0.438003
    54  H    0.411603
    55  H    0.164540
    56  H    0.171679
    57  H    0.168286
    58  H    0.421457
 Sum of Mulliken atomic charges =   0.00000
 Mulliken charges with hydrogens summed into heavy atoms:
              1
     1  C    0.112709
     2  C    0.302222
     3  C   -0.135609
     4  C    0.147229
     5  C   -0.056417
     6  C    0.241808
     7  C    0.054796
     8  C    0.288066
     9  O   -0.499759
    10  C    0.602266
    11  C   -0.018322
    12  C    0.238216
    13  C    0.031176
    14  C    0.028944
    15  C   -0.053518
    16  O   -0.210324
    17  O   -0.217546
    18  O   -0.536686
    19  O   -0.538583
    20  C    0.220349
    21  C    0.259571
    22  C    0.246756
    23  C    0.018540
    24  C    0.052971
    25  C    0.000543
    26  O   -0.256153
    27  O   -0.233610
    28  C    0.603230
    29  O   -0.466141
    30  O   -0.491619
    31  C    0.289033
    32  C    0.598308
    33  O   -0.144697
    34  O   -0.477751
 Sum of Mulliken charges with hydrogens summed into heavy atoms =   0.00000
 Electronic spatial extent (au):  <R**2>=          16067.9969
 Charge=              0.0000 electrons
 Dipole moment (field-independent basis, Debye):
    X=             -0.8157    Y=             -2.0153    Z=              4.7267  Tot=              5.2027
 Quadrupole moment (field-independent basis, Debye-Ang):
   XX=           -214.5696   YY=           -166.2512   ZZ=           -193.3223
   XY=            -13.3883   XZ=            -13.1834   YZ=             -1.1294
 Traceless Quadrupole moment (field-independent basis, Debye-Ang):
   XX=            -23.1886   YY=             25.1299   ZZ=             -1.9413
   XY=            -13.3883   XZ=            -13.1834   YZ=             -1.1294
 Octapole moment (field-independent basis, Debye-Ang**2):
  XXX=            -98.9829  YYY=             23.9464  ZZZ=             41.6829  XYY=             20.5925
  XXY=              9.2912  XXZ=            103.6317  XZZ=             35.3079  YZZ=             -5.5924
  YYZ=             24.8566  XYZ=            -23.3989
 Hexadecapole moment (field-independent basis, Debye-Ang**3):
 XXXX=         -11766.3813 YYYY=          -5437.7554 ZZZZ=          -2269.1380 XXXY=           -354.9389
 XXXZ=           -355.4516 YYYX=           -216.3043 YYYZ=           -189.4457 ZZZX=            -88.7390
 ZZZY=            -99.1827 XXYY=          -3082.1797 XXZZ=          -2200.2094 YYZZ=          -1314.7710
 XXYZ=             84.2482 YYXZ=             62.5737 ZZXY=           -190.3253
 N-N= 3.787940048349D+03 E-N=-1.158983112317D+04  KE= 1.703110142565D+03
 1\1\GINC-B0802\FOpt\RB3LYP\6-31G(d)\C23H24O11\CAOFEI\02-Feb-2021\0\\# 
 opt b3lyp/6-31g(d) geom=connectivity\\Title Card Required\\0,1\C,4.168
 6957402,-1.6263483492,-1.3963738667\C,3.7514320769,-0.2855900931,-1.43
 21257383\C,2.4137704853,0.0887233637,-1.6038119803\C,1.4347678149,-0.8
 928704404,-1.7439571975\C,1.8198098624,-2.2612149032,-1.7199200322\C,3
 .1866456997,-2.6164008136,-1.5428110787\C,0.0217583552,-0.590251662,-1
 .9228573804\C,-0.8486606156,-1.60961867,-2.0880485164\O,-0.4678857677,
 -2.9256688738,-2.0656613782\C,0.8386000895,-3.3071187154,-1.8757644125
 \C,-0.4562692019,0.8464112778,-1.9427898743\C,-1.9879744787,0.99312399
 36,-1.8005918156\C,-2.6920043179,-0.0382841437,-2.716643195\C,-2.32397
 18442,-1.4655260644,-2.3024897907\C,5.6211432622,-1.9882822827,-1.2055
 015954\O,3.5725105092,-3.9021248174,-1.5143766119\O,4.6447015943,0.732
 559764,-1.3022537967\O,1.0639460147,-4.5161888855,-1.8661233205\O,-2.4
 891330324,0.7169326136,-0.5027692644\C,-1.915556726,1.3335779136,0.669
 9938825\C,-3.0808290378,1.7295394451,1.5822374566\C,-2.5525107374,2.39
 14819501,2.8586501656\C,-1.4877316703,1.5694705952,3.5190267434\C,-0.7
 61452895,0.6630085814,2.8480337152\C,-0.9893950672,0.3354580868,1.3859
 24748\O,-3.9765643633,2.6585110017,1.0061937916\O,-3.6073080414,2.6153
 546644,3.7838719792\C,0.3173822712,-0.1252756669,3.5048398932\O,0.4774
 390081,0.1688536917,4.8157930898\O,0.9914067118,-0.9560604378,2.924406
 6296\C,1.49922994,-0.5798455971,5.4896744301\C,-2.4727717114,2.3848086
 696,-2.2495535944\O,-1.8796553138,2.8087647945,-3.3851396256\O,-3.3473
 397605,3.0273434344,-1.7060757356\H,2.180881097,1.1461127036,-1.627590
 5959\H,-0.1427837776,1.3289440059,-2.87514135\H,0.032532794,1.41083115
 79,-1.141209171\H,-2.387888521,0.1505907651,-3.7518243665\H,-3.7750771
 093,0.1056181998,-2.6499233867\H,-2.8520624034,-1.7412438704,-1.381566
 2173\H,-2.6425971893,-2.1770217142,-3.0733379581\H,6.0143038286,-1.618
 5381836,-0.247352456\H,5.7430386831,-3.0720399204,-1.2094776281\H,6.25
 55342464,-1.5840745924,-2.0078187414\H,2.7536149646,-4.4548764891,-1.6
 262097106\H,5.5343544498,0.3661168398,-1.1792864968\H,-1.3711999014,2.
 2449141007,0.3853933513\H,-3.6125903175,0.8072708058,1.8705833211\H,-2
 .1128613141,3.3619198949,2.5596986199\H,-1.3074594272,1.7567601457,4.5
 729345931\H,-0.023820069,0.2537128307,0.8776763807\H,-1.4422886531,-0.
 6617333854,1.3070354403\H,-3.9739837794,2.5460093165,0.0366255648\H,-4
 .3001927116,3.0704735718,3.2751279643\H,1.4903287196,-0.2230660395,6.5
 201213369\H,1.2810347579,-1.650565591,5.4516948333\H,2.4749632749,-0.4
 016559742,5.0293379925\H,-2.3020065151,3.6582880068,-3.6184980233\\Ver
 sion=EM64L-G09RevB.01\State=1-A\HF=-1718.3759589\RMSD=7.740e-09\RMSF=4
 .115e-06\Dipole=0.887174,1.4593573,-1.1282919\Quadrupole=6.4399546,-13
 .574209,7.1342544,5.9410489,13.8072563,-12.4816708\PG=C01 [X(C23H24O11
 )]\\@


 WE ARE REACHING THE STAGE WHERE THE PROBLEMS WE MUST SOLVE ARE 
 GOING TO BECOME INSOLUBLE WITHOUT COMPUTERS.
 I DO NOT FEAR COMPUTERS.  I FEAR THE LACK OF THEM.

                                   -- ISSAC ASIMOV
 Job cpu time:  0 days  4 hours 43 minutes 32.2 seconds.
 File lengths (MBytes):  RWF=    201 Int=      0 D2E=      0 Chk=     21 Scr=      1
 Normal termination of Gaussian 09 at Tue Feb  2 11:52:13 2021.
