 Entering Gaussian System, Link 0=g09
 Initial command:
 /public/software/g09/g09/l1.exe /tmp/Gau-25713.inp -scrdir=/tmp/
 Entering Link 1 = /public/software/g09/g09/l1.exe PID=     25714.
  
 Copyright (c) 1988,1990,1992,1993,1995,1998,2003,2009,2010,
            Gaussian, Inc.  All Rights Reserved.
  
 This is part of the Gaussian(R) 09 program.  It is based on
 the Gaussian(R) 03 system (copyright 2003, Gaussian, Inc.),
 the Gaussian(R) 98 system (copyright 1998, Gaussian, Inc.),
 the Gaussian(R) 94 system (copyright 1995, Gaussian, Inc.),
 the Gaussian 92(TM) system (copyright 1992, Gaussian, Inc.),
 the Gaussian 90(TM) system (copyright 1990, Gaussian, Inc.),
 the Gaussian 88(TM) system (copyright 1988, Gaussian, Inc.),
 the Gaussian 86(TM) system (copyright 1986, Carnegie Mellon
 University), and the Gaussian 82(TM) system (copyright 1983,
 Carnegie Mellon University). Gaussian is a federally registered
 trademark of Gaussian, Inc.
  
 This software contains proprietary and confidential information,
 including trade secrets, belonging to Gaussian, Inc.
  
 This software is provided under written license and may be
 used, copied, transmitted, or stored only in accord with that
 written license.
  
 The following legend is applicable only to US Government
 contracts under FAR:
  
                    RESTRICTED RIGHTS LEGEND
  
 Use, reproduction and disclosure by the US Government is
 subject to restrictions as set forth in subparagraphs (a)
 and (c) of the Commercial Computer Software - Restricted
 Rights clause in FAR 52.227-19.
  
 Gaussian, Inc.
 340 Quinnipiac St., Bldg. 40, Wallingford CT 06492
  
  
 ---------------------------------------------------------------
 Warning -- This program may not be used in any manner that
 competes with the business of Gaussian, Inc. or will provide
 assistance to any competitor of Gaussian, Inc.  The licensee
 of this program is prohibited from giving any competitor of
 Gaussian, Inc. access to this program.  By using this program,
 the user acknowledges that Gaussian, Inc. is engaged in the
 business of creating and licensing software in the field of
 computational chemistry and represents and warrants to the
 licensee that it is not a competitor of Gaussian, Inc. and that
 it will not use this program in any manner prohibited above.
 ---------------------------------------------------------------
  

 Cite this work as:
 Gaussian 09, Revision B.01,
 M. J. Frisch, G. W. Trucks, H. B. Schlegel, G. E. Scuseria, 
 M. A. Robb, J. R. Cheeseman, G. Scalmani, V. Barone, B. Mennucci, 
 G. A. Petersson, H. Nakatsuji, M. Caricato, X. Li, H. P. Hratchian, 
 A. F. Izmaylov, J. Bloino, G. Zheng, J. L. Sonnenberg, M. Hada, 
 M. Ehara, K. Toyota, R. Fukuda, J. Hasegawa, M. Ishida, T. Nakajima, 
 Y. Honda, O. Kitao, H. Nakai, T. Vreven, J. A. Montgomery, Jr., 
 J. E. Peralta, F. Ogliaro, M. Bearpark, J. J. Heyd, E. Brothers, 
 K. N. Kudin, V. N. Staroverov, T. Keith, R. Kobayashi, J. Normand, 
 K. Raghavachari, A. Rendell, J. C. Burant, S. S. Iyengar, J. Tomasi, 
 M. Cossi, N. Rega, J. M. Millam, M. Klene, J. E. Knox, J. B. Cross, 
 V. Bakken, C. Adamo, J. Jaramillo, R. Gomperts, R. E. Stratmann, 
 O. Yazyev, A. J. Austin, R. Cammi, C. Pomelli, J. W. Ochterski, 
 R. L. Martin, K. Morokuma, V. G. Zakrzewski, G. A. Voth, 
 P. Salvador, J. J. Dannenberg, S. Dapprich, A. D. Daniels, 
 O. Farkas, J. B. Foresman, J. V. Ortiz, J. Cioslowski, 
 and D. J. Fox, Gaussian, Inc., Wallingford CT, 2010.
 
 ******************************************
 Gaussian 09:  EM64L-G09RevB.01 12-Aug-2010
                24-Mar-2021 
 ******************************************
 %mem=600MW
 %nprocshared=10
 Will use up to   10 processors via shared memory.
 ---------------------------------------
 # opt rb3lyp/6-31g(d) geom=connectivity
 ---------------------------------------
 1/14=-1,18=20,19=15,26=3,38=1,57=2/1,3;
 2/9=110,12=2,17=6,18=5,40=1/2;
 3/5=1,6=6,7=1,11=2,16=1,25=1,30=1,71=1,74=-5,116=1/1,2,3;
 4//1;
 5/5=2,38=5/2;
 6/7=2,8=2,9=2,10=2,28=1/1;
 7//1,2,3,16;
 1/14=-1,18=20,19=15/3(2);
 2/9=110/2;
 99//99;
 2/9=110/2;
 3/5=1,6=6,7=1,11=2,16=1,25=1,30=1,71=1,74=-5,116=1/1,2,3;
 4/5=5,16=3/1;
 5/5=2,38=5/2;
 7//1,2,3,16;
 1/14=-1,18=20,19=15/3(-5);
 2/9=110/2;
 6/7=2,8=2,9=2,10=2,19=2,28=1/1;
 99/9=1/99;
 -------------------
 Title Card Required
 -------------------
 Symbolic Z-matrix:
 Charge =  0 Multiplicity = 1
 C                     0.        0.        0. 
 C                     1.3417    0.        0. 
 C                     2.1324    1.2887    0. 
 C                     1.3313    2.5809   -0.3376 
 C                    -0.154     2.4371   -0.7038 
 C                    -0.8244    1.2475    0.016 
 C                     2.1587    3.2811   -1.4335 
 C                     1.8205    2.8918   -2.8319 
 C                     0.6161    2.4481   -3.2056 
 C                    -0.4679    2.3355   -2.205 
 C                     0.4121    2.0538   -4.6199 
 O                    -0.0347    2.8668   -5.4269 
 C                     0.776     0.617    -4.9963 
 C                    -0.331    -0.3732   -4.6045 
 C                     1.1555    0.5273   -6.4738 
 O                    -1.6226    2.141    -2.5895 
 C                     3.5681    2.7353   -1.3592 
 C                     4.0938    2.9613   -2.7931 
 O                     2.939     2.8241   -3.6608 
 C                     3.3203    1.2669   -0.9788 
 O                     2.1193    4.6926   -1.3209 
 C                    -0.7302    3.7569   -0.1896 
 C                     0.0725    4.0104    1.0813 
 O                     1.3771    3.4456    0.8393 
 C                     0.2433    5.4352    1.5574 
 C                     1.1274    5.6029    2.7674 
 C                    -0.35      6.5085    1.0072 
 C                     4.6826    4.3659   -2.9988 
 C                     5.1443    1.933    -3.2272 
 H                     4.188     3.2349   -0.6058 
 H                     2.5522    1.3959    1.0111 
 C                     2.1122   -1.2896    0.103 
 H                    -0.5468   -0.9397    0.055 
 H                    -1.0416    1.4773    1.0659 
 H                    -1.7977    1.0193   -0.4356 
 H                     1.6756    0.3496   -4.4257 
 H                     0.0251   -1.3949   -4.7864 
 H                    -0.5224   -0.3044   -3.5273 
 H                     1.4348   -0.4964   -6.7432 
 H                     2.0111    1.1776   -6.6881 
 H                     0.3384    0.8444   -7.1299 
 H                     4.2129    0.826    -0.5207 
 H                     3.0732    0.656    -1.8557 
 H                     2.1616    4.8917   -0.3642 
 H                    -1.8078    3.7188    0.0055 
 H                    -0.567     4.5441   -0.9358 
 H                    -0.3678    3.4377    1.907 
 H                     0.7647    4.9804    3.5919 
 H                     2.1569    5.3114    2.5358 
 H                     1.1504    6.6387    3.1227 
 H                    -1.0119    6.441     0.1507 
 H                    -0.1922    7.5067    1.4064 
 H                     3.9416    5.1566   -2.8557 
 H                     5.0396    4.4864   -4.0286 
 H                     5.5228    4.5476   -2.3209 
 H                     6.0004    1.9249   -2.5449 
 H                     5.5105    2.1559   -4.2364 
 H                     4.7298    0.9219   -3.2881 
 H                     1.4533   -2.1512    0.255 
 H                     2.6873   -1.4732   -0.8095 
 H                     2.8032   -1.2513    0.9515 
 C                    -1.6502   -0.1849   -5.3419 
 H                    -1.5376   -0.3569   -6.4162 
 H                    -2.056     0.8196   -5.1916 
 H                    -2.3895   -0.9018   -4.9699 
 

 GradGradGradGradGradGradGradGradGradGradGradGradGradGradGradGradGradGrad
 Berny optimization.
 Initialization pass.
                           ----------------------------
                           !    Initial Parameters    !
                           ! (Angstroms and Degrees)  !
 --------------------------                            --------------------------
 ! Name  Definition              Value          Derivative Info.                !
 --------------------------------------------------------------------------------
 ! R1    R(1,2)                  1.3417         estimate D2E/DX2                !
 ! R2    R(1,6)                  1.4954         estimate D2E/DX2                !
 ! R3    R(1,33)                 1.0886         estimate D2E/DX2                !
 ! R4    R(2,3)                  1.5119         estimate D2E/DX2                !
 ! R5    R(2,32)                 1.5058         estimate D2E/DX2                !
 ! R6    R(3,4)                  1.5574         estimate D2E/DX2                !
 ! R7    R(3,20)                 1.5394         estimate D2E/DX2                !
 ! R8    R(3,31)                 1.1            estimate D2E/DX2                !
 ! R9    R(4,5)                  1.5365         estimate D2E/DX2                !
 ! R10   R(4,7)                  1.5414         estimate D2E/DX2                !
 ! R11   R(4,24)                 1.4611         estimate D2E/DX2                !
 ! R12   R(5,6)                  1.5436         estimate D2E/DX2                !
 ! R13   R(5,10)                 1.537          estimate D2E/DX2                !
 ! R14   R(5,22)                 1.5291         estimate D2E/DX2                !
 ! R15   R(6,34)                 1.0965         estimate D2E/DX2                !
 ! R16   R(6,35)                 1.097          estimate D2E/DX2                !
 ! R17   R(7,8)                  1.4905         estimate D2E/DX2                !
 ! R18   R(7,17)                 1.5132         estimate D2E/DX2                !
 ! R19   R(7,21)                 1.4165         estimate D2E/DX2                !
 ! R20   R(8,9)                  1.3368         estimate D2E/DX2                !
 ! R21   R(8,19)                 1.3938         estimate D2E/DX2                !
 ! R22   R(9,10)                 1.4795         estimate D2E/DX2                !
 ! R23   R(9,11)                 1.4823         estimate D2E/DX2                !
 ! R24   R(10,16)                1.2325         estimate D2E/DX2                !
 ! R25   R(11,12)                1.2296         estimate D2E/DX2                !
 ! R26   R(11,13)                1.5292         estimate D2E/DX2                !
 ! R27   R(13,14)                1.5361         estimate D2E/DX2                !
 ! R28   R(13,15)                1.5281         estimate D2E/DX2                !
 ! R29   R(13,36)                1.0983         estimate D2E/DX2                !
 ! R30   R(14,37)                1.0972         estimate D2E/DX2                !
 ! R31   R(14,38)                1.0962         estimate D2E/DX2                !
 ! R32   R(14,62)                1.523          estimate D2E/DX2                !
 ! R33   R(15,39)                1.0948         estimate D2E/DX2                !
 ! R34   R(15,40)                1.0958         estimate D2E/DX2                !
 ! R35   R(15,41)                1.0948         estimate D2E/DX2                !
 ! R36   R(17,18)                1.5439         estimate D2E/DX2                !
 ! R37   R(17,20)                1.537          estimate D2E/DX2                !
 ! R38   R(17,30)                1.0961         estimate D2E/DX2                !
 ! R39   R(18,19)                1.451          estimate D2E/DX2                !
 ! R40   R(18,28)                1.5368         estimate D2E/DX2                !
 ! R41   R(18,29)                1.5328         estimate D2E/DX2                !
 ! R42   R(20,42)                1.0959         estimate D2E/DX2                !
 ! R43   R(20,43)                1.0969         estimate D2E/DX2                !
 ! R44   R(21,44)                0.9781         estimate D2E/DX2                !
 ! R45   R(22,23)                1.5244         estimate D2E/DX2                !
 ! R46   R(22,45)                1.0958         estimate D2E/DX2                !
 ! R47   R(22,46)                1.0969         estimate D2E/DX2                !
 ! R48   R(23,24)                1.4421         estimate D2E/DX2                !
 ! R49   R(23,25)                1.5119         estimate D2E/DX2                !
 ! R50   R(23,47)                1.0971         estimate D2E/DX2                !
 ! R51   R(25,26)                1.5079         estimate D2E/DX2                !
 ! R52   R(25,27)                1.3441         estimate D2E/DX2                !
 ! R53   R(26,48)                1.0949         estimate D2E/DX2                !
 ! R54   R(26,49)                1.0948         estimate D2E/DX2                !
 ! R55   R(26,50)                1.0953         estimate D2E/DX2                !
 ! R56   R(27,51)                1.0846         estimate D2E/DX2                !
 ! R57   R(27,52)                1.0866         estimate D2E/DX2                !
 ! R58   R(28,53)                1.0931         estimate D2E/DX2                !
 ! R59   R(28,54)                1.0966         estimate D2E/DX2                !
 ! R60   R(28,55)                1.0948         estimate D2E/DX2                !
 ! R61   R(29,56)                1.0948         estimate D2E/DX2                !
 ! R62   R(29,57)                1.0965         estimate D2E/DX2                !
 ! R63   R(29,58)                1.0945         estimate D2E/DX2                !
 ! R64   R(32,59)                1.0953         estimate D2E/DX2                !
 ! R65   R(32,60)                1.0941         estimate D2E/DX2                !
 ! R66   R(32,61)                1.0949         estimate D2E/DX2                !
 ! R67   R(62,63)                1.0938         estimate D2E/DX2                !
 ! R68   R(62,64)                1.0937         estimate D2E/DX2                !
 ! R69   R(62,65)                1.0949         estimate D2E/DX2                !
 ! A1    A(2,1,6)              123.4562         estimate D2E/DX2                !
 ! A2    A(2,1,33)             120.152          estimate D2E/DX2                !
 ! A3    A(6,1,33)             116.2746         estimate D2E/DX2                !
 ! A4    A(1,2,3)              121.5318         estimate D2E/DX2                !
 ! A5    A(1,2,32)             120.777          estimate D2E/DX2                !
 ! A6    A(3,2,32)             117.5409         estimate D2E/DX2                !
 ! A7    A(2,3,4)              115.989          estimate D2E/DX2                !
 ! A8    A(2,3,20)             113.0477         estimate D2E/DX2                !
 ! A9    A(2,3,31)             106.4181         estimate D2E/DX2                !
 ! A10   A(4,3,20)             105.7152         estimate D2E/DX2                !
 ! A11   A(4,3,31)             108.3423         estimate D2E/DX2                !
 ! A12   A(20,3,31)            106.9377         estimate D2E/DX2                !
 ! A13   A(3,4,5)              118.1152         estimate D2E/DX2                !
 ! A14   A(3,4,7)              104.7687         estimate D2E/DX2                !
 ! A15   A(3,4,24)             107.4756         estimate D2E/DX2                !
 ! A16   A(5,4,7)              113.0765         estimate D2E/DX2                !
 ! A17   A(5,4,24)             106.1203         estimate D2E/DX2                !
 ! A18   A(7,4,24)             106.6794         estimate D2E/DX2                !
 ! A19   A(4,5,6)              112.3845         estimate D2E/DX2                !
 ! A20   A(4,5,10)             115.873          estimate D2E/DX2                !
 ! A21   A(4,5,22)             101.7319         estimate D2E/DX2                !
 ! A22   A(6,5,10)             108.4093         estimate D2E/DX2                !
 ! A23   A(6,5,22)             110.1636         estimate D2E/DX2                !
 ! A24   A(10,5,22)            107.9704         estimate D2E/DX2                !
 ! A25   A(1,6,5)              113.4842         estimate D2E/DX2                !
 ! A26   A(1,6,34)             107.115          estimate D2E/DX2                !
 ! A27   A(1,6,35)             108.1315         estimate D2E/DX2                !
 ! A28   A(5,6,34)             111.7784         estimate D2E/DX2                !
 ! A29   A(5,6,35)             110.7136         estimate D2E/DX2                !
 ! A30   A(34,6,35)            105.1908         estimate D2E/DX2                !
 ! A31   A(4,7,8)              115.253          estimate D2E/DX2                !
 ! A32   A(4,7,17)             107.5299         estimate D2E/DX2                !
 ! A33   A(4,7,21)             112.4084         estimate D2E/DX2                !
 ! A34   A(8,7,17)              99.3927         estimate D2E/DX2                !
 ! A35   A(8,7,21)             109.18           estimate D2E/DX2                !
 ! A36   A(17,7,21)            112.4211         estimate D2E/DX2                !
 ! A37   A(7,8,9)              123.6008         estimate D2E/DX2                !
 ! A38   A(7,8,19)             112.8654         estimate D2E/DX2                !
 ! A39   A(9,8,19)             122.7258         estimate D2E/DX2                !
 ! A40   A(8,9,10)             119.7557         estimate D2E/DX2                !
 ! A41   A(8,9,11)             118.6192         estimate D2E/DX2                !
 ! A42   A(10,9,11)            121.6137         estimate D2E/DX2                !
 ! A43   A(5,10,9)             120.3898         estimate D2E/DX2                !
 ! A44   A(5,10,16)            120.429          estimate D2E/DX2                !
 ! A45   A(9,10,16)            119.1738         estimate D2E/DX2                !
 ! A46   A(9,11,12)            120.0217         estimate D2E/DX2                !
 ! A47   A(9,11,13)            116.8731         estimate D2E/DX2                !
 ! A48   A(12,11,13)           123.1047         estimate D2E/DX2                !
 ! A49   A(11,13,14)           111.8022         estimate D2E/DX2                !
 ! A50   A(11,13,15)           110.6245         estimate D2E/DX2                !
 ! A51   A(11,13,36)           107.2042         estimate D2E/DX2                !
 ! A52   A(14,13,15)           112.8154         estimate D2E/DX2                !
 ! A53   A(14,13,36)           107.5068         estimate D2E/DX2                !
 ! A54   A(15,13,36)           106.5353         estimate D2E/DX2                !
 ! A55   A(13,14,37)           108.9115         estimate D2E/DX2                !
 ! A56   A(13,14,38)           109.6341         estimate D2E/DX2                !
 ! A57   A(13,14,62)           114.9005         estimate D2E/DX2                !
 ! A58   A(37,14,38)           106.1424         estimate D2E/DX2                !
 ! A59   A(37,14,62)           108.421          estimate D2E/DX2                !
 ! A60   A(38,14,62)           108.4682         estimate D2E/DX2                !
 ! A61   A(13,15,39)           110.8656         estimate D2E/DX2                !
 ! A62   A(13,15,40)           110.3743         estimate D2E/DX2                !
 ! A63   A(13,15,41)           112.1527         estimate D2E/DX2                !
 ! A64   A(39,15,40)           107.9137         estimate D2E/DX2                !
 ! A65   A(39,15,41)           108.2861         estimate D2E/DX2                !
 ! A66   A(40,15,41)           107.0759         estimate D2E/DX2                !
 ! A67   A(7,17,18)            102.6353         estimate D2E/DX2                !
 ! A68   A(7,17,20)            101.9222         estimate D2E/DX2                !
 ! A69   A(7,17,30)            113.3339         estimate D2E/DX2                !
 ! A70   A(18,17,20)           115.1268         estimate D2E/DX2                !
 ! A71   A(18,17,30)           112.2769         estimate D2E/DX2                !
 ! A72   A(20,17,30)           110.8864         estimate D2E/DX2                !
 ! A73   A(17,18,19)           105.6985         estimate D2E/DX2                !
 ! A74   A(17,18,28)           112.8649         estimate D2E/DX2                !
 ! A75   A(17,18,29)           113.466          estimate D2E/DX2                !
 ! A76   A(19,18,28)           108.1376         estimate D2E/DX2                !
 ! A77   A(19,18,29)           108.2199         estimate D2E/DX2                !
 ! A78   A(28,18,29)           108.2198         estimate D2E/DX2                !
 ! A79   A(8,19,18)            106.1675         estimate D2E/DX2                !
 ! A80   A(3,20,17)            105.5605         estimate D2E/DX2                !
 ! A81   A(3,20,42)            111.6192         estimate D2E/DX2                !
 ! A82   A(3,20,43)            110.021          estimate D2E/DX2                !
 ! A83   A(17,20,42)           110.886          estimate D2E/DX2                !
 ! A84   A(17,20,43)           111.7489         estimate D2E/DX2                !
 ! A85   A(42,20,43)           107.073          estimate D2E/DX2                !
 ! A86   A(7,21,44)            106.2231         estimate D2E/DX2                !
 ! A87   A(5,22,23)            103.0299         estimate D2E/DX2                !
 ! A88   A(5,22,45)            113.6045         estimate D2E/DX2                !
 ! A89   A(5,22,46)            109.5481         estimate D2E/DX2                !
 ! A90   A(23,22,45)           112.0352         estimate D2E/DX2                !
 ! A91   A(23,22,46)           111.6833         estimate D2E/DX2                !
 ! A92   A(45,22,46)           107.0014         estimate D2E/DX2                !
 ! A93   A(22,23,24)           105.7437         estimate D2E/DX2                !
 ! A94   A(22,23,25)           118.6027         estimate D2E/DX2                !
 ! A95   A(22,23,47)           109.228          estimate D2E/DX2                !
 ! A96   A(24,23,25)           108.647          estimate D2E/DX2                !
 ! A97   A(24,23,47)           106.5543         estimate D2E/DX2                !
 ! A98   A(25,23,47)           107.474          estimate D2E/DX2                !
 ! A99   A(4,24,23)            109.7916         estimate D2E/DX2                !
 ! A100  A(23,25,26)           115.0696         estimate D2E/DX2                !
 ! A101  A(23,25,27)           125.0109         estimate D2E/DX2                !
 ! A102  A(26,25,27)           119.8974         estimate D2E/DX2                !
 ! A103  A(25,26,48)           110.2916         estimate D2E/DX2                !
 ! A104  A(25,26,49)           110.6088         estimate D2E/DX2                !
 ! A105  A(25,26,50)           112.1964         estimate D2E/DX2                !
 ! A106  A(48,26,49)           108.6287         estimate D2E/DX2                !
 ! A107  A(48,26,50)           107.478          estimate D2E/DX2                !
 ! A108  A(49,26,50)           107.4989         estimate D2E/DX2                !
 ! A109  A(25,27,51)           122.8846         estimate D2E/DX2                !
 ! A110  A(25,27,52)           121.2697         estimate D2E/DX2                !
 ! A111  A(51,27,52)           115.8453         estimate D2E/DX2                !
 ! A112  A(18,28,53)           112.5749         estimate D2E/DX2                !
 ! A113  A(18,28,54)           110.5398         estimate D2E/DX2                !
 ! A114  A(18,28,55)           111.2751         estimate D2E/DX2                !
 ! A115  A(53,28,54)           105.317          estimate D2E/DX2                !
 ! A116  A(53,28,55)           108.6118         estimate D2E/DX2                !
 ! A117  A(54,28,55)           108.2655         estimate D2E/DX2                !
 ! A118  A(18,29,56)           111.3708         estimate D2E/DX2                !
 ! A119  A(18,29,57)           110.6821         estimate D2E/DX2                !
 ! A120  A(18,29,58)           112.0845         estimate D2E/DX2                !
 ! A121  A(56,29,57)           108.2983         estimate D2E/DX2                !
 ! A122  A(56,29,58)           108.9054         estimate D2E/DX2                !
 ! A123  A(57,29,58)           105.2526         estimate D2E/DX2                !
 ! A124  A(2,32,59)            112.0481         estimate D2E/DX2                !
 ! A125  A(2,32,60)            110.832          estimate D2E/DX2                !
 ! A126  A(2,32,61)            110.2413         estimate D2E/DX2                !
 ! A127  A(59,32,60)           107.4544         estimate D2E/DX2                !
 ! A128  A(59,32,61)           107.4351         estimate D2E/DX2                !
 ! A129  A(60,32,61)           108.6898         estimate D2E/DX2                !
 ! A130  A(14,62,63)           111.5269         estimate D2E/DX2                !
 ! A131  A(14,62,64)           111.6162         estimate D2E/DX2                !
 ! A132  A(14,62,65)           109.8404         estimate D2E/DX2                !
 ! A133  A(63,62,64)           108.5168         estimate D2E/DX2                !
 ! A134  A(63,62,65)           107.472          estimate D2E/DX2                !
 ! A135  A(64,62,65)           107.705          estimate D2E/DX2                !
 ! D1    D(6,1,2,3)             -0.7348         estimate D2E/DX2                !
 ! D2    D(6,1,2,32)           174.6987         estimate D2E/DX2                !
 ! D3    D(33,1,2,3)          -176.6503         estimate D2E/DX2                !
 ! D4    D(33,1,2,32)           -1.2168         estimate D2E/DX2                !
 ! D5    D(2,1,6,5)             31.2759         estimate D2E/DX2                !
 ! D6    D(2,1,6,34)           -92.5766         estimate D2E/DX2                !
 ! D7    D(2,1,6,35)           154.5103         estimate D2E/DX2                !
 ! D8    D(33,1,6,5)          -152.6626         estimate D2E/DX2                !
 ! D9    D(33,1,6,34)           83.4848         estimate D2E/DX2                !
 ! D10   D(33,1,6,35)          -29.4282         estimate D2E/DX2                !
 ! D11   D(1,2,3,4)            -13.9548         estimate D2E/DX2                !
 ! D12   D(1,2,3,20)          -136.2903         estimate D2E/DX2                !
 ! D13   D(1,2,3,31)           106.6173         estimate D2E/DX2                !
 ! D14   D(32,2,3,4)           170.4697         estimate D2E/DX2                !
 ! D15   D(32,2,3,20)           48.1342         estimate D2E/DX2                !
 ! D16   D(32,2,3,31)          -68.9582         estimate D2E/DX2                !
 ! D17   D(1,2,32,59)           -4.6852         estimate D2E/DX2                !
 ! D18   D(1,2,32,60)          115.3382         estimate D2E/DX2                !
 ! D19   D(1,2,32,61)         -124.2816         estimate D2E/DX2                !
 ! D20   D(3,2,32,59)          170.9254         estimate D2E/DX2                !
 ! D21   D(3,2,32,60)          -69.0511         estimate D2E/DX2                !
 ! D22   D(3,2,32,61)           51.329          estimate D2E/DX2                !
 ! D23   D(2,3,4,5)             -2.8856         estimate D2E/DX2                !
 ! D24   D(2,3,4,7)           -129.7866         estimate D2E/DX2                !
 ! D25   D(2,3,4,24)           116.9983         estimate D2E/DX2                !
 ! D26   D(20,3,4,5)           123.2446         estimate D2E/DX2                !
 ! D27   D(20,3,4,7)            -3.6564         estimate D2E/DX2                !
 ! D28   D(20,3,4,24)         -116.8714         estimate D2E/DX2                !
 ! D29   D(31,3,4,5)          -122.4167         estimate D2E/DX2                !
 ! D30   D(31,3,4,7)           110.6823         estimate D2E/DX2                !
 ! D31   D(31,3,4,24)           -2.5327         estimate D2E/DX2                !
 ! D32   D(2,3,20,17)          153.5429         estimate D2E/DX2                !
 ! D33   D(2,3,20,42)          -85.8973         estimate D2E/DX2                !
 ! D34   D(2,3,20,43)           32.8227         estimate D2E/DX2                !
 ! D35   D(4,3,20,17)           25.6334         estimate D2E/DX2                !
 ! D36   D(4,3,20,42)          146.1932         estimate D2E/DX2                !
 ! D37   D(4,3,20,43)          -95.0868         estimate D2E/DX2                !
 ! D38   D(31,3,20,17)         -89.6709         estimate D2E/DX2                !
 ! D39   D(31,3,20,42)          30.8888         estimate D2E/DX2                !
 ! D40   D(31,3,20,43)         149.6089         estimate D2E/DX2                !
 ! D41   D(3,4,5,6)             31.337          estimate D2E/DX2                !
 ! D42   D(3,4,5,10)           -94.0667         estimate D2E/DX2                !
 ! D43   D(3,4,5,22)           149.1298         estimate D2E/DX2                !
 ! D44   D(7,4,5,6)            154.1429         estimate D2E/DX2                !
 ! D45   D(7,4,5,10)            28.7391         estimate D2E/DX2                !
 ! D46   D(7,4,5,22)           -88.0643         estimate D2E/DX2                !
 ! D47   D(24,4,5,6)           -89.249          estimate D2E/DX2                !
 ! D48   D(24,4,5,10)          145.3473         estimate D2E/DX2                !
 ! D49   D(24,4,5,22)           28.5438         estimate D2E/DX2                !
 ! D50   D(3,4,7,8)             89.6483         estimate D2E/DX2                !
 ! D51   D(3,4,7,17)           -20.1207         estimate D2E/DX2                !
 ! D52   D(3,4,7,21)          -144.3775         estimate D2E/DX2                !
 ! D53   D(5,4,7,8)            -40.2967         estimate D2E/DX2                !
 ! D54   D(5,4,7,17)          -150.0657         estimate D2E/DX2                !
 ! D55   D(5,4,7,21)            85.6774         estimate D2E/DX2                !
 ! D56   D(24,4,7,8)          -156.574          estimate D2E/DX2                !
 ! D57   D(24,4,7,17)           93.657          estimate D2E/DX2                !
 ! D58   D(24,4,7,21)          -30.5999         estimate D2E/DX2                !
 ! D59   D(3,4,24,23)         -136.6143         estimate D2E/DX2                !
 ! D60   D(5,4,24,23)           -9.3666         estimate D2E/DX2                !
 ! D61   D(7,4,24,23)          111.4652         estimate D2E/DX2                !
 ! D62   D(4,5,6,1)            -44.5797         estimate D2E/DX2                !
 ! D63   D(4,5,6,34)            76.6936         estimate D2E/DX2                !
 ! D64   D(4,5,6,35)          -166.3859         estimate D2E/DX2                !
 ! D65   D(10,5,6,1)            84.8013         estimate D2E/DX2                !
 ! D66   D(10,5,6,34)         -153.9254         estimate D2E/DX2                !
 ! D67   D(10,5,6,35)          -37.0049         estimate D2E/DX2                !
 ! D68   D(22,5,6,1)          -157.2542         estimate D2E/DX2                !
 ! D69   D(22,5,6,34)          -35.9809         estimate D2E/DX2                !
 ! D70   D(22,5,6,35)           80.9396         estimate D2E/DX2                !
 ! D71   D(4,5,10,9)            -3.1767         estimate D2E/DX2                !
 ! D72   D(4,5,10,16)          175.8264         estimate D2E/DX2                !
 ! D73   D(6,5,10,9)          -130.5854         estimate D2E/DX2                !
 ! D74   D(6,5,10,16)           48.4177         estimate D2E/DX2                !
 ! D75   D(22,5,10,9)          110.0819         estimate D2E/DX2                !
 ! D76   D(22,5,10,16)         -70.9151         estimate D2E/DX2                !
 ! D77   D(4,5,22,23)          -36.2649         estimate D2E/DX2                !
 ! D78   D(4,5,22,45)         -157.6897         estimate D2E/DX2                !
 ! D79   D(4,5,22,46)           82.7218         estimate D2E/DX2                !
 ! D80   D(6,5,22,23)           83.115          estimate D2E/DX2                !
 ! D81   D(6,5,22,45)          -38.3098         estimate D2E/DX2                !
 ! D82   D(6,5,22,46)         -157.8984         estimate D2E/DX2                !
 ! D83   D(10,5,22,23)        -158.6701         estimate D2E/DX2                !
 ! D84   D(10,5,22,45)          79.905          estimate D2E/DX2                !
 ! D85   D(10,5,22,46)         -39.6835         estimate D2E/DX2                !
 ! D86   D(4,7,8,9)             26.9125         estimate D2E/DX2                !
 ! D87   D(4,7,8,19)          -143.0227         estimate D2E/DX2                !
 ! D88   D(17,7,8,9)           141.4686         estimate D2E/DX2                !
 ! D89   D(17,7,8,19)          -28.4666         estimate D2E/DX2                !
 ! D90   D(21,7,8,9)          -100.7011         estimate D2E/DX2                !
 ! D91   D(21,7,8,19)           89.3636         estimate D2E/DX2                !
 ! D92   D(4,7,17,18)          155.0656         estimate D2E/DX2                !
 ! D93   D(4,7,17,20)           35.5877         estimate D2E/DX2                !
 ! D94   D(4,7,17,30)          -83.6157         estimate D2E/DX2                !
 ! D95   D(8,7,17,18)           34.6861         estimate D2E/DX2                !
 ! D96   D(8,7,17,20)          -84.7918         estimate D2E/DX2                !
 ! D97   D(8,7,17,30)          156.0049         estimate D2E/DX2                !
 ! D98   D(21,7,17,18)         -80.6853         estimate D2E/DX2                !
 ! D99   D(21,7,17,20)         159.8368         estimate D2E/DX2                !
 ! D100  D(21,7,17,30)          40.6335         estimate D2E/DX2                !
 ! D101  D(4,7,21,44)           39.3696         estimate D2E/DX2                !
 ! D102  D(8,7,21,44)          168.5683         estimate D2E/DX2                !
 ! D103  D(17,7,21,44)         -82.136          estimate D2E/DX2                !
 ! D104  D(7,8,9,10)             0.5502         estimate D2E/DX2                !
 ! D105  D(7,8,9,11)          -178.2363         estimate D2E/DX2                !
 ! D106  D(19,8,9,10)          169.515          estimate D2E/DX2                !
 ! D107  D(19,8,9,11)           -9.2715         estimate D2E/DX2                !
 ! D108  D(7,8,19,18)            8.7968         estimate D2E/DX2                !
 ! D109  D(9,8,19,18)         -161.2394         estimate D2E/DX2                !
 ! D110  D(8,9,10,5)           -12.8788         estimate D2E/DX2                !
 ! D111  D(8,9,10,16)          168.1058         estimate D2E/DX2                !
 ! D112  D(11,9,10,5)          165.8704         estimate D2E/DX2                !
 ! D113  D(11,9,10,16)         -13.1451         estimate D2E/DX2                !
 ! D114  D(8,9,11,12)          -93.9038         estimate D2E/DX2                !
 ! D115  D(8,9,11,13)           86.3208         estimate D2E/DX2                !
 ! D116  D(10,9,11,12)          87.3333         estimate D2E/DX2                !
 ! D117  D(10,9,11,13)         -92.4422         estimate D2E/DX2                !
 ! D118  D(9,11,13,14)          80.2266         estimate D2E/DX2                !
 ! D119  D(9,11,13,15)        -153.1332         estimate D2E/DX2                !
 ! D120  D(9,11,13,36)         -37.356          estimate D2E/DX2                !
 ! D121  D(12,11,13,14)        -99.5413         estimate D2E/DX2                !
 ! D122  D(12,11,13,15)         27.0989         estimate D2E/DX2                !
 ! D123  D(12,11,13,36)        142.8761         estimate D2E/DX2                !
 ! D124  D(11,13,14,37)       -173.4462         estimate D2E/DX2                !
 ! D125  D(11,13,14,38)        -57.7083         estimate D2E/DX2                !
 ! D126  D(11,13,14,62)         64.7311         estimate D2E/DX2                !
 ! D127  D(15,13,14,37)         61.1133         estimate D2E/DX2                !
 ! D128  D(15,13,14,38)        176.8512         estimate D2E/DX2                !
 ! D129  D(15,13,14,62)        -60.7095         estimate D2E/DX2                !
 ! D130  D(36,13,14,37)        -56.0453         estimate D2E/DX2                !
 ! D131  D(36,13,14,38)         59.6926         estimate D2E/DX2                !
 ! D132  D(36,13,14,62)       -177.8681         estimate D2E/DX2                !
 ! D133  D(11,13,15,39)        178.9445         estimate D2E/DX2                !
 ! D134  D(11,13,15,40)         59.4261         estimate D2E/DX2                !
 ! D135  D(11,13,15,41)        -59.8752         estimate D2E/DX2                !
 ! D136  D(14,13,15,39)        -54.9801         estimate D2E/DX2                !
 ! D137  D(14,13,15,40)       -174.4985         estimate D2E/DX2                !
 ! D138  D(14,13,15,41)         66.2002         estimate D2E/DX2                !
 ! D139  D(36,13,15,39)         62.7511         estimate D2E/DX2                !
 ! D140  D(36,13,15,40)        -56.7673         estimate D2E/DX2                !
 ! D141  D(36,13,15,41)       -176.0686         estimate D2E/DX2                !
 ! D142  D(13,14,62,63)         63.3974         estimate D2E/DX2                !
 ! D143  D(13,14,62,64)        -58.1717         estimate D2E/DX2                !
 ! D144  D(13,14,62,65)       -177.561          estimate D2E/DX2                !
 ! D145  D(37,14,62,63)        -58.691          estimate D2E/DX2                !
 ! D146  D(37,14,62,64)        179.7399         estimate D2E/DX2                !
 ! D147  D(37,14,62,65)         60.3506         estimate D2E/DX2                !
 ! D148  D(38,14,62,63)       -173.5374         estimate D2E/DX2                !
 ! D149  D(38,14,62,64)         64.8936         estimate D2E/DX2                !
 ! D150  D(38,14,62,65)        -54.4957         estimate D2E/DX2                !
 ! D151  D(7,17,18,19)         -32.1053         estimate D2E/DX2                !
 ! D152  D(7,17,18,28)          85.8938         estimate D2E/DX2                !
 ! D153  D(7,17,18,29)        -150.5345         estimate D2E/DX2                !
 ! D154  D(20,17,18,19)         77.7092         estimate D2E/DX2                !
 ! D155  D(20,17,18,28)       -164.2916         estimate D2E/DX2                !
 ! D156  D(20,17,18,29)        -40.7199         estimate D2E/DX2                !
 ! D157  D(30,17,18,19)       -154.1443         estimate D2E/DX2                !
 ! D158  D(30,17,18,28)        -36.1452         estimate D2E/DX2                !
 ! D159  D(30,17,18,29)         87.4266         estimate D2E/DX2                !
 ! D160  D(7,17,20,3)          -37.4743         estimate D2E/DX2                !
 ! D161  D(7,17,20,42)        -158.5125         estimate D2E/DX2                !
 ! D162  D(7,17,20,43)          82.1109         estimate D2E/DX2                !
 ! D163  D(18,17,20,3)        -147.7148         estimate D2E/DX2                !
 ! D164  D(18,17,20,42)         91.2471         estimate D2E/DX2                !
 ! D165  D(18,17,20,43)        -28.1295         estimate D2E/DX2                !
 ! D166  D(30,17,20,3)          83.4471         estimate D2E/DX2                !
 ! D167  D(30,17,20,42)        -37.5911         estimate D2E/DX2                !
 ! D168  D(30,17,20,43)       -156.9677         estimate D2E/DX2                !
 ! D169  D(17,18,19,8)          14.83           estimate D2E/DX2                !
 ! D170  D(28,18,19,8)        -106.2869         estimate D2E/DX2                !
 ! D171  D(29,18,19,8)         136.6993         estimate D2E/DX2                !
 ! D172  D(17,18,28,53)        -62.2846         estimate D2E/DX2                !
 ! D173  D(17,18,28,54)       -179.7537         estimate D2E/DX2                !
 ! D174  D(17,18,28,55)         59.9103         estimate D2E/DX2                !
 ! D175  D(19,18,28,53)         54.2757         estimate D2E/DX2                !
 ! D176  D(19,18,28,54)        -63.1933         estimate D2E/DX2                !
 ! D177  D(19,18,28,55)        176.4706         estimate D2E/DX2                !
 ! D178  D(29,18,28,53)        171.2897         estimate D2E/DX2                !
 ! D179  D(29,18,28,54)         53.8206         estimate D2E/DX2                !
 ! D180  D(29,18,28,55)        -66.5154         estimate D2E/DX2                !
 ! D181  D(17,18,29,56)        -57.5168         estimate D2E/DX2                !
 ! D182  D(17,18,29,57)       -178.0538         estimate D2E/DX2                !
 ! D183  D(17,18,29,58)         64.7761         estimate D2E/DX2                !
 ! D184  D(19,18,29,56)       -174.481          estimate D2E/DX2                !
 ! D185  D(19,18,29,57)         64.982          estimate D2E/DX2                !
 ! D186  D(19,18,29,58)        -52.1881         estimate D2E/DX2                !
 ! D187  D(28,18,29,56)         68.5581         estimate D2E/DX2                !
 ! D188  D(28,18,29,57)        -51.9788         estimate D2E/DX2                !
 ! D189  D(28,18,29,58)       -169.1489         estimate D2E/DX2                !
 ! D190  D(5,22,23,24)          31.8471         estimate D2E/DX2                !
 ! D191  D(5,22,23,25)         153.9943         estimate D2E/DX2                !
 ! D192  D(5,22,23,47)         -82.4737         estimate D2E/DX2                !
 ! D193  D(45,22,23,24)        154.3306         estimate D2E/DX2                !
 ! D194  D(45,22,23,25)        -83.5222         estimate D2E/DX2                !
 ! D195  D(45,22,23,47)         40.0098         estimate D2E/DX2                !
 ! D196  D(46,22,23,24)        -85.6438         estimate D2E/DX2                !
 ! D197  D(46,22,23,25)         36.5034         estimate D2E/DX2                !
 ! D198  D(46,22,23,47)        160.0354         estimate D2E/DX2                !
 ! D199  D(22,23,24,4)         -14.1061         estimate D2E/DX2                !
 ! D200  D(25,23,24,4)        -142.428          estimate D2E/DX2                !
 ! D201  D(47,23,24,4)         102.0461         estimate D2E/DX2                !
 ! D202  D(22,23,25,26)       -176.0493         estimate D2E/DX2                !
 ! D203  D(22,23,25,27)          5.6702         estimate D2E/DX2                !
 ! D204  D(24,23,25,26)        -55.3736         estimate D2E/DX2                !
 ! D205  D(24,23,25,27)        126.3459         estimate D2E/DX2                !
 ! D206  D(47,23,25,26)         59.5548         estimate D2E/DX2                !
 ! D207  D(47,23,25,27)       -118.7257         estimate D2E/DX2                !
 ! D208  D(23,25,26,48)        -55.3519         estimate D2E/DX2                !
 ! D209  D(23,25,26,49)         64.8399         estimate D2E/DX2                !
 ! D210  D(23,25,26,50)       -175.134          estimate D2E/DX2                !
 ! D211  D(27,25,26,48)        123.0236         estimate D2E/DX2                !
 ! D212  D(27,25,26,49)       -116.7846         estimate D2E/DX2                !
 ! D213  D(27,25,26,50)          3.2414         estimate D2E/DX2                !
 ! D214  D(23,25,27,51)         -0.4236         estimate D2E/DX2                !
 ! D215  D(23,25,27,52)        179.3275         estimate D2E/DX2                !
 ! D216  D(26,25,27,51)       -178.627          estimate D2E/DX2                !
 ! D217  D(26,25,27,52)          1.1242         estimate D2E/DX2                !
 --------------------------------------------------------------------------------
 Trust Radius=3.00D-01 FncErr=1.00D-07 GrdErr=1.00D-06
 Number of steps in this run=    390 maximum allowed number of steps=    390.
 GradGradGradGradGradGradGradGradGradGradGradGradGradGradGradGradGradGrad

 Stoichiometry    C26H34O5
 Framework group  C1[X(C26H34O5)]
 Deg. of freedom   189
 Full point group                 C1      NOp   1
 Largest Abelian subgroup         C1      NOp   1
 Largest concise Abelian subgroup C1      NOp   1
                         Standard orientation:                         
 ---------------------------------------------------------------------
 Center     Atomic      Atomic             Coordinates (Angstroms)
 Number     Number       Type             X           Y           Z
 ---------------------------------------------------------------------
      1          6           0       -0.230289   -2.151326    2.359131
      2          6           0       -0.265437   -0.891295    2.818743
      3          6           0       -0.959644    0.211148    2.051506
      4          6           0       -1.326287   -0.112777    0.572939
      5          6           0       -0.900161   -1.474538    0.002919
      6          6           0       -0.874287   -2.580382    1.079551
      7          6           0       -0.780007    1.079113   -0.237520
      8          6           0        0.623976    0.932647   -0.715885
      9          6           0        1.205867   -0.247558   -0.951725
     10          6           0        0.440432   -1.497269   -0.748578
     11          6           0        2.622497   -0.266207   -1.387779
     12          8           0        2.897016   -0.297275   -2.585912
     13          6           0        3.684611   -0.250358   -0.287708
     14          6           0        3.897225   -1.644901    0.320154
     15          6           0        4.980624    0.376684   -0.799802
     16          8           0        0.899989   -2.559048   -1.173355
     17          6           0       -0.595003    2.235439    0.720870
     18          6           0        0.495036    3.079216    0.025629
     19          8           0        1.336417    2.130046   -0.678961
     20          6           0       -0.145269    1.516540    2.002756
     21          8           0       -1.612599    1.413740   -1.333594
     22          6           0       -2.012997   -1.750015   -1.009005
     23          6           0       -3.249527   -1.179728   -0.323773
     24          8           0       -2.782307   -0.063828    0.461095
     25          6           0       -4.404338   -0.716728   -1.182807
     26          6           0       -5.546263   -0.081768   -0.430020
     27          6           0       -4.480855   -0.864083   -2.516648
     28          6           0       -0.079161    4.065580   -1.003586
     29          6           0        1.374846    3.865495    1.003941
     30          1           0       -1.514363    2.806343    0.895034
     31          1           0       -1.888292    0.432980    2.597813
     32          6           0        0.300568   -0.548430    4.171307
     33          1           0        0.228267   -2.938263    2.955376
     34          1           0       -1.883384   -2.930304    1.327647
     35          1           0       -0.344690   -3.467785    0.711619
     36          1           0        3.314545    0.405619    0.511737
     37          1           0        4.576860   -1.559385    1.177212
     38          1           0        2.948329   -2.021018    0.719979
     39          1           0        5.737881    0.407028   -0.009747
     40          1           0        4.800974    1.404690   -1.134162
     41          1           0        5.395416   -0.170824   -1.652360
     42          1           0       -0.328610    2.140007    2.885172
     43          1           0        0.927734    1.289379    1.986243
     44          1           0       -2.533027    1.317601   -1.016935
     45          1           0       -2.131113   -2.811707   -1.253127
     46          1           0       -1.792787   -1.227585   -1.947998
     47          1           0       -3.642325   -1.918401    0.385946
     48          1           0       -5.914046   -0.761232    0.345817
     49          1           0       -5.223529    0.850015    0.045484
     50          1           0       -6.390964    0.157975   -1.084735
     51          1           0       -3.698357   -1.333133   -3.103120
     52          1           0       -5.346847   -0.517030   -3.073673
     53          1           0       -0.594925    3.561850   -1.825175
     54          1           0        0.726073    4.640592   -1.476255
     55          1           0       -0.773815    4.769710   -0.534378
     56          1           0        0.775218    4.530675    1.633615
     57          1           0        2.108769    4.473620    0.461896
     58          1           0        1.966016    3.206061    1.646987
     59          1           0        0.638584   -1.438247    4.713137
     60          1           0        1.159056    0.123011    4.075028
     61          1           0       -0.460614   -0.058605    4.787402
     62          6           0        4.461764   -2.683645   -0.639957
     63          1           0        5.464186   -2.410931   -0.982242
     64          1           0        3.819348   -2.814315   -1.515463
     65          1           0        4.538787   -3.652588   -0.135863
 ---------------------------------------------------------------------
 Rotational constants (GHZ):      0.2092929      0.1320675      0.1190191
 Standard basis: 6-31G(d) (6D, 7F)
 There are   533 symmetry adapted basis functions of A   symmetry.
 Integral buffers will be    131072 words long.
 Raffenetti 2 integral format.
 Two-electron integral symmetry is turned on.
   533 basis functions,  1004 primitive gaussians,   533 cartesian basis functions
   115 alpha electrons      115 beta electrons
       nuclear repulsion energy      3546.4946474933 Hartrees.
 NAtoms=   65 NActive=   65 NUniq=   65 SFac= 1.00D+00 NAtFMM=   50 NAOKFM=T Big=T
 One-electron integrals computed using PRISM.
 NBasis=   533 RedAO= T  NBF=   533
 NBsUse=   533 1.00D-06 NBFU=   533
 Harris functional with IExCor=  402 diagonalized for initial guess.
 ExpMin= 1.61D-01 ExpMax= 5.48D+03 ExpMxC= 8.25D+02 IAcc=1 IRadAn=         1 AccDes= 0.00D+00
 HarFok:  IExCor=  402 AccDes= 0.00D+00 IRadAn=         1 IDoV= 1
 ScaDFX=  1.000000  1.000000  1.000000  1.000000
 FoFCou: FMM=F IPFlag=           0 FMFlag=      100000 FMFlg1=        2001
         NFxFlg=           0 DoJE=T BraDBF=F KetDBF=T FulRan=T
         Omega=  0.000000  0.000000  1.000000  0.000000  0.000000 ICntrl=     500 IOpCl=  0
         NMat0=    1 NMatS0=    1 NMatT0=    0 NMatD0=    1 NMtDS0=    0 NMtDT0=    0
         I1Cent=           4 NGrid=           0.
 Petite list used in FoFCou.
 Initial guess orbital symmetries:
       Occupied  (A) (A) (A) (A) (A) (A) (A) (A) (A) (A) (A) (A)
                 (A) (A) (A) (A) (A) (A) (A) (A) (A) (A) (A) (A)
                 (A) (A) (A) (A) (A) (A) (A) (A) (A) (A) (A) (A)
                 (A) (A) (A) (A) (A) (A) (A) (A) (A) (A) (A) (A)
                 (A) (A) (A) (A) (A) (A) (A) (A) (A) (A) (A) (A)
                 (A) (A) (A) (A) (A) (A) (A) (A) (A) (A) (A) (A)
                 (A) (A) (A) (A) (A) (A) (A) (A) (A) (A) (A) (A)
                 (A) (A) (A) (A) (A) (A) (A) (A) (A) (A) (A) (A)
                 (A) (A) (A) (A) (A) (A) (A) (A) (A) (A) (A) (A)
                 (A) (A) (A) (A) (A) (A) (A)
       Virtual   (A) (A) (A) (A) (A) (A) (A) (A) (A) (A) (A) (A)
                 (A) (A) (A) (A) (A) (A) (A) (A) (A) (A) (A) (A)
                 (A) (A) (A) (A) (A) (A) (A) (A) (A) (A) (A) (A)
                 (A) (A) (A) (A) (A) (A) (A) (A) (A) (A) (A) (A)
                 (A) (A) (A) (A) (A) (A) (A) (A) (A) (A) (A) (A)
                 (A) (A) (A) (A) (A) (A) (A) (A) (A) (A) (A) (A)
                 (A) (A) (A) (A) (A) (A) (A) (A) (A) (A) (A) (A)
                 (A) (A) (A) (A) (A) (A) (A) (A) (A) (A) (A) (A)
                 (A) (A) (A) (A) (A) (A) (A) (A) (A) (A) (A) (A)
                 (A) (A) (A) (A) (A) (A) (A) (A) (A) (A) (A) (A)
                 (A) (A) (A) (A) (A) (A) (A) (A) (A) (A) (A) (A)
                 (A) (A) (A) (A) (A) (A) (A) (A) (A) (A) (A) (A)
                 (A) (A) (A) (A) (A) (A) (A) (A) (A) (A) (A) (A)
                 (A) (A) (A) (A) (A) (A) (A) (A) (A) (A) (A) (A)
                 (A) (A) (A) (A) (A) (A) (A) (A) (A) (A) (A) (A)
                 (A) (A) (A) (A) (A) (A) (A) (A) (A) (A) (A) (A)
                 (A) (A) (A) (A) (A) (A) (A) (A) (A) (A) (A) (A)
                 (A) (A) (A) (A) (A) (A) (A) (A) (A) (A) (A) (A)
                 (A) (A) (A) (A) (A) (A) (A) (A) (A) (A) (A) (A)
                 (A) (A) (A) (A) (A) (A) (A) (A) (A) (A) (A) (A)
                 (A) (A) (A) (A) (A) (A) (A) (A) (A) (A) (A) (A)
                 (A) (A) (A) (A) (A) (A) (A) (A) (A) (A) (A) (A)
                 (A) (A) (A) (A) (A) (A) (A) (A) (A) (A) (A) (A)
                 (A) (A) (A) (A) (A) (A) (A) (A) (A) (A) (A) (A)
                 (A) (A) (A) (A) (A) (A) (A) (A) (A) (A) (A) (A)
                 (A) (A) (A) (A) (A) (A) (A) (A) (A) (A) (A) (A)
                 (A) (A) (A) (A) (A) (A) (A) (A) (A) (A) (A) (A)
                 (A) (A) (A) (A) (A) (A) (A) (A) (A) (A) (A) (A)
                 (A) (A) (A) (A) (A) (A) (A) (A) (A) (A) (A) (A)
                 (A) (A) (A) (A) (A) (A) (A) (A) (A) (A) (A) (A)
                 (A) (A) (A) (A) (A) (A) (A) (A) (A) (A) (A) (A)
                 (A) (A) (A) (A) (A) (A) (A) (A) (A) (A) (A) (A)
                 (A) (A) (A) (A) (A) (A) (A) (A) (A) (A) (A) (A)
                 (A) (A) (A) (A) (A) (A) (A) (A) (A) (A) (A) (A)
                 (A) (A) (A) (A) (A) (A) (A) (A) (A) (A)
 The electronic state of the initial guess is 1-A.
 Requested convergence on RMS density matrix=1.00D-08 within 128 cycles.
 Requested convergence on MAX density matrix=1.00D-06.
 Requested convergence on             energy=1.00D-06.
 No special actions if energy rises.
 Integral accuracy reduced to 1.0D-05 until final iterations.
 Initial convergence to 1.0D-05 achieved.  Increase integral accuracy.
 SCF Done:  E(RB3LYP) =  -1387.30207592     A.U. after   16 cycles
             Convg  =    0.5821D-08             -V/T =  2.0091

 **********************************************************************

            Population analysis using the SCF density.

 **********************************************************************

 Orbital symmetries:
       Occupied  (A) (A) (A) (A) (A) (A) (A) (A) (A) (A) (A) (A)
                 (A) (A) (A) (A) (A) (A) (A) (A) (A) (A) (A) (A)
                 (A) (A) (A) (A) (A) (A) (A) (A) (A) (A) (A) (A)
                 (A) (A) (A) (A) (A) (A) (A) (A) (A) (A) (A) (A)
                 (A) (A) (A) (A) (A) (A) (A) (A) (A) (A) (A) (A)
                 (A) (A) (A) (A) (A) (A) (A) (A) (A) (A) (A) (A)
                 (A) (A) (A) (A) (A) (A) (A) (A) (A) (A) (A) (A)
                 (A) (A) (A) (A) (A) (A) (A) (A) (A) (A) (A) (A)
                 (A) (A) (A) (A) (A) (A) (A) (A) (A) (A) (A) (A)
                 (A) (A) (A) (A) (A) (A) (A)
       Virtual   (A) (A) (A) (A) (A) (A) (A) (A) (A) (A) (A) (A)
                 (A) (A) (A) (A) (A) (A) (A) (A) (A) (A) (A) (A)
                 (A) (A) (A) (A) (A) (A) (A) (A) (A) (A) (A) (A)
                 (A) (A) (A) (A) (A) (A) (A) (A) (A) (A) (A) (A)
                 (A) (A) (A) (A) (A) (A) (A) (A) (A) (A) (A) (A)
                 (A) (A) (A) (A) (A) (A) (A) (A) (A) (A) (A) (A)
                 (A) (A) (A) (A) (A) (A) (A) (A) (A) (A) (A) (A)
                 (A) (A) (A) (A) (A) (A) (A) (A) (A) (A) (A) (A)
                 (A) (A) (A) (A) (A) (A) (A) (A) (A) (A) (A) (A)
                 (A) (A) (A) (A) (A) (A) (A) (A) (A) (A) (A) (A)
                 (A) (A) (A) (A) (A) (A) (A) (A) (A) (A) (A) (A)
                 (A) (A) (A) (A) (A) (A) (A) (A) (A) (A) (A) (A)
                 (A) (A) (A) (A) (A) (A) (A) (A) (A) (A) (A) (A)
                 (A) (A) (A) (A) (A) (A) (A) (A) (A) (A) (A) (A)
                 (A) (A) (A) (A) (A) (A) (A) (A) (A) (A) (A) (A)
                 (A) (A) (A) (A) (A) (A) (A) (A) (A) (A) (A) (A)
                 (A) (A) (A) (A) (A) (A) (A) (A) (A) (A) (A) (A)
                 (A) (A) (A) (A) (A) (A) (A) (A) (A) (A) (A) (A)
                 (A) (A) (A) (A) (A) (A) (A) (A) (A) (A) (A) (A)
                 (A) (A) (A) (A) (A) (A) (A) (A) (A) (A) (A) (A)
                 (A) (A) (A) (A) (A) (A) (A) (A) (A) (A) (A) (A)
                 (A) (A) (A) (A) (A) (A) (A) (A) (A) (A) (A) (A)
                 (A) (A) (A) (A) (A) (A) (A) (A) (A) (A) (A) (A)
                 (A) (A) (A) (A) (A) (A) (A) (A) (A) (A) (A) (A)
                 (A) (A) (A) (A) (A) (A) (A) (A) (A) (A) (A) (A)
                 (A) (A) (A) (A) (A) (A) (A) (A) (A) (A) (A) (A)
                 (A) (A) (A) (A) (A) (A) (A) (A) (A) (A) (A) (A)
                 (A) (A) (A) (A) (A) (A) (A) (A) (A) (A) (A) (A)
                 (A) (A) (A) (A) (A) (A) (A) (A) (A) (A) (A) (A)
                 (A) (A) (A) (A) (A) (A) (A) (A) (A) (A) (A) (A)
                 (A) (A) (A) (A) (A) (A) (A) (A) (A) (A) (A) (A)
                 (A) (A) (A) (A) (A) (A) (A) (A) (A) (A) (A) (A)
                 (A) (A) (A) (A) (A) (A) (A) (A) (A) (A) (A) (A)
                 (A) (A) (A) (A) (A) (A) (A) (A) (A) (A) (A) (A)
                 (A) (A) (A) (A) (A) (A) (A) (A) (A) (A)
 The electronic state is 1-A.
 Alpha  occ. eigenvalues --  -19.19642 -19.16836 -19.15250 -19.13438 -19.13191
 Alpha  occ. eigenvalues --  -10.27976 -10.26887 -10.26840 -10.26180 -10.26049
 Alpha  occ. eigenvalues --  -10.25535 -10.25082 -10.21686 -10.20606 -10.20564
 Alpha  occ. eigenvalues --  -10.20240 -10.19811 -10.19699 -10.19563 -10.19555
 Alpha  occ. eigenvalues --  -10.19192 -10.18837 -10.18816 -10.18788 -10.18722
 Alpha  occ. eigenvalues --  -10.18695 -10.18412 -10.17839 -10.17630 -10.16388
 Alpha  occ. eigenvalues --  -10.15755  -1.08467  -1.06012  -1.03320  -1.02273
 Alpha  occ. eigenvalues --   -1.02155  -0.87588  -0.84078  -0.82761  -0.81795
 Alpha  occ. eigenvalues --   -0.80624  -0.80049  -0.77031  -0.74552  -0.73821
 Alpha  occ. eigenvalues --   -0.72320  -0.71526  -0.69637  -0.69218  -0.68056
 Alpha  occ. eigenvalues --   -0.65741  -0.64609  -0.63549  -0.62076  -0.61053
 Alpha  occ. eigenvalues --   -0.59552  -0.58918  -0.57446  -0.55207  -0.53643
 Alpha  occ. eigenvalues --   -0.52897  -0.52359  -0.50961  -0.50556  -0.49244
 Alpha  occ. eigenvalues --   -0.48325  -0.47825  -0.46750  -0.46290  -0.45969
 Alpha  occ. eigenvalues --   -0.45280  -0.45073  -0.44608  -0.44318  -0.43570
 Alpha  occ. eigenvalues --   -0.43129  -0.42691  -0.42142  -0.41837  -0.41738
 Alpha  occ. eigenvalues --   -0.41305  -0.40921  -0.40571  -0.39932  -0.39244
 Alpha  occ. eigenvalues --   -0.38978  -0.38624  -0.38511  -0.38239  -0.37557
 Alpha  occ. eigenvalues --   -0.37499  -0.37157  -0.37066  -0.36941  -0.36752
 Alpha  occ. eigenvalues --   -0.36582  -0.36133  -0.35067  -0.34679  -0.34234
 Alpha  occ. eigenvalues --   -0.33810  -0.33456  -0.33408  -0.32626  -0.32450
 Alpha  occ. eigenvalues --   -0.31566  -0.31376  -0.31342  -0.27932  -0.26596
 Alpha  occ. eigenvalues --   -0.26009  -0.25565  -0.24467  -0.23794  -0.23120
 Alpha virt. eigenvalues --   -0.05252  -0.01519   0.00384   0.01741   0.03749
 Alpha virt. eigenvalues --    0.06112   0.07472   0.08632   0.08794   0.10095
 Alpha virt. eigenvalues --    0.10330   0.10615   0.11428   0.11680   0.12316
 Alpha virt. eigenvalues --    0.12739   0.13114   0.13501   0.13842   0.14073
 Alpha virt. eigenvalues --    0.14302   0.14760   0.15003   0.15503   0.15710
 Alpha virt. eigenvalues --    0.16116   0.16429   0.16748   0.17397   0.17494
 Alpha virt. eigenvalues --    0.17803   0.18298   0.18339   0.18781   0.19072
 Alpha virt. eigenvalues --    0.19394   0.19723   0.19889   0.20068   0.20215
 Alpha virt. eigenvalues --    0.20922   0.21034   0.21454   0.21873   0.22532
 Alpha virt. eigenvalues --    0.22992   0.23225   0.23588   0.24015   0.24067
 Alpha virt. eigenvalues --    0.24641   0.25086   0.25538   0.25806   0.26613
 Alpha virt. eigenvalues --    0.27034   0.27904   0.28258   0.28608   0.30156
 Alpha virt. eigenvalues --    0.30760   0.31777   0.32420   0.33427   0.34139
 Alpha virt. eigenvalues --    0.34450   0.36941   0.37165   0.38845   0.39702
 Alpha virt. eigenvalues --    0.41668   0.44842   0.46348   0.47998   0.48466
 Alpha virt. eigenvalues --    0.49581   0.50492   0.51018   0.51539   0.51910
 Alpha virt. eigenvalues --    0.52168   0.52775   0.53091   0.53227   0.54075
 Alpha virt. eigenvalues --    0.54186   0.54407   0.55081   0.55549   0.56841
 Alpha virt. eigenvalues --    0.57146   0.57447   0.57789   0.58480   0.59077
 Alpha virt. eigenvalues --    0.59302   0.59900   0.60641   0.61192   0.61725
 Alpha virt. eigenvalues --    0.61990   0.62452   0.63054   0.63495   0.64006
 Alpha virt. eigenvalues --    0.64871   0.65876   0.66068   0.66820   0.67163
 Alpha virt. eigenvalues --    0.67765   0.68441   0.68639   0.68882   0.69639
 Alpha virt. eigenvalues --    0.69834   0.71091   0.71859   0.72645   0.73416
 Alpha virt. eigenvalues --    0.73897   0.74802   0.74919   0.75503   0.76182
 Alpha virt. eigenvalues --    0.77533   0.78254   0.79023   0.79719   0.80139
 Alpha virt. eigenvalues --    0.80531   0.80605   0.81498   0.82126   0.82425
 Alpha virt. eigenvalues --    0.82771   0.83133   0.84056   0.84636   0.84816
 Alpha virt. eigenvalues --    0.85380   0.85740   0.86497   0.86775   0.87125
 Alpha virt. eigenvalues --    0.87277   0.87858   0.88386   0.88621   0.88967
 Alpha virt. eigenvalues --    0.89366   0.89635   0.89927   0.90491   0.90644
 Alpha virt. eigenvalues --    0.90728   0.91098   0.91477   0.92070   0.92217
 Alpha virt. eigenvalues --    0.92448   0.92898   0.93738   0.93944   0.94375
 Alpha virt. eigenvalues --    0.94734   0.95267   0.96019   0.96458   0.97386
 Alpha virt. eigenvalues --    0.97762   0.98291   0.98599   0.99352   0.99802
 Alpha virt. eigenvalues --    1.00784   1.01636   1.02320   1.02861   1.03632
 Alpha virt. eigenvalues --    1.04317   1.05376   1.05804   1.06440   1.06963
 Alpha virt. eigenvalues --    1.08792   1.10283   1.11046   1.11647   1.11803
 Alpha virt. eigenvalues --    1.12993   1.14008   1.15110   1.15736   1.17508
 Alpha virt. eigenvalues --    1.17690   1.18251   1.19006   1.19192   1.20263
 Alpha virt. eigenvalues --    1.21557   1.22495   1.24349   1.25393   1.25705
 Alpha virt. eigenvalues --    1.27146   1.29286   1.30840   1.31317   1.34107
 Alpha virt. eigenvalues --    1.35478   1.36479   1.37014   1.37426   1.38808
 Alpha virt. eigenvalues --    1.40556   1.41265   1.43058   1.43847   1.44750
 Alpha virt. eigenvalues --    1.47453   1.49194   1.50774   1.52019   1.53136
 Alpha virt. eigenvalues --    1.54201   1.55988   1.56923   1.57374   1.59760
 Alpha virt. eigenvalues --    1.60384   1.61167   1.61726   1.62364   1.63515
 Alpha virt. eigenvalues --    1.65226   1.65605   1.66826   1.66895   1.68641
 Alpha virt. eigenvalues --    1.70527   1.71473   1.72988   1.73070   1.73598
 Alpha virt. eigenvalues --    1.75082   1.75963   1.76882   1.77383   1.78191
 Alpha virt. eigenvalues --    1.79527   1.80046   1.80977   1.81444   1.81701
 Alpha virt. eigenvalues --    1.82768   1.83322   1.84072   1.84296   1.85251
 Alpha virt. eigenvalues --    1.85669   1.86771   1.87242   1.87677   1.88210
 Alpha virt. eigenvalues --    1.88947   1.89443   1.89967   1.90990   1.91214
 Alpha virt. eigenvalues --    1.91864   1.92372   1.92842   1.94548   1.95106
 Alpha virt. eigenvalues --    1.95739   1.96180   1.97441   1.98000   1.99091
 Alpha virt. eigenvalues --    1.99509   1.99715   2.00560   2.00837   2.02968
 Alpha virt. eigenvalues --    2.03247   2.04721   2.05279   2.05652   2.05947
 Alpha virt. eigenvalues --    2.07046   2.07998   2.08714   2.09055   2.09440
 Alpha virt. eigenvalues --    2.10147   2.11529   2.12712   2.13412   2.13678
 Alpha virt. eigenvalues --    2.15127   2.15321   2.16046   2.17044   2.17291
 Alpha virt. eigenvalues --    2.18721   2.19945   2.20908   2.22643   2.23397
 Alpha virt. eigenvalues --    2.24083   2.24576   2.24618   2.26093   2.26647
 Alpha virt. eigenvalues --    2.28589   2.29355   2.30294   2.30937   2.31191
 Alpha virt. eigenvalues --    2.32661   2.33366   2.33637   2.34370   2.35197
 Alpha virt. eigenvalues --    2.35783   2.36348   2.37026   2.38351   2.39022
 Alpha virt. eigenvalues --    2.39798   2.40999   2.41811   2.42621   2.44061
 Alpha virt. eigenvalues --    2.44223   2.44924   2.46380   2.48285   2.48389
 Alpha virt. eigenvalues --    2.49349   2.50515   2.51634   2.52581   2.53543
 Alpha virt. eigenvalues --    2.57140   2.57909   2.58063   2.59036   2.60476
 Alpha virt. eigenvalues --    2.61368   2.62592   2.63717   2.64193   2.65802
 Alpha virt. eigenvalues --    2.66321   2.68730   2.69076   2.70350   2.71176
 Alpha virt. eigenvalues --    2.71879   2.74141   2.74488   2.77045   2.78728
 Alpha virt. eigenvalues --    2.79810   2.81227   2.82007   2.84425   2.85693
 Alpha virt. eigenvalues --    2.86941   2.89470   2.92289   2.94027   2.95209
 Alpha virt. eigenvalues --    2.96727   2.98703   3.00768   3.01609   3.04397
 Alpha virt. eigenvalues --    3.04810   3.06952   3.12421   3.18907   3.20830
 Alpha virt. eigenvalues --    3.21960   3.29460   4.00421   4.08571   4.11765
 Alpha virt. eigenvalues --    4.13383   4.14484   4.15940   4.19000   4.20065
 Alpha virt. eigenvalues --    4.23518   4.24775   4.25878   4.29428   4.31290
 Alpha virt. eigenvalues --    4.33566   4.35908   4.37578   4.38504   4.42362
 Alpha virt. eigenvalues --    4.45907   4.50191   4.52778   4.59234   4.60866
 Alpha virt. eigenvalues --    4.63868   4.65302   4.67804   4.74014   4.82325
 Alpha virt. eigenvalues --    4.90642   5.02233   5.17495
          Condensed to atoms (all electrons):
 Mulliken atomic charges:
              1
     1  C   -0.195306
     2  C    0.185262
     3  C   -0.185007
     4  C    0.320109
     5  C   -0.052788
     6  C   -0.330516
     7  C    0.215650
     8  C    0.396511
     9  C   -0.086354
    10  C    0.438969
    11  C    0.418156
    12  O   -0.442871
    13  C   -0.155838
    14  C   -0.262882
    15  C   -0.448989
    16  O   -0.504418
    17  C   -0.161542
    18  C    0.312065
    19  O   -0.538899
    20  C   -0.319423
    21  O   -0.659042
    22  C   -0.327382
    23  C    0.106489
    24  O   -0.586472
    25  C    0.174888
    26  C   -0.504732
    27  C   -0.389923
    28  C   -0.461330
    29  C   -0.462431
    30  H    0.143806
    31  H    0.165374
    32  C   -0.516616
    33  H    0.123776
    34  H    0.152731
    35  H    0.179603
    36  H    0.134374
    37  H    0.133373
    38  H    0.144923
    39  H    0.133026
    40  H    0.150877
    41  H    0.170452
    42  H    0.148716
    43  H    0.161107
    44  H    0.411662
    45  H    0.168613
    46  H    0.177632
    47  H    0.136652
    48  H    0.154316
    49  H    0.165049
    50  H    0.154261
    51  H    0.151720
    52  H    0.143295
    53  H    0.189087
    54  H    0.150886
    55  H    0.138033
    56  H    0.150556
    57  H    0.159565
    58  H    0.153762
    59  H    0.158685
    60  H    0.157139
    61  H    0.151284
    62  C   -0.450678
    63  H    0.142754
    64  H    0.180702
    65  H    0.137545
 Sum of Mulliken atomic charges =   0.00000
 Mulliken charges with hydrogens summed into heavy atoms:
              1
     1  C   -0.071529
     2  C    0.185262
     3  C   -0.019633
     4  C    0.320109
     5  C   -0.052788
     6  C    0.001818
     7  C    0.215650
     8  C    0.396511
     9  C   -0.086354
    10  C    0.438969
    11  C    0.418156
    12  O   -0.442871
    13  C   -0.021463
    14  C    0.015414
    15  C    0.005366
    16  O   -0.504418
    17  C   -0.017736
    18  C    0.312065
    19  O   -0.538899
    20  C   -0.009600
    21  O   -0.247380
    22  C    0.018863
    23  C    0.243140
    24  O   -0.586472
    25  C    0.174888
    26  C   -0.031106
    27  C   -0.094908
    28  C    0.016676
    29  C    0.001453
    32  C   -0.049508
    62  C    0.010323
 Sum of Mulliken charges with hydrogens summed into heavy atoms =   0.00000
 Electronic spatial extent (au):  <R**2>=          11074.8885
 Charge=              0.0000 electrons
 Dipole moment (field-independent basis, Debye):
    X=             -3.6286    Y=              2.2037    Z=              5.4140  Tot=              6.8800
 Quadrupole moment (field-independent basis, Debye-Ang):
   XX=           -179.6964   YY=           -179.9986   ZZ=           -191.3533
   XY=              3.9928   XZ=             11.8724   YZ=             -0.5966
 Traceless Quadrupole moment (field-independent basis, Debye-Ang):
   XX=              3.9864   YY=              3.6842   ZZ=             -7.6705
   XY=              3.9928   XZ=             11.8724   YZ=             -0.5966
 Octapole moment (field-independent basis, Debye-Ang**2):
  XXX=            -43.2296  YYY=             44.6877  ZZZ=             19.9621  XYY=            -11.5360
  XXY=              2.7563  XXZ=              4.9489  XZZ=            -31.4203  YZZ=              4.0046
  YYZ=             17.7133  XYZ=             -9.7577
 Hexadecapole moment (field-independent basis, Debye-Ang**3):
 XXXX=          -7684.9892 YYYY=          -3964.5176 ZZZZ=          -2915.3389 XXXY=            -39.4848
 XXXZ=            117.2754 YYYX=             24.7379 YYYZ=            -39.9554 ZZZX=             77.2433
 ZZZY=              0.6930 XXYY=          -1997.1594 XXZZ=          -1844.8244 YYZZ=          -1155.2393
 XXYZ=            -17.4645 YYXZ=             -9.4650 ZZXY=              5.2122
 N-N= 3.546494647493D+03 E-N=-1.031907062513D+04  KE= 1.374765072016D+03
 Calling FoFJK, ICntrl=      2127 FMM=T ISym2X=0 I1Cent= 0 IOpClX= 0 NMat=1 NMatS=1 NMatT=0.
 ***** Axes restored to original set *****
 -------------------------------------------------------------------
 Center     Atomic                   Forces (Hartrees/Bohr)
 Number     Number              X              Y              Z
 -------------------------------------------------------------------
      1        6           0.008384112    0.000224729    0.000349674
      2        6          -0.012030292   -0.004776062    0.002522566
      3        6          -0.001493927   -0.007869816   -0.000754606
      4        6           0.002141703   -0.003897340    0.011025456
      5        6          -0.010455519   -0.004712093    0.001592647
      6        6          -0.004488574   -0.009852150   -0.000584635
      7        6           0.011210342    0.020653709    0.008298337
      8        6           0.010317825   -0.011816142   -0.013337201
      9        6          -0.000697483    0.003260184    0.012590124
     10        6          -0.008246996   -0.001529413   -0.020522345
     11        6          -0.018239490    0.008387953   -0.025096779
     12        8           0.008048534   -0.015064329    0.011197631
     13        6           0.009482368    0.002186158   -0.006594882
     14        6          -0.006158075   -0.003236586    0.005916017
     15        6           0.000108506    0.002635261   -0.006779422
     16        8           0.008555587   -0.001144347    0.009319971
     17        6           0.007934549   -0.011085953   -0.005764501
     18        6           0.031853424    0.006686311    0.000539039
     19        8          -0.028541715    0.002413449    0.024980135
     20        6           0.011864151   -0.004279765    0.000932937
     21        8          -0.006252685    0.007446458   -0.003093799
     22        6          -0.006576399    0.014273067    0.000789145
     23        6          -0.005088302    0.007796046    0.001282818
     24        8           0.001825059   -0.006949190   -0.009642527
     25        6          -0.002873361    0.015076724    0.000014716
     26        6           0.001416828    0.001646537    0.000293452
     27        6           0.000813638   -0.009986798   -0.001131270
     28        6          -0.002886872    0.007847548   -0.005051155
     29        6          -0.003399547   -0.005927978   -0.009009620
     30        1          -0.001745024    0.001042691   -0.001702743
     31        1          -0.003178564    0.005852003   -0.000087481
     32        6          -0.001119319    0.000830264   -0.001321583
     33        1           0.001602605   -0.001137576   -0.000085519
     34        1          -0.000048715    0.005722449    0.001706600
     35        1           0.001176122    0.007411516   -0.002420718
     36        1          -0.000867868    0.000996692    0.003754686
     37        1           0.003609578    0.000216356    0.000132431
     38        1           0.001268999    0.000035544    0.001069144
     39        1          -0.000125066   -0.001393812    0.000657402
     40        1          -0.000318663   -0.000226308   -0.000085830
     41        1           0.000581316    0.000076213    0.001489486
     42        1          -0.001282621   -0.002133723   -0.001516056
     43        1           0.000274925    0.002582757   -0.000158649
     44        1          -0.001722399   -0.003777534   -0.002289159
     45        1           0.001362739   -0.002971063   -0.000928416
     46        1           0.002085837    0.000639883    0.003258316
     47        1          -0.001691084   -0.001219426    0.002811645
     48        1           0.002437139   -0.002669472    0.001974994
     49        1           0.000848211   -0.003251974    0.002521778
     50        1          -0.001352577   -0.000191841   -0.001732801
     51        1          -0.000119223   -0.000388126   -0.001328281
     52        1          -0.000093007   -0.000581105    0.001128290
     53        1          -0.001370479   -0.002753720    0.005346218
     54        1           0.001888374   -0.003899299    0.000494713
     55        1           0.000515322   -0.000945796    0.000288443
     56        1          -0.000747977    0.001065008    0.000546492
     57        1           0.000679240    0.002821453    0.001442787
     58        1          -0.000187338   -0.000016137    0.003827720
     59        1          -0.001154600    0.001725087   -0.000552440
     60        1           0.004518521   -0.001782168    0.000442877
     61        1           0.004036299   -0.001135218    0.000046571
     62        6          -0.004790829    0.000532638   -0.001669098
     63        1          -0.000688085    0.000533251   -0.001163831
     64        1           0.000057373    0.000352343   -0.000111984
     65        1          -0.000866552   -0.000368024   -0.000067928
 -------------------------------------------------------------------
 Cartesian Forces:  Max     0.031853424 RMS     0.006718290

 GradGradGradGradGradGradGradGradGradGradGradGradGradGradGradGradGradGrad
 Berny optimization.
 Internal  Forces:  Max     0.020234396 RMS     0.003390884
 Search for a local minimum.
 Step number   1 out of a maximum of  390
 All quantities printed in internal units (Hartrees-Bohrs-Radians)
 Mixed Optimization -- RFO/linear search
 Second derivative matrix not updated -- first step.
 ITU=  0
     Eigenvalues ---    0.00279   0.00289   0.00332   0.00380   0.00394
     Eigenvalues ---    0.00435   0.00462   0.00558   0.00608   0.00618
     Eigenvalues ---    0.00637   0.00661   0.00674   0.00690   0.00707
     Eigenvalues ---    0.01000   0.01079   0.01239   0.01244   0.01388
     Eigenvalues ---    0.01473   0.01616   0.01713   0.01807   0.01920
     Eigenvalues ---    0.02494   0.02828   0.02828   0.03036   0.03121
     Eigenvalues ---    0.03328   0.03580   0.03605   0.03727   0.04037
     Eigenvalues ---    0.04121   0.04318   0.04424   0.04576   0.04663
     Eigenvalues ---    0.04785   0.04789   0.04926   0.05104   0.05246
     Eigenvalues ---    0.05307   0.05379   0.05415   0.05420   0.05463
     Eigenvalues ---    0.05502   0.05505   0.05549   0.05607   0.05613
     Eigenvalues ---    0.05709   0.05838   0.05936   0.06280   0.06649
     Eigenvalues ---    0.06705   0.06855   0.07090   0.07116   0.07147
     Eigenvalues ---    0.07248   0.07251   0.07332   0.07611   0.08370
     Eigenvalues ---    0.08724   0.08807   0.09020   0.09149   0.09741
     Eigenvalues ---    0.10110   0.10645   0.10828   0.11612   0.12481
     Eigenvalues ---    0.13155   0.14669   0.15165   0.15963   0.16000
     Eigenvalues ---    0.16000   0.16000   0.16000   0.16000   0.16000
     Eigenvalues ---    0.16000   0.16000   0.16000   0.16000   0.16000
     Eigenvalues ---    0.16000   0.16000   0.16000   0.16000   0.16000
     Eigenvalues ---    0.16000   0.16000   0.16000   0.16000   0.16000
     Eigenvalues ---    0.16512   0.17291   0.17324   0.18307   0.18321
     Eigenvalues ---    0.19647   0.21526   0.21943   0.22727   0.23556
     Eigenvalues ---    0.24537   0.24914   0.24987   0.24993   0.24993
     Eigenvalues ---    0.24997   0.25000   0.25000   0.25878   0.27141
     Eigenvalues ---    0.27440   0.27693   0.27815   0.28253   0.28285
     Eigenvalues ---    0.28587   0.28800   0.28872   0.29169   0.29496
     Eigenvalues ---    0.29600   0.30080   0.30284   0.30546   0.31158
     Eigenvalues ---    0.31559   0.31696   0.31779   0.33264   0.33680
     Eigenvalues ---    0.33866   0.33998   0.34005   0.34020   0.34026
     Eigenvalues ---    0.34030   0.34065   0.34074   0.34074   0.34102
     Eigenvalues ---    0.34114   0.34140   0.34146   0.34153   0.34209
     Eigenvalues ---    0.34211   0.34248   0.34248   0.34250   0.34259
     Eigenvalues ---    0.34266   0.34268   0.34268   0.34269   0.34302
     Eigenvalues ---    0.34303   0.34340   0.34378   0.34383   0.34462
     Eigenvalues ---    0.34975   0.35210   0.35372   0.35450   0.36366
     Eigenvalues ---    0.37065   0.42987   0.43325   0.51753   0.53270
     Eigenvalues ---    0.54521   0.56288   0.90062   0.91265
 RFO step:  Lambda=-2.10655656D-02 EMin= 2.78530594D-03
 Linear search not attempted -- first point.
 Iteration  1 RMS(Cart)=  0.05645766 RMS(Int)=  0.00087503
 Iteration  2 RMS(Cart)=  0.00192515 RMS(Int)=  0.00023038
 Iteration  3 RMS(Cart)=  0.00000139 RMS(Int)=  0.00023038
 Iteration  4 RMS(Cart)=  0.00000000 RMS(Int)=  0.00023038
 Variable       Old X    -DE/DX   Delta X   Delta X   Delta X     New X
                                 (Linear)    (Quad)   (Total)
    R1        2.53545  -0.00201   0.00000  -0.00416  -0.00420   2.53125
    R2        2.82585   0.00800   0.00000   0.02427   0.02420   2.85005
    R3        2.05716   0.00017   0.00000   0.00047   0.00047   2.05762
    R4        2.85715   0.00343   0.00000   0.00740   0.00742   2.86457
    R5        2.84550   0.00343   0.00000   0.01012   0.01012   2.85562
    R6        2.94307   0.00469   0.00000   0.01038   0.01037   2.95344
    R7        2.90897   0.01113   0.00000   0.03861   0.03862   2.94759
    R8        2.07874  -0.00072   0.00000  -0.00202  -0.00202   2.07672
    R9        2.90360   0.00821   0.00000   0.02704   0.02684   2.93045
   R10        2.91280   0.00725   0.00000   0.02456   0.02456   2.93735
   R11        2.76113  -0.00498   0.00000  -0.01181  -0.01183   2.74931
   R12        2.91698  -0.00175   0.00000  -0.00344  -0.00351   2.91347
   R13        2.90456   0.00667   0.00000   0.01515   0.01506   2.91963
   R14        2.88966   0.01294   0.00000   0.04208   0.04205   2.93171
   R15        2.07205   0.00284   0.00000   0.00786   0.00786   2.07991
   R16        2.07296  -0.00159   0.00000  -0.00440  -0.00440   2.06856
   R17        2.81655   0.00809   0.00000   0.01695   0.01665   2.83321
   R18        2.85957   0.01566   0.00000   0.05604   0.05555   2.91512
   R19        2.67686   0.00345   0.00000   0.00765   0.00765   2.68451
   R20        2.52623   0.01163   0.00000   0.02007   0.02019   2.54642
   R21        2.63392  -0.01990   0.00000  -0.04775  -0.04761   2.58630
   R22        2.79586  -0.00283   0.00000  -0.01210  -0.01201   2.78385
   R23        2.80122   0.01893   0.00000   0.05200   0.05200   2.85322
   R24        2.32905  -0.01074   0.00000  -0.01166  -0.01166   2.31739
   R25        2.32356  -0.02023   0.00000  -0.02167  -0.02167   2.30188
   R26        2.88980  -0.00104   0.00000  -0.00331  -0.00331   2.88649
   R27        2.90272   0.00775   0.00000   0.02501   0.02501   2.92773
   R28        2.88768   0.00456   0.00000   0.01438   0.01438   2.90206
   R29        2.07558   0.00100   0.00000   0.00277   0.00277   2.07835
   R30        2.07334   0.00095   0.00000   0.00263   0.00263   2.07596
   R31        2.07158   0.00083   0.00000   0.00230   0.00230   2.07388
   R32        2.87804   0.00704   0.00000   0.02186   0.02186   2.89990
   R33        2.06884   0.00111   0.00000   0.00305   0.00305   2.07189
   R34        2.07084  -0.00037   0.00000  -0.00101  -0.00101   2.06983
   R35        2.06895  -0.00130   0.00000  -0.00359  -0.00359   2.06536
   R36        2.91747  -0.00071   0.00000   0.01021   0.01052   2.92800
   R37        2.90447   0.00432   0.00000   0.01550   0.01552   2.91999
[...]
     60          1           0        0.943392    0.124005    4.199810
     61          1           0       -0.670552   -0.137598    4.853328
     62          6           0        4.215537   -2.600570    0.091507
     63          1           0        5.178669   -2.667519   -0.425862
     64          1           0        3.439253   -2.983038   -0.578504
     65          1           0        4.263926   -3.263853    0.962998
 ---------------------------------------------------------------------
 Rotational constants (GHZ):      0.2068064      0.1301808      0.1198727

 **********************************************************************

            Population analysis using the SCF density.

 **********************************************************************

 Orbital symmetries:
       Occupied  (A) (A) (A) (A) (A) (A) (A) (A) (A) (A) (A) (A)
                 (A) (A) (A) (A) (A) (A) (A) (A) (A) (A) (A) (A)
                 (A) (A) (A) (A) (A) (A) (A) (A) (A) (A) (A) (A)
                 (A) (A) (A) (A) (A) (A) (A) (A) (A) (A) (A) (A)
                 (A) (A) (A) (A) (A) (A) (A) (A) (A) (A) (A) (A)
                 (A) (A) (A) (A) (A) (A) (A) (A) (A) (A) (A) (A)
                 (A) (A) (A) (A) (A) (A) (A) (A) (A) (A) (A) (A)
                 (A) (A) (A) (A) (A) (A) (A) (A) (A) (A) (A) (A)
                 (A) (A) (A) (A) (A) (A) (A) (A) (A) (A) (A) (A)
                 (A) (A) (A) (A) (A) (A) (A)
       Virtual   (A) (A) (A) (A) (A) (A) (A) (A) (A) (A) (A) (A)
                 (A) (A) (A) (A) (A) (A) (A) (A) (A) (A) (A) (A)
                 (A) (A) (A) (A) (A) (A) (A) (A) (A) (A) (A) (A)
                 (A) (A) (A) (A) (A) (A) (A) (A) (A) (A) (A) (A)
                 (A) (A) (A) (A) (A) (A) (A) (A) (A) (A) (A) (A)
                 (A) (A) (A) (A) (A) (A) (A) (A) (A) (A) (A) (A)
                 (A) (A) (A) (A) (A) (A) (A) (A) (A) (A) (A) (A)
                 (A) (A) (A) (A) (A) (A) (A) (A) (A) (A) (A) (A)
                 (A) (A) (A) (A) (A) (A) (A) (A) (A) (A) (A) (A)
                 (A) (A) (A) (A) (A) (A) (A) (A) (A) (A) (A) (A)
                 (A) (A) (A) (A) (A) (A) (A) (A) (A) (A) (A) (A)
                 (A) (A) (A) (A) (A) (A) (A) (A) (A) (A) (A) (A)
                 (A) (A) (A) (A) (A) (A) (A) (A) (A) (A) (A) (A)
                 (A) (A) (A) (A) (A) (A) (A) (A) (A) (A) (A) (A)
                 (A) (A) (A) (A) (A) (A) (A) (A) (A) (A) (A) (A)
                 (A) (A) (A) (A) (A) (A) (A) (A) (A) (A) (A) (A)
                 (A) (A) (A) (A) (A) (A) (A) (A) (A) (A) (A) (A)
                 (A) (A) (A) (A) (A) (A) (A) (A) (A) (A) (A) (A)
                 (A) (A) (A) (A) (A) (A) (A) (A) (A) (A) (A) (A)
                 (A) (A) (A) (A) (A) (A) (A) (A) (A) (A) (A) (A)
                 (A) (A) (A) (A) (A) (A) (A) (A) (A) (A) (A) (A)
                 (A) (A) (A) (A) (A) (A) (A) (A) (A) (A) (A) (A)
                 (A) (A) (A) (A) (A) (A) (A) (A) (A) (A) (A) (A)
                 (A) (A) (A) (A) (A) (A) (A) (A) (A) (A) (A) (A)
                 (A) (A) (A) (A) (A) (A) (A) (A) (A) (A) (A) (A)
                 (A) (A) (A) (A) (A) (A) (A) (A) (A) (A) (A) (A)
                 (A) (A) (A) (A) (A) (A) (A) (A) (A) (A) (A) (A)
                 (A) (A) (A) (A) (A) (A) (A) (A) (A) (A) (A) (A)
                 (A) (A) (A) (A) (A) (A) (A) (A) (A) (A) (A) (A)
                 (A) (A) (A) (A) (A) (A) (A) (A) (A) (A) (A) (A)
                 (A) (A) (A) (A) (A) (A) (A) (A) (A) (A) (A) (A)
                 (A) (A) (A) (A) (A) (A) (A) (A) (A) (A) (A) (A)
                 (A) (A) (A) (A) (A) (A) (A) (A) (A) (A) (A) (A)
                 (A) (A) (A) (A) (A) (A) (A) (A) (A) (A) (A) (A)
                 (A) (A) (A) (A) (A) (A) (A) (A) (A) (A)
 The electronic state is 1-A.
 Alpha  occ. eigenvalues --  -19.19706 -19.16641 -19.15720 -19.12750 -19.12550
 Alpha  occ. eigenvalues --  -10.27068 -10.27061 -10.26896 -10.26435 -10.25799
 Alpha  occ. eigenvalues --  -10.25773 -10.25132 -10.21288 -10.20754 -10.20725
 Alpha  occ. eigenvalues --  -10.20544 -10.20155 -10.19648 -10.19458 -10.19370
 Alpha  occ. eigenvalues --  -10.19204 -10.18871 -10.18818 -10.18799 -10.18758
 Alpha  occ. eigenvalues --  -10.18406 -10.18374 -10.18250 -10.17896 -10.16179
 Alpha  occ. eigenvalues --  -10.15736  -1.09068  -1.05829  -1.03181  -1.02403
 Alpha  occ. eigenvalues --   -1.02176  -0.86787  -0.83758  -0.82402  -0.81490
 Alpha  occ. eigenvalues --   -0.80302  -0.79583  -0.76723  -0.74307  -0.73258
 Alpha  occ. eigenvalues --   -0.71831  -0.71205  -0.70182  -0.69454  -0.67962
 Alpha  occ. eigenvalues --   -0.65436  -0.64556  -0.63305  -0.61648  -0.60668
 Alpha  occ. eigenvalues --   -0.59384  -0.58659  -0.56919  -0.55042  -0.53436
 Alpha  occ. eigenvalues --   -0.52623  -0.52264  -0.50461  -0.50340  -0.49218
 Alpha  occ. eigenvalues --   -0.48182  -0.47399  -0.46667  -0.46348  -0.45885
 Alpha  occ. eigenvalues --   -0.45301  -0.44791  -0.44457  -0.44101  -0.43459
 Alpha  occ. eigenvalues --   -0.43211  -0.42455  -0.41949  -0.41543  -0.41478
 Alpha  occ. eigenvalues --   -0.40951  -0.40768  -0.40451  -0.40228  -0.39271
 Alpha  occ. eigenvalues --   -0.39146  -0.38473  -0.38205  -0.38055  -0.37706
 Alpha  occ. eigenvalues --   -0.37581  -0.37397  -0.37186  -0.36926  -0.36714
 Alpha  occ. eigenvalues --   -0.36538  -0.35871  -0.35116  -0.34877  -0.34528
 Alpha  occ. eigenvalues --   -0.33838  -0.33552  -0.33239  -0.32833  -0.32038
 Alpha  occ. eigenvalues --   -0.31477  -0.31231  -0.30956  -0.28064  -0.26670
 Alpha  occ. eigenvalues --   -0.26222  -0.24908  -0.24181  -0.23477  -0.22611
 Alpha virt. eigenvalues --   -0.04482  -0.00678   0.00370   0.01941   0.04967
 Alpha virt. eigenvalues --    0.06470   0.07655   0.08859   0.08928   0.10048
 Alpha virt. eigenvalues --    0.10353   0.10885   0.11179   0.11796   0.12622
 Alpha virt. eigenvalues --    0.12980   0.13157   0.13452   0.13925   0.13966
 Alpha virt. eigenvalues --    0.14450   0.14756   0.15011   0.15548   0.15804
 Alpha virt. eigenvalues --    0.16364   0.16462   0.16901   0.16999   0.17278
 Alpha virt. eigenvalues --    0.17412   0.17842   0.18375   0.18484   0.18711
 Alpha virt. eigenvalues --    0.19053   0.19330   0.19822   0.20093   0.20339
 Alpha virt. eigenvalues --    0.20727   0.21283   0.21562   0.21919   0.22264
 Alpha virt. eigenvalues --    0.22644   0.23089   0.23621   0.23844   0.24043
 Alpha virt. eigenvalues --    0.24528   0.24812   0.25571   0.25903   0.26904
 Alpha virt. eigenvalues --    0.27214   0.27507   0.27958   0.28574   0.29625
 Alpha virt. eigenvalues --    0.30621   0.31649   0.32511   0.33097   0.33901
 Alpha virt. eigenvalues --    0.34341   0.36799   0.37265   0.38898   0.38931
 Alpha virt. eigenvalues --    0.41392   0.45191   0.46162   0.48253   0.48547
 Alpha virt. eigenvalues --    0.49187   0.50054   0.50971   0.51324   0.51733
 Alpha virt. eigenvalues --    0.51992   0.52346   0.52751   0.53211   0.53466
 Alpha virt. eigenvalues --    0.53619   0.53859   0.54315   0.55331   0.56874
 Alpha virt. eigenvalues --    0.57100   0.57233   0.57657   0.58419   0.58709
 Alpha virt. eigenvalues --    0.59679   0.60024   0.60278   0.61300   0.61508
 Alpha virt. eigenvalues --    0.61945   0.62582   0.63122   0.63787   0.65053
 Alpha virt. eigenvalues --    0.65281   0.65805   0.66203   0.66773   0.67504
 Alpha virt. eigenvalues --    0.67597   0.68273   0.68488   0.69254   0.69594
 Alpha virt. eigenvalues --    0.69770   0.71100   0.71628   0.72244   0.73204
 Alpha virt. eigenvalues --    0.73602   0.74511   0.75055   0.75556   0.76186
 Alpha virt. eigenvalues --    0.76919   0.77772   0.78836   0.79157   0.79785
 Alpha virt. eigenvalues --    0.79852   0.80230   0.81408   0.82227   0.82877
 Alpha virt. eigenvalues --    0.83256   0.83972   0.84542   0.84891   0.85007
 Alpha virt. eigenvalues --    0.85711   0.86120   0.86681   0.86813   0.87147
 Alpha virt. eigenvalues --    0.87646   0.88055   0.88181   0.88347   0.88840
 Alpha virt. eigenvalues --    0.89008   0.89360   0.90032   0.90496   0.90554
 Alpha virt. eigenvalues --    0.90918   0.91381   0.91549   0.91957   0.92315
 Alpha virt. eigenvalues --    0.92612   0.93528   0.93918   0.94389   0.94627
 Alpha virt. eigenvalues --    0.95361   0.95795   0.95951   0.96052   0.97042
 Alpha virt. eigenvalues --    0.97518   0.97967   0.98056   0.99014   1.00112
 Alpha virt. eigenvalues --    1.00481   1.01148   1.01883   1.03003   1.03544
 Alpha virt. eigenvalues --    1.04395   1.04845   1.06326   1.06580   1.08165
 Alpha virt. eigenvalues --    1.08733   1.09924   1.11540   1.12042   1.12946
 Alpha virt. eigenvalues --    1.13824   1.14472   1.15169   1.15483   1.16731
 Alpha virt. eigenvalues --    1.17227   1.17741   1.18575   1.19380   1.20983
 Alpha virt. eigenvalues --    1.22420   1.22951   1.24746   1.25413   1.26090
 Alpha virt. eigenvalues --    1.28031   1.29075   1.29547   1.31741   1.32664
 Alpha virt. eigenvalues --    1.34019   1.36516   1.37285   1.38715   1.40168
 Alpha virt. eigenvalues --    1.40725   1.41275   1.43875   1.45051   1.45734
 Alpha virt. eigenvalues --    1.47250   1.48139   1.50175   1.50939   1.53137
 Alpha virt. eigenvalues --    1.53536   1.55050   1.55758   1.55945   1.58705
 Alpha virt. eigenvalues --    1.60689   1.60869   1.61868   1.62665   1.63356
 Alpha virt. eigenvalues --    1.64971   1.65669   1.65856   1.67744   1.68286
 Alpha virt. eigenvalues --    1.70652   1.71537   1.72154   1.72922   1.73484
 Alpha virt. eigenvalues --    1.74394   1.74952   1.76056   1.76905   1.78141
 Alpha virt. eigenvalues --    1.78948   1.79124   1.79607   1.80297   1.81658
 Alpha virt. eigenvalues --    1.82412   1.82811   1.83430   1.84641   1.85158
 Alpha virt. eigenvalues --    1.85978   1.86182   1.86760   1.87381   1.87928
 Alpha virt. eigenvalues --    1.88526   1.89122   1.89682   1.90304   1.91300
 Alpha virt. eigenvalues --    1.91542   1.92470   1.93698   1.93975   1.95100
 Alpha virt. eigenvalues --    1.95489   1.96092   1.96990   1.98232   1.98606
 Alpha virt. eigenvalues --    1.99192   1.99529   1.99856   2.00421   2.01972
 Alpha virt. eigenvalues --    2.02548   2.03139   2.03501   2.05027   2.06251
 Alpha virt. eigenvalues --    2.06644   2.08163   2.08698   2.08780   2.09370
 Alpha virt. eigenvalues --    2.09788   2.11111   2.11577   2.12000   2.12874
 Alpha virt. eigenvalues --    2.14032   2.14599   2.15921   2.16535   2.16748
 Alpha virt. eigenvalues --    2.17750   2.19326   2.19705   2.21188   2.22054
 Alpha virt. eigenvalues --    2.23423   2.24201   2.25146   2.25811   2.26537
 Alpha virt. eigenvalues --    2.28230   2.29341   2.29699   2.30352   2.31692
 Alpha virt. eigenvalues --    2.32402   2.33592   2.33680   2.34099   2.34646
 Alpha virt. eigenvalues --    2.35519   2.35859   2.36856   2.38190   2.38699
 Alpha virt. eigenvalues --    2.40044   2.40417   2.41349   2.41913   2.42737
 Alpha virt. eigenvalues --    2.43516   2.45453   2.46084   2.47023   2.48555
 Alpha virt. eigenvalues --    2.49976   2.50784   2.51656   2.52407   2.52929
 Alpha virt. eigenvalues --    2.55106   2.56476   2.57527   2.58165   2.59359
 Alpha virt. eigenvalues --    2.60645   2.61709   2.62130   2.63742   2.66101
 Alpha virt. eigenvalues --    2.66243   2.67219   2.67953   2.69282   2.70670
 Alpha virt. eigenvalues --    2.71554   2.72431   2.73485   2.75302   2.76401
 Alpha virt. eigenvalues --    2.78615   2.79711   2.80663   2.83593   2.85414
 Alpha virt. eigenvalues --    2.86626   2.88865   2.90972   2.94632   2.95990
 Alpha virt. eigenvalues --    2.97175   2.99750   3.01153   3.01605   3.03181
 Alpha virt. eigenvalues --    3.05525   3.06999   3.11865   3.18150   3.21405
 Alpha virt. eigenvalues --    3.24354   3.28394   4.02468   4.07893   4.11712
 Alpha virt. eigenvalues --    4.12542   4.13453   4.14112   4.19451   4.19624
 Alpha virt. eigenvalues --    4.22105   4.23918   4.25029   4.28039   4.31169
 Alpha virt. eigenvalues --    4.33897   4.34852   4.37373   4.38093   4.44185
 Alpha virt. eigenvalues --    4.45393   4.50607   4.53323   4.57578   4.60226
 Alpha virt. eigenvalues --    4.63715   4.64437   4.68818   4.75297   4.82411
 Alpha virt. eigenvalues --    4.89925   5.03268   5.16070
          Condensed to atoms (all electrons):
 Mulliken atomic charges:
              1
     1  C   -0.188803
     2  C    0.189537
     3  C   -0.187276
     4  C    0.322883
     5  C   -0.058548
     6  C   -0.333156
     7  C    0.205431
     8  C    0.390072
     9  C   -0.095460
    10  C    0.436969
    11  C    0.429542
    12  O   -0.435112
    13  C   -0.167591
    14  C   -0.267138
    15  C   -0.445415
    16  O   -0.501393
    17  C   -0.163505
    18  C    0.304287
    19  O   -0.535261
    20  C   -0.321829
    21  O   -0.655025
    22  C   -0.326356
    23  C    0.096367
    24  O   -0.592123
    25  C    0.179889
    26  C   -0.507958
    27  C   -0.392309
    28  C   -0.467392
    29  C   -0.460340
    30  H    0.144107
    31  H    0.165415
    32  C   -0.519452
    33  H    0.123205
    34  H    0.146725
    35  H    0.185875
    36  H    0.147153
    37  H    0.132760
    38  H    0.136834
    39  H    0.131437
    40  H    0.149906
    41  H    0.168616
    42  H    0.151326
    43  H    0.161426
    44  H    0.413959
    45  H    0.168645
    46  H    0.176539
    47  H    0.138096
    48  H    0.156120
    49  H    0.169922
    50  H    0.154689
    51  H    0.156238
    52  H    0.142616
    53  H    0.195818
    54  H    0.157587
    55  H    0.142366
    56  H    0.152104
    57  H    0.164137
    58  H    0.158922
    59  H    0.158426
    60  H    0.155497
    61  H    0.151629
    62  C   -0.460145
    63  H    0.143735
    64  H    0.189314
    65  H    0.135466
 Sum of Mulliken atomic charges =   0.00000
 Mulliken charges with hydrogens summed into heavy atoms:
              1
     1  C   -0.065599
     2  C    0.189537
     3  C   -0.021861
     4  C    0.322883
     5  C   -0.058548
     6  C   -0.000556
     7  C    0.205431
     8  C    0.390072
     9  C   -0.095460
    10  C    0.436969
    11  C    0.429542
    12  O   -0.435112
    13  C   -0.020438
    14  C    0.002456
    15  C    0.004544
    16  O   -0.501393
    17  C   -0.019398
    18  C    0.304287
    19  O   -0.535261
    20  C   -0.009077
    21  O   -0.241066
    22  C    0.018828
    23  C    0.234463
    24  O   -0.592123
    25  C    0.179889
    26  C   -0.027227
    27  C   -0.093455
    28  C    0.028379
    29  C    0.014823
    32  C   -0.053899
    62  C    0.008370
 Sum of Mulliken charges with hydrogens summed into heavy atoms =   0.00000
 Electronic spatial extent (au):  <R**2>=          11120.5094
 Charge=              0.0000 electrons
 Dipole moment (field-independent basis, Debye):
    X=             -3.5828    Y=              3.5932    Z=              5.0220  Tot=              7.1392
 Quadrupole moment (field-independent basis, Debye-Ang):
   XX=           -178.4223   YY=           -180.3362   ZZ=           -190.5144
   XY=              7.4078   XZ=             11.3299   YZ=             -1.8221
 Traceless Quadrupole moment (field-independent basis, Debye-Ang):
   XX=              4.6687   YY=              2.7548   ZZ=             -7.4235
   XY=              7.4078   XZ=             11.3299   YZ=             -1.8221
 Octapole moment (field-independent basis, Debye-Ang**2):
  XXX=            -42.6993  YYY=             55.7464  ZZZ=             20.4255  XYY=            -11.1718
  XXY=              8.9869  XXZ=             -2.2455  XZZ=            -30.7753  YZZ=             10.4649
  YYZ=             18.5367  XYZ=            -13.6906
 Hexadecapole moment (field-independent basis, Debye-Ang**3):
 XXXX=          -7679.1339 YYYY=          -3850.6517 ZZZZ=          -3077.0517 XXXY=            -20.5519
 XXXZ=             98.4761 YYYX=             41.7981 YYYZ=            -23.3331 ZZZX=             83.6038
 ZZZY=            -11.8873 XXYY=          -1984.0539 XXZZ=          -1862.1359 YYZZ=          -1168.5222
 XXYZ=            -28.4421 YYXZ=             -5.2308 ZZXY=             18.7510
 N-N= 3.535328474700D+03 E-N=-1.029674499145D+04  KE= 1.374446155999D+03
 1\1\GINC-B0805\FOpt\RB3LYP\6-31G(d)\C26H34O5\CAOFEI\24-Mar-2021\0\\# o
 pt rb3lyp/6-31g(d) geom=connectivity\\Title Card Required\\0,1\C,-0.10
 48893058,0.0410919785,0.0730959818\C,1.2326424033,-0.00717049,0.098264
 268\C,2.0656013833,1.2575204392,0.0631710711\C,1.3020327915,2.56642141
 6,-0.3160084548\C,-0.1919910373,2.4647173595,-0.724920643\C,-0.9055056
 878,1.3126577375,0.0212769864\C,2.1876679049,3.2272947511,-1.405833001
 \C,1.836319827,2.7737803634,-2.8044185987\C,0.5959464558,2.4440249298,
 -3.2275610686\C,-0.4869389558,2.3135121641,-2.2442379993\C,0.27194019,
 2.1848444102,-4.6880094932\O,-0.4506320059,2.9561114153,-5.286894189\C
 ,0.8634370825,0.9315994921,-5.3308324814\C,0.2413470173,-0.3448417069,
 -4.6964495669\C,0.7334409739,0.9741854476,-6.8563607371\O,-1.631611707
 1,2.03844925,-2.5857279997\C,3.6071049772,2.6277865209,-1.3039618666\C
 ,4.166602513,2.827562796,-2.7343520875\O,2.9395776502,2.7221173236,-3.
 5735071839\C,3.3011859912,1.1770159891,-0.882075766\O,2.1158291539,4.6
 399006508,-1.371870284\C,-0.7403722891,3.8374025732,-0.2522268525\C,0.
 0252318808,4.0768961484,1.0465159469\O,1.3270317521,3.4554229506,0.828
 7271331\C,0.2472330061,5.4988116813,1.5205374994\C,1.0744796062,5.6227
 28562,2.7779362641\C,-0.2768661447,6.5620684854,0.9029615375\C,4.76132
 86702,4.2206529679,-2.9523985494\C,5.1206017281,1.7472271356,-3.237017
 0472\H,4.2146528336,3.1489853504,-0.5577136338\H,2.4410505861,1.443139
 5427,1.0797341929\C,1.9788885564,-1.310558221,0.2458935767\H,-0.667816
 5218,-0.8890367418,0.1404103238\H,-1.142606226,1.6269387538,1.04858554
 78\H,-1.8650370528,1.1477231381,-0.4768391852\H,1.9289916957,0.9243240
 736,-5.0618409827\H,0.7896369416,-1.2089136714,-5.095801457\H,0.433849
 1692,-0.3336537152,-3.615341795\H,1.1398192724,0.0577422074,-7.3000905
 29\H,1.2804845792,1.8276576544,-7.2698060459\H,-0.3094479316,1.0795385
 179,-7.1656477853\H,4.1541918901,0.6878950619,-0.4029235419\H,3.042817
 8465,0.5786226099,-1.7627474396\H,2.0423030777,4.8561446053,-0.4212499
 506\H,-1.8243376151,3.813805321,-0.1122548463\H,-0.4993628957,4.607716
 2551,-0.989714135\H,-0.4542567791,3.5248147709,1.8700690706\H,0.599230
 7617,5.088945516,3.6125832723\H,2.0644924626,5.1720700842,2.6429135498
 \H,1.2031404941,6.668598706,3.0716463102\H,-0.8854795423,6.4830652476,
 0.0080659668\H,-0.118818425,7.5664237652,1.2879641521\H,4.0743902703,4
 .995671393,-2.6083986662\H,4.9699938439,4.3727198025,-4.0163176747\H,5
 .7045620416,4.3152880497,-2.4018601123\H,6.0384708122,1.7533025632,-2.
 6386871709\H,5.3932777771,1.9431861329,-4.2789082655\H,4.6789182099,0.
 7492143445,-3.1828535209\H,1.2861669855,-2.1535091715,0.3298296309\H,2
 .644805282,-1.5071998848,-0.6039993282\H,2.6122582351,-1.3034673773,1.
 1446490464\C,-1.2615846954,-0.5278480971,-4.9386715373\H,-1.494189756,
 -0.6059705736,-6.0061772378\H,-1.8342731229,0.3072114972,-4.5233220984
 \H,-1.6126588859,-1.4482802529,-4.4577005197\\Version=EM64L-G09RevB.01
 \State=1-A\HF=-1387.3180109\RMSD=5.424e-09\RMSF=4.586e-06\Dipole=1.975
 9428,-0.5252151,1.9258711\Quadrupole=0.3912114,3.3561691,-3.7473804,-1
 .0334889,-8.5280161,6.320626\PG=C01 [X(C26H34O5)]\\@


 THESE ARE THE TIMES THAT TRY MENS SOULS.
 THE SUMMER SOLDIER AND THE SUNSHINE PATRIOT WILL IN THIS CRISIS,
 SHRINK FROM THE SERVICE OF HIS COUNTRY.  BUT HE THAT STANDS NOW,
 DESERVES THE LOVE AND THANKS OF MAN AND WOMAN.
 TYRANNY, LIKE HELL, IS NOT EASILY CONQUERED,
 YET WE HAVE THIS CONSOLATION WITH US,
 THAT THE HARDER THE CONFLICT, THE MORE GLORIOUS THE TRIUMPH.
 WHAT WE OBTAIN TOO CHEAP, WE ESTEEM TOO LIGHTLY, 
 'TIS DEARNESS ONLY THAT GIVES EVERYTHING ITS VALUE.

                                              -- TOM PAINE
 Job cpu time:  0 days  4 hours 24 minutes 40.7 seconds.
 File lengths (MBytes):  RWF=    186 Int=      0 D2E=      0 Chk=     20 Scr=      1
 Normal termination of Gaussian 09 at Wed Mar 24 18:08:02 2021.
