 Entering Gaussian System, Link 0=g09
 Initial command:
 /public/software/g09/g09/l1.exe /tmp/Gau-17184.inp -scrdir=/tmp/
 Entering Link 1 = /public/software/g09/g09/l1.exe PID=     17185.
  
 Copyright (c) 1988,1990,1992,1993,1995,1998,2003,2009,2010,
            Gaussian, Inc.  All Rights Reserved.
  
 This is part of the Gaussian(R) 09 program.  It is based on
 the Gaussian(R) 03 system (copyright 2003, Gaussian, Inc.),
 the Gaussian(R) 98 system (copyright 1998, Gaussian, Inc.),
 the Gaussian(R) 94 system (copyright 1995, Gaussian, Inc.),
 the Gaussian 92(TM) system (copyright 1992, Gaussian, Inc.),
 the Gaussian 90(TM) system (copyright 1990, Gaussian, Inc.),
 the Gaussian 88(TM) system (copyright 1988, Gaussian, Inc.),
 the Gaussian 86(TM) system (copyright 1986, Carnegie Mellon
 University), and the Gaussian 82(TM) system (copyright 1983,
 Carnegie Mellon University). Gaussian is a federally registered
 trademark of Gaussian, Inc.
  
 This software contains proprietary and confidential information,
 including trade secrets, belonging to Gaussian, Inc.
  
 This software is provided under written license and may be
 used, copied, transmitted, or stored only in accord with that
 written license.
  
 The following legend is applicable only to US Government
 contracts under FAR:
  
                    RESTRICTED RIGHTS LEGEND
  
 Use, reproduction and disclosure by the US Government is
 subject to restrictions as set forth in subparagraphs (a)
 and (c) of the Commercial Computer Software - Restricted
 Rights clause in FAR 52.227-19.
  
 Gaussian, Inc.
 340 Quinnipiac St., Bldg. 40, Wallingford CT 06492
  
  
 ---------------------------------------------------------------
 Warning -- This program may not be used in any manner that
 competes with the business of Gaussian, Inc. or will provide
 assistance to any competitor of Gaussian, Inc.  The licensee
 of this program is prohibited from giving any competitor of
 Gaussian, Inc. access to this program.  By using this program,
 the user acknowledges that Gaussian, Inc. is engaged in the
 business of creating and licensing software in the field of
 computational chemistry and represents and warrants to the
 licensee that it is not a competitor of Gaussian, Inc. and that
 it will not use this program in any manner prohibited above.
 ---------------------------------------------------------------
  

 Cite this work as:
 Gaussian 09, Revision B.01,
 M. J. Frisch, G. W. Trucks, H. B. Schlegel, G. E. Scuseria, 
 M. A. Robb, J. R. Cheeseman, G. Scalmani, V. Barone, B. Mennucci, 
 G. A. Petersson, H. Nakatsuji, M. Caricato, X. Li, H. P. Hratchian, 
 A. F. Izmaylov, J. Bloino, G. Zheng, J. L. Sonnenberg, M. Hada, 
 M. Ehara, K. Toyota, R. Fukuda, J. Hasegawa, M. Ishida, T. Nakajima, 
 Y. Honda, O. Kitao, H. Nakai, T. Vreven, J. A. Montgomery, Jr., 
 J. E. Peralta, F. Ogliaro, M. Bearpark, J. J. Heyd, E. Brothers, 
 K. N. Kudin, V. N. Staroverov, T. Keith, R. Kobayashi, J. Normand, 
 K. Raghavachari, A. Rendell, J. C. Burant, S. S. Iyengar, J. Tomasi, 
 M. Cossi, N. Rega, J. M. Millam, M. Klene, J. E. Knox, J. B. Cross, 
 V. Bakken, C. Adamo, J. Jaramillo, R. Gomperts, R. E. Stratmann, 
 O. Yazyev, A. J. Austin, R. Cammi, C. Pomelli, J. W. Ochterski, 
 R. L. Martin, K. Morokuma, V. G. Zakrzewski, G. A. Voth, 
 P. Salvador, J. J. Dannenberg, S. Dapprich, A. D. Daniels, 
 O. Farkas, J. B. Foresman, J. V. Ortiz, J. Cioslowski, 
 and D. J. Fox, Gaussian, Inc., Wallingford CT, 2010.
 
 ******************************************
 Gaussian 09:  EM64L-G09RevB.01 12-Aug-2010
                24-Mar-2021 
 ******************************************
 %mem=600MW
 %nprocshared=10
 Will use up to   10 processors via shared memory.
 ---------------------------------------
 # opt rb3lyp/6-31g(d) geom=connectivity
 ---------------------------------------
 1/14=-1,18=20,19=15,26=3,38=1,57=2/1,3;
 2/9=110,12=2,17=6,18=5,40=1/2;
 3/5=1,6=6,7=1,11=2,16=1,25=1,30=1,71=1,74=-5,116=1/1,2,3;
 4//1;
 5/5=2,38=5/2;
 6/7=2,8=2,9=2,10=2,28=1/1;
 7//1,2,3,16;
 1/14=-1,18=20,19=15/3(2);
 2/9=110/2;
 99//99;
 2/9=110/2;
 3/5=1,6=6,7=1,11=2,16=1,25=1,30=1,71=1,74=-5,116=1/1,2,3;
 4/5=5,16=3/1;
 5/5=2,38=5/2;
 7//1,2,3,16;
 1/14=-1,18=20,19=15/3(-5);
 2/9=110/2;
 6/7=2,8=2,9=2,10=2,19=2,28=1/1;
 99/9=1/99;
 -------------------
 Title Card Required
 -------------------
 Symbolic Z-matrix:
 Charge =  0 Multiplicity = 1
 C                     0.        0.        0. 
 C                     1.3409    0.        0. 
 C                     2.1166    1.2919    0. 
 C                     1.3916    2.5333    0.6013 
 C                    -0.1337    2.4193    0.7965 
 C                    -0.7976    1.2652    0.0094 
 C                     1.8438    3.706    -0.3065 
 C                     0.817     4.2163   -1.2557 
 C                    -0.48      4.2964   -0.944 
 C                    -0.8888    3.6791    0.3429 
 C                    -1.4944    4.7668   -1.9104 
 O                    -2.3073    3.9414   -2.3386 
 C                    -1.5354    6.2254   -2.3773 
 C                    -0.7055    7.248    -1.584 
 C                    -1.1609    6.277    -3.8608 
 O                    -1.8815    4.1027    0.9315 
 C                     2.8924    3.1857   -1.2693 
 C                     2.7112    4.087    -2.5057 
 O                     1.3201    4.4902   -2.5177 
 C                     2.4988    1.7144   -1.4256 
 O                     2.3396    4.8098    0.4383 
 C                    -0.2752    2.1816    2.3032 
 C                     0.9791    2.7615    2.9357 
 O                     1.9848    2.7665    1.9121 
 C                     0.9582    4.1412    3.5612 
 C                     2.2472    4.5503    4.2338 
 C                    -0.0965    4.9721    3.6019 
 C                     3.5641    5.3632   -2.4253 
 C                     3.0148    3.3809   -3.8299 
 H                     3.9103    3.2573   -0.8659 
 H                     3.0413    1.1287    0.5728 
 C                     2.1375   -1.2724   -0.0406 
 H                    -0.5537   -0.9353   -0.0421 
 H                    -0.991     1.5396   -1.0355 
 H                    -1.7831    1.0541    0.4464 
 H                    -2.5893    6.5253   -2.2925 
 H                     0.3407    6.9388   -1.4972 
 H                    -0.6951    8.1984   -2.1333 
 H                    -0.1001    6.059    -4.0166 
 H                    -1.3633    7.2699   -4.2767 
 H                    -1.7371    5.5497   -4.4429 
 H                     1.6474    1.5879   -2.106 
 H                     3.3298    1.1195   -1.82 
 H                     2.5869    4.446     1.3129 
 H                    -1.2047    2.5527    2.7436 
 H                    -0.2724    1.1028    2.5103 
 H                     1.3163    2.0671    3.7162 
 H                     3.0668    4.6017    3.5109 
 H                     2.1713    5.5322    4.7133 
 H                     2.5147    3.8257    5.0101 
 H                    -1.0607    4.7297    3.1726 
 H                    -0.0318    5.9429    4.0857 
 H                     3.3116    5.9748   -1.5541 
 H                     4.6323    5.1265   -2.386 
 H                     3.3838    6.003    -3.2972 
 H                     4.0342    2.9824   -3.8464 
 H                     2.3118    2.5652   -4.0267 
 H                     2.9016    4.0729   -4.6728 
 H                     1.4952   -2.1592   -0.0583 
 H                     2.7684   -1.3005   -0.9346 
 H                     2.7805   -1.345     0.8424 
 C                    -1.2672    7.5359   -0.1979 
 H                    -0.6858    8.3294    0.2829 
 H                    -2.3073    7.8718   -0.258 
 H                    -1.2265    6.6594    0.4512 
 

 GradGradGradGradGradGradGradGradGradGradGradGradGradGradGradGradGradGrad
 Berny optimization.
 Initialization pass.
                           ----------------------------
                           !    Initial Parameters    !
                           ! (Angstroms and Degrees)  !
 --------------------------                            --------------------------
 ! Name  Definition              Value          Derivative Info.                !
 --------------------------------------------------------------------------------
 ! R1    R(1,2)                  1.3409         estimate D2E/DX2                !
 ! R2    R(1,6)                  1.4957         estimate D2E/DX2                !
 ! R3    R(1,33)                 1.0877         estimate D2E/DX2                !
 ! R4    R(2,3)                  1.5069         estimate D2E/DX2                !
 ! R5    R(2,32)                 1.5017         estimate D2E/DX2                !
 ! R6    R(3,4)                  1.5583         estimate D2E/DX2                !
 ! R7    R(3,20)                 1.5352         estimate D2E/DX2                !
 ! R8    R(3,31)                 1.0999         estimate D2E/DX2                !
 ! R9    R(4,5)                  1.542          estimate D2E/DX2                !
 ! R10   R(4,7)                  1.5504         estimate D2E/DX2                !
 ! R11   R(4,24)                 1.4576         estimate D2E/DX2                !
 ! R12   R(5,6)                  1.5467         estimate D2E/DX2                !
 ! R13   R(5,10)                 1.5372         estimate D2E/DX2                !
 ! R14   R(5,22)                 1.5319         estimate D2E/DX2                !
 ! R15   R(6,34)                 1.0975         estimate D2E/DX2                !
 ! R16   R(6,35)                 1.0985         estimate D2E/DX2                !
 ! R17   R(7,8)                  1.4885         estimate D2E/DX2                !
 ! R18   R(7,17)                 1.5157         estimate D2E/DX2                !
 ! R19   R(7,21)                 1.4209         estimate D2E/DX2                !
 ! R20   R(8,9)                  1.3363         estimate D2E/DX2                !
 ! R21   R(8,19)                 1.3859         estimate D2E/DX2                !
 ! R22   R(9,10)                 1.4847         estimate D2E/DX2                !
 ! R23   R(9,11)                 1.4779         estimate D2E/DX2                !
 ! R24   R(10,16)                1.2294         estimate D2E/DX2                !
 ! R25   R(11,12)                1.2351         estimate D2E/DX2                !
 ! R26   R(11,13)                1.5321         estimate D2E/DX2                !
 ! R27   R(13,14)                1.5375         estimate D2E/DX2                !
 ! R28   R(13,15)                1.5309         estimate D2E/DX2                !
 ! R29   R(13,36)                1.099          estimate D2E/DX2                !
 ! R30   R(14,37)                1.0944         estimate D2E/DX2                !
 ! R31   R(14,38)                1.0978         estimate D2E/DX2                !
 ! R32   R(14,62)                1.523          estimate D2E/DX2                !
 ! R33   R(15,39)                1.0941         estimate D2E/DX2                !
 ! R34   R(15,40)                1.0953         estimate D2E/DX2                !
 ! R35   R(15,41)                1.0954         estimate D2E/DX2                !
 ! R36   R(17,18)                1.5407         estimate D2E/DX2                !
 ! R37   R(17,20)                1.531          estimate D2E/DX2                !
 ! R38   R(17,30)                1.0973         estimate D2E/DX2                !
 ! R39   R(18,19)                1.4484         estimate D2E/DX2                !
 ! R40   R(18,28)                1.5371         estimate D2E/DX2                !
 ! R41   R(18,29)                1.5311         estimate D2E/DX2                !
 ! R42   R(20,42)                1.0972         estimate D2E/DX2                !
 ! R43   R(20,43)                1.0955         estimate D2E/DX2                !
 ! R44   R(21,44)                0.979          estimate D2E/DX2                !
 ! R45   R(22,23)                1.5197         estimate D2E/DX2                !
 ! R46   R(22,45)                1.0935         estimate D2E/DX2                !
 ! R47   R(22,46)                1.0985         estimate D2E/DX2                !
 ! R48   R(23,24)                1.435          estimate D2E/DX2                !
 ! R49   R(23,25)                1.515          estimate D2E/DX2                !
 ! R50   R(23,47)                1.0978         estimate D2E/DX2                !
 ! R51   R(24,44)                1.8821         estimate D2E/DX2                !
 ! R52   R(25,26)                1.5104         estimate D2E/DX2                !
 ! R53   R(25,27)                1.3433         estimate D2E/DX2                !
 ! R54   R(26,48)                1.0941         estimate D2E/DX2                !
 ! R55   R(26,49)                1.0954         estimate D2E/DX2                !
 ! R56   R(26,50)                1.0951         estimate D2E/DX2                !
 ! R57   R(27,51)                1.0829         estimate D2E/DX2                !
 ! R58   R(27,52)                1.0866         estimate D2E/DX2                !
 ! R59   R(28,53)                1.094          estimate D2E/DX2                !
 ! R60   R(28,54)                1.0948         estimate D2E/DX2                !
 ! R61   R(28,55)                1.0964         estimate D2E/DX2                !
 ! R62   R(29,56)                1.0946         estimate D2E/DX2                !
 ! R63   R(29,57)                1.0947         estimate D2E/DX2                !
 ! R64   R(29,58)                1.0964         estimate D2E/DX2                !
 ! R65   R(32,59)                1.0951         estimate D2E/DX2                !
 ! R66   R(32,60)                1.0946         estimate D2E/DX2                !
 ! R67   R(32,61)                1.0947         estimate D2E/DX2                !
 ! R68   R(62,63)                1.0949         estimate D2E/DX2                !
 ! R69   R(62,64)                1.0946         estimate D2E/DX2                !
 ! R70   R(62,65)                1.0914         estimate D2E/DX2                !
 ! A1    A(2,1,6)              122.2272         estimate D2E/DX2                !
 ! A2    A(2,1,33)             120.6002         estimate D2E/DX2                !
 ! A3    A(6,1,33)             117.1395         estimate D2E/DX2                !
 ! A4    A(1,2,3)              120.982          estimate D2E/DX2                !
 ! A5    A(1,2,32)             122.036          estimate D2E/DX2                !
 ! A6    A(3,2,32)             116.9583         estimate D2E/DX2                !
 ! A7    A(2,3,4)              116.3266         estimate D2E/DX2                !
 ! A8    A(2,3,20)             111.3518         estimate D2E/DX2                !
 ! A9    A(2,3,31)             107.792          estimate D2E/DX2                !
 ! A10   A(4,3,20)             104.768          estimate D2E/DX2                !
 ! A11   A(4,3,31)             107.9624         estimate D2E/DX2                !
 ! A12   A(20,3,31)            108.3681         estimate D2E/DX2                !
 ! A13   A(3,4,5)              116.7551         estimate D2E/DX2                !
 ! A14   A(3,4,7)              103.9414         estimate D2E/DX2                !
 ! A15   A(3,4,24)             106.5665         estimate D2E/DX2                !
 ! A16   A(5,4,7)              114.7433         estimate D2E/DX2                !
 ! A17   A(5,4,24)             107.4917         estimate D2E/DX2                !
 ! A18   A(7,4,24)             106.6693         estimate D2E/DX2                !
 ! A19   A(4,5,6)              114.5412         estimate D2E/DX2                !
 ! A20   A(4,5,10)             112.8277         estimate D2E/DX2                !
 ! A21   A(4,5,22)             103.1414         estimate D2E/DX2                !
 ! A22   A(6,5,10)             104.5074         estimate D2E/DX2                !
 ! A23   A(6,5,22)             110.1877         estimate D2E/DX2                !
 ! A24   A(10,5,22)            111.8403         estimate D2E/DX2                !
 ! A25   A(1,6,5)              113.9223         estimate D2E/DX2                !
 ! A26   A(1,6,34)             107.4268         estimate D2E/DX2                !
 ! A27   A(1,6,35)             108.5635         estimate D2E/DX2                !
 ! A28   A(5,6,34)             111.9367         estimate D2E/DX2                !
 ! A29   A(5,6,35)             109.0278         estimate D2E/DX2                !
 ! A30   A(34,6,35)            105.5869         estimate D2E/DX2                !
 ! A31   A(4,7,8)              115.5617         estimate D2E/DX2                !
 ! A32   A(4,7,17)             108.3049         estimate D2E/DX2                !
 ! A33   A(4,7,21)             112.4847         estimate D2E/DX2                !
 ! A34   A(8,7,17)             100.944          estimate D2E/DX2                !
 ! A35   A(8,7,21)             107.9773         estimate D2E/DX2                !
 ! A36   A(17,7,21)            110.9922         estimate D2E/DX2                !
 ! A37   A(7,8,9)              122.7734         estimate D2E/DX2                !
 ! A38   A(7,8,19)             113.4536         estimate D2E/DX2                !
 ! A39   A(9,8,19)             123.5643         estimate D2E/DX2                !
 ! A40   A(8,9,10)             116.3911         estimate D2E/DX2                !
 ! A41   A(8,9,11)             122.1901         estimate D2E/DX2                !
 ! A42   A(10,9,11)            120.6728         estimate D2E/DX2                !
 ! A43   A(5,10,9)             117.4686         estimate D2E/DX2                !
 ! A44   A(5,10,16)            122.531          estimate D2E/DX2                !
 ! A45   A(9,10,16)            119.6088         estimate D2E/DX2                !
 ! A46   A(9,11,12)            117.7585         estimate D2E/DX2                !
 ! A47   A(9,11,13)            121.3775         estimate D2E/DX2                !
 ! A48   A(12,11,13)           120.8625         estimate D2E/DX2                !
 ! A49   A(11,13,14)           117.4867         estimate D2E/DX2                !
 ! A50   A(11,13,15)           108.7149         estimate D2E/DX2                !
 ! A51   A(11,13,36)           105.1855         estimate D2E/DX2                !
 ! A52   A(14,13,15)           110.2147         estimate D2E/DX2                !
 ! A53   A(14,13,36)           107.2365         estimate D2E/DX2                !
 ! A54   A(15,13,36)           107.467          estimate D2E/DX2                !
 ! A55   A(13,14,37)           111.6556         estimate D2E/DX2                !
 ! A56   A(13,14,38)           108.8301         estimate D2E/DX2                !
 ! A57   A(13,14,62)           113.3434         estimate D2E/DX2                !
 ! A58   A(37,14,38)           105.976          estimate D2E/DX2                !
 ! A59   A(37,14,62)           109.4988         estimate D2E/DX2                !
 ! A60   A(38,14,62)           107.1712         estimate D2E/DX2                !
 ! A61   A(13,15,39)           111.62           estimate D2E/DX2                !
 ! A62   A(13,15,40)           110.6886         estimate D2E/DX2                !
 ! A63   A(13,15,41)           111.3402         estimate D2E/DX2                !
 ! A64   A(39,15,40)           107.8002         estimate D2E/DX2                !
 ! A65   A(39,15,41)           107.5807         estimate D2E/DX2                !
 ! A66   A(40,15,41)           107.6318         estimate D2E/DX2                !
 ! A67   A(7,17,18)            103.1546         estimate D2E/DX2                !
 ! A68   A(7,17,20)            102.5257         estimate D2E/DX2                !
 ! A69   A(7,17,30)            112.6973         estimate D2E/DX2                !
 ! A70   A(18,17,20)           116.7437         estimate D2E/DX2                !
 ! A71   A(18,17,30)           111.4662         estimate D2E/DX2                !
 ! A72   A(20,17,30)           109.7993         estimate D2E/DX2                !
 ! A73   A(17,18,19)           106.4063         estimate D2E/DX2                !
 ! A74   A(17,18,28)           112.2386         estimate D2E/DX2                !
 ! A75   A(17,18,29)           113.6369         estimate D2E/DX2                !
 ! A76   A(19,18,28)           107.592          estimate D2E/DX2                !
 ! A77   A(19,18,29)           108.1592         estimate D2E/DX2                !
 ! A78   A(28,18,29)           108.5489         estimate D2E/DX2                !
 ! A79   A(8,19,18)            106.6238         estimate D2E/DX2                !
 ! A80   A(3,20,17)            103.5132         estimate D2E/DX2                !
 ! A81   A(3,20,42)            110.5445         estimate D2E/DX2                !
 ! A82   A(3,20,43)            111.9456         estimate D2E/DX2                !
 ! A83   A(17,20,42)           111.9374         estimate D2E/DX2                !
 ! A84   A(17,20,43)           111.3221         estimate D2E/DX2                !
 ! A85   A(42,20,43)           107.6242         estimate D2E/DX2                !
 ! A86   A(7,21,44)            105.5304         estimate D2E/DX2                !
 ! A87   A(5,22,23)            105.8966         estimate D2E/DX2                !
 ! A88   A(5,22,45)            114.9608         estimate D2E/DX2                !
 ! A89   A(5,22,46)            109.7295         estimate D2E/DX2                !
 ! A90   A(23,22,45)           113.8573         estimate D2E/DX2                !
 ! A91   A(23,22,46)           107.1076         estimate D2E/DX2                !
 ! A92   A(45,22,46)           105.0422         estimate D2E/DX2                !
 ! A93   A(22,23,24)           106.4325         estimate D2E/DX2                !
 ! A94   A(22,23,25)           120.527          estimate D2E/DX2                !
 ! A95   A(22,23,47)           107.9422         estimate D2E/DX2                !
 ! A96   A(24,23,25)           107.5176         estimate D2E/DX2                !
 ! A97   A(24,23,47)           107.1028         estimate D2E/DX2                !
 ! A98   A(25,23,47)           106.6638         estimate D2E/DX2                !
 ! A99   A(4,24,23)            110.8367         estimate D2E/DX2                !
 ! A100  A(23,25,26)           114.7557         estimate D2E/DX2                !
 ! A101  A(23,25,27)           125.9196         estimate D2E/DX2                !
 ! A102  A(26,25,27)           119.2775         estimate D2E/DX2                !
 ! A103  A(25,26,48)           110.9659         estimate D2E/DX2                !
 ! A104  A(25,26,49)           112.2474         estimate D2E/DX2                !
 ! A105  A(25,26,50)           110.1771         estimate D2E/DX2                !
 ! A106  A(48,26,49)           107.4001         estimate D2E/DX2                !
 ! A107  A(48,26,50)           108.4508         estimate D2E/DX2                !
 ! A108  A(49,26,50)           107.4423         estimate D2E/DX2                !
 ! A109  A(25,27,51)           123.2716         estimate D2E/DX2                !
 ! A110  A(25,27,52)           121.2902         estimate D2E/DX2                !
 ! A111  A(51,27,52)           115.436          estimate D2E/DX2                !
 ! A112  A(18,28,53)           112.1949         estimate D2E/DX2                !
 ! A113  A(18,28,54)           111.3317         estimate D2E/DX2                !
 ! A114  A(18,28,55)           110.5892         estimate D2E/DX2                !
 ! A115  A(53,28,54)           108.5105         estimate D2E/DX2                !
 ! A116  A(53,28,55)           105.611          estimate D2E/DX2                !
 ! A117  A(54,28,55)           108.3706         estimate D2E/DX2                !
 ! A118  A(18,29,56)           111.4434         estimate D2E/DX2                !
 ! A119  A(18,29,57)           111.826          estimate D2E/DX2                !
 ! A120  A(18,29,58)           110.6922         estimate D2E/DX2                !
 ! A121  A(56,29,57)           108.9097         estimate D2E/DX2                !
 ! A122  A(56,29,58)           108.3199         estimate D2E/DX2                !
 ! A123  A(57,29,58)           105.4135         estimate D2E/DX2                !
 ! A124  A(2,32,59)            112.051          estimate D2E/DX2                !
 ! A125  A(2,32,60)            110.4619         estimate D2E/DX2                !
 ! A126  A(2,32,61)            110.24           estimate D2E/DX2                !
 ! A127  A(59,32,60)           107.7025         estimate D2E/DX2                !
 ! A128  A(59,32,61)           107.6879         estimate D2E/DX2                !
 ! A129  A(60,32,61)           108.575          estimate D2E/DX2                !
 ! A130  A(14,62,63)           109.9254         estimate D2E/DX2                !
 ! A131  A(14,62,64)           111.0057         estimate D2E/DX2                !
 ! A132  A(14,62,65)           112.0669         estimate D2E/DX2                !
 ! A133  A(63,62,64)           107.8344         estimate D2E/DX2                !
 ! A134  A(63,62,65)           107.5201         estimate D2E/DX2                !
 ! A135  A(64,62,65)           108.3313         estimate D2E/DX2                !
 ! D1    D(6,1,2,3)             -0.4257         estimate D2E/DX2                !
 ! D2    D(6,1,2,32)          -178.5981         estimate D2E/DX2                !
 ! D3    D(33,1,2,3)           177.4227         estimate D2E/DX2                !
 ! D4    D(33,1,2,32)           -0.7497         estimate D2E/DX2                !
 ! D5    D(2,1,6,5)            -33.4108         estimate D2E/DX2                !
 ! D6    D(2,1,6,34)            91.172          estimate D2E/DX2                !
 ! D7    D(2,1,6,35)          -155.0936         estimate D2E/DX2                !
 ! D8    D(33,1,6,5)           148.6702         estimate D2E/DX2                !
 ! D9    D(33,1,6,34)          -86.747          estimate D2E/DX2                !
 ! D10   D(33,1,6,35)           26.9874         estimate D2E/DX2                !
 ! D11   D(1,2,3,4)             25.501          estimate D2E/DX2                !
 ! D12   D(1,2,3,20)           -94.4195         estimate D2E/DX2                !
 ! D13   D(1,2,3,31)           146.8435         estimate D2E/DX2                !
 ! D14   D(32,2,3,4)          -156.2372         estimate D2E/DX2                !
 ! D15   D(32,2,3,20)           83.8424         estimate D2E/DX2                !
 ! D16   D(32,2,3,31)          -34.8946         estimate D2E/DX2                !
 ! D17   D(1,2,32,59)           -0.5978         estimate D2E/DX2                !
 ! D18   D(1,2,32,60)          119.4886         estimate D2E/DX2                !
 ! D19   D(1,2,32,61)         -120.5145         estimate D2E/DX2                !
 ! D20   D(3,2,32,59)         -178.84           estimate D2E/DX2                !
 ! D21   D(3,2,32,60)          -58.7536         estimate D2E/DX2                !
 ! D22   D(3,2,32,61)           61.2433         estimate D2E/DX2                !
 ! D23   D(2,3,4,5)            -15.2234         estimate D2E/DX2                !
 ! D24   D(2,3,4,7)           -142.6767         estimate D2E/DX2                !
 ! D25   D(2,3,4,24)           104.8533         estimate D2E/DX2                !
 ! D26   D(20,3,4,5)           108.1809         estimate D2E/DX2                !
 ! D27   D(20,3,4,7)           -19.2724         estimate D2E/DX2                !
 ! D28   D(20,3,4,24)         -131.7424         estimate D2E/DX2                !
 ! D29   D(31,3,4,5)          -136.4755         estimate D2E/DX2                !
 ! D30   D(31,3,4,7)            96.0711         estimate D2E/DX2                !
 ! D31   D(31,3,4,24)          -16.3989         estimate D2E/DX2                !
 ! D32   D(2,3,20,17)          164.1475         estimate D2E/DX2                !
 ! D33   D(2,3,20,42)           44.1215         estimate D2E/DX2                !
 ! D34   D(2,3,20,43)          -75.8519         estimate D2E/DX2                !
 ! D35   D(4,3,20,17)           37.5999         estimate D2E/DX2                !
 ! D36   D(4,3,20,42)          -82.4261         estimate D2E/DX2                !
 ! D37   D(4,3,20,43)          157.6004         estimate D2E/DX2                !
 ! D38   D(31,3,20,17)         -77.4609         estimate D2E/DX2                !
 ! D39   D(31,3,20,42)         162.5131         estimate D2E/DX2                !
 ! D40   D(31,3,20,43)          42.5396         estimate D2E/DX2                !
 ! D41   D(3,4,5,6)            -16.6839         estimate D2E/DX2                !
 ! D42   D(3,4,5,10)          -136.0888         estimate D2E/DX2                !
 ! D43   D(3,4,5,22)           103.0631         estimate D2E/DX2                !
 ! D44   D(7,4,5,6)            105.2836         estimate D2E/DX2                !
 ! D45   D(7,4,5,10)           -14.1213         estimate D2E/DX2                !
 ! D46   D(7,4,5,22)          -134.9695         estimate D2E/DX2                !
 ! D47   D(24,4,5,6)          -136.2663         estimate D2E/DX2                !
 ! D48   D(24,4,5,10)          104.3288         estimate D2E/DX2                !
 ! D49   D(24,4,5,22)          -16.5193         estimate D2E/DX2                !
 ! D50   D(3,4,7,8)            106.1834         estimate D2E/DX2                !
 ! D51   D(3,4,7,17)            -6.1436         estimate D2E/DX2                !
 ! D52   D(3,4,7,21)          -129.1888         estimate D2E/DX2                !
 ! D53   D(5,4,7,8)            -22.5088         estimate D2E/DX2                !
 ! D54   D(5,4,7,17)          -134.8358         estimate D2E/DX2                !
 ! D55   D(5,4,7,21)           102.1189         estimate D2E/DX2                !
 ! D56   D(24,4,7,8)          -141.421          estimate D2E/DX2                !
 ! D57   D(24,4,7,17)          106.2521         estimate D2E/DX2                !
 ! D58   D(24,4,7,21)          -16.7932         estimate D2E/DX2                !
 ! D59   D(3,4,24,23)         -123.7067         estimate D2E/DX2                !
 ! D60   D(5,4,24,23)            2.1806         estimate D2E/DX2                !
 ! D61   D(7,4,24,23)          125.7165         estimate D2E/DX2                !
 ! D62   D(4,5,6,1)             40.2979         estimate D2E/DX2                !
 ! D63   D(4,5,6,34)           -81.8335         estimate D2E/DX2                !
 ! D64   D(4,5,6,35)           161.7233         estimate D2E/DX2                !
 ! D65   D(10,5,6,1)           164.2626         estimate D2E/DX2                !
 ! D66   D(10,5,6,34)           42.1311         estimate D2E/DX2                !
 ! D67   D(10,5,6,35)          -74.312          estimate D2E/DX2                !
 ! D68   D(22,5,6,1)           -75.4349         estimate D2E/DX2                !
 ! D69   D(22,5,6,34)          162.4337         estimate D2E/DX2                !
 ! D70   D(22,5,6,35)           45.9905         estimate D2E/DX2                !
 ! D71   D(4,5,10,9)            43.6423         estimate D2E/DX2                !
 ! D72   D(4,5,10,16)         -143.5773         estimate D2E/DX2                !
 ! D73   D(6,5,10,9)           -81.4156         estimate D2E/DX2                !
 ! D74   D(6,5,10,16)           91.3648         estimate D2E/DX2                !
 ! D75   D(22,5,10,9)          159.3929         estimate D2E/DX2                !
 ! D76   D(22,5,10,16)         -27.8268         estimate D2E/DX2                !
 ! D77   D(4,5,22,23)           24.2069         estimate D2E/DX2                !
 ! D78   D(4,5,22,45)          150.8219         estimate D2E/DX2                !
 ! D79   D(4,5,22,46)          -91.0752         estimate D2E/DX2                !
 ! D80   D(6,5,22,23)          146.9094         estimate D2E/DX2                !
 ! D81   D(6,5,22,45)          -86.4757         estimate D2E/DX2                !
 ! D82   D(6,5,22,46)           31.6273         estimate D2E/DX2                !
 ! D83   D(10,5,22,23)         -97.3115         estimate D2E/DX2                !
 ! D84   D(10,5,22,45)          29.3034         estimate D2E/DX2                !
 ! D85   D(10,5,22,46)         147.4064         estimate D2E/DX2                !
 ! D86   D(4,7,8,9)             36.7354         estimate D2E/DX2                !
 ! D87   D(4,7,8,19)          -138.1835         estimate D2E/DX2                !
 ! D88   D(17,7,8,9)           153.2923         estimate D2E/DX2                !
 ! D89   D(17,7,8,19)          -21.6266         estimate D2E/DX2                !
 ! D90   D(21,7,8,9)           -90.1981         estimate D2E/DX2                !
 ! D91   D(21,7,8,19)           94.883          estimate D2E/DX2                !
 ! D92   D(4,7,17,18)          150.7423         estimate D2E/DX2                !
 ! D93   D(4,7,17,20)           29.0528         estimate D2E/DX2                !
 ! D94   D(4,7,17,30)          -88.9188         estimate D2E/DX2                !
 ! D95   D(8,7,17,18)           28.9484         estimate D2E/DX2                !
 ! D96   D(8,7,17,20)          -92.7412         estimate D2E/DX2                !
 ! D97   D(8,7,17,30)          149.2872         estimate D2E/DX2                !
 ! D98   D(21,7,17,18)         -85.3131         estimate D2E/DX2                !
 ! D99   D(21,7,17,20)         152.9974         estimate D2E/DX2                !
 ! D100  D(21,7,17,30)          35.0258         estimate D2E/DX2                !
 ! D101  D(4,7,21,44)           20.6819         estimate D2E/DX2                !
 ! D102  D(8,7,21,44)          149.3827         estimate D2E/DX2                !
 ! D103  D(17,7,21,44)        -100.8447         estimate D2E/DX2                !
 ! D104  D(7,8,9,10)            -7.9522         estimate D2E/DX2                !
 ! D105  D(7,8,9,11)          -178.1113         estimate D2E/DX2                !
 ! D106  D(19,8,9,10)          166.4522         estimate D2E/DX2                !
 ! D107  D(19,8,9,11)           -3.7068         estimate D2E/DX2                !
 ! D108  D(7,8,19,18)            3.8063         estimate D2E/DX2                !
 ! D109  D(9,8,19,18)         -171.0664         estimate D2E/DX2                !
 ! D110  D(8,9,10,5)           -33.5896         estimate D2E/DX2                !
 ! D111  D(8,9,10,16)          153.4104         estimate D2E/DX2                !
 ! D112  D(11,9,10,5)          136.729          estimate D2E/DX2                !
 ! D113  D(11,9,10,16)         -36.2711         estimate D2E/DX2                !
 ! D114  D(8,9,11,12)          111.113          estimate D2E/DX2                !
 ! D115  D(8,9,11,13)          -68.4473         estimate D2E/DX2                !
 ! D116  D(10,9,11,12)         -58.6334         estimate D2E/DX2                !
 ! D117  D(10,9,11,13)         121.8063         estimate D2E/DX2                !
 ! D118  D(9,11,13,14)         -13.4829         estimate D2E/DX2                !
 ! D119  D(9,11,13,15)         112.4972         estimate D2E/DX2                !
 ! D120  D(9,11,13,36)        -132.6475         estimate D2E/DX2                !
 ! D121  D(12,11,13,14)        166.9703         estimate D2E/DX2                !
 ! D122  D(12,11,13,15)        -67.0496         estimate D2E/DX2                !
 ! D123  D(12,11,13,36)         47.8058         estimate D2E/DX2                !
 ! D124  D(11,13,14,37)         53.6184         estimate D2E/DX2                !
 ! D125  D(11,13,14,38)        170.2519         estimate D2E/DX2                !
 ! D126  D(11,13,14,62)        -70.6111         estimate D2E/DX2                !
 ! D127  D(15,13,14,37)        -71.6216         estimate D2E/DX2                !
 ! D128  D(15,13,14,38)         45.012          estimate D2E/DX2                !
 ! D129  D(15,13,14,62)        164.149          estimate D2E/DX2                !
 ! D130  D(36,13,14,37)        171.69           estimate D2E/DX2                !
 ! D131  D(36,13,14,38)        -71.6764         estimate D2E/DX2                !
 ! D132  D(36,13,14,62)         47.4606         estimate D2E/DX2                !
 ! D133  D(11,13,15,39)        -70.738          estimate D2E/DX2                !
 ! D134  D(11,13,15,40)        169.1846         estimate D2E/DX2                !
 ! D135  D(11,13,15,41)         49.5048         estimate D2E/DX2                !
 ! D136  D(14,13,15,39)         59.3554         estimate D2E/DX2                !
 ! D137  D(14,13,15,40)        -60.722          estimate D2E/DX2                !
 ! D138  D(14,13,15,41)        179.5982         estimate D2E/DX2                !
 ! D139  D(36,13,15,39)        175.9001         estimate D2E/DX2                !
 ! D140  D(36,13,15,40)         55.8227         estimate D2E/DX2                !
 ! D141  D(36,13,15,41)        -63.8571         estimate D2E/DX2                !
 ! D142  D(13,14,62,63)       -175.2305         estimate D2E/DX2                !
 ! D143  D(13,14,62,64)        -56.0115         estimate D2E/DX2                !
 ! D144  D(13,14,62,65)         65.2665         estimate D2E/DX2                !
 ! D145  D(37,14,62,63)         59.3755         estimate D2E/DX2                !
 ! D146  D(37,14,62,64)        178.5945         estimate D2E/DX2                !
 ! D147  D(37,14,62,65)        -60.1276         estimate D2E/DX2                !
 ! D148  D(38,14,62,63)        -55.145          estimate D2E/DX2                !
 ! D149  D(38,14,62,64)         64.074          estimate D2E/DX2                !
 ! D150  D(38,14,62,65)       -174.648          estimate D2E/DX2                !
 ! D151  D(7,17,18,19)         -28.7393         estimate D2E/DX2                !
 ! D152  D(7,17,18,28)          88.6977         estimate D2E/DX2                !
 ! D153  D(7,17,18,29)        -147.6535         estimate D2E/DX2                !
 ! D154  D(20,17,18,19)         82.8018         estimate D2E/DX2                !
 ! D155  D(20,17,18,28)       -159.7612         estimate D2E/DX2                !
 ! D156  D(20,17,18,29)        -36.1125         estimate D2E/DX2                !
 ! D157  D(30,17,18,19)       -149.9174         estimate D2E/DX2                !
 ! D158  D(30,17,18,28)        -32.4804         estimate D2E/DX2                !
 ! D159  D(30,17,18,29)         91.1684         estimate D2E/DX2                !
 ! D160  D(7,17,20,3)          -40.8192         estimate D2E/DX2                !
 ! D161  D(7,17,20,42)          78.2517         estimate D2E/DX2                !
 ! D162  D(7,17,20,43)        -161.2444         estimate D2E/DX2                !
 ! D163  D(18,17,20,3)        -152.7202         estimate D2E/DX2                !
 ! D164  D(18,17,20,42)        -33.6493         estimate D2E/DX2                !
 ! D165  D(18,17,20,43)         86.8546         estimate D2E/DX2                !
 ! D166  D(30,17,20,3)          79.1865         estimate D2E/DX2                !
 ! D167  D(30,17,20,42)       -161.7426         estimate D2E/DX2                !
 ! D168  D(30,17,20,43)        -41.2387         estimate D2E/DX2                !
 ! D169  D(17,18,19,8)          15.8035         estimate D2E/DX2                !
 ! D170  D(28,18,19,8)        -104.6767         estimate D2E/DX2                !
 ! D171  D(29,18,19,8)         138.245          estimate D2E/DX2                !
 ! D172  D(17,18,28,53)        -60.0521         estimate D2E/DX2                !
 ! D173  D(17,18,28,54)         61.78           estimate D2E/DX2                !
 ! D174  D(17,18,28,55)       -177.6805         estimate D2E/DX2                !
 ! D175  D(19,18,28,53)         56.6759         estimate D2E/DX2                !
 ! D176  D(19,18,28,54)        178.508          estimate D2E/DX2                !
 ! D177  D(19,18,28,55)        -60.9525         estimate D2E/DX2                !
 ! D178  D(29,18,28,53)        173.5            estimate D2E/DX2                !
 ! D179  D(29,18,28,54)        -64.6679         estimate D2E/DX2                !
 ! D180  D(29,18,28,55)         55.8716         estimate D2E/DX2                !
 ! D181  D(17,18,29,56)        -57.5947         estimate D2E/DX2                !
 ! D182  D(17,18,29,57)         64.571          estimate D2E/DX2                !
 ! D183  D(17,18,29,58)       -178.2145         estimate D2E/DX2                !
 ! D184  D(19,18,29,56)       -175.5006         estimate D2E/DX2                !
 ! D185  D(19,18,29,57)        -53.335          estimate D2E/DX2                !
 ! D186  D(19,18,29,58)         63.8796         estimate D2E/DX2                !
 ! D187  D(28,18,29,56)         68.0399         estimate D2E/DX2                !
 ! D188  D(28,18,29,57)       -169.7944         estimate D2E/DX2                !
 ! D189  D(28,18,29,58)        -52.5799         estimate D2E/DX2                !
 ! D190  D(5,22,23,24)         -23.7508         estimate D2E/DX2                !
 ! D191  D(5,22,23,25)          98.8124         estimate D2E/DX2                !
 ! D192  D(5,22,23,47)        -138.4456         estimate D2E/DX2                !
 ! D193  D(45,22,23,24)       -151.0316         estimate D2E/DX2                !
 ! D194  D(45,22,23,25)        -28.4684         estimate D2E/DX2                !
 ! D195  D(45,22,23,47)         94.2736         estimate D2E/DX2                !
 ! D196  D(46,22,23,24)         93.3082         estimate D2E/DX2                !
 ! D197  D(46,22,23,25)       -144.1286         estimate D2E/DX2                !
 ! D198  D(46,22,23,47)        -21.3866         estimate D2E/DX2                !
 ! D199  D(22,23,24,4)          13.4443         estimate D2E/DX2                !
 ! D200  D(25,23,24,4)        -116.9783         estimate D2E/DX2                !
 ! D201  D(47,23,24,4)         128.7079         estimate D2E/DX2                !
 ! D202  D(22,23,25,26)        176.0276         estimate D2E/DX2                !
 ! D203  D(22,23,25,27)         -1.4375         estimate D2E/DX2                !
 ! D204  D(24,23,25,26)        -61.9331         estimate D2E/DX2                !
 ! D205  D(24,23,25,27)        120.6018         estimate D2E/DX2                !
 ! D206  D(47,23,25,26)         52.6735         estimate D2E/DX2                !
 ! D207  D(47,23,25,27)       -124.7916         estimate D2E/DX2                !
 ! D208  D(23,25,26,48)         62.6041         estimate D2E/DX2                !
 ! D209  D(23,25,26,49)       -177.2141         estimate D2E/DX2                !
 ! D210  D(23,25,26,50)        -57.5216         estimate D2E/DX2                !
 ! D211  D(27,25,26,48)       -119.7492         estimate D2E/DX2                !
 ! D212  D(27,25,26,49)          0.4325         estimate D2E/DX2                !
 ! D213  D(27,25,26,50)        120.125          estimate D2E/DX2                !
 ! D214  D(23,25,27,51)         -0.4056         estimate D2E/DX2                !
 ! D215  D(23,25,27,52)        179.0269         estimate D2E/DX2                !
 ! D216  D(26,25,27,51)       -177.7664         estimate D2E/DX2                !
 ! D217  D(26,25,27,52)          1.666          estimate D2E/DX2                !
 --------------------------------------------------------------------------------
 Trust Radius=3.00D-01 FncErr=1.00D-07 GrdErr=1.00D-06
 Number of steps in this run=    390 maximum allowed number of steps=    390.
 GradGradGradGradGradGradGradGradGradGradGradGradGradGradGradGradGradGrad

 Stoichiometry    C26H34O5
 Framework group  C1[X(C26H34O5)]
 Deg. of freedom   189
 Full point group                 C1      NOp   1
 Largest Abelian subgroup         C1      NOp   1
 Largest concise Abelian subgroup C1      NOp   1
                         Standard orientation:                         
 ---------------------------------------------------------------------
 Center     Atomic      Atomic             Coordinates (Angstroms)
 Number     Number       Type             X           Y           Z
 ---------------------------------------------------------------------
      1          6           0       -2.508326   -1.284261   -2.397827
      2          6           0       -2.891493   -1.897133   -1.268410
      3          6           0       -2.203927   -1.610324    0.041440
      4          6           0       -1.514158   -0.218915    0.169738
      5          6           0       -1.285488    0.565703   -1.137826
      6          6           0       -1.396087   -0.284675   -2.425017
      7          6           0       -0.227605   -0.513378    0.983302
      8          6           0        1.042314   -0.491243    0.207079
      9          6           0        1.266580    0.371365   -0.788609
     10          6           0        0.111943    1.201489   -1.215217
     11          6           0        2.516061    0.355331   -1.577755
     12          8           0        2.445945    0.001102   -2.758879
     13          6           0        3.857998    0.753607   -0.955042
     14          6           0        3.824582    1.467406    0.406260
     15          6           0        4.752172   -0.486768   -0.880142
     16          8           0        0.310909    2.299892   -1.730256
     17          6           0       -0.267220   -1.961495    1.428998
     18          6           0        1.223043   -2.343696    1.512057
     19          8           0        1.912128   -1.516569    0.543090
     20          6           0       -1.088576   -2.627358    0.321714
     21          8           0       -0.076859    0.357644    2.095739
     22          6           0       -2.392307    1.624316   -1.106871
     23          6           0       -2.753980    1.805694    0.358019
     24          8           0       -2.372092    0.593095    1.023585
     25          6           0       -2.183816    2.961804    1.153998
     26          6           0       -2.701694    3.072124    2.568532
     27          6           0       -1.324124    3.886395    0.695191
     28          6           0        1.825207   -2.040630    2.893411
     29          6           0        1.500606   -3.810254    1.170852
     30          1           0       -0.770071   -2.093483    2.395279
     31          1           0       -2.955573   -1.691262    0.840365
     32          6           0       -3.988221   -2.922862   -1.251331
     33          1           0       -2.980976   -1.526576   -3.347051
     34          1           0       -0.468096   -0.831191   -2.636364
     35          1           0       -1.547273    0.383465   -3.283780
     36          1           0        4.315067    1.446768   -1.675078
     37          1           0        3.251559    0.899788    1.145941
     38          1           0        4.847758    1.529087    0.799202
     39          1           0        4.396951   -1.194822   -0.125443
     40          1           0        5.779305   -0.208276   -0.620853
     41          1           0        4.783557   -1.014059   -1.839720
     42          1           0       -0.491780   -2.803150   -0.582034
     43          1           0       -1.488203   -3.593575    0.648428
     44          1           0       -0.972407    0.709461    2.276433
     45          1           0       -2.151960    2.558398   -1.622004
     46          1           0       -3.287054    1.240316   -1.615476
     47          1           0       -3.846688    1.882853    0.429516
     48          1           0       -2.429547    2.189535    3.154998
     49          1           0       -2.300822    3.948141    3.089786
     50          1           0       -3.793008    3.163048    2.565220
     51          1           0       -0.939980    3.889933   -0.317310
     52          1           0       -0.974038    4.695812    1.330003
     53          1           0        1.761167   -0.978655    3.148180
     54          1           0        1.327817   -2.617367    3.679923
     55          1           0        2.894100   -2.284061    2.909888
     56          1           0        0.939579   -4.486190    1.824006
     57          1           0        1.255409   -4.039125    0.128833
     58          1           0        2.568200   -4.037037    1.275586
     59          1           0       -4.417290   -3.082598   -2.246148
     60          1           0       -3.606819   -3.884942   -0.894969
     61          1           0       -4.797362   -2.601141   -0.587859
     62          6           0        3.286187    2.890003    0.328690
     63          1           0        3.365793    3.373023    1.308074
     64          1           0        3.858892    3.487792   -0.387484
     65          1           0        2.235508    2.915305    0.034287
 ---------------------------------------------------------------------
 Rotational constants (GHZ):      0.1948252      0.1524833      0.1267962
 Standard basis: 6-31G(d) (6D, 7F)
 There are   533 symmetry adapted basis functions of A   symmetry.
 Integral buffers will be    131072 words long.
 Raffenetti 2 integral format.
 Two-electron integral symmetry is turned on.
   533 basis functions,  1004 primitive gaussians,   533 cartesian basis functions
   115 alpha electrons      115 beta electrons
       nuclear repulsion energy      3585.3014420135 Hartrees.
 NAtoms=   65 NActive=   65 NUniq=   65 SFac= 1.00D+00 NAtFMM=   50 NAOKFM=T Big=T
 One-electron integrals computed using PRISM.
 NBasis=   533 RedAO= T  NBF=   533
 NBsUse=   533 1.00D-06 NBFU=   533
 Harris functional with IExCor=  402 diagonalized for initial guess.
 ExpMin= 1.61D-01 ExpMax= 5.48D+03 ExpMxC= 8.25D+02 IAcc=1 IRadAn=         1 AccDes= 0.00D+00
 HarFok:  IExCor=  402 AccDes= 0.00D+00 IRadAn=         1 IDoV= 1
 ScaDFX=  1.000000  1.000000  1.000000  1.000000
 FoFCou: FMM=F IPFlag=           0 FMFlag=      100000 FMFlg1=        2001
         NFxFlg=           0 DoJE=T BraDBF=F KetDBF=T FulRan=T
         Omega=  0.000000  0.000000  1.000000  0.000000  0.000000 ICntrl=     500 IOpCl=  0
         NMat0=    1 NMatS0=    1 NMatT0=    0 NMatD0=    1 NMtDS0=    0 NMtDT0=    0
         I1Cent=           4 NGrid=           0.
 Petite list used in FoFCou.
 Initial guess orbital symmetries:
       Occupied  (A) (A) (A) (A) (A) (A) (A) (A) (A) (A) (A) (A)
                 (A) (A) (A) (A) (A) (A) (A) (A) (A) (A) (A) (A)
                 (A) (A) (A) (A) (A) (A) (A) (A) (A) (A) (A) (A)
                 (A) (A) (A) (A) (A) (A) (A) (A) (A) (A) (A) (A)
                 (A) (A) (A) (A) (A) (A) (A) (A) (A) (A) (A) (A)
                 (A) (A) (A) (A) (A) (A) (A) (A) (A) (A) (A) (A)
                 (A) (A) (A) (A) (A) (A) (A) (A) (A) (A) (A) (A)
                 (A) (A) (A) (A) (A) (A) (A) (A) (A) (A) (A) (A)
                 (A) (A) (A) (A) (A) (A) (A) (A) (A) (A) (A) (A)
                 (A) (A) (A) (A) (A) (A) (A)
       Virtual   (A) (A) (A) (A) (A) (A) (A) (A) (A) (A) (A) (A)
                 (A) (A) (A) (A) (A) (A) (A) (A) (A) (A) (A) (A)
                 (A) (A) (A) (A) (A) (A) (A) (A) (A) (A) (A) (A)
                 (A) (A) (A) (A) (A) (A) (A) (A) (A) (A) (A) (A)
                 (A) (A) (A) (A) (A) (A) (A) (A) (A) (A) (A) (A)
                 (A) (A) (A) (A) (A) (A) (A) (A) (A) (A) (A) (A)
                 (A) (A) (A) (A) (A) (A) (A) (A) (A) (A) (A) (A)
                 (A) (A) (A) (A) (A) (A) (A) (A) (A) (A) (A) (A)
                 (A) (A) (A) (A) (A) (A) (A) (A) (A) (A) (A) (A)
                 (A) (A) (A) (A) (A) (A) (A) (A) (A) (A) (A) (A)
                 (A) (A) (A) (A) (A) (A) (A) (A) (A) (A) (A) (A)
                 (A) (A) (A) (A) (A) (A) (A) (A) (A) (A) (A) (A)
                 (A) (A) (A) (A) (A) (A) (A) (A) (A) (A) (A) (A)
                 (A) (A) (A) (A) (A) (A) (A) (A) (A) (A) (A) (A)
                 (A) (A) (A) (A) (A) (A) (A) (A) (A) (A) (A) (A)
                 (A) (A) (A) (A) (A) (A) (A) (A) (A) (A) (A) (A)
                 (A) (A) (A) (A) (A) (A) (A) (A) (A) (A) (A) (A)
                 (A) (A) (A) (A) (A) (A) (A) (A) (A) (A) (A) (A)
                 (A) (A) (A) (A) (A) (A) (A) (A) (A) (A) (A) (A)
                 (A) (A) (A) (A) (A) (A) (A) (A) (A) (A) (A) (A)
                 (A) (A) (A) (A) (A) (A) (A) (A) (A) (A) (A) (A)
                 (A) (A) (A) (A) (A) (A) (A) (A) (A) (A) (A) (A)
                 (A) (A) (A) (A) (A) (A) (A) (A) (A) (A) (A) (A)
                 (A) (A) (A) (A) (A) (A) (A) (A) (A) (A) (A) (A)
                 (A) (A) (A) (A) (A) (A) (A) (A) (A) (A) (A) (A)
                 (A) (A) (A) (A) (A) (A) (A) (A) (A) (A) (A) (A)
                 (A) (A) (A) (A) (A) (A) (A) (A) (A) (A) (A) (A)
                 (A) (A) (A) (A) (A) (A) (A) (A) (A) (A) (A) (A)
                 (A) (A) (A) (A) (A) (A) (A) (A) (A) (A) (A) (A)
                 (A) (A) (A) (A) (A) (A) (A) (A) (A) (A) (A) (A)
                 (A) (A) (A) (A) (A) (A) (A) (A) (A) (A) (A) (A)
                 (A) (A) (A) (A) (A) (A) (A) (A) (A) (A) (A) (A)
                 (A) (A) (A) (A) (A) (A) (A) (A) (A) (A) (A) (A)
                 (A) (A) (A) (A) (A) (A) (A) (A) (A) (A) (A) (A)
                 (A) (A) (A) (A) (A) (A) (A) (A) (A) (A)
 The electronic state of the initial guess is 1-A.
 Requested convergence on RMS density matrix=1.00D-08 within 128 cycles.
 Requested convergence on MAX density matrix=1.00D-06.
 Requested convergence on             energy=1.00D-06.
 No special actions if energy rises.
 Integral accuracy reduced to 1.0D-05 until final iterations.
 Initial convergence to 1.0D-05 achieved.  Increase integral accuracy.
 SCF Done:  E(RB3LYP) =  -1387.29921237     A.U. after   16 cycles
             Convg  =    0.3947D-08             -V/T =  2.0091

 **********************************************************************

            Population analysis using the SCF density.

 **********************************************************************

 Orbital symmetries:
       Occupied  (A) (A) (A) (A) (A) (A) (A) (A) (A) (A) (A) (A)
                 (A) (A) (A) (A) (A) (A) (A) (A) (A) (A) (A) (A)
                 (A) (A) (A) (A) (A) (A) (A) (A) (A) (A) (A) (A)
                 (A) (A) (A) (A) (A) (A) (A) (A) (A) (A) (A) (A)
                 (A) (A) (A) (A) (A) (A) (A) (A) (A) (A) (A) (A)
                 (A) (A) (A) (A) (A) (A) (A) (A) (A) (A) (A) (A)
                 (A) (A) (A) (A) (A) (A) (A) (A) (A) (A) (A) (A)
                 (A) (A) (A) (A) (A) (A) (A) (A) (A) (A) (A) (A)
                 (A) (A) (A) (A) (A) (A) (A) (A) (A) (A) (A) (A)
                 (A) (A) (A) (A) (A) (A) (A)
       Virtual   (A) (A) (A) (A) (A) (A) (A) (A) (A) (A) (A) (A)
                 (A) (A) (A) (A) (A) (A) (A) (A) (A) (A) (A) (A)
                 (A) (A) (A) (A) (A) (A) (A) (A) (A) (A) (A) (A)
                 (A) (A) (A) (A) (A) (A) (A) (A) (A) (A) (A) (A)
                 (A) (A) (A) (A) (A) (A) (A) (A) (A) (A) (A) (A)
                 (A) (A) (A) (A) (A) (A) (A) (A) (A) (A) (A) (A)
                 (A) (A) (A) (A) (A) (A) (A) (A) (A) (A) (A) (A)
                 (A) (A) (A) (A) (A) (A) (A) (A) (A) (A) (A) (A)
                 (A) (A) (A) (A) (A) (A) (A) (A) (A) (A) (A) (A)
                 (A) (A) (A) (A) (A) (A) (A) (A) (A) (A) (A) (A)
                 (A) (A) (A) (A) (A) (A) (A) (A) (A) (A) (A) (A)
                 (A) (A) (A) (A) (A) (A) (A) (A) (A) (A) (A) (A)
                 (A) (A) (A) (A) (A) (A) (A) (A) (A) (A) (A) (A)
                 (A) (A) (A) (A) (A) (A) (A) (A) (A) (A) (A) (A)
                 (A) (A) (A) (A) (A) (A) (A) (A) (A) (A) (A) (A)
                 (A) (A) (A) (A) (A) (A) (A) (A) (A) (A) (A) (A)
                 (A) (A) (A) (A) (A) (A) (A) (A) (A) (A) (A) (A)
                 (A) (A) (A) (A) (A) (A) (A) (A) (A) (A) (A) (A)
                 (A) (A) (A) (A) (A) (A) (A) (A) (A) (A) (A) (A)
                 (A) (A) (A) (A) (A) (A) (A) (A) (A) (A) (A) (A)
                 (A) (A) (A) (A) (A) (A) (A) (A) (A) (A) (A) (A)
                 (A) (A) (A) (A) (A) (A) (A) (A) (A) (A) (A) (A)
                 (A) (A) (A) (A) (A) (A) (A) (A) (A) (A) (A) (A)
                 (A) (A) (A) (A) (A) (A) (A) (A) (A) (A) (A) (A)
                 (A) (A) (A) (A) (A) (A) (A) (A) (A) (A) (A) (A)
                 (A) (A) (A) (A) (A) (A) (A) (A) (A) (A) (A) (A)
                 (A) (A) (A) (A) (A) (A) (A) (A) (A) (A) (A) (A)
                 (A) (A) (A) (A) (A) (A) (A) (A) (A) (A) (A) (A)
                 (A) (A) (A) (A) (A) (A) (A) (A) (A) (A) (A) (A)
                 (A) (A) (A) (A) (A) (A) (A) (A) (A) (A) (A) (A)
                 (A) (A) (A) (A) (A) (A) (A) (A) (A) (A) (A) (A)
                 (A) (A) (A) (A) (A) (A) (A) (A) (A) (A) (A) (A)
                 (A) (A) (A) (A) (A) (A) (A) (A) (A) (A) (A) (A)
                 (A) (A) (A) (A) (A) (A) (A) (A) (A) (A) (A) (A)
                 (A) (A) (A) (A) (A) (A) (A) (A) (A) (A)
 The electronic state is 1-A.
 Alpha  occ. eigenvalues --  -19.19759 -19.16943 -19.14454 -19.13733 -19.13155
 Alpha  occ. eigenvalues --  -10.27860 -10.27122 -10.26548 -10.26358 -10.26106
 Alpha  occ. eigenvalues --  -10.25400 -10.24586 -10.21883 -10.20319 -10.19873
 Alpha  occ. eigenvalues --  -10.19767 -10.19633 -10.19590 -10.19418 -10.19172
 Alpha  occ. eigenvalues --  -10.19041 -10.18800 -10.18764 -10.18620 -10.18512
 Alpha  occ. eigenvalues --  -10.18242 -10.17839 -10.17323 -10.17120 -10.16672
 Alpha  occ. eigenvalues --  -10.15697  -1.08678  -1.06128  -1.03528  -1.02115
 Alpha  occ. eigenvalues --   -1.01733  -0.87713  -0.84113  -0.82565  -0.81311
 Alpha  occ. eigenvalues --   -0.80211  -0.79705  -0.77061  -0.74411  -0.73538
 Alpha  occ. eigenvalues --   -0.72360  -0.71918  -0.69735  -0.68709  -0.67905
 Alpha  occ. eigenvalues --   -0.65333  -0.64058  -0.63306  -0.61759  -0.61156
 Alpha  occ. eigenvalues --   -0.59416  -0.59130  -0.56945  -0.55483  -0.53856
 Alpha  occ. eigenvalues --   -0.53173  -0.52131  -0.50854  -0.50233  -0.49391
 Alpha  occ. eigenvalues --   -0.47479  -0.47304  -0.47156  -0.46583  -0.45896
 Alpha  occ. eigenvalues --   -0.44951  -0.44570  -0.44232  -0.43718  -0.42922
 Alpha  occ. eigenvalues --   -0.42543  -0.42275  -0.42071  -0.41698  -0.41337
 Alpha  occ. eigenvalues --   -0.40882  -0.40725  -0.40504  -0.40043  -0.39903
 Alpha  occ. eigenvalues --   -0.39515  -0.39007  -0.38754  -0.38585  -0.38138
 Alpha  occ. eigenvalues --   -0.37918  -0.37587  -0.37175  -0.36439  -0.35984
 Alpha  occ. eigenvalues --   -0.35606  -0.35049  -0.34973  -0.34354  -0.34216
 Alpha  occ. eigenvalues --   -0.33929  -0.33321  -0.32927  -0.32612  -0.32267
 Alpha  occ. eigenvalues --   -0.31656  -0.31614  -0.31153  -0.27370  -0.26993
 Alpha  occ. eigenvalues --   -0.25146  -0.24848  -0.24490  -0.23717  -0.23131
 Alpha virt. eigenvalues --   -0.04824  -0.02494   0.01205   0.01752   0.03723
 Alpha virt. eigenvalues --    0.06558   0.08189   0.08826   0.09316   0.10201
 Alpha virt. eigenvalues --    0.10748   0.11040   0.11451   0.11526   0.12631
 Alpha virt. eigenvalues --    0.13081   0.13099   0.13287   0.13860   0.13907
 Alpha virt. eigenvalues --    0.14348   0.14739   0.15181   0.15467   0.15616
 Alpha virt. eigenvalues --    0.16205   0.16495   0.16674   0.17260   0.17906
 Alpha virt. eigenvalues --    0.18263   0.18368   0.18634   0.19017   0.19325
 Alpha virt. eigenvalues --    0.19539   0.19789   0.19867   0.20194   0.20625
 Alpha virt. eigenvalues --    0.20789   0.21213   0.21828   0.22435   0.22636
 Alpha virt. eigenvalues --    0.23885   0.24144   0.24363   0.24619   0.25111
 Alpha virt. eigenvalues --    0.25319   0.25957   0.26021   0.26678   0.26759
 Alpha virt. eigenvalues --    0.27038   0.27659   0.27876   0.28470   0.30834
 Alpha virt. eigenvalues --    0.31500   0.31971   0.32925   0.33691   0.34818
 Alpha virt. eigenvalues --    0.35259   0.36178   0.37759   0.39102   0.40382
 Alpha virt. eigenvalues --    0.42093   0.43926   0.46307   0.47847   0.48739
 Alpha virt. eigenvalues --    0.49043   0.49600   0.50085   0.51204   0.51627
 Alpha virt. eigenvalues --    0.52178   0.52555   0.52854   0.52983   0.53957
 Alpha virt. eigenvalues --    0.54047   0.54698   0.54808   0.55891   0.56145
 Alpha virt. eigenvalues --    0.56227   0.57370   0.58510   0.59033   0.59424
 Alpha virt. eigenvalues --    0.60116   0.60553   0.61032   0.61340   0.61857
 Alpha virt. eigenvalues --    0.62599   0.63167   0.64087   0.64543   0.65130
 Alpha virt. eigenvalues --    0.65559   0.66049   0.66432   0.66658   0.67096
 Alpha virt. eigenvalues --    0.68157   0.68613   0.69117   0.69544   0.70437
 Alpha virt. eigenvalues --    0.71266   0.71659   0.73213   0.73470   0.73899
 Alpha virt. eigenvalues --    0.74799   0.75162   0.75467   0.76045   0.76534
 Alpha virt. eigenvalues --    0.76747   0.78159   0.78461   0.78840   0.79138
 Alpha virt. eigenvalues --    0.80032   0.80406   0.80547   0.81706   0.82437
 Alpha virt. eigenvalues --    0.82564   0.82821   0.84044   0.84586   0.84871
 Alpha virt. eigenvalues --    0.85546   0.85737   0.86314   0.86689   0.87096
 Alpha virt. eigenvalues --    0.87413   0.88354   0.88975   0.89150   0.89390
 Alpha virt. eigenvalues --    0.89748   0.89894   0.90023   0.90206   0.90987
 Alpha virt. eigenvalues --    0.91235   0.91334   0.92024   0.92121   0.92593
 Alpha virt. eigenvalues --    0.93077   0.93347   0.94136   0.94345   0.95005
 Alpha virt. eigenvalues --    0.95291   0.95447   0.96017   0.96627   0.97299
 Alpha virt. eigenvalues --    0.97692   0.98957   0.99041   0.99900   1.00515
 Alpha virt. eigenvalues --    1.01418   1.01667   1.02186   1.02894   1.03851
 Alpha virt. eigenvalues --    1.04464   1.05122   1.06419   1.07318   1.08429
 Alpha virt. eigenvalues --    1.09410   1.10258   1.11882   1.12370   1.13311
 Alpha virt. eigenvalues --    1.14220   1.15201   1.15993   1.16515   1.17295
 Alpha virt. eigenvalues --    1.18610   1.19313   1.20166   1.21133   1.21948
 Alpha virt. eigenvalues --    1.22920   1.25205   1.25402   1.27002   1.27349
 Alpha virt. eigenvalues --    1.28958   1.29533   1.31603   1.32476   1.33931
 Alpha virt. eigenvalues --    1.34231   1.35522   1.38073   1.39635   1.40211
 Alpha virt. eigenvalues --    1.41839   1.43826   1.44770   1.45050   1.46428
 Alpha virt. eigenvalues --    1.47758   1.48485   1.50978   1.51638   1.52893
 Alpha virt. eigenvalues --    1.53312   1.55347   1.56672   1.57149   1.58185
 Alpha virt. eigenvalues --    1.60598   1.61154   1.61649   1.63333   1.65134
 Alpha virt. eigenvalues --    1.66151   1.67226   1.68677   1.69088   1.69823
 Alpha virt. eigenvalues --    1.71590   1.72272   1.73028   1.73635   1.74819
 Alpha virt. eigenvalues --    1.75425   1.76543   1.76945   1.77450   1.78588
 Alpha virt. eigenvalues --    1.79344   1.80124   1.80303   1.81664   1.82096
 Alpha virt. eigenvalues --    1.83026   1.83488   1.84641   1.85588   1.85733
 Alpha virt. eigenvalues --    1.86856   1.87405   1.87907   1.88219   1.89037
 Alpha virt. eigenvalues --    1.89552   1.90200   1.91083   1.91659   1.92083
 Alpha virt. eigenvalues --    1.92762   1.93276   1.93439   1.94547   1.95244
 Alpha virt. eigenvalues --    1.95879   1.96568   1.97245   1.97978   1.98581
 Alpha virt. eigenvalues --    1.99176   2.00400   2.01027   2.01728   2.02329
 Alpha virt. eigenvalues --    2.03132   2.03723   2.04230   2.04697   2.05899
 Alpha virt. eigenvalues --    2.06285   2.06782   2.07578   2.08156   2.09342
 Alpha virt. eigenvalues --    2.10459   2.10915   2.11508   2.12648   2.13744
 Alpha virt. eigenvalues --    2.14167   2.15626   2.16392   2.17243   2.18659
 Alpha virt. eigenvalues --    2.19760   2.20524   2.21806   2.22322   2.22831
 Alpha virt. eigenvalues --    2.22982   2.24700   2.26227   2.26676   2.27471
 Alpha virt. eigenvalues --    2.28389   2.28631   2.28966   2.30197   2.31107
 Alpha virt. eigenvalues --    2.32233   2.32995   2.33669   2.33974   2.34756
 Alpha virt. eigenvalues --    2.36266   2.36915   2.37513   2.38656   2.39340
 Alpha virt. eigenvalues --    2.39689   2.41047   2.41466   2.44108   2.45196
 Alpha virt. eigenvalues --    2.45893   2.46497   2.46940   2.47816   2.49118
 Alpha virt. eigenvalues --    2.49772   2.50677   2.52096   2.52987   2.53548
 Alpha virt. eigenvalues --    2.55282   2.56420   2.57232   2.59850   2.61101
 Alpha virt. eigenvalues --    2.61861   2.62818   2.63527   2.65630   2.66287
 Alpha virt. eigenvalues --    2.67639   2.67771   2.69095   2.70161   2.71728
 Alpha virt. eigenvalues --    2.72581   2.74034   2.75556   2.76613   2.77862
 Alpha virt. eigenvalues --    2.78782   2.79401   2.80966   2.82272   2.87086
 Alpha virt. eigenvalues --    2.89097   2.91173   2.93936   2.94329   2.95495
 Alpha virt. eigenvalues --    2.97550   2.98655   2.99528   3.01666   3.03799
 Alpha virt. eigenvalues --    3.06162   3.07437   3.11697   3.18112   3.20524
 Alpha virt. eigenvalues --    3.22374   3.28090   4.01200   4.08883   4.11088
 Alpha virt. eigenvalues --    4.13519   4.17336   4.18200   4.19100   4.20672
 Alpha virt. eigenvalues --    4.23954   4.26224   4.27396   4.28310   4.28812
 Alpha virt. eigenvalues --    4.31980   4.33757   4.37775   4.40241   4.43014
 Alpha virt. eigenvalues --    4.47500   4.50495   4.54091   4.55546   4.61002
 Alpha virt. eigenvalues --    4.66798   4.68386   4.70918   4.74544   4.77803
 Alpha virt. eigenvalues --    4.90149   4.94194   5.26315
          Condensed to atoms (all electrons):
 Mulliken atomic charges:
              1
     1  C   -0.200196
     2  C    0.201560
     3  C   -0.200051
     4  C    0.319227
     5  C   -0.042787
     6  C   -0.328096
     7  C    0.207310
     8  C    0.412831
     9  C   -0.094830
    10  C    0.428612
    11  C    0.420454
    12  O   -0.463213
    13  C   -0.143588
    14  C   -0.269231
    15  C   -0.461692
    16  O   -0.494810
    17  C   -0.150909
    18  C    0.304366
    19  O   -0.539626
    20  C   -0.306640
    21  O   -0.677651
    22  C   -0.328184
    23  C    0.090959
    24  O   -0.582067
    25  C    0.185686
    26  C   -0.509842
    27  C   -0.405254
    28  C   -0.461093
    29  C   -0.464104
    30  H    0.145114
    31  H    0.150455
    32  C   -0.519178
    33  H    0.126503
    34  H    0.183330
    35  H    0.166015
    36  H    0.159016
    37  H    0.150798
    38  H    0.130123
    39  H    0.159529
    40  H    0.141535
    41  H    0.161680
    42  H    0.162698
    43  H    0.149167
    44  H    0.431423
    45  H    0.186979
    46  H    0.152881
    47  H    0.134754
    48  H    0.155091
    49  H    0.157846
    50  H    0.151882
    51  H    0.175790
    52  H    0.136986
    53  H    0.186015
    54  H    0.141175
    55  H    0.149212
    56  H    0.150514
    57  H    0.158983
    58  H    0.157870
    59  H    0.157660
    60  H    0.155432
    61  H    0.155798
    62  C   -0.458354
    63  H    0.136501
    64  H    0.138505
    65  H    0.173131
 Sum of Mulliken atomic charges =   0.00000
 Mulliken charges with hydrogens summed into heavy atoms:
              1
     1  C   -0.073693
     2  C    0.201560
     3  C   -0.049596
     4  C    0.319227
     5  C   -0.042787
     6  C    0.021249
     7  C    0.207310
     8  C    0.412831
     9  C   -0.094830
    10  C    0.428612
    11  C    0.420454
    12  O   -0.463213
    13  C    0.015429
    14  C    0.011690
    15  C    0.001052
    16  O   -0.494810
    17  C   -0.005795
    18  C    0.304366
    19  O   -0.539626
    20  C    0.005225
    21  O   -0.246228
    22  C    0.011676
    23  C    0.225713
    24  O   -0.582067
    25  C    0.185686
    26  C   -0.045023
    27  C   -0.092477
    28  C    0.015309
    29  C    0.003263
    32  C   -0.050288
    62  C   -0.010217
 Sum of Mulliken charges with hydrogens summed into heavy atoms =   0.00000
 Electronic spatial extent (au):  <R**2>=          10472.5476
 Charge=              0.0000 electrons
 Dipole moment (field-independent basis, Debye):
    X=             -3.3354    Y=             -3.0490    Z=              2.9838  Tot=              5.4152
 Quadrupole moment (field-independent basis, Debye-Ang):
   XX=           -177.0937   YY=           -178.9430   ZZ=           -191.1394
   XY=              0.0811   XZ=              7.9406   YZ=              0.3493
 Traceless Quadrupole moment (field-independent basis, Debye-Ang):
   XX=              5.2983   YY=              3.4490   ZZ=             -8.7473
   XY=              0.0811   XZ=              7.9406   YZ=              0.3493
 Octapole moment (field-independent basis, Debye-Ang**2):
  XXX=              7.7882  YYY=            -25.4907  ZZZ=             29.1044  XYY=             -6.9093
  XXY=              8.8423  XXZ=              6.3238  XZZ=            -34.7395  YZZ=             -8.7824
  YYZ=             29.2185  XYZ=             -8.3197
 Hexadecapole moment (field-independent basis, Debye-Ang**3):
 XXXX=          -6459.2203 YYYY=          -4678.6471 ZZZZ=          -2770.5732 XXXY=             25.2183
 XXXZ=             -1.8792 YYYX=            -15.9860 YYYZ=             13.4548 ZZZX=             72.6347
 ZZZY=              0.3329 XXYY=          -1854.6804 XXZZ=          -1577.9531 YYZZ=          -1208.1761
 XXYZ=             -9.7805 YYXZ=            -13.7922 ZZXY=            -12.1355
 N-N= 3.585301442013D+03 E-N=-1.039708644499D+04  KE= 1.374850190328D+03
 Calling FoFJK, ICntrl=      2127 FMM=T ISym2X=0 I1Cent= 0 IOpClX= 0 NMat=1 NMatS=1 NMatT=0.
 ***** Axes restored to original set *****
 -------------------------------------------------------------------
 Center     Atomic                   Forces (Hartrees/Bohr)
 Number     Number              X              Y              Z
 -------------------------------------------------------------------
      1        6           0.009754686    0.000866691    0.001802858
      2        6          -0.009976203   -0.005901422    0.004437844
      3        6          -0.005910668   -0.009425944   -0.002938108
      4        6           0.012723328   -0.006092095    0.007724150
      5        6          -0.007360543    0.002585554    0.005129102
      6        6          -0.006769778   -0.008969875   -0.005276230
      7        6           0.022252527    0.016095805    0.006220398
      8        6          -0.006589116   -0.001130418   -0.023015411
      9        6           0.007771536   -0.004700300    0.007326695
     10        6          -0.017014986    0.018024679   -0.000358120
     11        6          -0.025640699   -0.010128190   -0.007657943
     12        8           0.011382602    0.016226036    0.005859678
     13        6           0.002309511    0.004478542   -0.003714634
     14        6          -0.001792824    0.000791564    0.004728279
     15        6          -0.000672327   -0.002235092   -0.011948137
     16        8           0.007646904   -0.009800347   -0.000715144
     17        6           0.002187152   -0.006440087   -0.011951817
     18        6           0.029638993    0.005093333   -0.015822224
     19        8          -0.008429878   -0.008390767    0.033117081
     20        6           0.009132181   -0.001802659   -0.006786782
     21        8          -0.005187721    0.005544041    0.004102290
     22        6          -0.002821331   -0.007417518    0.008336774
     23        6          -0.000934429    0.006388716    0.016291230
     24        8          -0.004444286   -0.008718067   -0.013613575
     25        6          -0.011568841    0.015361874    0.008039434
     26        6          -0.000197215    0.000964615   -0.001176413
     27        6           0.001118040   -0.008785490   -0.001452923
     28        6          -0.001923750    0.008414085    0.002019567
     29        6          -0.009044834   -0.000493035   -0.006878984
     30        1          -0.003362127    0.002186770    0.000600174
     31        1          -0.001798245    0.005655732    0.000669571
     32        6          -0.002410273   -0.000462908    0.000146358
     33        1           0.000686964   -0.000969252   -0.000032902
     34        1          -0.002108138    0.006073869   -0.000015793
     35        1           0.000457669    0.005006619   -0.000276519
     36        1          -0.001101217   -0.002798634   -0.000190643
     37        1           0.000937074   -0.002082467   -0.001835082
     38        1          -0.000247402   -0.001910829   -0.004055473
     39        1           0.000536801   -0.000105183    0.001412453
     40        1          -0.000228427    0.000857254    0.001027032
     41        1          -0.000536646   -0.000079083    0.001059023
     42        1           0.000242060    0.000454400    0.001248437
     43        1          -0.002267888   -0.001699573   -0.001276880
     44        1          -0.002990218   -0.001231651   -0.002579434
     45        1           0.000760303    0.004787242   -0.005868941
     46        1           0.000906321    0.000970983   -0.004428407
     47        1           0.004555279   -0.000165039    0.000345952
     48        1           0.004198399   -0.002024448    0.001413875
     49        1          -0.001869024   -0.000751366   -0.001477332
     50        1           0.003797035   -0.002046748    0.000161784
     51        1          -0.000774949   -0.000816782   -0.002425435
     52        1           0.001739931   -0.000055514    0.000477196
     53        1           0.000778969   -0.004767667    0.003332840
     54        1           0.000103716   -0.000785756   -0.000368679
     55        1           0.000497741   -0.003237274   -0.002418139
     56        1          -0.000017771    0.000728157    0.001310829
     57        1           0.001492735   -0.001939593    0.002557097
     58        1           0.002084660    0.001566865    0.001605836
     59        1          -0.000640565    0.000856112   -0.000329275
     60        1           0.004110926   -0.001586879   -0.000166724
     61        1           0.004132941   -0.001110079    0.000094627
     62        6           0.002576277    0.001868822    0.004948131
     63        1          -0.000330409    0.000907738    0.001673316
     64        1          -0.001541452    0.000072878    0.000611728
     65        1          -0.002009079   -0.001770942    0.001220465
 -------------------------------------------------------------------
 Cartesian Forces:  Max     0.033117081 RMS     0.006933936

 GradGradGradGradGradGradGradGradGradGradGradGradGradGradGradGradGradGrad
 Berny optimization.
 Internal  Forces:  Max     0.020365192 RMS     0.003553830
 Search for a local minimum.
 Step number   1 out of a maximum of  390
 All quantities printed in internal units (Hartrees-Bohrs-Radians)
 Mixed Optimization -- RFO/linear search
 Second derivative matrix not updated -- first step.
 ITU=  0
     Eigenvalues ---    0.00270   0.00276   0.00342   0.00355   0.00357
     Eigenvalues ---    0.00461   0.00530   0.00561   0.00567   0.00596
     Eigenvalues ---    0.00618   0.00629   0.00694   0.00743   0.00814
     Eigenvalues ---    0.01058   0.01121   0.01226   0.01276   0.01455
     Eigenvalues ---    0.01498   0.01704   0.01720   0.01826   0.02066
     Eigenvalues ---    0.02568   0.02839   0.02839   0.03134   0.03160
     Eigenvalues ---    0.03412   0.03416   0.03662   0.03885   0.04082
     Eigenvalues ---    0.04281   0.04348   0.04454   0.04458   0.04621
     Eigenvalues ---    0.04770   0.04818   0.04947   0.05123   0.05281
     Eigenvalues ---    0.05308   0.05337   0.05403   0.05432   0.05467
     Eigenvalues ---    0.05501   0.05523   0.05561   0.05570   0.05608
     Eigenvalues ---    0.05702   0.05839   0.05861   0.05930   0.06149
     Eigenvalues ---    0.06579   0.06855   0.07044   0.07080   0.07157
     Eigenvalues ---    0.07217   0.07320   0.07341   0.07569   0.08100
     Eigenvalues ---    0.08358   0.08483   0.08738   0.09111   0.09609
     Eigenvalues ---    0.09765   0.10338   0.11515   0.11878   0.12320
     Eigenvalues ---    0.12592   0.13300   0.14486   0.15337   0.15989
     Eigenvalues ---    0.16000   0.16000   0.16000   0.16000   0.16000
     Eigenvalues ---    0.16000   0.16000   0.16000   0.16000   0.16000
     Eigenvalues ---    0.16000   0.16000   0.16000   0.16000   0.16000
     Eigenvalues ---    0.16000   0.16000   0.16000   0.16000   0.16000
     Eigenvalues ---    0.16409   0.16833   0.16981   0.18149   0.19035
     Eigenvalues ---    0.19432   0.20829   0.21902   0.22149   0.22762
     Eigenvalues ---    0.23271   0.24536   0.24798   0.24972   0.24984
     Eigenvalues ---    0.24986   0.24999   0.25000   0.26124   0.26646
     Eigenvalues ---    0.26912   0.27482   0.27861   0.28275   0.28292
     Eigenvalues ---    0.28746   0.28780   0.28862   0.29235   0.29322
     Eigenvalues ---    0.29340   0.30075   0.30279   0.30544   0.30852
     Eigenvalues ---    0.31311   0.31665   0.32195   0.32784   0.33692
     Eigenvalues ---    0.33791   0.33847   0.33848   0.33930   0.33931
     Eigenvalues ---    0.33960   0.33987   0.33995   0.34080   0.34085
     Eigenvalues ---    0.34190   0.34201   0.34201   0.34202   0.34228
     Eigenvalues ---    0.34230   0.34251   0.34262   0.34273   0.34278
     Eigenvalues ---    0.34281   0.34281   0.34291   0.34311   0.34341
     Eigenvalues ---    0.34347   0.34356   0.34417   0.34647   0.34810
     Eigenvalues ---    0.35077   0.35208   0.35643   0.35904   0.36590
     Eigenvalues ---    0.37876   0.40978   0.44642   0.50559   0.53388
     Eigenvalues ---    0.54278   0.56473   0.88998   0.91351
 RFO step:  Lambda=-2.33419958D-02 EMin= 2.70481922D-03
 Linear search not attempted -- first point.
 Iteration  1 RMS(Cart)=  0.05769856 RMS(Int)=  0.00082661
 Iteration  2 RMS(Cart)=  0.00148884 RMS(Int)=  0.00024850
 Iteration  3 RMS(Cart)=  0.00000110 RMS(Int)=  0.00024850
 Iteration  4 RMS(Cart)=  0.00000000 RMS(Int)=  0.00024850
 Variable       Old X    -DE/DX   Delta X   Delta X   Delta X     New X
                                 (Linear)    (Quad)   (Total)
    R1        2.53393  -0.00263   0.00000  -0.00501  -0.00504   2.52890
    R2        2.82638   0.00784   0.00000   0.02273   0.02263   2.84900
    R3        2.05550   0.00048   0.00000   0.00130   0.00130   2.05679
    R4        2.84761   0.00450   0.00000   0.01171   0.01179   2.85939
    R5        2.83788   0.00471   0.00000   0.01363   0.01363   2.85151
    R6        2.94474   0.00570   0.00000   0.01345   0.01340   2.95814
    R7        2.90116   0.01043   0.00000   0.03454   0.03449   2.93565
    R8        2.07853  -0.00200   0.00000  -0.00556  -0.00556   2.07297
    R9        2.91388   0.01075   0.00000   0.03067   0.03068   2.94457
   R10        2.92987   0.01013   0.00000   0.03745   0.03778   2.96766
   R11        2.75438  -0.00336   0.00000  -0.00793  -0.00789   2.74649
   R12        2.92281   0.00375   0.00000   0.01344   0.01339   2.93621
   R13        2.90491   0.00647   0.00000   0.01389   0.01355   2.91846
   R14        2.89484   0.00423   0.00000   0.01218   0.01203   2.90687
   R15        2.07398   0.00190   0.00000   0.00523   0.00523   2.07921
   R16        2.07590  -0.00148   0.00000  -0.00409  -0.00409   2.07181
   R17        2.81290   0.01060   0.00000   0.02504   0.02471   2.83761
   R18        2.86420   0.01524   0.00000   0.05307   0.05259   2.91679
   R19        2.68509   0.00073   0.00000   0.00202   0.00210   2.68718
   R20        2.52530   0.01374   0.00000   0.02414   0.02423   2.54953
   R21        2.61901  -0.01677   0.00000  -0.03893  -0.03869   2.58032
   R22        2.80565   0.00134   0.00000  -0.00092  -0.00079   2.80486
   R23        2.79284   0.01704   0.00000   0.04587   0.04587   2.83871
   R24        2.32316  -0.00989   0.00000  -0.01056  -0.01056   2.31261
   R25        2.33398  -0.02037   0.00000  -0.02230  -0.02230   2.31168
   R26        2.89516  -0.00033   0.00000  -0.00103  -0.00103   2.89413
   R27        2.90537   0.00105   0.00000   0.00337   0.00337   2.90874
   R28        2.89300   0.00791   0.00000   0.02497   0.02497   2.91797
   R29        2.07684   0.00028   0.00000   0.00077   0.00077   2.07761
   R30        2.06808   0.00134   0.00000   0.00365   0.00365   2.07174
   R31        2.07448   0.00037   0.00000   0.00103   0.00103   2.07551
   R32        2.87814   0.00837   0.00000   0.02581   0.02581   2.90395
   R33        2.06758   0.00034   0.00000   0.00091   0.00091   2.06850
   R34        2.06991   0.00043   0.00000   0.00116   0.00116   2.07107
   R35        2.06993  -0.00022   0.00000  -0.00060  -0.00060   2.06932
   R36        2.91156   0.00004   0.00000   0.01139   0.01158   2.92315
[...]
     55          1           0       -2.897318    2.119597    2.967823
     56          1           0       -1.268328    4.547719    1.744213
     57          1           0       -1.453710    3.994257    0.066224
     58          1           0       -2.817410    3.885440    1.192443
     59          1           0        4.267098    3.080530   -2.519914
     60          1           0        3.511581    3.960698   -1.179449
     61          1           0        4.704438    2.711552   -0.838586
     62          6           0       -3.391069   -2.989375    0.367975
     63          1           0       -3.348627   -3.451291    1.360878
     64          1           0       -4.061255   -3.595511   -0.254371
     65          1           0       -2.390615   -3.048496   -0.074418
 ---------------------------------------------------------------------
 Rotational constants (GHZ):      0.1929920      0.1485632      0.1245329

 **********************************************************************

            Population analysis using the SCF density.

 **********************************************************************

 Orbital symmetries:
       Occupied  (A) (A) (A) (A) (A) (A) (A) (A) (A) (A) (A) (A)
                 (A) (A) (A) (A) (A) (A) (A) (A) (A) (A) (A) (A)
                 (A) (A) (A) (A) (A) (A) (A) (A) (A) (A) (A) (A)
                 (A) (A) (A) (A) (A) (A) (A) (A) (A) (A) (A) (A)
                 (A) (A) (A) (A) (A) (A) (A) (A) (A) (A) (A) (A)
                 (A) (A) (A) (A) (A) (A) (A) (A) (A) (A) (A) (A)
                 (A) (A) (A) (A) (A) (A) (A) (A) (A) (A) (A) (A)
                 (A) (A) (A) (A) (A) (A) (A) (A) (A) (A) (A) (A)
                 (A) (A) (A) (A) (A) (A) (A) (A) (A) (A) (A) (A)
                 (A) (A) (A) (A) (A) (A) (A)
       Virtual   (A) (A) (A) (A) (A) (A) (A) (A) (A) (A) (A) (A)
                 (A) (A) (A) (A) (A) (A) (A) (A) (A) (A) (A) (A)
                 (A) (A) (A) (A) (A) (A) (A) (A) (A) (A) (A) (A)
                 (A) (A) (A) (A) (A) (A) (A) (A) (A) (A) (A) (A)
                 (A) (A) (A) (A) (A) (A) (A) (A) (A) (A) (A) (A)
                 (A) (A) (A) (A) (A) (A) (A) (A) (A) (A) (A) (A)
                 (A) (A) (A) (A) (A) (A) (A) (A) (A) (A) (A) (A)
                 (A) (A) (A) (A) (A) (A) (A) (A) (A) (A) (A) (A)
                 (A) (A) (A) (A) (A) (A) (A) (A) (A) (A) (A) (A)
                 (A) (A) (A) (A) (A) (A) (A) (A) (A) (A) (A) (A)
                 (A) (A) (A) (A) (A) (A) (A) (A) (A) (A) (A) (A)
                 (A) (A) (A) (A) (A) (A) (A) (A) (A) (A) (A) (A)
                 (A) (A) (A) (A) (A) (A) (A) (A) (A) (A) (A) (A)
                 (A) (A) (A) (A) (A) (A) (A) (A) (A) (A) (A) (A)
                 (A) (A) (A) (A) (A) (A) (A) (A) (A) (A) (A) (A)
                 (A) (A) (A) (A) (A) (A) (A) (A) (A) (A) (A) (A)
                 (A) (A) (A) (A) (A) (A) (A) (A) (A) (A) (A) (A)
                 (A) (A) (A) (A) (A) (A) (A) (A) (A) (A) (A) (A)
                 (A) (A) (A) (A) (A) (A) (A) (A) (A) (A) (A) (A)
                 (A) (A) (A) (A) (A) (A) (A) (A) (A) (A) (A) (A)
                 (A) (A) (A) (A) (A) (A) (A) (A) (A) (A) (A) (A)
                 (A) (A) (A) (A) (A) (A) (A) (A) (A) (A) (A) (A)
                 (A) (A) (A) (A) (A) (A) (A) (A) (A) (A) (A) (A)
                 (A) (A) (A) (A) (A) (A) (A) (A) (A) (A) (A) (A)
                 (A) (A) (A) (A) (A) (A) (A) (A) (A) (A) (A) (A)
                 (A) (A) (A) (A) (A) (A) (A) (A) (A) (A) (A) (A)
                 (A) (A) (A) (A) (A) (A) (A) (A) (A) (A) (A) (A)
                 (A) (A) (A) (A) (A) (A) (A) (A) (A) (A) (A) (A)
                 (A) (A) (A) (A) (A) (A) (A) (A) (A) (A) (A) (A)
                 (A) (A) (A) (A) (A) (A) (A) (A) (A) (A) (A) (A)
                 (A) (A) (A) (A) (A) (A) (A) (A) (A) (A) (A) (A)
                 (A) (A) (A) (A) (A) (A) (A) (A) (A) (A) (A) (A)
                 (A) (A) (A) (A) (A) (A) (A) (A) (A) (A) (A) (A)
                 (A) (A) (A) (A) (A) (A) (A) (A) (A) (A) (A) (A)
                 (A) (A) (A) (A) (A) (A) (A) (A) (A) (A)
 The electronic state is 1-A.
 Alpha  occ. eigenvalues --  -19.19723 -19.16683 -19.14859 -19.13365 -19.12743
 Alpha  occ. eigenvalues --  -10.27296 -10.26785 -10.26752 -10.26730 -10.26064
 Alpha  occ. eigenvalues --  -10.25708 -10.24688 -10.21365 -10.20449 -10.20262
 Alpha  occ. eigenvalues --  -10.20137 -10.19691 -10.19586 -10.19427 -10.19271
 Alpha  occ. eigenvalues --  -10.18973 -10.18916 -10.18604 -10.18577 -10.18407
 Alpha  occ. eigenvalues --  -10.18391 -10.18350 -10.17501 -10.17149 -10.16890
 Alpha  occ. eigenvalues --  -10.15842  -1.09014  -1.05713  -1.03602  -1.02374
 Alpha  occ. eigenvalues --   -1.01900  -0.86834  -0.83807  -0.81946  -0.81136
 Alpha  occ. eigenvalues --   -0.79891  -0.79488  -0.76721  -0.73996  -0.72949
 Alpha  occ. eigenvalues --   -0.71918  -0.71615  -0.70215  -0.68702  -0.68020
 Alpha  occ. eigenvalues --   -0.64876  -0.63976  -0.63230  -0.61636  -0.60636
 Alpha  occ. eigenvalues --   -0.59108  -0.58978  -0.56562  -0.55245  -0.53502
 Alpha  occ. eigenvalues --   -0.52832  -0.52041  -0.50649  -0.49929  -0.49025
 Alpha  occ. eigenvalues --   -0.47575  -0.47193  -0.46633  -0.46436  -0.45913
 Alpha  occ. eigenvalues --   -0.44810  -0.44580  -0.44123  -0.43506  -0.42757
 Alpha  occ. eigenvalues --   -0.42292  -0.42187  -0.41904  -0.41632  -0.41175
 Alpha  occ. eigenvalues --   -0.40920  -0.40625  -0.40437  -0.40121  -0.39784
 Alpha  occ. eigenvalues --   -0.39343  -0.39067  -0.38738  -0.38564  -0.38039
 Alpha  occ. eigenvalues --   -0.37967  -0.37541  -0.37268  -0.36590  -0.36165
 Alpha  occ. eigenvalues --   -0.35584  -0.35275  -0.35058  -0.34515  -0.34371
 Alpha  occ. eigenvalues --   -0.33494  -0.33317  -0.33036  -0.32752  -0.32172
 Alpha  occ. eigenvalues --   -0.31470  -0.31295  -0.31105  -0.27405  -0.27189
 Alpha  occ. eigenvalues --   -0.25323  -0.24670  -0.24295  -0.23412  -0.22775
 Alpha virt. eigenvalues --   -0.04189  -0.01945   0.00957   0.01556   0.04761
 Alpha virt. eigenvalues --    0.07104   0.08198   0.08782   0.09302   0.10201
 Alpha virt. eigenvalues --    0.10549   0.11111   0.11460   0.11650   0.12664
 Alpha virt. eigenvalues --    0.13088   0.13236   0.13491   0.13831   0.14053
 Alpha virt. eigenvalues --    0.14602   0.14756   0.15175   0.15596   0.15787
 Alpha virt. eigenvalues --    0.16129   0.16674   0.16680   0.17085   0.17319
 Alpha virt. eigenvalues --    0.17990   0.18379   0.18520   0.19060   0.19206
 Alpha virt. eigenvalues --    0.19447   0.19734   0.19833   0.20152   0.20252
 Alpha virt. eigenvalues --    0.20665   0.21198   0.21473   0.22037   0.22317
 Alpha virt. eigenvalues --    0.23066   0.23621   0.23771   0.24307   0.24797
 Alpha virt. eigenvalues --    0.24842   0.25277   0.25623   0.26246   0.26639
 Alpha virt. eigenvalues --    0.26825   0.27712   0.27787   0.28646   0.30163
 Alpha virt. eigenvalues --    0.30996   0.31727   0.32702   0.33375   0.34721
 Alpha virt. eigenvalues --    0.35144   0.36769   0.37807   0.39086   0.39567
 Alpha virt. eigenvalues --    0.42277   0.44066   0.46120   0.47535   0.48479
 Alpha virt. eigenvalues --    0.49196   0.49611   0.50014   0.50547   0.51173
 Alpha virt. eigenvalues --    0.51853   0.52119   0.52334   0.52828   0.53338
 Alpha virt. eigenvalues --    0.53837   0.54183   0.54449   0.55387   0.55653
 Alpha virt. eigenvalues --    0.56612   0.56945   0.57986   0.59007   0.59524
 Alpha virt. eigenvalues --    0.59941   0.60257   0.60674   0.61298   0.61700
 Alpha virt. eigenvalues --    0.62019   0.63145   0.63920   0.64299   0.64889
 Alpha virt. eigenvalues --    0.65568   0.65938   0.66547   0.66863   0.67685
 Alpha virt. eigenvalues --    0.68133   0.68449   0.69137   0.69670   0.70668
 Alpha virt. eigenvalues --    0.70915   0.71155   0.72605   0.73246   0.73684
 Alpha virt. eigenvalues --    0.74460   0.74854   0.75249   0.75717   0.76221
 Alpha virt. eigenvalues --    0.76839   0.77638   0.78010   0.78201   0.78700
 Alpha virt. eigenvalues --    0.79463   0.80040   0.80745   0.81450   0.81668
 Alpha virt. eigenvalues --    0.82673   0.83222   0.84129   0.84400   0.84977
 Alpha virt. eigenvalues --    0.85397   0.85764   0.85944   0.86234   0.86947
 Alpha virt. eigenvalues --    0.87253   0.87935   0.88426   0.88782   0.88972
 Alpha virt. eigenvalues --    0.89487   0.90002   0.90145   0.90512   0.90829
 Alpha virt. eigenvalues --    0.91044   0.91395   0.92057   0.92137   0.92756
 Alpha virt. eigenvalues --    0.92904   0.93566   0.94210   0.94290   0.94538
 Alpha virt. eigenvalues --    0.95031   0.95358   0.95537   0.96631   0.96907
 Alpha virt. eigenvalues --    0.97284   0.98653   0.98809   0.99662   0.99958
 Alpha virt. eigenvalues --    1.00035   1.01499   1.02241   1.02336   1.03856
 Alpha virt. eigenvalues --    1.04306   1.04540   1.07209   1.08045   1.08881
 Alpha virt. eigenvalues --    1.10100   1.11300   1.11920   1.13095   1.13588
 Alpha virt. eigenvalues --    1.13962   1.14575   1.15471   1.16444   1.17252
 Alpha virt. eigenvalues --    1.17432   1.19121   1.19566   1.21124   1.23087
 Alpha virt. eigenvalues --    1.23652   1.24835   1.26146   1.27469   1.27664
 Alpha virt. eigenvalues --    1.28371   1.29685   1.30866   1.33158   1.34387
 Alpha virt. eigenvalues --    1.35207   1.35781   1.37724   1.39274   1.40533
 Alpha virt. eigenvalues --    1.41301   1.43831   1.44693   1.45040   1.45972
 Alpha virt. eigenvalues --    1.47698   1.48247   1.50923   1.51169   1.52606
 Alpha virt. eigenvalues --    1.53983   1.54869   1.56408   1.57251   1.58113
 Alpha virt. eigenvalues --    1.59792   1.60830   1.62267   1.62694   1.64780
 Alpha virt. eigenvalues --    1.65758   1.67081   1.67671   1.69103   1.69388
 Alpha virt. eigenvalues --    1.70461   1.71477   1.72197   1.73146   1.73399
 Alpha virt. eigenvalues --    1.75014   1.75419   1.76064   1.77134   1.78620
 Alpha virt. eigenvalues --    1.78644   1.79276   1.79991   1.80669   1.81845
 Alpha virt. eigenvalues --    1.83200   1.83520   1.84536   1.84694   1.85437
 Alpha virt. eigenvalues --    1.86012   1.86683   1.86901   1.87406   1.87790
 Alpha virt. eigenvalues --    1.89159   1.90086   1.90634   1.91299   1.92250
 Alpha virt. eigenvalues --    1.92558   1.92930   1.93290   1.93691   1.94185
 Alpha virt. eigenvalues --    1.95837   1.95975   1.96685   1.97655   1.98209
 Alpha virt. eigenvalues --    1.98667   1.99182   1.99757   2.01274   2.01687
 Alpha virt. eigenvalues --    2.02121   2.03031   2.03752   2.04317   2.04847
 Alpha virt. eigenvalues --    2.05265   2.06215   2.07537   2.07846   2.08857
 Alpha virt. eigenvalues --    2.09767   2.10928   2.11298   2.12252   2.12610
 Alpha virt. eigenvalues --    2.13116   2.14361   2.16016   2.16272   2.18010
 Alpha virt. eigenvalues --    2.18304   2.20368   2.21210   2.21649   2.22374
 Alpha virt. eigenvalues --    2.22972   2.23458   2.25606   2.26011   2.26970
 Alpha virt. eigenvalues --    2.27475   2.28118   2.28587   2.29480   2.30673
 Alpha virt. eigenvalues --    2.32223   2.32818   2.33327   2.33819   2.34606
 Alpha virt. eigenvalues --    2.35653   2.36816   2.37544   2.38224   2.38885
 Alpha virt. eigenvalues --    2.39345   2.40297   2.41828   2.42989   2.44318
 Alpha virt. eigenvalues --    2.44701   2.45871   2.46693   2.46910   2.49277
 Alpha virt. eigenvalues --    2.49938   2.50519   2.51264   2.52311   2.53352
 Alpha virt. eigenvalues --    2.54266   2.56183   2.57298   2.59426   2.59709
 Alpha virt. eigenvalues --    2.61319   2.62221   2.63409   2.64508   2.65910
 Alpha virt. eigenvalues --    2.66624   2.66879   2.68702   2.69527   2.70903
 Alpha virt. eigenvalues --    2.71558   2.73937   2.74535   2.76763   2.76910
 Alpha virt. eigenvalues --    2.77564   2.78019   2.79545   2.80237   2.85460
 Alpha virt. eigenvalues --    2.87633   2.89028   2.92391   2.94649   2.96818
 Alpha virt. eigenvalues --    2.98028   2.98627   2.99906   3.00492   3.03427
 Alpha virt. eigenvalues --    3.05669   3.07588   3.10981   3.15947   3.17345
 Alpha virt. eigenvalues --    3.23142   3.26492   4.02000   4.07543   4.11281
 Alpha virt. eigenvalues --    4.12269   4.14089   4.15874   4.17740   4.20239
 Alpha virt. eigenvalues --    4.23463   4.26187   4.26415   4.28353   4.29606
 Alpha virt. eigenvalues --    4.31765   4.33796   4.36614   4.39268   4.42357
 Alpha virt. eigenvalues --    4.46857   4.50539   4.55186   4.55783   4.60077
 Alpha virt. eigenvalues --    4.66726   4.67804   4.70932   4.73943   4.76323
 Alpha virt. eigenvalues --    4.88457   4.94673   5.24328
          Condensed to atoms (all electrons):
 Mulliken atomic charges:
              1
     1  C   -0.197651
     2  C    0.204571
     3  C   -0.200535
     4  C    0.323404
     5  C   -0.047650
     6  C   -0.326792
     7  C    0.200487
     8  C    0.412781
     9  C   -0.103668
    10  C    0.428229
    11  C    0.420298
    12  O   -0.451612
    13  C   -0.143211
    14  C   -0.267793
    15  C   -0.468896
    16  O   -0.491918
    17  C   -0.157433
    18  C    0.300091
    19  O   -0.540764
    20  C   -0.308152
    21  O   -0.671019
    22  C   -0.332969
    23  C    0.094009
    24  O   -0.589948
    25  C    0.181778
    26  C   -0.513917
    27  C   -0.404913
    28  C   -0.467729
    29  C   -0.461410
    30  H    0.145737
    31  H    0.149453
    32  C   -0.520949
    33  H    0.125560
    34  H    0.178222
    35  H    0.167524
    36  H    0.153213
    37  H    0.148333
    38  H    0.127662
    39  H    0.164078
    40  H    0.143304
    41  H    0.157464
    42  H    0.161036
    43  H    0.150455
    44  H    0.430055
    45  H    0.188964
    46  H    0.151942
    47  H    0.135540
    48  H    0.159913
    49  H    0.157392
    50  H    0.154146
    51  H    0.184287
    52  H    0.136808
    53  H    0.195066
    54  H    0.144812
    55  H    0.155856
    56  H    0.151706
    57  H    0.162416
    58  H    0.162899
    59  H    0.157597
    60  H    0.153960
    61  H    0.156430
    62  C   -0.460830
    63  H    0.138651
    64  H    0.139377
    65  H    0.174253
 Sum of Mulliken atomic charges =   0.00000
 Mulliken charges with hydrogens summed into heavy atoms:
              1
     1  C   -0.072091
     2  C    0.204571
     3  C   -0.051082
     4  C    0.323404
     5  C   -0.047650
     6  C    0.018954
     7  C    0.200487
     8  C    0.412781
     9  C   -0.103668
    10  C    0.428229
    11  C    0.420298
    12  O   -0.451612
    13  C    0.010002
    14  C    0.008201
    15  C   -0.004049
    16  O   -0.491918
    17  C   -0.011696
    18  C    0.300091
    19  O   -0.540764
    20  C    0.003339
    21  O   -0.240964
    22  C    0.007936
    23  C    0.229549
    24  O   -0.589948
    25  C    0.181778
    26  C   -0.042466
    27  C   -0.083817
    28  C    0.028005
    29  C    0.015611
    32  C   -0.052961
    62  C   -0.008549
 Sum of Mulliken charges with hydrogens summed into heavy atoms =   0.00000
 Electronic spatial extent (au):  <R**2>=          10652.7827
 Charge=              0.0000 electrons
 Dipole moment (field-independent basis, Debye):
    X=              3.0031    Y=              4.0786    Z=              3.1573  Tot=              5.9684
 Quadrupole moment (field-independent basis, Debye-Ang):
   XX=           -176.8773   YY=           -178.2825   ZZ=           -191.0099
   XY=             -2.7912   XZ=             -7.8915   YZ=             -2.3302
 Traceless Quadrupole moment (field-independent basis, Debye-Ang):
   XX=              5.1792   YY=              3.7740   ZZ=             -8.9533
   XY=             -2.7912   XZ=             -7.8915   YZ=             -2.3302
 Octapole moment (field-independent basis, Debye-Ang**2):
  XXX=             -5.1171  YYY=             32.2568  ZZZ=             30.4160  XYY=              5.3209
  XXY=             -3.5746  XXZ=              9.7229  XZZ=             33.3035  YZZ=             15.1043
  YYZ=             33.4788  XYZ=             -6.9340
 Hexadecapole moment (field-independent basis, Debye-Ang**3):
 XXXX=          -6636.6811 YYYY=          -4668.1673 ZZZZ=          -2829.4737 XXXY=              9.8250
 XXXZ=              6.2592 YYYX=            -14.0297 YYYZ=             -2.2144 ZZZX=            -73.8133
 ZZZY=             -7.7400 XXYY=          -1886.0723 XXZZ=          -1616.8218 YYZZ=          -1217.2087
 XXYZ=             -6.3865 YYXZ=             10.0081 ZZXY=            -38.1968
 N-N= 3.563851986489D+03 E-N=-1.035406707489D+04  KE= 1.374455538698D+03
 1\1\GINC-B0801\FOpt\RB3LYP\6-31G(d)\C26H34O5\CAOFEI\24-Mar-2021\0\\# o
 pt rb3lyp/6-31g(d) geom=connectivity\\Title Card Required\\0,1\C,-0.02
 85476619,0.0464935365,0.0084407217\C,1.3090226519,0.0044727522,-0.0007
 554027\C,2.1060207867,1.2872187307,-0.0484544646\C,1.4305862809,2.5381
 551348,0.5989407842\C,-0.1121156883,2.4710638011,0.8166884659\C,-0.805
 1983502,1.3350826272,-0.0007345371\C,1.9030318091,3.7375545603,-0.3026
 340467\C,0.8335910791,4.2263898548,-1.2616237383\C,-0.4717848195,4.336
 3108098,-0.9322975482\C,-0.8651104363,3.7549701856,0.3736320095\C,-1.5
 904418337,4.8120635136,-1.8282698528\O,-2.5314773383,4.0578707862,-2.0
 15013223\C,-1.5739292883,6.1979651653,-2.487657462\C,-0.8040689185,7.2
 720443752,-1.6998667946\C,-1.1027073181,6.077666305,-3.9531407622\O,-1
 .8308110902,4.1595321208,1.0042215468\C,2.9474416903,3.1963038025,-1.3
 058102663\C,2.7983175828,4.1396850804,-2.5198138755\O,1.365892089,4.53
 4833057,-2.4565207162\C,2.5058320702,1.7315052156,-1.4797676595\O,2.32
 67452323,4.8394163205,0.4698821168\C,-0.2551756139,2.2100828165,2.3285
 112183\C,1.0343313811,2.7159973871,2.98040569\O,2.0178677902,2.7328010
 986,1.8986275454\C,1.0471793923,4.0653355067,3.6818907877\C,2.33304142
 71,4.3555953574,4.4226640815\C,0.0262175802,4.9271946119,3.6741190299\
 C,3.6343952412,5.4131989043,-2.3710446952\C,3.0008481583,3.5016779245,
 -3.8906891809\H,3.9555531725,3.2526158361,-0.884004972\H,3.0354257401,
 1.1526198175,0.5205834403\C,2.0884869284,-1.2846270545,-0.0043241675\H
 ,-0.5983249204,-0.8817057141,0.0087178841\H,-0.9780903406,1.6723463095
 ,-1.0322612871\H,-1.8049482463,1.1865169608,0.4226941681\H,-2.63582511
 47,6.4780865719,-2.51556901\H,0.2336660197,6.9502846365,-1.549803512\H
 ,-0.7546192404,8.1779650569,-2.3194278684\H,-0.047696169,5.7975596841,
 -4.0122856677\H,-1.2346964911,7.0381314358,-4.4644174953\H,-1.69269573
 75,5.3236601138,-4.4845140721\H,1.6341293313,1.6623586396,-2.141432424
 7\H,3.2869475356,1.095522849,-1.9076811281\H,2.4779674744,4.4630998202
 ,1.3616740552\H,-1.1603551143,2.6804495432,2.7135918203\H,-0.334025079
 4,1.1324263922,2.4976320776\H,1.413453265,1.9726972121,3.6943158532\H,
 3.2060116965,4.2790892426,3.7618377915\H,2.3255677197,5.3558296978,4.8
 650943066\H,2.4930059011,3.6259757493,5.2291994946\H,-0.9025496711,4.7
 422124115,3.145780385\H,0.1031261834,5.8776899535,4.1971322236\H,3.483
 3521427,5.8657142552,-1.3881859726\H,4.6988357252,5.1784502191,-2.4863
 689454\H,3.3579416954,6.1362606854,-3.1454561137\H,4.0361026113,3.1583
 628631,-3.9932911561\H,2.3348944058,2.6489160195,-4.0451373894\H,2.806
 2523729,4.2345630596,-4.6802998034\H,1.4258705359,-2.1559303304,-0.003
 1349342\H,2.7402684027,-1.3588457126,-0.8859500286\H,2.7446744632,-1.3
 530113254,0.8745633137\C,-1.4498608132,7.6134184485,-0.351242034\H,-0.
 8549008685,8.355202394,0.1935560737\H,-2.4544937317,8.0305758171,-0.49
 46232638\H,-1.5507456702,6.7281370991,0.2861085866\\Version=EM64L-G09R
 evB.01\State=1-A\HF=-1387.3156043\RMSD=6.323e-09\RMSF=5.261e-06\Dipole
 =2.156025,-0.9248924,-0.0998471\Quadrupole=-8.2278215,4.3281923,3.8996
 292,-0.8590214,-4.2762244,-2.3222725\PG=C01 [X(C26H34O5)]\\@


 I am not a vegetarian because I love animals;
 I am a vegetarian because I hate plants.
                               -- A. Whitney Brown
 Job cpu time:  0 days  5 hours 33 minutes  1.1 seconds.
 File lengths (MBytes):  RWF=    186 Int=      0 D2E=      0 Chk=     20 Scr=      1
 Normal termination of Gaussian 09 at Wed Mar 24 15:45:53 2021.
