 Entering Gaussian System, Link 0=g09
 Initial command:
 /public/software/g09/g09/l1.exe /tmp/Gau-26457.inp -scrdir=/tmp/
 Entering Link 1 = /public/software/g09/g09/l1.exe PID=     26458.
  
 Copyright (c) 1988,1990,1992,1993,1995,1998,2003,2009,2010,
            Gaussian, Inc.  All Rights Reserved.
  
 This is part of the Gaussian(R) 09 program.  It is based on
 the Gaussian(R) 03 system (copyright 2003, Gaussian, Inc.),
 the Gaussian(R) 98 system (copyright 1998, Gaussian, Inc.),
 the Gaussian(R) 94 system (copyright 1995, Gaussian, Inc.),
 the Gaussian 92(TM) system (copyright 1992, Gaussian, Inc.),
 the Gaussian 90(TM) system (copyright 1990, Gaussian, Inc.),
 the Gaussian 88(TM) system (copyright 1988, Gaussian, Inc.),
 the Gaussian 86(TM) system (copyright 1986, Carnegie Mellon
 University), and the Gaussian 82(TM) system (copyright 1983,
 Carnegie Mellon University). Gaussian is a federally registered
 trademark of Gaussian, Inc.
  
 This software contains proprietary and confidential information,
 including trade secrets, belonging to Gaussian, Inc.
  
 This software is provided under written license and may be
 used, copied, transmitted, or stored only in accord with that
 written license.
  
 The following legend is applicable only to US Government
 contracts under FAR:
  
                    RESTRICTED RIGHTS LEGEND
  
 Use, reproduction and disclosure by the US Government is
 subject to restrictions as set forth in subparagraphs (a)
 and (c) of the Commercial Computer Software - Restricted
 Rights clause in FAR 52.227-19.
  
 Gaussian, Inc.
 340 Quinnipiac St., Bldg. 40, Wallingford CT 06492
  
  
 ---------------------------------------------------------------
 Warning -- This program may not be used in any manner that
 competes with the business of Gaussian, Inc. or will provide
 assistance to any competitor of Gaussian, Inc.  The licensee
 of this program is prohibited from giving any competitor of
 Gaussian, Inc. access to this program.  By using this program,
 the user acknowledges that Gaussian, Inc. is engaged in the
 business of creating and licensing software in the field of
 computational chemistry and represents and warrants to the
 licensee that it is not a competitor of Gaussian, Inc. and that
 it will not use this program in any manner prohibited above.
 ---------------------------------------------------------------
  

 Cite this work as:
 Gaussian 09, Revision B.01,
 M. J. Frisch, G. W. Trucks, H. B. Schlegel, G. E. Scuseria, 
 M. A. Robb, J. R. Cheeseman, G. Scalmani, V. Barone, B. Mennucci, 
 G. A. Petersson, H. Nakatsuji, M. Caricato, X. Li, H. P. Hratchian, 
 A. F. Izmaylov, J. Bloino, G. Zheng, J. L. Sonnenberg, M. Hada, 
 M. Ehara, K. Toyota, R. Fukuda, J. Hasegawa, M. Ishida, T. Nakajima, 
 Y. Honda, O. Kitao, H. Nakai, T. Vreven, J. A. Montgomery, Jr., 
 J. E. Peralta, F. Ogliaro, M. Bearpark, J. J. Heyd, E. Brothers, 
 K. N. Kudin, V. N. Staroverov, T. Keith, R. Kobayashi, J. Normand, 
 K. Raghavachari, A. Rendell, J. C. Burant, S. S. Iyengar, J. Tomasi, 
 M. Cossi, N. Rega, J. M. Millam, M. Klene, J. E. Knox, J. B. Cross, 
 V. Bakken, C. Adamo, J. Jaramillo, R. Gomperts, R. E. Stratmann, 
 O. Yazyev, A. J. Austin, R. Cammi, C. Pomelli, J. W. Ochterski, 
 R. L. Martin, K. Morokuma, V. G. Zakrzewski, G. A. Voth, 
 P. Salvador, J. J. Dannenberg, S. Dapprich, A. D. Daniels, 
 O. Farkas, J. B. Foresman, J. V. Ortiz, J. Cioslowski, 
 and D. J. Fox, Gaussian, Inc., Wallingford CT, 2010.
 
 ******************************************
 Gaussian 09:  EM64L-G09RevB.01 12-Aug-2010
                24-Mar-2021 
 ******************************************
 %mem=600MW
 %nprocshared=10
 Will use up to   10 processors via shared memory.
 ---------------------------------------
 # opt rb3lyp/6-31g(d) geom=connectivity
 ---------------------------------------
 1/14=-1,18=20,19=15,26=3,38=1,57=2/1,3;
 2/9=110,12=2,17=6,18=5,40=1/2;
 3/5=1,6=6,7=1,11=2,16=1,25=1,30=1,71=1,74=-5,116=1/1,2,3;
 4//1;
 5/5=2,38=5/2;
 6/7=2,8=2,9=2,10=2,28=1/1;
 7//1,2,3,16;
 1/14=-1,18=20,19=15/3(2);
 2/9=110/2;
 99//99;
 2/9=110/2;
 3/5=1,6=6,7=1,11=2,16=1,25=1,30=1,71=1,74=-5,116=1/1,2,3;
 4/5=5,16=3/1;
 5/5=2,38=5/2;
 7//1,2,3,16;
 1/14=-1,18=20,19=15/3(-5);
 2/9=110/2;
 6/7=2,8=2,9=2,10=2,19=2,28=1/1;
 99/9=1/99;
 -------------------
 Title Card Required
 -------------------
 Symbolic Z-matrix:
 Charge =  0 Multiplicity = 1
 C                     0.        0.        0. 
 C                     1.3401    0.        0. 
 C                     2.1227    1.2847    0. 
 C                     1.3736    2.5511    0.5113 
 C                    -0.1713    2.4852    0.618 
 C                    -0.8117    1.2518   -0.0531 
 C                     1.923     3.6969   -0.3665 
 C                     1.006     4.1761   -1.4381 
 C                    -0.3197    4.2257   -1.2882 
 C                    -0.8751    3.6927   -0.0265 
 C                    -1.2039    4.6533   -2.3902 
 O                    -1.8144    3.7836   -3.0173 
 C                    -1.346     6.1375   -2.7344 
 C                    -0.8108    7.0965   -1.6574 
 C                    -0.7221    6.394    -4.1061 
 O                    -1.9312    4.1492    0.4096 
 C                     3.0553    3.1401   -1.2086 
 C                     3.0229    4.0226   -2.4705 
 O                     1.6458    4.4363   -2.641 
 C                     2.6405    1.6726   -1.3891 
 O                     2.3341    4.8119    0.4109 
 C                    -0.4238    2.5082    2.1393 
 C                     0.9173    2.1623    2.7605 
 O                     1.8523    2.7883    1.8711 
 C                     1.2006    2.6232    4.1709 
 C                     2.6166    2.4101    4.641 
 C                     0.2882    3.1543    5.0032 
 C                     3.8755    5.2917   -2.3161 
 C                     3.4627    3.2903   -3.741 
 H                     4.027     3.1955   -0.7022 
 H                     2.9966    1.1297    0.6512 
 C                     2.1326   -1.2767   -0.0093 
 H                    -0.548    -0.9398   -0.0263 
 H                    -1.7888    1.0533    0.4068 
 H                    -1.0291    1.4439   -1.1125 
 H                    -2.4294    6.3052   -2.8111 
 H                    -1.2065    6.8048   -0.6769 
 H                     0.2815    7.0293   -1.59 
 H                    -1.0142    7.3734   -4.4972 
 H                    -1.0428    5.6425   -4.8359 
 H                     0.3711    6.3606   -4.059 
 H                     3.4901    1.0546   -1.6986 
 H                     1.8497    1.5541   -2.1402 
 H                     2.4707    4.4667    1.3192 
 H                    -1.2095    1.8205    2.4697 
 H                    -0.7257    3.516     2.4499 
 H                     1.0786    1.0775    2.7215 
 H                     2.8989    1.358     4.5298 
 H                     3.3127    3.0219    4.0583 
 H                     2.747     2.6761    5.6955 
 H                    -0.7477    3.3038    4.7183 
 H                     0.5534    3.4561    6.0126 
 H                     3.5343    5.9209   -1.4889 
 H                     3.801     5.9177   -3.2132 
 H                     4.93      5.0458   -2.1539 
 H                     4.4741    2.884    -3.639 
 H                     3.4486    3.9676   -4.6031 
 H                     2.7779    2.4761   -3.999 
 H                     1.4874   -2.1616   -0.0117 
 H                     2.7678   -1.3262   -0.8993 
 H                     2.7707   -1.3334    0.8785 
 C                    -1.1942    8.55     -1.9023 
 H                    -2.2789    8.6601   -1.9987 
 H                    -0.7229    8.9427   -2.8078 
 H                    -0.8648    9.1707   -1.0627 
 

 GradGradGradGradGradGradGradGradGradGradGradGradGradGradGradGradGradGrad
 Berny optimization.
 Initialization pass.
                           ----------------------------
                           !    Initial Parameters    !
                           ! (Angstroms and Degrees)  !
 --------------------------                            --------------------------
 ! Name  Definition              Value          Derivative Info.                !
 --------------------------------------------------------------------------------
 ! R1    R(1,2)                  1.3401         estimate D2E/DX2                !
 ! R2    R(1,6)                  1.4929         estimate D2E/DX2                !
 ! R3    R(1,33)                 1.0882         estimate D2E/DX2                !
 ! R4    R(2,3)                  1.5043         estimate D2E/DX2                !
 ! R5    R(2,32)                 1.5027         estimate D2E/DX2                !
 ! R6    R(3,4)                  1.5577         estimate D2E/DX2                !
 ! R7    R(3,20)                 1.5324         estimate D2E/DX2                !
 ! R8    R(3,31)                 1.1008         estimate D2E/DX2                !
 ! R9    R(4,5)                  1.55           estimate D2E/DX2                !
 ! R10   R(4,7)                  1.5444         estimate D2E/DX2                !
 ! R11   R(4,24)                 1.461          estimate D2E/DX2                !
 ! R12   R(5,6)                  1.5433         estimate D2E/DX2                !
 ! R13   R(5,10)                 1.5391         estimate D2E/DX2                !
 ! R14   R(5,22)                 1.5423         estimate D2E/DX2                !
 ! R15   R(6,34)                 1.098          estimate D2E/DX2                !
 ! R16   R(6,35)                 1.0984         estimate D2E/DX2                !
 ! R17   R(7,8)                  1.4896         estimate D2E/DX2                !
 ! R18   R(7,17)                 1.517          estimate D2E/DX2                !
 ! R19   R(7,21)                 1.4201         estimate D2E/DX2                !
 ! R20   R(8,9)                  1.3351         estimate D2E/DX2                !
 ! R21   R(8,19)                 1.3871         estimate D2E/DX2                !
 ! R22   R(9,10)                 1.478          estimate D2E/DX2                !
 ! R23   R(9,11)                 1.4762         estimate D2E/DX2                !
 ! R24   R(10,16)                1.2304         estimate D2E/DX2                !
 ! R25   R(11,12)                1.2338         estimate D2E/DX2                !
 ! R26   R(11,13)                1.5302         estimate D2E/DX2                !
 ! R27   R(13,14)                1.5382         estimate D2E/DX2                !
 ! R28   R(13,15)                1.5286         estimate D2E/DX2                !
 ! R29   R(13,36)                1.099          estimate D2E/DX2                !
 ! R30   R(14,37)                1.0968         estimate D2E/DX2                !
 ! R31   R(14,38)                1.0964         estimate D2E/DX2                !
 ! R32   R(14,62)                1.523          estimate D2E/DX2                !
 ! R33   R(15,39)                1.0943         estimate D2E/DX2                !
 ! R34   R(15,40)                1.0955         estimate D2E/DX2                !
 ! R35   R(15,41)                1.0947         estimate D2E/DX2                !
 ! R36   R(17,18)                1.5402         estimate D2E/DX2                !
 ! R37   R(17,20)                1.5356         estimate D2E/DX2                !
 ! R38   R(17,30)                1.0971         estimate D2E/DX2                !
 ! R39   R(18,19)                1.448          estimate D2E/DX2                !
 ! R40   R(18,28)                1.5367         estimate D2E/DX2                !
 ! R41   R(18,29)                1.531          estimate D2E/DX2                !
 ! R42   R(20,42)                1.0952         estimate D2E/DX2                !
 ! R43   R(20,43)                1.0971         estimate D2E/DX2                !
 ! R44   R(21,44)                0.9812         estimate D2E/DX2                !
 ! R45   R(22,23)                1.5179         estimate D2E/DX2                !
 ! R46   R(22,45)                1.0952         estimate D2E/DX2                !
 ! R47   R(22,46)                1.0969         estimate D2E/DX2                !
 ! R48   R(23,24)                1.4343         estimate D2E/DX2                !
 ! R49   R(23,25)                1.5106         estimate D2E/DX2                !
 ! R50   R(23,47)                1.0974         estimate D2E/DX2                !
 ! R51   R(24,44)                1.8719         estimate D2E/DX2                !
 ! R52   R(25,26)                1.5071         estimate D2E/DX2                !
 ! R53   R(25,27)                1.3443         estimate D2E/DX2                !
 ! R54   R(26,48)                1.095          estimate D2E/DX2                !
 ! R55   R(26,49)                1.0947         estimate D2E/DX2                !
 ! R56   R(26,50)                1.0953         estimate D2E/DX2                !
 ! R57   R(27,51)                1.0847         estimate D2E/DX2                !
 ! R58   R(27,52)                1.0864         estimate D2E/DX2                !
 ! R59   R(28,53)                1.0939         estimate D2E/DX2                !
 ! R60   R(28,54)                1.0965         estimate D2E/DX2                !
 ! R61   R(28,55)                1.0949         estimate D2E/DX2                !
 ! R62   R(29,56)                1.0947         estimate D2E/DX2                !
 ! R63   R(29,57)                1.0964         estimate D2E/DX2                !
 ! R64   R(29,58)                1.0947         estimate D2E/DX2                !
 ! R65   R(32,59)                1.0951         estimate D2E/DX2                !
 ! R66   R(32,60)                1.0945         estimate D2E/DX2                !
 ! R67   R(32,61)                1.0948         estimate D2E/DX2                !
 ! R68   R(62,63)                1.0945         estimate D2E/DX2                !
 ! R69   R(62,64)                1.0937         estimate D2E/DX2                !
 ! R70   R(62,65)                1.0949         estimate D2E/DX2                !
 ! A1    A(2,1,6)              122.9369         estimate D2E/DX2                !
 ! A2    A(2,1,33)             120.2368         estimate D2E/DX2                !
 ! A3    A(6,1,33)             116.7111         estimate D2E/DX2                !
 ! A4    A(1,2,3)              121.3485         estimate D2E/DX2                !
 ! A5    A(1,2,32)             121.8289         estimate D2E/DX2                !
 ! A6    A(3,2,32)             116.8214         estimate D2E/DX2                !
 ! A7    A(2,3,4)              116.368          estimate D2E/DX2                !
 ! A8    A(2,3,20)             113.0775         estimate D2E/DX2                !
 ! A9    A(2,3,31)             107.0229         estimate D2E/DX2                !
 ! A10   A(4,3,20)             104.7295         estimate D2E/DX2                !
 ! A11   A(4,3,31)             107.5823         estimate D2E/DX2                !
 ! A12   A(20,3,31)            107.6765         estimate D2E/DX2                !
 ! A13   A(3,4,5)              117.8632         estimate D2E/DX2                !
 ! A14   A(3,4,7)              104.213          estimate D2E/DX2                !
 ! A15   A(3,4,24)             106.2564         estimate D2E/DX2                !
 ! A16   A(5,4,7)              115.1656         estimate D2E/DX2                !
 ! A17   A(5,4,24)             105.6293         estimate D2E/DX2                !
 ! A18   A(7,4,24)             106.9775         estimate D2E/DX2                !
 ! A19   A(4,5,6)              114.6857         estimate D2E/DX2                !
 ! A20   A(4,5,10)             113.1789         estimate D2E/DX2                !
 ! A21   A(4,5,22)             103.3236         estimate D2E/DX2                !
 ! A22   A(6,5,10)             104.7836         estimate D2E/DX2                !
 ! A23   A(6,5,22)             111.8955         estimate D2E/DX2                !
 ! A24   A(10,5,22)            109.056          estimate D2E/DX2                !
 ! A25   A(1,6,5)              115.4076         estimate D2E/DX2                !
 ! A26   A(1,6,34)             108.5031         estimate D2E/DX2                !
 ! A27   A(1,6,35)             106.7722         estimate D2E/DX2                !
 ! A28   A(5,6,34)             109.3663         estimate D2E/DX2                !
 ! A29   A(5,6,35)             111.2086         estimate D2E/DX2                !
 ! A30   A(34,6,35)            105.0382         estimate D2E/DX2                !
 ! A31   A(4,7,8)              115.3762         estimate D2E/DX2                !
 ! A32   A(4,7,17)             107.9823         estimate D2E/DX2                !
 ! A33   A(4,7,21)             111.9844         estimate D2E/DX2                !
 ! A34   A(8,7,17)             100.2667         estimate D2E/DX2                !
 ! A35   A(8,7,21)             108.6297         estimate D2E/DX2                !
 ! A36   A(17,7,21)            112.0863         estimate D2E/DX2                !
 ! A37   A(7,8,9)              122.8518         estimate D2E/DX2                !
 ! A38   A(7,8,19)             113.5947         estimate D2E/DX2                !
 ! A39   A(9,8,19)             123.2585         estimate D2E/DX2                !
 ! A40   A(8,9,10)             117.1032         estimate D2E/DX2                !
 ! A41   A(8,9,11)             121.448          estimate D2E/DX2                !
 ! A42   A(10,9,11)            121.1084         estimate D2E/DX2                !
 ! A43   A(5,10,9)             117.9414         estimate D2E/DX2                !
 ! A44   A(5,10,16)            122.3549         estimate D2E/DX2                !
 ! A45   A(9,10,16)            119.4269         estimate D2E/DX2                !
 ! A46   A(9,11,12)            118.1397         estimate D2E/DX2                !
 ! A47   A(9,11,13)            120.2987         estimate D2E/DX2                !
 ! A48   A(12,11,13)           121.5614         estimate D2E/DX2                !
 ! A49   A(11,13,14)           114.5136         estimate D2E/DX2                !
 ! A50   A(11,13,15)           109.0689         estimate D2E/DX2                !
 ! A51   A(11,13,36)           104.7886         estimate D2E/DX2                !
 ! A52   A(14,13,15)           112.4375         estimate D2E/DX2                !
 ! A53   A(14,13,36)           107.2617         estimate D2E/DX2                !
 ! A54   A(15,13,36)           108.3084         estimate D2E/DX2                !
 ! A55   A(13,14,37)           109.5468         estimate D2E/DX2                !
 ! A56   A(13,14,38)           110.5764         estimate D2E/DX2                !
 ! A57   A(13,14,62)           113.2547         estimate D2E/DX2                !
 ! A58   A(37,14,38)           106.7473         estimate D2E/DX2                !
 ! A59   A(37,14,62)           107.8623         estimate D2E/DX2                !
 ! A60   A(38,14,62)           108.6121         estimate D2E/DX2                !
 ! A61   A(13,15,39)           111.2198         estimate D2E/DX2                !
 ! A62   A(13,15,40)           111.2966         estimate D2E/DX2                !
 ! A63   A(13,15,41)           111.3372         estimate D2E/DX2                !
 ! A64   A(39,15,40)           107.3204         estimate D2E/DX2                !
 ! A65   A(39,15,41)           108.0134         estimate D2E/DX2                !
 ! A66   A(40,15,41)           107.461          estimate D2E/DX2                !
 ! A67   A(7,17,18)            103.2263         estimate D2E/DX2                !
 ! A68   A(7,17,20)            102.3795         estimate D2E/DX2                !
 ! A69   A(7,17,30)            112.7257         estimate D2E/DX2                !
 ! A70   A(18,17,20)           116.4595         estimate D2E/DX2                !
 ! A71   A(18,17,30)           111.5837         estimate D2E/DX2                !
 ! A72   A(20,17,30)           109.9829         estimate D2E/DX2                !
 ! A73   A(17,18,19)           106.2712         estimate D2E/DX2                !
 ! A74   A(17,18,28)           112.2848         estimate D2E/DX2                !
 ! A75   A(17,18,29)           113.5659         estimate D2E/DX2                !
 ! A76   A(19,18,28)           107.6708         estimate D2E/DX2                !
 ! A77   A(19,18,29)           108.1891         estimate D2E/DX2                !
 ! A78   A(28,18,29)           108.6043         estimate D2E/DX2                !
 ! A79   A(8,19,18)            106.4374         estimate D2E/DX2                !
 ! A80   A(3,20,17)            103.0986         estimate D2E/DX2                !
 ! A81   A(3,20,42)            112.0523         estimate D2E/DX2                !
 ! A82   A(3,20,43)            110.4698         estimate D2E/DX2                !
 ! A83   A(17,20,42)           111.2788         estimate D2E/DX2                !
 ! A84   A(17,20,43)           112.2348         estimate D2E/DX2                !
 ! A85   A(42,20,43)           107.7428         estimate D2E/DX2                !
 ! A86   A(7,21,44)            105.7132         estimate D2E/DX2                !
 ! A87   A(5,22,23)            104.811          estimate D2E/DX2                !
 ! A88   A(5,22,45)            113.9332         estimate D2E/DX2                !
 ! A89   A(5,22,46)            109.7586         estimate D2E/DX2                !
 ! A90   A(23,22,45)           111.5486         estimate D2E/DX2                !
 ! A91   A(23,22,46)           109.6724         estimate D2E/DX2                !
 ! A92   A(45,22,46)           107.0997         estimate D2E/DX2                !
 ! A93   A(22,23,24)           102.8692         estimate D2E/DX2                !
 ! A94   A(22,23,25)           118.5721         estimate D2E/DX2                !
 ! A95   A(22,23,47)           109.9118         estimate D2E/DX2                !
 ! A96   A(24,23,25)           108.8776         estimate D2E/DX2                !
 ! A97   A(24,23,47)           108.2754         estimate D2E/DX2                !
 ! A98   A(25,23,47)           107.8916         estimate D2E/DX2                !
 ! A99   A(4,24,23)            107.0196         estimate D2E/DX2                !
 ! A100  A(23,25,26)           115.1055         estimate D2E/DX2                !
 ! A101  A(23,25,27)           124.8409         estimate D2E/DX2                !
 ! A102  A(26,25,27)           120.0266         estimate D2E/DX2                !
 ! A103  A(25,26,48)           110.2676         estimate D2E/DX2                !
 ! A104  A(25,26,49)           110.6326         estimate D2E/DX2                !
 ! A105  A(25,26,50)           112.1978         estimate D2E/DX2                !
 ! A106  A(48,26,49)           108.6019         estimate D2E/DX2                !
 ! A107  A(48,26,50)           107.4827         estimate D2E/DX2                !
 ! A108  A(49,26,50)           107.5191         estimate D2E/DX2                !
 ! A109  A(25,27,51)           122.683          estimate D2E/DX2                !
 ! A110  A(25,27,52)           121.285          estimate D2E/DX2                !
 ! A111  A(51,27,52)           116.0314         estimate D2E/DX2                !
 ! A112  A(18,28,53)           112.2075         estimate D2E/DX2                !
 ! A113  A(18,28,54)           110.5858         estimate D2E/DX2                !
 ! A114  A(18,28,55)           111.3322         estimate D2E/DX2                !
 ! A115  A(53,28,54)           105.6121         estimate D2E/DX2                !
 ! A116  A(53,28,55)           108.5162         estimate D2E/DX2                !
 ! A117  A(54,28,55)           108.3534         estimate D2E/DX2                !
 ! A118  A(18,29,56)           111.4452         estimate D2E/DX2                !
 ! A119  A(18,29,57)           110.6916         estimate D2E/DX2                !
 ! A120  A(18,29,58)           111.8163         estimate D2E/DX2                !
 ! A121  A(56,29,57)           108.3253         estimate D2E/DX2                !
 ! A122  A(56,29,58)           108.8961         estimate D2E/DX2                !
 ! A123  A(57,29,58)           105.4315         estimate D2E/DX2                !
 ! A124  A(2,32,59)            112.0742         estimate D2E/DX2                !
 ! A125  A(2,32,60)            110.4575         estimate D2E/DX2                !
 ! A126  A(2,32,61)            110.2653         estimate D2E/DX2                !
 ! A127  A(59,32,60)           107.6726         estimate D2E/DX2                !
 ! A128  A(59,32,61)           107.6567         estimate D2E/DX2                !
 ! A129  A(60,32,61)           108.5901         estimate D2E/DX2                !
 ! A130  A(14,62,63)           111.0778         estimate D2E/DX2                !
 ! A131  A(14,62,64)           111.5492         estimate D2E/DX2                !
 ! A132  A(14,62,65)           109.9985         estimate D2E/DX2                !
 ! A133  A(63,62,64)           108.5423         estimate D2E/DX2                !
 ! A134  A(63,62,65)           107.9794         estimate D2E/DX2                !
 ! A135  A(64,62,65)           107.5588         estimate D2E/DX2                !
 ! D1    D(6,1,2,3)              2.429          estimate D2E/DX2                !
 ! D2    D(6,1,2,32)          -177.1537         estimate D2E/DX2                !
 ! D3    D(33,1,2,3)           178.397          estimate D2E/DX2                !
 ! D4    D(33,1,2,32)           -1.1856         estimate D2E/DX2                !
 ! D5    D(2,1,6,5)            -31.2301         estimate D2E/DX2                !
 ! D6    D(2,1,6,34)          -154.329          estimate D2E/DX2                !
 ! D7    D(2,1,6,35)            92.9264         estimate D2E/DX2                !
 ! D8    D(33,1,6,5)           152.6692         estimate D2E/DX2                !
 ! D9    D(33,1,6,34)           29.5703         estimate D2E/DX2                !
 ! D10   D(33,1,6,35)          -83.1743         estimate D2E/DX2                !
 ! D11   D(1,2,3,4)             21.4914         estimate D2E/DX2                !
 ! D12   D(1,2,3,20)           -99.8188         estimate D2E/DX2                !
 ! D13   D(1,2,3,31)           141.781          estimate D2E/DX2                !
 ! D14   D(32,2,3,4)          -158.9059         estimate D2E/DX2                !
 ! D15   D(32,2,3,20)           79.7838         estimate D2E/DX2                !
 ! D16   D(32,2,3,31)          -38.6163         estimate D2E/DX2                !
 ! D17   D(1,2,32,59)           -0.2284         estimate D2E/DX2                !
 ! D18   D(1,2,32,60)          119.8326         estimate D2E/DX2                !
 ! D19   D(1,2,32,61)         -120.1381         estimate D2E/DX2                !
 ! D20   D(3,2,32,59)         -179.829          estimate D2E/DX2                !
 ! D21   D(3,2,32,60)          -59.768          estimate D2E/DX2                !
 ! D22   D(3,2,32,61)           60.2613         estimate D2E/DX2                !
 ! D23   D(2,3,4,5)            -15.7316         estimate D2E/DX2                !
 ! D24   D(2,3,4,7)           -144.788          estimate D2E/DX2                !
 ! D25   D(2,3,4,24)           102.4058         estimate D2E/DX2                !
 ! D26   D(20,3,4,5)           109.9075         estimate D2E/DX2                !
 ! D27   D(20,3,4,7)           -19.1489         estimate D2E/DX2                !
 ! D28   D(20,3,4,24)         -131.9552         estimate D2E/DX2                !
 ! D29   D(31,3,4,5)          -135.721          estimate D2E/DX2                !
 ! D30   D(31,3,4,7)            95.2226         estimate D2E/DX2                !
 ! D31   D(31,3,4,24)          -17.5837         estimate D2E/DX2                !
 ! D32   D(2,3,20,17)          165.5814         estimate D2E/DX2                !
 ! D33   D(2,3,20,42)          -74.6653         estimate D2E/DX2                !
 ! D34   D(2,3,20,43)           45.4786         estimate D2E/DX2                !
 ! D35   D(4,3,20,17)           37.9062         estimate D2E/DX2                !
 ! D36   D(4,3,20,42)          157.6596         estimate D2E/DX2                !
 ! D37   D(4,3,20,43)          -82.1965         estimate D2E/DX2                !
 ! D38   D(31,3,20,17)         -76.3991         estimate D2E/DX2                !
 ! D39   D(31,3,20,42)          43.3542         estimate D2E/DX2                !
 ! D40   D(31,3,20,43)         163.4981         estimate D2E/DX2                !
 ! D41   D(3,4,5,6)            -11.145          estimate D2E/DX2                !
 ! D42   D(3,4,5,10)          -131.2971         estimate D2E/DX2                !
 ! D43   D(3,4,5,22)           110.9031         estimate D2E/DX2                !
 ! D44   D(7,4,5,6)            112.5814         estimate D2E/DX2                !
 ! D45   D(7,4,5,10)            -7.5707         estimate D2E/DX2                !
 ! D46   D(7,4,5,22)          -125.3705         estimate D2E/DX2                !
 ! D47   D(24,4,5,6)          -129.6149         estimate D2E/DX2                !
 ! D48   D(24,4,5,10)          110.233          estimate D2E/DX2                !
 ! D49   D(24,4,5,22)           -7.5669         estimate D2E/DX2                !
 ! D50   D(3,4,7,8)            104.2932         estimate D2E/DX2                !
 ! D51   D(3,4,7,17)            -6.8899         estimate D2E/DX2                !
 ! D52   D(3,4,7,21)          -130.7624         estimate D2E/DX2                !
 ! D53   D(5,4,7,8)            -26.3752         estimate D2E/DX2                !
 ! D54   D(5,4,7,17)          -137.5583         estimate D2E/DX2                !
 ! D55   D(5,4,7,21)            98.5692         estimate D2E/DX2                !
 ! D56   D(24,4,7,8)          -143.4188         estimate D2E/DX2                !
 ! D57   D(24,4,7,17)          105.398          estimate D2E/DX2                !
 ! D58   D(24,4,7,21)          -18.4745         estimate D2E/DX2                !
 ! D59   D(3,4,24,23)          -95.0165         estimate D2E/DX2                !
 ! D60   D(5,4,24,23)           30.9345         estimate D2E/DX2                !
 ! D61   D(7,4,24,23)          154.1023         estimate D2E/DX2                !
 ! D62   D(4,5,6,1)             33.673          estimate D2E/DX2                !
 ! D63   D(4,5,6,34)           156.3136         estimate D2E/DX2                !
 ! D64   D(4,5,6,35)           -88.1299         estimate D2E/DX2                !
 ! D65   D(10,5,6,1)           158.3762         estimate D2E/DX2                !
 ! D66   D(10,5,6,34)          -78.9832         estimate D2E/DX2                !
 ! D67   D(10,5,6,35)           36.5733         estimate D2E/DX2                !
 ! D68   D(22,5,6,1)           -83.5903         estimate D2E/DX2                !
 ! D69   D(22,5,6,34)           39.0503         estimate D2E/DX2                !
 ! D70   D(22,5,6,35)          154.6068         estimate D2E/DX2                !
 ! D71   D(4,5,10,9)            38.7816         estimate D2E/DX2                !
 ! D72   D(4,5,10,16)         -147.3016         estimate D2E/DX2                !
 ! D73   D(6,5,10,9)           -86.8704         estimate D2E/DX2                !
 ! D74   D(6,5,10,16)           87.0463         estimate D2E/DX2                !
 ! D75   D(22,5,10,9)          153.1824         estimate D2E/DX2                !
 ! D76   D(22,5,10,16)         -32.9009         estimate D2E/DX2                !
 ! D77   D(4,5,22,23)          -16.5747         estimate D2E/DX2                !
 ! D78   D(4,5,22,45)         -138.7835         estimate D2E/DX2                !
 ! D79   D(4,5,22,46)          101.1339         estimate D2E/DX2                !
 ! D80   D(6,5,22,23)          107.325          estimate D2E/DX2                !
 ! D81   D(6,5,22,45)          -14.8839         estimate D2E/DX2                !
 ! D82   D(6,5,22,46)         -134.9664         estimate D2E/DX2                !
 ! D83   D(10,5,22,23)        -137.2215         estimate D2E/DX2                !
 ! D84   D(10,5,22,45)         100.5696         estimate D2E/DX2                !
 ! D85   D(10,5,22,46)         -19.513          estimate D2E/DX2                !
 ! D86   D(4,7,8,9)             34.9715         estimate D2E/DX2                !
 ! D87   D(4,7,8,19)          -138.9713         estimate D2E/DX2                !
 ! D88   D(17,7,8,9)           150.6403         estimate D2E/DX2                !
 ! D89   D(17,7,8,19)          -23.3026         estimate D2E/DX2                !
 ! D90   D(21,7,8,9)           -91.6941         estimate D2E/DX2                !
 ! D91   D(21,7,8,19)           94.363          estimate D2E/DX2                !
 ! D92   D(4,7,17,18)          151.3603         estimate D2E/DX2                !
 ! D93   D(4,7,17,20)           30.0153         estimate D2E/DX2                !
 ! D94   D(4,7,17,30)          -88.1004         estimate D2E/DX2                !
 ! D95   D(8,7,17,18)           30.2496         estimate D2E/DX2                !
 ! D96   D(8,7,17,20)          -91.0953         estimate D2E/DX2                !
 ! D97   D(8,7,17,30)          150.789          estimate D2E/DX2                !
 ! D98   D(21,7,17,18)         -84.8287         estimate D2E/DX2                !
 ! D99   D(21,7,17,20)         153.8263         estimate D2E/DX2                !
 ! D100  D(21,7,17,30)          35.7107         estimate D2E/DX2                !
 ! D101  D(4,7,21,44)           19.9661         estimate D2E/DX2                !
 ! D102  D(8,7,21,44)          148.5616         estimate D2E/DX2                !
 ! D103  D(17,7,21,44)        -101.5753         estimate D2E/DX2                !
 ! D104  D(7,8,9,10)            -4.0628         estimate D2E/DX2                !
 ! D105  D(7,8,9,11)          -177.4331         estimate D2E/DX2                !
 ! D106  D(19,8,9,10)          169.2967         estimate D2E/DX2                !
 ! D107  D(19,8,9,11)           -4.0736         estimate D2E/DX2                !
 ! D108  D(7,8,19,18)            5.1752         estimate D2E/DX2                !
 ! D109  D(9,8,19,18)         -168.7395         estimate D2E/DX2                !
 ! D110  D(8,9,10,5)           -34.2965         estimate D2E/DX2                !
 ! D111  D(8,9,10,16)          151.6029         estimate D2E/DX2                !
 ! D112  D(11,9,10,5)          139.0978         estimate D2E/DX2                !
 ! D113  D(11,9,10,16)         -35.0029         estimate D2E/DX2                !
 ! D114  D(8,9,11,12)          102.4372         estimate D2E/DX2                !
 ! D115  D(8,9,11,13)          -77.4365         estimate D2E/DX2                !
 ! D116  D(10,9,11,12)         -70.6686         estimate D2E/DX2                !
 ! D117  D(10,9,11,13)         109.4577         estimate D2E/DX2                !
 ! D118  D(9,11,13,14)         -14.7086         estimate D2E/DX2                !
 ! D119  D(9,11,13,15)         112.2669         estimate D2E/DX2                !
 ! D120  D(9,11,13,36)        -131.9469         estimate D2E/DX2                !
 ! D121  D(12,11,13,14)        165.4222         estimate D2E/DX2                !
 ! D122  D(12,11,13,15)        -67.6023         estimate D2E/DX2                !
 ! D123  D(12,11,13,36)         48.1839         estimate D2E/DX2                !
 ! D124  D(11,13,14,37)        -48.8381         estimate D2E/DX2                !
 ! D125  D(11,13,14,38)         68.5421         estimate D2E/DX2                !
 ! D126  D(11,13,14,62)       -169.2917         estimate D2E/DX2                !
 ! D127  D(15,13,14,37)       -174.0627         estimate D2E/DX2                !
 ! D128  D(15,13,14,38)        -56.6825         estimate D2E/DX2                !
 ! D129  D(15,13,14,62)         65.4837         estimate D2E/DX2                !
 ! D130  D(36,13,14,37)         66.9771         estimate D2E/DX2                !
 ! D131  D(36,13,14,38)       -175.6426         estimate D2E/DX2                !
 ! D132  D(36,13,14,62)        -53.4765         estimate D2E/DX2                !
 ! D133  D(11,13,15,39)        166.0392         estimate D2E/DX2                !
 ! D134  D(11,13,15,40)         46.4268         estimate D2E/DX2                !
 ! D135  D(11,13,15,41)        -73.4425         estimate D2E/DX2                !
 ! D136  D(14,13,15,39)        -65.8128         estimate D2E/DX2                !
 ! D137  D(14,13,15,40)        174.5748         estimate D2E/DX2                !
 ! D138  D(14,13,15,41)         54.7055         estimate D2E/DX2                !
 ! D139  D(36,13,15,39)         52.5329         estimate D2E/DX2                !
 ! D140  D(36,13,15,40)        -67.0795         estimate D2E/DX2                !
 ! D141  D(36,13,15,41)        173.0512         estimate D2E/DX2                !
 ! D142  D(13,14,62,63)         55.4848         estimate D2E/DX2                !
 ! D143  D(13,14,62,64)        -65.7551         estimate D2E/DX2                !
 ! D144  D(13,14,62,65)        174.9771         estimate D2E/DX2                !
 ! D145  D(37,14,62,63)        -65.9206         estimate D2E/DX2                !
 ! D146  D(37,14,62,64)        172.8394         estimate D2E/DX2                !
 ! D147  D(37,14,62,65)         53.5717         estimate D2E/DX2                !
 ! D148  D(38,14,62,63)        178.7398         estimate D2E/DX2                !
 ! D149  D(38,14,62,64)         57.4998         estimate D2E/DX2                !
 ! D150  D(38,14,62,65)        -61.7679         estimate D2E/DX2                !
 ! D151  D(7,17,18,19)         -29.4808         estimate D2E/DX2                !
 ! D152  D(7,17,18,28)          87.9937         estimate D2E/DX2                !
 ! D153  D(7,17,18,29)        -148.3018         estimate D2E/DX2                !
 ! D154  D(20,17,18,19)         81.8021         estimate D2E/DX2                !
 ! D155  D(20,17,18,28)       -160.7234         estimate D2E/DX2                !
 ! D156  D(20,17,18,29)        -37.019          estimate D2E/DX2                !
 ! D157  D(30,17,18,19)       -150.7962         estimate D2E/DX2                !
 ! D158  D(30,17,18,28)        -33.3217         estimate D2E/DX2                !
 ! D159  D(30,17,18,29)         90.3827         estimate D2E/DX2                !
 ! D160  D(7,17,20,3)          -41.6278         estimate D2E/DX2                !
 ! D161  D(7,17,20,42)        -161.913          estimate D2E/DX2                !
 ! D162  D(7,17,20,43)          77.2549         estimate D2E/DX2                !
 ! D163  D(18,17,20,3)        -153.3985         estimate D2E/DX2                !
 ! D164  D(18,17,20,42)         86.3163         estimate D2E/DX2                !
 ! D165  D(18,17,20,43)        -34.5158         estimate D2E/DX2                !
 ! D166  D(30,17,20,3)          78.4163         estimate D2E/DX2                !
 ! D167  D(30,17,20,42)        -41.8689         estimate D2E/DX2                !
 ! D168  D(30,17,20,43)       -162.701          estimate D2E/DX2                !
 ! D169  D(17,18,19,8)          15.4194         estimate D2E/DX2                !
 ! D170  D(28,18,19,8)        -105.0834         estimate D2E/DX2                !
 ! D171  D(29,18,19,8)         137.7153         estimate D2E/DX2                !
 ! D172  D(17,18,28,53)        -60.122          estimate D2E/DX2                !
 ! D173  D(17,18,28,54)       -177.7576         estimate D2E/DX2                !
 ! D174  D(17,18,28,55)         61.7268         estimate D2E/DX2                !
 ! D175  D(19,18,28,53)         56.5162         estimate D2E/DX2                !
 ! D176  D(19,18,28,54)        -61.1193         estimate D2E/DX2                !
 ! D177  D(19,18,28,55)        178.365          estimate D2E/DX2                !
 ! D178  D(29,18,28,53)        173.4471         estimate D2E/DX2                !
 ! D179  D(29,18,28,54)         55.8116         estimate D2E/DX2                !
 ! D180  D(29,18,28,55)        -64.7041         estimate D2E/DX2                !
 ! D181  D(17,18,29,56)        -57.8014         estimate D2E/DX2                !
 ! D182  D(17,18,29,57)       -178.4288         estimate D2E/DX2                !
 ! D183  D(17,18,29,58)         64.3408         estimate D2E/DX2                !
 ! D184  D(19,18,29,56)       -175.5163         estimate D2E/DX2                !
 ! D185  D(19,18,29,57)         63.8563         estimate D2E/DX2                !
 ! D186  D(19,18,29,58)        -53.374          estimate D2E/DX2                !
 ! D187  D(28,18,29,56)         67.8853         estimate D2E/DX2                !
 ! D188  D(28,18,29,57)        -52.7421         estimate D2E/DX2                !
 ! D189  D(28,18,29,58)       -169.9725         estimate D2E/DX2                !
 ! D190  D(5,22,23,24)          35.3397         estimate D2E/DX2                !
 ! D191  D(5,22,23,25)         155.4937         estimate D2E/DX2                !
 ! D192  D(5,22,23,47)         -79.803          estimate D2E/DX2                !
 ! D193  D(45,22,23,24)        159.089          estimate D2E/DX2                !
 ! D194  D(45,22,23,25)        -80.757          estimate D2E/DX2                !
 ! D195  D(45,22,23,47)         43.9463         estimate D2E/DX2                !
 ! D196  D(46,22,23,24)        -82.4276         estimate D2E/DX2                !
 ! D197  D(46,22,23,25)         37.7264         estimate D2E/DX2                !
 ! D198  D(46,22,23,47)        162.4297         estimate D2E/DX2                !
 ! D199  D(22,23,24,4)         -41.4613         estimate D2E/DX2                !
 ! D200  D(25,23,24,4)        -168.0879         estimate D2E/DX2                !
 ! D201  D(47,23,24,4)          74.8568         estimate D2E/DX2                !
 ! D202  D(22,23,25,26)       -171.7573         estimate D2E/DX2                !
 ! D203  D(22,23,25,27)         10.1425         estimate D2E/DX2                !
 ! D204  D(24,23,25,26)        -54.7409         estimate D2E/DX2                !
 ! D205  D(24,23,25,27)        127.1589         estimate D2E/DX2                !
 ! D206  D(47,23,25,26)         62.5586         estimate D2E/DX2                !
 ! D207  D(47,23,25,27)       -115.5417         estimate D2E/DX2                !
 ! D208  D(23,25,26,48)        -55.0516         estimate D2E/DX2                !
 ! D209  D(23,25,26,49)         65.1066         estimate D2E/DX2                !
 ! D210  D(23,25,26,50)       -174.8243         estimate D2E/DX2                !
 ! D211  D(27,25,26,48)        123.1475         estimate D2E/DX2                !
 ! D212  D(27,25,26,49)       -116.6943         estimate D2E/DX2                !
 ! D213  D(27,25,26,50)          3.3748         estimate D2E/DX2                !
 ! D214  D(23,25,27,51)         -0.4418         estimate D2E/DX2                !
 ! D215  D(23,25,27,52)        179.2631         estimate D2E/DX2                !
 ! D216  D(26,25,27,51)       -178.4548         estimate D2E/DX2                !
 ! D217  D(26,25,27,52)          1.2501         estimate D2E/DX2                !
 --------------------------------------------------------------------------------
 Trust Radius=3.00D-01 FncErr=1.00D-07 GrdErr=1.00D-06
 Number of steps in this run=    390 maximum allowed number of steps=    390.
 GradGradGradGradGradGradGradGradGradGradGradGradGradGradGradGradGradGrad

 Stoichiometry    C26H34O5
 Framework group  C1[X(C26H34O5)]
 Deg. of freedom   189
 Full point group                 C1      NOp   1
 Largest Abelian subgroup         C1      NOp   1
 Largest concise Abelian subgroup C1      NOp   1
                         Standard orientation:                         
 ---------------------------------------------------------------------
 Center     Atomic      Atomic             Coordinates (Angstroms)
 Number     Number       Type             X           Y           Z
 ---------------------------------------------------------------------
      1          6           0       -2.277879    0.854405    2.604215
      2          6           0       -2.555828    1.735957    1.633917
      3          6           0       -1.900270    1.645420    0.283005
      4          6           0       -1.318443    0.255492   -0.111867
      5          6           0       -1.119222   -0.792424    1.012690
      6          6           0       -1.273152   -0.238200    2.444787
      7          6           0       -0.050954    0.592767   -0.927310
      8          6           0        1.240250    0.393380   -0.211847
      9          6           0        1.435450   -0.590147    0.669618
     10          6           0        0.274188   -1.445688    0.992055
     11          6           0        2.709580   -0.725782    1.402593
     12          8           0        2.748309   -0.349118    2.576887
     13          6           0        3.939594   -1.316374    0.709929
     14          6           0        3.639169   -2.048997   -0.608804
     15          6           0        4.992323   -0.220852    0.542006
     16          8           0        0.459939   -2.611759    1.338030
     17          6           0       -0.014805    2.094778   -1.136877
     18          6           0        1.491023    2.399082   -1.247013
     19          8           0        2.166660    1.398435   -0.447736
     20          6           0       -0.728957    2.619454    0.117275
     21          8           0       -0.003796   -0.118965   -2.155233
     22          6           0       -2.182161   -1.863230    0.693044
     23          6           0       -3.141927   -1.183029   -0.266259
     24          8           0       -2.276719   -0.340351   -1.039849
     25          6           0       -3.954846   -2.042549   -1.205570
     26          6           0       -4.733372   -1.286872   -2.251662
     27          6           0       -4.045687   -3.382036   -1.136386
     28          6           0        2.007450    2.271223   -2.688657
     29          6           0        1.877271    3.779959   -0.710497
     30          1           0       -0.557206    2.410338   -2.036840
     31          1           0       -2.663884    1.910706   -0.464192
     32          6           0       -3.526077    2.864329    1.842481
     33          1           0       -2.742988    0.952204    3.583158
     34          1           0       -1.538456   -1.057651    3.125779
     35          1           0       -0.318890    0.150740    2.825055
     36          1           0        4.328033   -2.063015    1.416613
     37          1           0        2.807265   -2.747960   -0.459022
     38          1           0        3.319772   -1.338392   -1.380298
     39          1           0        5.966914   -0.644699    0.281173
     40          1           0        5.122475    0.351097    1.467286
     41          1           0        4.709336    0.486346   -0.244256
     42          1           0       -1.068726    3.651397   -0.021239
     43          1           0       -0.082495    2.596405    1.003341
     44          1           0       -0.926537   -0.400135   -2.335022
     45          1           0       -2.702416   -2.250171    1.575671
     46          1           0       -1.708649   -2.719202    0.196681
     47          1           0       -3.837030   -0.542849    0.291711
     48          1           0       -5.379127   -0.540080   -1.778084
     49          1           0       -4.055457   -0.774864   -2.942077
     50          1           0       -5.374310   -1.946021   -2.847020
     51          1           0       -3.524044   -3.966524   -0.386139
     52          1           0       -4.658294   -3.942881   -1.836721
     53          1           0        1.864378    1.264258   -3.091299
     54          1           0        3.087757    2.454351   -2.728847
     55          1           0        1.511715    2.985465   -3.354128
     56          1           0        1.333074    4.576800   -1.227514
     57          1           0        2.951713    3.958082   -0.836974
     58          1           0        1.692592    3.864724    0.365210
     59          1           0       -3.953827    2.858276    2.850613
     60          1           0       -3.028285    3.828440    1.698526
     61          1           0       -4.353939    2.789162    1.130043
     62          6           0        4.825930   -2.842202   -1.139894
     63          1           0        5.192602   -3.550982   -0.390781
     64          1           0        5.650747   -2.185166   -1.430151
     65          1           0        4.529148   -3.411310   -2.026876
 ---------------------------------------------------------------------
 Rotational constants (GHZ):      0.2134172      0.1260356      0.1104435
 Standard basis: 6-31G(d) (6D, 7F)
 There are   533 symmetry adapted basis functions of A   symmetry.
 Integral buffers will be    131072 words long.
 Raffenetti 2 integral format.
 Two-electron integral symmetry is turned on.
   533 basis functions,  1004 primitive gaussians,   533 cartesian basis functions
   115 alpha electrons      115 beta electrons
       nuclear repulsion energy      3515.5570123245 Hartrees.
 NAtoms=   65 NActive=   65 NUniq=   65 SFac= 1.00D+00 NAtFMM=   50 NAOKFM=T Big=T
 One-electron integrals computed using PRISM.
 NBasis=   533 RedAO= T  NBF=   533
 NBsUse=   533 1.00D-06 NBFU=   533
 Harris functional with IExCor=  402 diagonalized for initial guess.
 ExpMin= 1.61D-01 ExpMax= 5.48D+03 ExpMxC= 8.25D+02 IAcc=1 IRadAn=         1 AccDes= 0.00D+00
 HarFok:  IExCor=  402 AccDes= 0.00D+00 IRadAn=         1 IDoV= 1
 ScaDFX=  1.000000  1.000000  1.000000  1.000000
 FoFCou: FMM=F IPFlag=           0 FMFlag=      100000 FMFlg1=        2001
         NFxFlg=           0 DoJE=T BraDBF=F KetDBF=T FulRan=T
         Omega=  0.000000  0.000000  1.000000  0.000000  0.000000 ICntrl=     500 IOpCl=  0
         NMat0=    1 NMatS0=    1 NMatT0=    0 NMatD0=    1 NMtDS0=    0 NMtDT0=    0
         I1Cent=           4 NGrid=           0.
 Petite list used in FoFCou.
 Initial guess orbital symmetries:
       Occupied  (A) (A) (A) (A) (A) (A) (A) (A) (A) (A) (A) (A)
                 (A) (A) (A) (A) (A) (A) (A) (A) (A) (A) (A) (A)
                 (A) (A) (A) (A) (A) (A) (A) (A) (A) (A) (A) (A)
                 (A) (A) (A) (A) (A) (A) (A) (A) (A) (A) (A) (A)
                 (A) (A) (A) (A) (A) (A) (A) (A) (A) (A) (A) (A)
                 (A) (A) (A) (A) (A) (A) (A) (A) (A) (A) (A) (A)
                 (A) (A) (A) (A) (A) (A) (A) (A) (A) (A) (A) (A)
                 (A) (A) (A) (A) (A) (A) (A) (A) (A) (A) (A) (A)
                 (A) (A) (A) (A) (A) (A) (A) (A) (A) (A) (A) (A)
                 (A) (A) (A) (A) (A) (A) (A)
       Virtual   (A) (A) (A) (A) (A) (A) (A) (A) (A) (A) (A) (A)
                 (A) (A) (A) (A) (A) (A) (A) (A) (A) (A) (A) (A)
                 (A) (A) (A) (A) (A) (A) (A) (A) (A) (A) (A) (A)
                 (A) (A) (A) (A) (A) (A) (A) (A) (A) (A) (A) (A)
                 (A) (A) (A) (A) (A) (A) (A) (A) (A) (A) (A) (A)
                 (A) (A) (A) (A) (A) (A) (A) (A) (A) (A) (A) (A)
                 (A) (A) (A) (A) (A) (A) (A) (A) (A) (A) (A) (A)
                 (A) (A) (A) (A) (A) (A) (A) (A) (A) (A) (A) (A)
                 (A) (A) (A) (A) (A) (A) (A) (A) (A) (A) (A) (A)
                 (A) (A) (A) (A) (A) (A) (A) (A) (A) (A) (A) (A)
                 (A) (A) (A) (A) (A) (A) (A) (A) (A) (A) (A) (A)
                 (A) (A) (A) (A) (A) (A) (A) (A) (A) (A) (A) (A)
                 (A) (A) (A) (A) (A) (A) (A) (A) (A) (A) (A) (A)
                 (A) (A) (A) (A) (A) (A) (A) (A) (A) (A) (A) (A)
                 (A) (A) (A) (A) (A) (A) (A) (A) (A) (A) (A) (A)
                 (A) (A) (A) (A) (A) (A) (A) (A) (A) (A) (A) (A)
                 (A) (A) (A) (A) (A) (A) (A) (A) (A) (A) (A) (A)
                 (A) (A) (A) (A) (A) (A) (A) (A) (A) (A) (A) (A)
                 (A) (A) (A) (A) (A) (A) (A) (A) (A) (A) (A) (A)
                 (A) (A) (A) (A) (A) (A) (A) (A) (A) (A) (A) (A)
                 (A) (A) (A) (A) (A) (A) (A) (A) (A) (A) (A) (A)
                 (A) (A) (A) (A) (A) (A) (A) (A) (A) (A) (A) (A)
                 (A) (A) (A) (A) (A) (A) (A) (A) (A) (A) (A) (A)
                 (A) (A) (A) (A) (A) (A) (A) (A) (A) (A) (A) (A)
                 (A) (A) (A) (A) (A) (A) (A) (A) (A) (A) (A) (A)
                 (A) (A) (A) (A) (A) (A) (A) (A) (A) (A) (A) (A)
                 (A) (A) (A) (A) (A) (A) (A) (A) (A) (A) (A) (A)
                 (A) (A) (A) (A) (A) (A) (A) (A) (A) (A) (A) (A)
                 (A) (A) (A) (A) (A) (A) (A) (A) (A) (A) (A) (A)
                 (A) (A) (A) (A) (A) (A) (A) (A) (A) (A) (A) (A)
                 (A) (A) (A) (A) (A) (A) (A) (A) (A) (A) (A) (A)
                 (A) (A) (A) (A) (A) (A) (A) (A) (A) (A) (A) (A)
                 (A) (A) (A) (A) (A) (A) (A) (A) (A) (A) (A) (A)
                 (A) (A) (A) (A) (A) (A) (A) (A) (A) (A) (A) (A)
                 (A) (A) (A) (A) (A) (A) (A) (A) (A) (A)
 The electronic state of the initial guess is 1-A.
 Requested convergence on RMS density matrix=1.00D-08 within 128 cycles.
 Requested convergence on MAX density matrix=1.00D-06.
 Requested convergence on             energy=1.00D-06.
 No special actions if energy rises.
 Integral accuracy reduced to 1.0D-05 until final iterations.
 EnCoef did     2 forward-backward iterations
 Initial convergence to 1.0D-05 achieved.  Increase integral accuracy.
 SCF Done:  E(RB3LYP) =  -1387.29892744     A.U. after   16 cycles
             Convg  =    0.3895D-08             -V/T =  2.0091

 **********************************************************************

            Population analysis using the SCF density.

 **********************************************************************

 Orbital symmetries:
       Occupied  (A) (A) (A) (A) (A) (A) (A) (A) (A) (A) (A) (A)
                 (A) (A) (A) (A) (A) (A) (A) (A) (A) (A) (A) (A)
                 (A) (A) (A) (A) (A) (A) (A) (A) (A) (A) (A) (A)
                 (A) (A) (A) (A) (A) (A) (A) (A) (A) (A) (A) (A)
                 (A) (A) (A) (A) (A) (A) (A) (A) (A) (A) (A) (A)
                 (A) (A) (A) (A) (A) (A) (A) (A) (A) (A) (A) (A)
                 (A) (A) (A) (A) (A) (A) (A) (A) (A) (A) (A) (A)
                 (A) (A) (A) (A) (A) (A) (A) (A) (A) (A) (A) (A)
                 (A) (A) (A) (A) (A) (A) (A) (A) (A) (A) (A) (A)
                 (A) (A) (A) (A) (A) (A) (A)
       Virtual   (A) (A) (A) (A) (A) (A) (A) (A) (A) (A) (A) (A)
                 (A) (A) (A) (A) (A) (A) (A) (A) (A) (A) (A) (A)
                 (A) (A) (A) (A) (A) (A) (A) (A) (A) (A) (A) (A)
                 (A) (A) (A) (A) (A) (A) (A) (A) (A) (A) (A) (A)
                 (A) (A) (A) (A) (A) (A) (A) (A) (A) (A) (A) (A)
                 (A) (A) (A) (A) (A) (A) (A) (A) (A) (A) (A) (A)
                 (A) (A) (A) (A) (A) (A) (A) (A) (A) (A) (A) (A)
                 (A) (A) (A) (A) (A) (A) (A) (A) (A) (A) (A) (A)
                 (A) (A) (A) (A) (A) (A) (A) (A) (A) (A) (A) (A)
                 (A) (A) (A) (A) (A) (A) (A) (A) (A) (A) (A) (A)
                 (A) (A) (A) (A) (A) (A) (A) (A) (A) (A) (A) (A)
                 (A) (A) (A) (A) (A) (A) (A) (A) (A) (A) (A) (A)
                 (A) (A) (A) (A) (A) (A) (A) (A) (A) (A) (A) (A)
                 (A) (A) (A) (A) (A) (A) (A) (A) (A) (A) (A) (A)
                 (A) (A) (A) (A) (A) (A) (A) (A) (A) (A) (A) (A)
                 (A) (A) (A) (A) (A) (A) (A) (A) (A) (A) (A) (A)
                 (A) (A) (A) (A) (A) (A) (A) (A) (A) (A) (A) (A)
                 (A) (A) (A) (A) (A) (A) (A) (A) (A) (A) (A) (A)
                 (A) (A) (A) (A) (A) (A) (A) (A) (A) (A) (A) (A)
                 (A) (A) (A) (A) (A) (A) (A) (A) (A) (A) (A) (A)
                 (A) (A) (A) (A) (A) (A) (A) (A) (A) (A) (A) (A)
                 (A) (A) (A) (A) (A) (A) (A) (A) (A) (A) (A) (A)
                 (A) (A) (A) (A) (A) (A) (A) (A) (A) (A) (A) (A)
                 (A) (A) (A) (A) (A) (A) (A) (A) (A) (A) (A) (A)
                 (A) (A) (A) (A) (A) (A) (A) (A) (A) (A) (A) (A)
                 (A) (A) (A) (A) (A) (A) (A) (A) (A) (A) (A) (A)
                 (A) (A) (A) (A) (A) (A) (A) (A) (A) (A) (A) (A)
                 (A) (A) (A) (A) (A) (A) (A) (A) (A) (A) (A) (A)
                 (A) (A) (A) (A) (A) (A) (A) (A) (A) (A) (A) (A)
                 (A) (A) (A) (A) (A) (A) (A) (A) (A) (A) (A) (A)
                 (A) (A) (A) (A) (A) (A) (A) (A) (A) (A) (A) (A)
                 (A) (A) (A) (A) (A) (A) (A) (A) (A) (A) (A) (A)
                 (A) (A) (A) (A) (A) (A) (A) (A) (A) (A) (A) (A)
                 (A) (A) (A) (A) (A) (A) (A) (A) (A) (A) (A) (A)
                 (A) (A) (A) (A) (A) (A) (A) (A) (A) (A)
 The electronic state is 1-A.
 Alpha  occ. eigenvalues --  -19.19550 -19.16927 -19.14588 -19.13477 -19.13319
 Alpha  occ. eigenvalues --  -10.27632 -10.27097 -10.26385 -10.26270 -10.26020
 Alpha  occ. eigenvalues --  -10.25598 -10.24691 -10.21723 -10.20346 -10.20339
 Alpha  occ. eigenvalues --  -10.19954 -10.19816 -10.19588 -10.19549 -10.19073
 Alpha  occ. eigenvalues --  -10.18859 -10.18717 -10.18668 -10.18646 -10.18613
 Alpha  occ. eigenvalues --  -10.18435 -10.18354 -10.17788 -10.17145 -10.16818
 Alpha  occ. eigenvalues --  -10.16639  -1.08509  -1.06234  -1.03295  -1.02225
 Alpha  occ. eigenvalues --   -1.01876  -0.87569  -0.83963  -0.82602  -0.81536
 Alpha  occ. eigenvalues --   -0.80469  -0.79933  -0.77015  -0.74290  -0.73520
 Alpha  occ. eigenvalues --   -0.72470  -0.71893  -0.69702  -0.69031  -0.68206
 Alpha  occ. eigenvalues --   -0.65756  -0.63984  -0.63810  -0.61978  -0.61117
 Alpha  occ. eigenvalues --   -0.59261  -0.58473  -0.57194  -0.55571  -0.54254
 Alpha  occ. eigenvalues --   -0.52901  -0.51797  -0.50989  -0.50502  -0.49509
 Alpha  occ. eigenvalues --   -0.48133  -0.47362  -0.46592  -0.46430  -0.45831
 Alpha  occ. eigenvalues --   -0.45357  -0.44897  -0.44257  -0.44036  -0.43271
 Alpha  occ. eigenvalues --   -0.42863  -0.42687  -0.42431  -0.41805  -0.41552
 Alpha  occ. eigenvalues --   -0.40797  -0.40680  -0.40401  -0.40229  -0.39633
 Alpha  occ. eigenvalues --   -0.39272  -0.38995  -0.38723  -0.38399  -0.38074
 Alpha  occ. eigenvalues --   -0.37742  -0.37607  -0.36897  -0.36709  -0.36320
 Alpha  occ. eigenvalues --   -0.35758  -0.35446  -0.35008  -0.34582  -0.34333
 Alpha  occ. eigenvalues --   -0.33898  -0.33762  -0.32994  -0.32723  -0.32209
 Alpha  occ. eigenvalues --   -0.31839  -0.31489  -0.31395  -0.27863  -0.26996
 Alpha  occ. eigenvalues --   -0.25722  -0.24877  -0.24425  -0.23628  -0.23061
 Alpha virt. eigenvalues --   -0.04518  -0.02272   0.00783   0.01638   0.03343
 Alpha virt. eigenvalues --    0.06555   0.08125   0.08924   0.09344   0.10308
 Alpha virt. eigenvalues --    0.10358   0.11272   0.11544   0.11951   0.12323
 Alpha virt. eigenvalues --    0.12752   0.13042   0.13321   0.13707   0.14104
 Alpha virt. eigenvalues --    0.14204   0.14558   0.15276   0.15435   0.15464
 Alpha virt. eigenvalues --    0.15864   0.16000   0.16511   0.16687   0.16961
 Alpha virt. eigenvalues --    0.17772   0.17910   0.18113   0.18430   0.18582
 Alpha virt. eigenvalues --    0.19247   0.19358   0.20010   0.20234   0.20676
 Alpha virt. eigenvalues --    0.20835   0.21180   0.21476   0.21669   0.22166
 Alpha virt. eigenvalues --    0.22922   0.23126   0.24084   0.24098   0.24561
 Alpha virt. eigenvalues --    0.24877   0.25438   0.25946   0.26257   0.26649
 Alpha virt. eigenvalues --    0.27265   0.27720   0.28467   0.30131   0.30557
 Alpha virt. eigenvalues --    0.31211   0.32160   0.32636   0.34120   0.34737
 Alpha virt. eigenvalues --    0.34991   0.35867   0.36959   0.38721   0.40316
 Alpha virt. eigenvalues --    0.41600   0.44719   0.45565   0.47908   0.48600
 Alpha virt. eigenvalues --    0.49918   0.50167   0.50799   0.51759   0.52032
 Alpha virt. eigenvalues --    0.52127   0.52612   0.53216   0.53659   0.53841
 Alpha virt. eigenvalues --    0.54184   0.54501   0.54767   0.55437   0.56331
 Alpha virt. eigenvalues --    0.56970   0.57287   0.57705   0.58196   0.58854
 Alpha virt. eigenvalues --    0.59212   0.59479   0.60216   0.60689   0.61455
 Alpha virt. eigenvalues --    0.62562   0.63175   0.63466   0.63966   0.64387
 Alpha virt. eigenvalues --    0.65281   0.65804   0.66040   0.66598   0.67638
 Alpha virt. eigenvalues --    0.67800   0.68656   0.68913   0.69006   0.69946
 Alpha virt. eigenvalues --    0.70178   0.71110   0.71754   0.72588   0.72992
 Alpha virt. eigenvalues --    0.73093   0.74532   0.75130   0.75397   0.76373
 Alpha virt. eigenvalues --    0.76815   0.77238   0.78016   0.78943   0.79348
 Alpha virt. eigenvalues --    0.80018   0.80762   0.81484   0.82673   0.83148
 Alpha virt. eigenvalues --    0.83616   0.83783   0.84285   0.84528   0.84904
 Alpha virt. eigenvalues --    0.85594   0.85691   0.86225   0.86310   0.86833
 Alpha virt. eigenvalues --    0.87393   0.87802   0.88606   0.88707   0.89307
 Alpha virt. eigenvalues --    0.89551   0.89891   0.90281   0.90598   0.90845
 Alpha virt. eigenvalues --    0.90875   0.91420   0.91515   0.91754   0.92477
 Alpha virt. eigenvalues --    0.92721   0.93083   0.93664   0.94203   0.94577
 Alpha virt. eigenvalues --    0.94959   0.95184   0.96085   0.96498   0.96562
 Alpha virt. eigenvalues --    0.97449   0.97848   0.98325   0.99031   0.99219
 Alpha virt. eigenvalues --    1.00145   1.00998   1.02233   1.02555   1.02829
 Alpha virt. eigenvalues --    1.03397   1.04675   1.05508   1.06091   1.07802
 Alpha virt. eigenvalues --    1.08256   1.09516   1.11082   1.11387   1.12188
 Alpha virt. eigenvalues --    1.13733   1.14371   1.15550   1.15970   1.16350
 Alpha virt. eigenvalues --    1.16772   1.17197   1.18543   1.19961   1.21551
 Alpha virt. eigenvalues --    1.22072   1.22992   1.24570   1.26075   1.26870
 Alpha virt. eigenvalues --    1.28385   1.30631   1.31174   1.32033   1.33416
 Alpha virt. eigenvalues --    1.34411   1.35391   1.37678   1.38669   1.40387
 Alpha virt. eigenvalues --    1.41511   1.42452   1.43776   1.45128   1.46465
 Alpha virt. eigenvalues --    1.48630   1.49376   1.49785   1.50904   1.51637
 Alpha virt. eigenvalues --    1.52646   1.54170   1.56179   1.56972   1.57108
 Alpha virt. eigenvalues --    1.59032   1.61295   1.62073   1.64116   1.65045
 Alpha virt. eigenvalues --    1.66703   1.67729   1.68185   1.69446   1.69868
 Alpha virt. eigenvalues --    1.71051   1.72058   1.72731   1.73326   1.74018
 Alpha virt. eigenvalues --    1.75422   1.75771   1.76607   1.76773   1.78030
 Alpha virt. eigenvalues --    1.78988   1.80321   1.80524   1.81302   1.82618
 Alpha virt. eigenvalues --    1.83253   1.83265   1.84365   1.85641   1.86011
 Alpha virt. eigenvalues --    1.86742   1.87152   1.87686   1.87990   1.88204
 Alpha virt. eigenvalues --    1.89460   1.89641   1.91419   1.91809   1.92264
 Alpha virt. eigenvalues --    1.92800   1.93260   1.94038   1.94865   1.96309
 Alpha virt. eigenvalues --    1.96435   1.97283   1.97388   1.97730   1.98267
 Alpha virt. eigenvalues --    1.99438   1.99897   2.00456   2.01275   2.02321
 Alpha virt. eigenvalues --    2.02773   2.03428   2.04198   2.04418   2.05335
 Alpha virt. eigenvalues --    2.06089   2.07073   2.07867   2.08536   2.09191
 Alpha virt. eigenvalues --    2.10021   2.10677   2.11585   2.12583   2.14258
 Alpha virt. eigenvalues --    2.14459   2.14836   2.15311   2.16445   2.17445
 Alpha virt. eigenvalues --    2.18516   2.18637   2.19860   2.21546   2.22737
 Alpha virt. eigenvalues --    2.23482   2.24806   2.26022   2.26094   2.28132
 Alpha virt. eigenvalues --    2.28418   2.28697   2.29028   2.30557   2.31490
 Alpha virt. eigenvalues --    2.32281   2.32827   2.33255   2.33835   2.34381
 Alpha virt. eigenvalues --    2.34928   2.36816   2.37983   2.38146   2.38864
 Alpha virt. eigenvalues --    2.41428   2.41802   2.42911   2.43252   2.44990
 Alpha virt. eigenvalues --    2.46333   2.47039   2.48171   2.48472   2.49577
 Alpha virt. eigenvalues --    2.49956   2.51666   2.52836   2.53061   2.56071
 Alpha virt. eigenvalues --    2.57283   2.58073   2.59042   2.60608   2.61218
 Alpha virt. eigenvalues --    2.62077   2.63612   2.64068   2.64797   2.66559
 Alpha virt. eigenvalues --    2.67152   2.67732   2.68765   2.69309   2.70397
 Alpha virt. eigenvalues --    2.71795   2.73402   2.74079   2.76404   2.78786
 Alpha virt. eigenvalues --    2.79325   2.80632   2.81574   2.83293   2.87371
 Alpha virt. eigenvalues --    2.89324   2.92481   2.93243   2.94428   2.96028
 Alpha virt. eigenvalues --    2.97480   2.99059   3.00120   3.01211   3.03457
 Alpha virt. eigenvalues --    3.05289   3.07937   3.12513   3.16498   3.21490
 Alpha virt. eigenvalues --    3.23643   3.28485   3.99812   4.10199   4.10968
 Alpha virt. eigenvalues --    4.13547   4.17014   4.17874   4.19516   4.21086
 Alpha virt. eigenvalues --    4.21516   4.23694   4.24562   4.26465   4.27384
 Alpha virt. eigenvalues --    4.31865   4.33948   4.37176   4.39616   4.42901
 Alpha virt. eigenvalues --    4.45987   4.46503   4.51842   4.55668   4.61123
 Alpha virt. eigenvalues --    4.65477   4.67642   4.71420   4.76090   4.77902
 Alpha virt. eigenvalues --    4.89379   4.95973   5.26811
          Condensed to atoms (all electrons):
 Mulliken atomic charges:
              1
     1  C   -0.194777
     2  C    0.194312
     3  C   -0.191467
     4  C    0.318583
     5  C   -0.033154
     6  C   -0.332080
     7  C    0.203146
     8  C    0.413352
     9  C   -0.098173
    10  C    0.404672
    11  C    0.413769
    12  O   -0.459566
    13  C   -0.139723
    14  C   -0.274109
    15  C   -0.462168
    16  O   -0.490335
    17  C   -0.153710
    18  C    0.306495
    19  O   -0.540720
    20  C   -0.307556
    21  O   -0.672362
    22  C   -0.312036
    23  C    0.098591
    24  O   -0.584665
    25  C    0.188793
    26  C   -0.504511
    27  C   -0.395190
    28  C   -0.461140
    29  C   -0.463556
    30  H    0.145422
    31  H    0.148806
    32  C   -0.519261
    33  H    0.125880
    34  H    0.163412
    35  H    0.184185
    36  H    0.159239
    37  H    0.156584
    38  H    0.144034
    39  H    0.147545
    40  H    0.164552
    41  H    0.156825
    42  H    0.148842
    43  H    0.165556
    44  H    0.418519
    45  H    0.151795
    46  H    0.176647
    47  H    0.137018
    48  H    0.150048
    49  H    0.166413
    50  H    0.153145
    51  H    0.149385
    52  H    0.141021
    53  H    0.184861
    54  H    0.148902
    55  H    0.140910
    56  H    0.149486
    57  H    0.157786
    58  H    0.159916
    59  H    0.158215
    60  H    0.156720
    61  H    0.152873
    62  C   -0.449066
    63  H    0.143068
    64  H    0.144801
    65  H    0.145201
 Sum of Mulliken atomic charges =   0.00000
 Mulliken charges with hydrogens summed into heavy atoms:
              1
     1  C   -0.068897
     2  C    0.194312
     3  C   -0.042660
     4  C    0.318583
     5  C   -0.033154
     6  C    0.015517
     7  C    0.203146
     8  C    0.413352
     9  C   -0.098173
    10  C    0.404672
    11  C    0.413769
    12  O   -0.459566
    13  C    0.019516
    14  C    0.026509
    15  C    0.006755
    16  O   -0.490335
    17  C   -0.008288
    18  C    0.306495
    19  O   -0.540720
    20  C    0.006841
    21  O   -0.253843
    22  C    0.016405
    23  C    0.235608
    24  O   -0.584665
    25  C    0.188793
    26  C   -0.034905
    27  C   -0.104784
    28  C    0.013532
    29  C    0.003631
    32  C   -0.051453
    62  C   -0.015996
 Sum of Mulliken charges with hydrogens summed into heavy atoms =   0.00000
 Electronic spatial extent (au):  <R**2>=          11554.4217
 Charge=              0.0000 electrons
 Dipole moment (field-independent basis, Debye):
    X=             -3.5156    Y=              3.5525    Z=             -2.3041  Tot=              5.5035
 Quadrupole moment (field-independent basis, Debye-Ang):
   XX=           -176.8308   YY=           -179.9610   ZZ=           -190.5939
   XY=              1.1229   XZ=             -7.5667   YZ=              0.7563
 Traceless Quadrupole moment (field-independent basis, Debye-Ang):
   XX=              5.6311   YY=              2.5009   ZZ=             -8.1320
   XY=              1.1229   XZ=             -7.5667   YZ=              0.7563
 Octapole moment (field-independent basis, Debye-Ang**2):
  XXX=              0.4875  YYY=             34.2871  ZZZ=            -18.6028  XYY=             -6.1317
  XXY=            -12.8809  XXZ=            -23.7783  XZZ=            -37.6460  YZZ=              7.6423
  YYZ=            -22.0378  XYZ=             -9.5185
 Hexadecapole moment (field-independent basis, Debye-Ang**3):
 XXXX=          -8616.7897 YYYY=          -4197.8407 ZZZZ=          -2596.9731 XXXY=             -7.9469
 XXXZ=             55.3635 YYYX=             62.7870 YYYZ=             -1.7601 ZZZX=            -55.5749
 ZZZY=             -6.9173 XXYY=          -2091.6430 XXZZ=          -1892.4881 YYZZ=          -1126.5124
 XXYZ=             18.1336 YYXZ=             23.3765 ZZXY=             29.9532
 N-N= 3.515557012324D+03 E-N=-1.025740372274D+04  KE= 1.374832932254D+03
 Calling FoFJK, ICntrl=      2127 FMM=T ISym2X=0 I1Cent= 0 IOpClX= 0 NMat=1 NMatS=1 NMatT=0.
 ***** Axes restored to original set *****
 -------------------------------------------------------------------
 Center     Atomic                   Forces (Hartrees/Bohr)
 Number     Number              X              Y              Z
 -------------------------------------------------------------------
      1        6           0.009538357    0.000171471    0.000929757
      2        6          -0.009616658   -0.006452479    0.003392184
      3        6          -0.006458079   -0.009846020   -0.003219001
      4        6           0.011050644   -0.007652444    0.012284188
      5        6          -0.008329033    0.005716660    0.006283369
      6        6          -0.008942562   -0.008668695   -0.006019329
      7        6           0.020547491    0.013859556    0.011143551
      8        6          -0.005761850   -0.003726662   -0.022610592
      9        6           0.008890249   -0.005007772    0.008688355
     10        6          -0.016219489    0.016413672   -0.004077515
     11        6          -0.023533557   -0.010934289   -0.016304047
     12        8           0.008398888    0.016392710    0.009256003
     13        6          -0.000925164    0.000633004    0.003222685
     14        6          -0.000155007   -0.002021960    0.004109082
     15        6           0.001916006    0.000616578   -0.010919216
     16        8           0.009194480   -0.010150580    0.001274028
     17        6           0.003588913   -0.006546391   -0.011427229
     18        6           0.030644747    0.004577117   -0.012327361
     19        8          -0.012018564   -0.007482362    0.032016419
     20        6           0.009699780   -0.001533214   -0.005684476
     21        8          -0.003530418    0.004856305    0.005217712
     22        6          -0.005839502    0.000293289    0.011482568
     23        6          -0.004483780    0.003696512    0.007447097
     24        8           0.000512376    0.002585169   -0.011594509
     25        6          -0.002620806    0.006493657    0.013187006
     26        6           0.001242702    0.001409118    0.001218968
     27        6           0.001343081   -0.004259593   -0.010574903
     28        6          -0.001806673    0.008429222    0.001567696
     29        6          -0.008124617   -0.000775217   -0.007872213
     30        1          -0.002928815    0.001834944   -0.000087620
     31        1          -0.001738392    0.005968882    0.000600230
     32        6          -0.002414807   -0.000377747    0.000058690
     33        1           0.000591524   -0.000729367    0.000025108
     34        1           0.000423816    0.005160693   -0.000544703
     35        1          -0.001353912    0.005084841   -0.001473427
     36        1          -0.000890550   -0.002150668   -0.001666707
     37        1           0.000455502   -0.003013109   -0.000073587
     38        1           0.000653193   -0.002438129    0.000029244
     39        1          -0.000033466    0.000705570    0.000585001
     40        1          -0.001188441   -0.000153435    0.001483816
     41        1           0.000434024   -0.000221071    0.001202216
     42        1          -0.002005232   -0.001520295   -0.001482343
     43        1           0.000333287    0.000977821    0.000737972
     44        1          -0.003055623    0.000898987   -0.003842625
     45        1          -0.000074496    0.000552496   -0.003068657
     46        1           0.000184737   -0.002203158   -0.001622088
     47        1           0.001255579   -0.003255763   -0.000575082
     48        1           0.003324470   -0.001264501   -0.001966929
     49        1           0.002347794   -0.002381613   -0.001763895
     50        1          -0.002068235    0.000292576   -0.000646643
     51        1          -0.000913562    0.000828942   -0.000775454
     52        1           0.000591516   -0.001295373    0.000080187
     53        1           0.000225336   -0.004597184    0.003534416
     54        1           0.000662653   -0.003335309   -0.002254233
     55        1           0.000120610   -0.000744450   -0.000344067
     56        1          -0.000111296    0.000794532    0.001312257
     57        1           0.001866969    0.001579218    0.001796948
     58        1           0.001178085   -0.001753533    0.002791607
     59        1          -0.000639054    0.000957725   -0.000325286
     60        1           0.004011103   -0.001611692   -0.000054549
     61        1           0.004275986   -0.001170980    0.000104933
     62        6           0.001121844    0.002983663   -0.000134788
     63        1          -0.001492113    0.001409463   -0.000641638
     64        1          -0.000897252    0.001737724   -0.001100393
     65        1          -0.000454737    0.001362935    0.000011813
 -------------------------------------------------------------------
 Cartesian Forces:  Max     0.032016419 RMS     0.006736502

 GradGradGradGradGradGradGradGradGradGradGradGradGradGradGradGradGradGrad
 Berny optimization.
 Internal  Forces:  Max     0.020413858 RMS     0.003423861
 Search for a local minimum.
 Step number   1 out of a maximum of  390
 All quantities printed in internal units (Hartrees-Bohrs-Radians)
 Mixed Optimization -- RFO/linear search
 Second derivative matrix not updated -- first step.
 ITU=  0
     Eigenvalues ---    0.00261   0.00281   0.00356   0.00366   0.00388
     Eigenvalues ---    0.00461   0.00473   0.00570   0.00587   0.00626
     Eigenvalues ---    0.00641   0.00672   0.00730   0.00730   0.00889
     Eigenvalues ---    0.01081   0.01168   0.01253   0.01305   0.01453
     Eigenvalues ---    0.01517   0.01721   0.01740   0.01848   0.02090
     Eigenvalues ---    0.02623   0.02825   0.02825   0.03099   0.03202
     Eigenvalues ---    0.03473   0.03478   0.03703   0.03789   0.04071
     Eigenvalues ---    0.04248   0.04291   0.04373   0.04492   0.04657
     Eigenvalues ---    0.04674   0.04811   0.04974   0.05146   0.05284
     Eigenvalues ---    0.05317   0.05339   0.05408   0.05466   0.05468
     Eigenvalues ---    0.05503   0.05505   0.05513   0.05571   0.05641
     Eigenvalues ---    0.05704   0.05866   0.05942   0.05979   0.06142
     Eigenvalues ---    0.06552   0.06784   0.07094   0.07100   0.07147
     Eigenvalues ---    0.07182   0.07255   0.07309   0.07431   0.08045
     Eigenvalues ---    0.08338   0.08436   0.08948   0.09425   0.09454
     Eigenvalues ---    0.09996   0.10238   0.11425   0.11926   0.12270
     Eigenvalues ---    0.12575   0.13305   0.14565   0.15412   0.15893
     Eigenvalues ---    0.15966   0.16000   0.16000   0.16000   0.16000
     Eigenvalues ---    0.16000   0.16000   0.16000   0.16000   0.16000
     Eigenvalues ---    0.16000   0.16000   0.16000   0.16000   0.16000
     Eigenvalues ---    0.16000   0.16000   0.16000   0.16000   0.16000
     Eigenvalues ---    0.16000   0.16599   0.17222   0.18117   0.18618
     Eigenvalues ---    0.19806   0.20995   0.21928   0.22376   0.22526
     Eigenvalues ---    0.23453   0.24762   0.24875   0.24984   0.24992
     Eigenvalues ---    0.24999   0.25000   0.25000   0.26104   0.26690
     Eigenvalues ---    0.26969   0.27117   0.27399   0.27721   0.28374
     Eigenvalues ---    0.28679   0.28815   0.28914   0.29334   0.29405
     Eigenvalues ---    0.29554   0.30076   0.30282   0.30878   0.31290
     Eigenvalues ---    0.31640   0.31884   0.32096   0.33385   0.33592
     Eigenvalues ---    0.33795   0.33859   0.33903   0.33969   0.34001
     Eigenvalues ---    0.34008   0.34023   0.34035   0.34077   0.34079
     Eigenvalues ---    0.34080   0.34180   0.34205   0.34215   0.34221
     Eigenvalues ---    0.34225   0.34244   0.34256   0.34258   0.34264
     Eigenvalues ---    0.34272   0.34272   0.34273   0.34274   0.34293
     Eigenvalues ---    0.34295   0.34320   0.34368   0.34384   0.34972
     Eigenvalues ---    0.35013   0.35019   0.35230   0.35431   0.36637
     Eigenvalues ---    0.37139   0.41117   0.44439   0.50132   0.53567
     Eigenvalues ---    0.54591   0.56242   0.89508   0.90913
 RFO step:  Lambda=-2.11597979D-02 EMin= 2.60678529D-03
 Linear search not attempted -- first point.
 Iteration  1 RMS(Cart)=  0.05566046 RMS(Int)=  0.00079837
 Iteration  2 RMS(Cart)=  0.00138334 RMS(Int)=  0.00023883
 Iteration  3 RMS(Cart)=  0.00000082 RMS(Int)=  0.00023883
 Variable       Old X    -DE/DX   Delta X   Delta X   Delta X     New X
                                 (Linear)    (Quad)   (Total)
    R1        2.53242  -0.00147   0.00000  -0.00338  -0.00346   2.52897
    R2        2.82113   0.00871   0.00000   0.02510   0.02498   2.84611
    R3        2.05644   0.00033   0.00000   0.00089   0.00089   2.05733
    R4        2.84271   0.00536   0.00000   0.01364   0.01368   2.85639
    R5        2.83969   0.00464   0.00000   0.01355   0.01355   2.85324
    R6        2.94358   0.00659   0.00000   0.01706   0.01701   2.96058
    R7        2.89577   0.01058   0.00000   0.03598   0.03595   2.93173
    R8        2.08023  -0.00186   0.00000  -0.00522  -0.00522   2.07501
    R9        2.92904   0.01313   0.00000   0.04180   0.04177   2.97081
   R10        2.91853   0.00751   0.00000   0.02994   0.03017   2.94870
   R11        2.76086  -0.00615   0.00000  -0.01717  -0.01720   2.74366
   R12        2.91641   0.00577   0.00000   0.02129   0.02125   2.93765
   R13        2.90844   0.00451   0.00000   0.00760   0.00726   2.91571
   R14        2.91449   0.00663   0.00000   0.02215   0.02214   2.93663
   R15        2.07495  -0.00154   0.00000  -0.00427  -0.00427   2.07067
   R16        2.07568   0.00258   0.00000   0.00716   0.00716   2.08285
   R17        2.81490   0.01128   0.00000   0.02602   0.02574   2.84064
   R18        2.86670   0.01524   0.00000   0.05346   0.05292   2.91962
   R19        2.68353   0.00281   0.00000   0.00708   0.00710   2.69063
   R20        2.52292   0.01236   0.00000   0.02157   0.02168   2.54459
   R21        2.62122  -0.01681   0.00000  -0.03941  -0.03912   2.58209
   R22        2.79299   0.00154   0.00000   0.00000   0.00016   2.79315
   R23        2.78954   0.01954   0.00000   0.05262   0.05262   2.84217
   R24        2.32515  -0.01121   0.00000  -0.01205  -0.01205   2.31310
   R25        2.33161  -0.02041   0.00000  -0.02228  -0.02228   2.30933
   R26        2.89166   0.00047   0.00000   0.00148   0.00148   2.89314
   R27        2.90677   0.00128   0.00000   0.00415   0.00415   2.91092
   R28        2.88863   0.00748   0.00000   0.02360   0.02360   2.91223
   R29        2.07678   0.00067   0.00000   0.00186   0.00186   2.07864
   R30        2.07272   0.00057   0.00000   0.00158   0.00158   2.07430
   R31        2.07197   0.00080   0.00000   0.00221   0.00221   2.07418
   R32        2.87812   0.00788   0.00000   0.02449   0.02449   2.90261
   R33        2.06794   0.00043   0.00000   0.00118   0.00118   2.06912
   R34        2.07027  -0.00053   0.00000  -0.00147  -0.00147   2.06880
   R35        2.06873   0.00049   0.00000   0.00134   0.00134   2.07007
   R36        2.91058  -0.00019   0.00000   0.01101   0.01120   2.92177
[...]
     54          1           0        2.933254    2.655870   -2.679385
     55          1           0        1.410506    3.337952   -3.284805
     56          1           0        1.207135    4.819226   -1.150002
     57          1           0        2.785474    4.160756   -0.680782
     58          1           0        1.420569    4.061461    0.443377
     59          1           0       -4.232871    2.502423    2.900450
     60          1           0       -3.487520    3.610044    1.734839
     61          1           0       -4.636580    2.400052    1.174054
     62          6           0        4.788296   -3.099734   -0.920510
     63          1           0        5.278803   -3.636487   -0.098933
     64          1           0        5.547493   -2.484483   -1.416434
     65          1           0        4.447234   -3.846432   -1.646458
 ---------------------------------------------------------------------
 Rotational constants (GHZ):      0.2019417      0.1299241      0.1099306

 **********************************************************************

            Population analysis using the SCF density.

 **********************************************************************

 Orbital symmetries:
       Occupied  (A) (A) (A) (A) (A) (A) (A) (A) (A) (A) (A) (A)
                 (A) (A) (A) (A) (A) (A) (A) (A) (A) (A) (A) (A)
                 (A) (A) (A) (A) (A) (A) (A) (A) (A) (A) (A) (A)
                 (A) (A) (A) (A) (A) (A) (A) (A) (A) (A) (A) (A)
                 (A) (A) (A) (A) (A) (A) (A) (A) (A) (A) (A) (A)
                 (A) (A) (A) (A) (A) (A) (A) (A) (A) (A) (A) (A)
                 (A) (A) (A) (A) (A) (A) (A) (A) (A) (A) (A) (A)
                 (A) (A) (A) (A) (A) (A) (A) (A) (A) (A) (A) (A)
                 (A) (A) (A) (A) (A) (A) (A) (A) (A) (A) (A) (A)
                 (A) (A) (A) (A) (A) (A) (A)
       Virtual   (A) (A) (A) (A) (A) (A) (A) (A) (A) (A) (A) (A)
                 (A) (A) (A) (A) (A) (A) (A) (A) (A) (A) (A) (A)
                 (A) (A) (A) (A) (A) (A) (A) (A) (A) (A) (A) (A)
                 (A) (A) (A) (A) (A) (A) (A) (A) (A) (A) (A) (A)
                 (A) (A) (A) (A) (A) (A) (A) (A) (A) (A) (A) (A)
                 (A) (A) (A) (A) (A) (A) (A) (A) (A) (A) (A) (A)
                 (A) (A) (A) (A) (A) (A) (A) (A) (A) (A) (A) (A)
                 (A) (A) (A) (A) (A) (A) (A) (A) (A) (A) (A) (A)
                 (A) (A) (A) (A) (A) (A) (A) (A) (A) (A) (A) (A)
                 (A) (A) (A) (A) (A) (A) (A) (A) (A) (A) (A) (A)
                 (A) (A) (A) (A) (A) (A) (A) (A) (A) (A) (A) (A)
                 (A) (A) (A) (A) (A) (A) (A) (A) (A) (A) (A) (A)
                 (A) (A) (A) (A) (A) (A) (A) (A) (A) (A) (A) (A)
                 (A) (A) (A) (A) (A) (A) (A) (A) (A) (A) (A) (A)
                 (A) (A) (A) (A) (A) (A) (A) (A) (A) (A) (A) (A)
                 (A) (A) (A) (A) (A) (A) (A) (A) (A) (A) (A) (A)
                 (A) (A) (A) (A) (A) (A) (A) (A) (A) (A) (A) (A)
                 (A) (A) (A) (A) (A) (A) (A) (A) (A) (A) (A) (A)
                 (A) (A) (A) (A) (A) (A) (A) (A) (A) (A) (A) (A)
                 (A) (A) (A) (A) (A) (A) (A) (A) (A) (A) (A) (A)
                 (A) (A) (A) (A) (A) (A) (A) (A) (A) (A) (A) (A)
                 (A) (A) (A) (A) (A) (A) (A) (A) (A) (A) (A) (A)
                 (A) (A) (A) (A) (A) (A) (A) (A) (A) (A) (A) (A)
                 (A) (A) (A) (A) (A) (A) (A) (A) (A) (A) (A) (A)
                 (A) (A) (A) (A) (A) (A) (A) (A) (A) (A) (A) (A)
                 (A) (A) (A) (A) (A) (A) (A) (A) (A) (A) (A) (A)
                 (A) (A) (A) (A) (A) (A) (A) (A) (A) (A) (A) (A)
                 (A) (A) (A) (A) (A) (A) (A) (A) (A) (A) (A) (A)
                 (A) (A) (A) (A) (A) (A) (A) (A) (A) (A) (A) (A)
                 (A) (A) (A) (A) (A) (A) (A) (A) (A) (A) (A) (A)
                 (A) (A) (A) (A) (A) (A) (A) (A) (A) (A) (A) (A)
                 (A) (A) (A) (A) (A) (A) (A) (A) (A) (A) (A) (A)
                 (A) (A) (A) (A) (A) (A) (A) (A) (A) (A) (A) (A)
                 (A) (A) (A) (A) (A) (A) (A) (A) (A) (A) (A) (A)
                 (A) (A) (A) (A) (A) (A) (A) (A) (A) (A)
 The electronic state is 1-A.
 Alpha  occ. eigenvalues --  -19.19354 -19.16968 -19.14914 -19.13202 -19.13054
 Alpha  occ. eigenvalues --  -10.27058 -10.26944 -10.26594 -10.26397 -10.26065
 Alpha  occ. eigenvalues --  -10.25821 -10.24826 -10.21331 -10.20447 -10.20415
 Alpha  occ. eigenvalues --  -10.20292 -10.20173 -10.19760 -10.19366 -10.19057
 Alpha  occ. eigenvalues --  -10.19021 -10.18779 -10.18673 -10.18567 -10.18537
 Alpha  occ. eigenvalues --  -10.18380 -10.18239 -10.18232 -10.17054 -10.16933
 Alpha  occ. eigenvalues --  -10.16598  -1.08714  -1.06323  -1.03433  -1.02622
 Alpha  occ. eigenvalues --   -1.02087  -0.86793  -0.83622  -0.82085  -0.81282
 Alpha  occ. eigenvalues --   -0.80006  -0.79631  -0.76644  -0.73972  -0.72907
 Alpha  occ. eigenvalues --   -0.72039  -0.71558  -0.70106  -0.69113  -0.68142
 Alpha  occ. eigenvalues --   -0.65451  -0.63897  -0.63796  -0.61580  -0.60580
 Alpha  occ. eigenvalues --   -0.58910  -0.58184  -0.56739  -0.55475  -0.53904
 Alpha  occ. eigenvalues --   -0.52752  -0.51718  -0.50986  -0.49928  -0.49345
 Alpha  occ. eigenvalues --   -0.47940  -0.46858  -0.46773  -0.46251  -0.45813
 Alpha  occ. eigenvalues --   -0.45208  -0.44639  -0.44122  -0.43974  -0.42965
 Alpha  occ. eigenvalues --   -0.42670  -0.42607  -0.42168  -0.41682  -0.41282
 Alpha  occ. eigenvalues --   -0.40759  -0.40712  -0.40312  -0.40043  -0.39492
 Alpha  occ. eigenvalues --   -0.39352  -0.39058  -0.38745  -0.38374  -0.38061
 Alpha  occ. eigenvalues --   -0.37770  -0.37476  -0.37226  -0.36996  -0.36224
 Alpha  occ. eigenvalues --   -0.35859  -0.35442  -0.34974  -0.34714  -0.34174
 Alpha  occ. eigenvalues --   -0.33993  -0.33576  -0.33017  -0.32826  -0.32353
 Alpha  occ. eigenvalues --   -0.31645  -0.31255  -0.30941  -0.28013  -0.27247
 Alpha  occ. eigenvalues --   -0.25808  -0.24504  -0.24221  -0.23392  -0.22648
 Alpha virt. eigenvalues --   -0.03753  -0.01481   0.00990   0.01269   0.04038
 Alpha virt. eigenvalues --    0.06936   0.08097   0.08960   0.09208   0.10187
 Alpha virt. eigenvalues --    0.10530   0.10800   0.11560   0.11957   0.12312
 Alpha virt. eigenvalues --    0.12788   0.13005   0.13583   0.13843   0.14089
 Alpha virt. eigenvalues --    0.14334   0.14850   0.15230   0.15401   0.15580
 Alpha virt. eigenvalues --    0.15853   0.16070   0.16405   0.16666   0.17070
 Alpha virt. eigenvalues --    0.17285   0.17995   0.18221   0.18358   0.18539
 Alpha virt. eigenvalues --    0.19178   0.19587   0.19865   0.20026   0.20577
 Alpha virt. eigenvalues --    0.21064   0.21208   0.21536   0.22113   0.22379
 Alpha virt. eigenvalues --    0.22617   0.22928   0.23535   0.24151   0.24558
 Alpha virt. eigenvalues --    0.24597   0.24767   0.25693   0.26209   0.26679
 Alpha virt. eigenvalues --    0.27347   0.27622   0.28372   0.29673   0.30464
 Alpha virt. eigenvalues --    0.30982   0.32034   0.32452   0.34029   0.34289
 Alpha virt. eigenvalues --    0.34845   0.35999   0.36818   0.38868   0.39863
 Alpha virt. eigenvalues --    0.41177   0.44932   0.45713   0.47932   0.48307
 Alpha virt. eigenvalues --    0.49835   0.49991   0.50548   0.50979   0.51540
 Alpha virt. eigenvalues --    0.51879   0.52139   0.52405   0.53376   0.53564
 Alpha virt. eigenvalues --    0.53650   0.54133   0.54553   0.55112   0.55474
 Alpha virt. eigenvalues --    0.56914   0.57094   0.57684   0.57933   0.58264
 Alpha virt. eigenvalues --    0.59050   0.59740   0.59958   0.60245   0.60592
 Alpha virt. eigenvalues --    0.62260   0.63147   0.63567   0.63902   0.64189
 Alpha virt. eigenvalues --    0.64733   0.65973   0.66259   0.67238   0.67488
 Alpha virt. eigenvalues --    0.68140   0.68307   0.69019   0.69495   0.70193
 Alpha virt. eigenvalues --    0.70213   0.70868   0.71671   0.71833   0.72583
 Alpha virt. eigenvalues --    0.72878   0.74050   0.74410   0.75338   0.75999
 Alpha virt. eigenvalues --    0.76760   0.77045   0.77524   0.78606   0.79017
 Alpha virt. eigenvalues --    0.80093   0.80630   0.81626   0.82257   0.83236
 Alpha virt. eigenvalues --    0.83475   0.84054   0.84210   0.84500   0.84975
 Alpha virt. eigenvalues --    0.85112   0.85406   0.86160   0.86406   0.86717
 Alpha virt. eigenvalues --    0.86960   0.88150   0.88444   0.88691   0.88978
 Alpha virt. eigenvalues --    0.89398   0.89588   0.90140   0.90440   0.90832
 Alpha virt. eigenvalues --    0.91153   0.91396   0.91564   0.91730   0.91788
 Alpha virt. eigenvalues --    0.92705   0.93276   0.93327   0.94140   0.94426
 Alpha virt. eigenvalues --    0.94662   0.95297   0.95519   0.96172   0.96696
 Alpha virt. eigenvalues --    0.97336   0.97617   0.97798   0.98353   0.98987
 Alpha virt. eigenvalues --    0.99959   1.00684   1.02077   1.02278   1.02449
 Alpha virt. eigenvalues --    1.03818   1.04248   1.04275   1.05480   1.08065
 Alpha virt. eigenvalues --    1.08389   1.10886   1.11287   1.12293   1.12801
 Alpha virt. eigenvalues --    1.13625   1.14277   1.15332   1.15705   1.16185
 Alpha virt. eigenvalues --    1.17253   1.17356   1.18800   1.21255   1.21413
 Alpha virt. eigenvalues --    1.22262   1.23264   1.25426   1.25754   1.27006
 Alpha virt. eigenvalues --    1.28924   1.29794   1.31875   1.31987   1.33096
 Alpha virt. eigenvalues --    1.34063   1.35910   1.37006   1.39257   1.40535
 Alpha virt. eigenvalues --    1.41041   1.42962   1.43882   1.45198   1.46794
 Alpha virt. eigenvalues --    1.47510   1.49166   1.50761   1.51273   1.53106
 Alpha virt. eigenvalues --    1.53322   1.54703   1.56210   1.56760   1.57363
 Alpha virt. eigenvalues --    1.59244   1.61502   1.61976   1.62853   1.64439
 Alpha virt. eigenvalues --    1.65161   1.66881   1.68200   1.68348   1.70249
 Alpha virt. eigenvalues --    1.70990   1.71729   1.72290   1.72723   1.73458
 Alpha virt. eigenvalues --    1.74777   1.74981   1.76257   1.77398   1.77725
 Alpha virt. eigenvalues --    1.78722   1.79820   1.80780   1.81134   1.82134
 Alpha virt. eigenvalues --    1.82693   1.83193   1.83805   1.84526   1.85613
 Alpha virt. eigenvalues --    1.86009   1.86590   1.86825   1.87420   1.87783
 Alpha virt. eigenvalues --    1.89013   1.89678   1.90374   1.91308   1.92128
 Alpha virt. eigenvalues --    1.92460   1.92928   1.93495   1.94857   1.94955
 Alpha virt. eigenvalues --    1.95568   1.96455   1.96807   1.97307   1.97666
 Alpha virt. eigenvalues --    1.98072   1.98688   1.99059   1.99425   2.00369
 Alpha virt. eigenvalues --    2.01777   2.02715   2.03334   2.03967   2.04760
 Alpha virt. eigenvalues --    2.05507   2.06063   2.06793   2.07958   2.08271
 Alpha virt. eigenvalues --    2.09318   2.10455   2.11059   2.11954   2.12739
 Alpha virt. eigenvalues --    2.14171   2.14401   2.15310   2.16213   2.16376
 Alpha virt. eigenvalues --    2.18242   2.18556   2.19713   2.20882   2.21759
 Alpha virt. eigenvalues --    2.23845   2.24158   2.25198   2.25737   2.27070
 Alpha virt. eigenvalues --    2.27908   2.28434   2.28799   2.30139   2.31966
 Alpha virt. eigenvalues --    2.32388   2.32657   2.33157   2.33564   2.34117
 Alpha virt. eigenvalues --    2.34323   2.36584   2.37858   2.38382   2.39310
 Alpha virt. eigenvalues --    2.41062   2.41375   2.41980   2.42883   2.44794
 Alpha virt. eigenvalues --    2.44966   2.46247   2.47544   2.48359   2.49480
 Alpha virt. eigenvalues --    2.50353   2.50910   2.51887   2.52527   2.55354
 Alpha virt. eigenvalues --    2.56044   2.57566   2.58462   2.60081   2.60150
 Alpha virt. eigenvalues --    2.61482   2.63192   2.64202   2.65013   2.65825
 Alpha virt. eigenvalues --    2.66497   2.67630   2.68989   2.69488   2.69935
 Alpha virt. eigenvalues --    2.71577   2.73058   2.73532   2.76504   2.76959
 Alpha virt. eigenvalues --    2.77899   2.78793   2.79627   2.81068   2.86656
 Alpha virt. eigenvalues --    2.89520   2.90922   2.93392   2.95143   2.95977
 Alpha virt. eigenvalues --    2.97511   2.98942   2.99385   3.00629   3.03592
 Alpha virt. eigenvalues --    3.05089   3.06543   3.11688   3.13682   3.20658
 Alpha virt. eigenvalues --    3.22567   3.27112   4.00426   4.09767   4.11562
 Alpha virt. eigenvalues --    4.12401   4.15663   4.17268   4.18475   4.20448
 Alpha virt. eigenvalues --    4.22086   4.24249   4.24480   4.26411   4.26807
 Alpha virt. eigenvalues --    4.31670   4.32530   4.36530   4.38925   4.42080
 Alpha virt. eigenvalues --    4.46170   4.46384   4.51850   4.57329   4.60908
 Alpha virt. eigenvalues --    4.64962   4.67649   4.69774   4.73680   4.76869
 Alpha virt. eigenvalues --    4.89139   4.95527   5.24273
          Condensed to atoms (all electrons):
 Mulliken atomic charges:
              1
     1  C   -0.193382
     2  C    0.197458
     3  C   -0.196552
     4  C    0.315057
     5  C   -0.027810
     6  C   -0.333008
     7  C    0.200771
     8  C    0.411045
     9  C   -0.107216
    10  C    0.410068
    11  C    0.412982
    12  O   -0.442776
    13  C   -0.143573
    14  C   -0.278382
    15  C   -0.465465
    16  O   -0.493091
    17  C   -0.156429
    18  C    0.300203
    19  O   -0.539206
    20  C   -0.309462
    21  O   -0.670868
    22  C   -0.328901
    23  C    0.101863
    24  O   -0.585285
    25  C    0.188565
    26  C   -0.505840
    27  C   -0.394748
    28  C   -0.467733
    29  C   -0.460417
    30  H    0.146199
    31  H    0.145948
    32  C   -0.521097
    33  H    0.125467
    34  H    0.164748
    35  H    0.180484
    36  H    0.150092
    37  H    0.167839
    38  H    0.142211
    39  H    0.149919
    40  H    0.158119
    41  H    0.160392
    42  H    0.150367
    43  H    0.164952
    44  H    0.421152
    45  H    0.151101
    46  H    0.182604
    47  H    0.137186
    48  H    0.151415
    49  H    0.168503
    50  H    0.153700
    51  H    0.152505
    52  H    0.139031
    53  H    0.194539
    54  H    0.155622
    55  H    0.144064
    56  H    0.149999
    57  H    0.163094
    58  H    0.162860
    59  H    0.158439
    60  H    0.155511
    61  H    0.153592
    62  C   -0.448888
    63  H    0.143520
    64  H    0.141790
    65  H    0.145152
 Sum of Mulliken atomic charges =   0.00000
 Mulliken charges with hydrogens summed into heavy atoms:
              1
     1  C   -0.067915
     2  C    0.197458
     3  C   -0.050604
     4  C    0.315057
     5  C   -0.027810
     6  C    0.012225
     7  C    0.200771
     8  C    0.411045
     9  C   -0.107216
    10  C    0.410068
    11  C    0.412982
    12  O   -0.442776
    13  C    0.006519
    14  C    0.031668
    15  C    0.002965
    16  O   -0.493091
    17  C   -0.010230
    18  C    0.300203
    19  O   -0.539206
    20  C    0.005856
    21  O   -0.249716
    22  C    0.004804
    23  C    0.239049
    24  O   -0.585285
    25  C    0.188565
    26  C   -0.032222
    27  C   -0.103212
    28  C    0.026492
    29  C    0.015536
    32  C   -0.053555
    62  C   -0.018426
 Sum of Mulliken charges with hydrogens summed into heavy atoms =   0.00000
 Electronic spatial extent (au):  <R**2>=          11584.9455
 Charge=              0.0000 electrons
 Dipole moment (field-independent basis, Debye):
    X=             -3.6678    Y=              3.7812    Z=             -2.4691  Tot=              5.8178
 Quadrupole moment (field-independent basis, Debye-Ang):
   XX=           -177.4156   YY=           -177.8398   ZZ=           -190.6814
   XY=              2.3549   XZ=             -8.0724   YZ=              0.6605
 Traceless Quadrupole moment (field-independent basis, Debye-Ang):
   XX=              4.5633   YY=              4.1391   ZZ=             -8.7025
   XY=              2.3549   XZ=             -8.0724   YZ=              0.6605
 Octapole moment (field-independent basis, Debye-Ang**2):
  XXX=              1.2113  YYY=             40.4037  ZZZ=            -19.4656  XYY=             -7.1848
  XXY=             -6.4409  XXZ=            -24.2455  XZZ=            -36.9393  YZZ=              5.9776
  YYZ=            -25.2524  XYZ=             -9.4893
 Hexadecapole moment (field-independent basis, Debye-Ang**3):
 XXXX=          -8299.5348 YYYY=          -4524.8815 ZZZZ=          -2595.7896 XXXY=            -14.3502
 XXXZ=             29.0806 YYYX=             80.8276 YYYZ=            -13.6013 ZZZX=            -54.8495
 ZZZY=            -10.6598 XXYY=          -2106.8938 XXZZ=          -1844.6316 YYZZ=          -1177.8700
 XXYZ=             19.8957 YYXZ=             20.6873 ZZXY=             38.1975
 N-N= 3.502993468097D+03 E-N=-1.023219383126D+04  KE= 1.374462843238D+03
 1\1\GINC-B0805\FOpt\RB3LYP\6-31G(d)\C26H34O5\CAOFEI\24-Mar-2021\0\\# o
 pt rb3lyp/6-31g(d) geom=connectivity\\Title Card Required\\0,1\C,-0.03
 44854626,0.0097652966,-0.0610285134\C,1.2986044711,-0.0642058035,0.031
 7359222\C,2.134079421,1.1933116337,-0.0278602992\C,1.444028489,2.50812
 25877,0.4651082483\C,-0.123369138,2.4971070511,0.5495859811\C,-0.77152
 81422,1.3102939532,-0.230036365\C,2.0436677069,3.6246227135,-0.4487375
 335\C,1.0893817865,4.0619789899,-1.5441775651\C,-0.2336305807,4.229715
 4532,-1.3546574167\C,-0.7916700181,3.7498921126,-0.0767683172\C,-1.215
 2879326,4.7197227096,-2.4033597794\O,-1.892235266,3.8977216766,-2.9938
 848999\C,-1.3516481043,6.2168893693,-2.6828194689\C,-1.1336628828,7.07
 47885259,-1.4195511413\C,-0.423997682,6.6038991272,-3.8552211127\O,-1.
 8280098734,4.1969931334,0.3967583038\C,3.165829338,2.9949561664,-1.305
 2497186\C,3.1651768586,3.8629520632,-2.5851161183\O,1.7465447188,4.290
 3234674,-2.6954138022\C,2.6939925778,1.5334439747,-1.4346022467\O,2.42
 3193481,4.7711742956,0.287015328\C,-0.4150627606,2.4283451669,2.072472
 1331\C,0.9480439536,2.2243736774,2.7352704744\O,1.8868801496,2.8054467
 791,1.7980745832\C,1.2002136846,2.8151586313,4.1048138745\C,2.63272916
 45,2.751818835,4.5769020682\C,0.2175549297,3.2958705293,4.8715951945\C
 ,4.0162383289,5.1254288767,-2.4261982881\C,3.4907841131,3.1355028925,-
 3.8857817903\H,4.129165626,3.0509964247,-0.7894094708\H,2.9997223011,1
 .0749823714,0.6388161773\C,2.0389836929,-1.3698208854,0.1651850414\H,-
 0.6276352804,-0.9035906931,-0.0457469592\H,-1.808431173,1.2165705869,0
 .1098951318\H,-0.8391706826,1.5667076134,-1.2976025454\H,-2.3885831656
 ,6.3372475086,-3.0244499771\H,-1.6906960073,6.6220022887,-0.5904306456
 \H,-0.0742705179,7.0376770529,-1.1324873522\H,-0.5849249394,7.64851532
 19,-4.1407394278\H,-0.6298069944,5.9788383288,-4.7304301026\H,0.630100
 1032,6.4784506772,-3.5881299472\H,3.4943371249,0.8512547718,-1.7375384
 162\H,1.893246507,1.4441445732,-2.1783821306\H,2.3803577883,4.49291633
 41,1.2245074734\H,-1.1077934968,1.6205571616,2.3221272779\H,-0.8764283
 493,3.3677852424,2.3847961054\H,1.1733339189,1.146129523,2.787798352\H
 ,3.0066000974,1.7186636213,4.5618274149\H,3.2921924358,3.3309424582,3.
 9204330903\H,2.732826263,3.1364428813,5.5960670524\H,-0.8172446123,3.3
 324418965,4.5470018313\H,0.420493521,3.6674382576,5.8728363256\H,3.772
 2036622,5.6428979439,-1.4956258058\H,3.8439617534,5.8017422172,-3.2699
 538286\H,5.0800441083,4.8619590462,-2.4100479522\H,4.5238235664,2.7711
 954669,-3.8634040409\H,3.3892423064,3.8194753362,-4.7344619753\H,2.824
 7437154,2.2854900932,-4.0527087851\H,1.3518190157,-2.2216020803,0.1835
 412071\H,2.7399349094,-1.5214862168,-0.6673393127\H,2.6390997645,-1.39
 50885421,1.085588593\C,-1.5742210366,8.5337709305,-1.5843941048\H,-2.6
 331586053,8.5988664947,-1.863863826\H,-0.9943349919,9.0577691454,-2.35
 25175429\H,-1.4454876582,9.0839029623,-0.6454246593\\Version=EM64L-G09
 RevB.01\State=1-A\HF=-1387.3141253\RMSD=4.652e-09\RMSF=3.005e-06\Dipol
 e=2.0024644,-1.0264683,0.4190125\Quadrupole=-5.013797,3.7251684,1.2886
 287,-1.3469573,-6.1738906,-3.2369866\PG=C01 [X(C26H34O5)]\\@


 ALL SCIENCE IS EITHER PHYSICS, OR STAMP COLLECTING.
   --ERNEST RUTHERFORD, 1871-1937.
 Job cpu time:  0 days 10 hours  6 minutes 41.0 seconds.
 File lengths (MBytes):  RWF=    186 Int=      0 D2E=      0 Chk=     20 Scr=      1
 Normal termination of Gaussian 09 at Wed Mar 24 18:43:41 2021.
