 Entering Gaussian System, Link 0=g09
 Initial command:
 /public/software/g09/g09/l1.exe /tmp/Gau-9905.inp -scrdir=/tmp/
 Entering Link 1 = /public/software/g09/g09/l1.exe PID=      9906.
  
 Copyright (c) 1988,1990,1992,1993,1995,1998,2003,2009,2010,
            Gaussian, Inc.  All Rights Reserved.
  
 This is part of the Gaussian(R) 09 program.  It is based on
 the Gaussian(R) 03 system (copyright 2003, Gaussian, Inc.),
 the Gaussian(R) 98 system (copyright 1998, Gaussian, Inc.),
 the Gaussian(R) 94 system (copyright 1995, Gaussian, Inc.),
 the Gaussian 92(TM) system (copyright 1992, Gaussian, Inc.),
 the Gaussian 90(TM) system (copyright 1990, Gaussian, Inc.),
 the Gaussian 88(TM) system (copyright 1988, Gaussian, Inc.),
 the Gaussian 86(TM) system (copyright 1986, Carnegie Mellon
 University), and the Gaussian 82(TM) system (copyright 1983,
 Carnegie Mellon University). Gaussian is a federally registered
 trademark of Gaussian, Inc.
  
 This software contains proprietary and confidential information,
 including trade secrets, belonging to Gaussian, Inc.
  
 This software is provided under written license and may be
 used, copied, transmitted, or stored only in accord with that
 written license.
  
 The following legend is applicable only to US Government
 contracts under FAR:
  
                    RESTRICTED RIGHTS LEGEND
  
 Use, reproduction and disclosure by the US Government is
 subject to restrictions as set forth in subparagraphs (a)
 and (c) of the Commercial Computer Software - Restricted
 Rights clause in FAR 52.227-19.
  
 Gaussian, Inc.
 340 Quinnipiac St., Bldg. 40, Wallingford CT 06492
  
  
 ---------------------------------------------------------------
 Warning -- This program may not be used in any manner that
 competes with the business of Gaussian, Inc. or will provide
 assistance to any competitor of Gaussian, Inc.  The licensee
 of this program is prohibited from giving any competitor of
 Gaussian, Inc. access to this program.  By using this program,
 the user acknowledges that Gaussian, Inc. is engaged in the
 business of creating and licensing software in the field of
 computational chemistry and represents and warrants to the
 licensee that it is not a competitor of Gaussian, Inc. and that
 it will not use this program in any manner prohibited above.
 ---------------------------------------------------------------
  

 Cite this work as:
 Gaussian 09, Revision B.01,
 M. J. Frisch, G. W. Trucks, H. B. Schlegel, G. E. Scuseria, 
 M. A. Robb, J. R. Cheeseman, G. Scalmani, V. Barone, B. Mennucci, 
 G. A. Petersson, H. Nakatsuji, M. Caricato, X. Li, H. P. Hratchian, 
 A. F. Izmaylov, J. Bloino, G. Zheng, J. L. Sonnenberg, M. Hada, 
 M. Ehara, K. Toyota, R. Fukuda, J. Hasegawa, M. Ishida, T. Nakajima, 
 Y. Honda, O. Kitao, H. Nakai, T. Vreven, J. A. Montgomery, Jr., 
 J. E. Peralta, F. Ogliaro, M. Bearpark, J. J. Heyd, E. Brothers, 
 K. N. Kudin, V. N. Staroverov, T. Keith, R. Kobayashi, J. Normand, 
 K. Raghavachari, A. Rendell, J. C. Burant, S. S. Iyengar, J. Tomasi, 
 M. Cossi, N. Rega, J. M. Millam, M. Klene, J. E. Knox, J. B. Cross, 
 V. Bakken, C. Adamo, J. Jaramillo, R. Gomperts, R. E. Stratmann, 
 O. Yazyev, A. J. Austin, R. Cammi, C. Pomelli, J. W. Ochterski, 
 R. L. Martin, K. Morokuma, V. G. Zakrzewski, G. A. Voth, 
 P. Salvador, J. J. Dannenberg, S. Dapprich, A. D. Daniels, 
 O. Farkas, J. B. Foresman, J. V. Ortiz, J. Cioslowski, 
 and D. J. Fox, Gaussian, Inc., Wallingford CT, 2010.
 
 ******************************************
 Gaussian 09:  EM64L-G09RevB.01 12-Aug-2010
                24-Mar-2021 
 ******************************************
 %mem=600MW
 %nprocshared=10
 Will use up to   10 processors via shared memory.
 ---------------------------------------
 # opt rb3lyp/6-31g(d) geom=connectivity
 ---------------------------------------
 1/14=-1,18=20,19=15,26=3,38=1,57=2/1,3;
 2/9=110,12=2,17=6,18=5,40=1/2;
 3/5=1,6=6,7=1,11=2,16=1,25=1,30=1,71=1,74=-5,116=1/1,2,3;
 4//1;
 5/5=2,38=5/2;
 6/7=2,8=2,9=2,10=2,28=1/1;
 7//1,2,3,16;
 1/14=-1,18=20,19=15/3(2);
 2/9=110/2;
 99//99;
 2/9=110/2;
 3/5=1,6=6,7=1,11=2,16=1,25=1,30=1,71=1,74=-5,116=1/1,2,3;
 4/5=5,16=3/1;
 5/5=2,38=5/2;
 7//1,2,3,16;
 1/14=-1,18=20,19=15/3(-5);
 2/9=110/2;
 6/7=2,8=2,9=2,10=2,19=2,28=1/1;
 99/9=1/99;
 -------------------
 Title Card Required
 -------------------
 Symbolic Z-matrix:
 Charge =  0 Multiplicity = 1
 C                     0.        0.        0. 
 C                     1.3402    0.        0. 
 C                     2.1221    1.2855    0. 
 C                     1.3736    2.5504    0.5165 
 C                    -0.169     2.4796    0.6321 
 C                    -0.8102    1.2531   -0.0503 
 C                     1.9117    3.6983   -0.3643 
 C                     0.9829    4.1766   -1.4272 
 C                    -0.341     4.2423   -1.2605 
 C                    -0.8786    3.6942    0.0074 
 C                    -1.2529    4.651    -2.3502 
 O                    -2.0076    3.792    -2.8177 
 C                    -1.2605    6.0828   -2.8951 
 C                    -0.5264    7.1591   -2.0793 
 C                    -0.7398    6.0633   -4.3349 
 O                    -1.9274    4.1454    0.4667 
 C                     3.04      3.1446   -1.2143 
 C                     2.9927    4.0232   -2.4772 
 O                     1.6097    4.4177   -2.6409 
 C                     2.6305    1.6755   -1.3915 
 O                     2.3268    4.8137    0.4105 
 C                    -0.412     2.4816    2.1558 
 C                     0.9375    2.1489    2.7665 
 O                     1.8595    2.7887    1.8732 
 C                     1.2259    2.6065    4.177 
 C                     2.6482    2.4097    4.6351 
 C                     0.3132    3.1214    5.0191 
 C                     3.8306    5.3032   -2.3311 
 C                     3.435     3.2932   -3.7483 
 H                     4.0155    3.2052   -0.7161 
 H                     2.9995    1.1304    0.6463 
 C                     2.1331   -1.2763   -0.0105 
 H                    -0.5487   -0.9394   -0.0269 
 H                    -1.022     1.4525   -1.1094 
 H                    -1.7896    1.054     0.4044 
 H                    -2.3207    6.3701   -2.9328 
 H                     0.5075    6.8702   -1.8665 
 H                    -0.4664    8.0778   -2.6771 
 H                    -1.2469    5.2978   -4.932 
 H                    -0.9103    7.0299   -4.8211 
 H                     0.3335    5.8546   -4.3728 
 H                     1.8361    1.5535   -2.1383 
 H                     3.4809    1.0608   -1.7056 
 H                     2.4649    4.4698    1.319 
 H                    -1.185     1.778     2.4829 
 H                    -0.7275    3.4805    2.4807 
 H                     1.1106    1.0661    2.722 
 H                     2.9435    1.362     4.5159 
 H                     3.3316    3.0339    4.0505 
 H                     2.7832    2.6717    5.69 
 H                    -0.7268    3.2586    4.7432 
 H                     0.5824    3.4217    6.0279 
 H                     3.7451    5.9246   -3.2305 
 H                     4.8886    5.0706   -2.1721 
 H                     3.4853    5.9321   -1.5054 
 H                     3.4083    3.9683   -4.6119 
 H                     4.4517    2.8995   -3.6503 
 H                     2.759     2.4701   -4.0012 
 H                     1.4882   -2.1614   -0.0138 
 H                     2.7684   -1.3246   -0.9005 
 H                     2.7712   -1.3336    0.8773 
 C                    -1.2326    7.5152   -0.7779 
 H                    -1.2534    6.6761   -0.0804 
 H                    -0.7111    8.3417   -0.2843 
 H                    -2.2632    7.8332   -0.965 
 

 GradGradGradGradGradGradGradGradGradGradGradGradGradGradGradGradGradGrad
 Berny optimization.
 Initialization pass.
                           ----------------------------
                           !    Initial Parameters    !
                           ! (Angstroms and Degrees)  !
 --------------------------                            --------------------------
 ! Name  Definition              Value          Derivative Info.                !
 --------------------------------------------------------------------------------
 ! R1    R(1,2)                  1.3402         estimate D2E/DX2                !
 ! R2    R(1,6)                  1.4931         estimate D2E/DX2                !
 ! R3    R(1,33)                 1.0882         estimate D2E/DX2                !
 ! R4    R(2,3)                  1.5046         estimate D2E/DX2                !
 ! R5    R(2,32)                 1.5026         estimate D2E/DX2                !
 ! R6    R(3,4)                  1.5579         estimate D2E/DX2                !
 ! R7    R(3,20)                 1.5319         estimate D2E/DX2                !
 ! R8    R(3,31)                 1.1007         estimate D2E/DX2                !
 ! R9    R(4,5)                  1.5485         estimate D2E/DX2                !
 ! R10   R(4,7)                  1.5437         estimate D2E/DX2                !
 ! R11   R(4,24)                 1.4607         estimate D2E/DX2                !
 ! R12   R(5,6)                  1.5431         estimate D2E/DX2                !
 ! R13   R(5,10)                 1.5392         estimate D2E/DX2                !
 ! R14   R(5,22)                 1.543          estimate D2E/DX2                !
 ! R15   R(6,34)                 1.0983         estimate D2E/DX2                !
 ! R16   R(6,35)                 1.098          estimate D2E/DX2                !
 ! R17   R(7,8)                  1.4904         estimate D2E/DX2                !
 ! R18   R(7,17)                 1.5173         estimate D2E/DX2                !
 ! R19   R(7,21)                 1.4201         estimate D2E/DX2                !
 ! R20   R(8,9)                  1.336          estimate D2E/DX2                !
 ! R21   R(8,19)                 1.3871         estimate D2E/DX2                !
 ! R22   R(9,10)                 1.4822         estimate D2E/DX2                !
 ! R23   R(9,11)                 1.4785         estimate D2E/DX2                !
 ! R24   R(10,16)                1.2307         estimate D2E/DX2                !
 ! R25   R(11,12)                1.2353         estimate D2E/DX2                !
 ! R26   R(11,13)                1.532          estimate D2E/DX2                !
 ! R27   R(13,14)                1.5372         estimate D2E/DX2                !
 ! R28   R(13,15)                1.5312         estimate D2E/DX2                !
 ! R29   R(13,36)                1.0991         estimate D2E/DX2                !
 ! R30   R(14,37)                1.0944         estimate D2E/DX2                !
 ! R31   R(14,38)                1.0977         estimate D2E/DX2                !
 ! R32   R(14,62)                1.5229         estimate D2E/DX2                !
 ! R33   R(15,39)                1.0953         estimate D2E/DX2                !
 ! R34   R(15,40)                1.0953         estimate D2E/DX2                !
 ! R35   R(15,41)                1.0941         estimate D2E/DX2                !
 ! R36   R(17,18)                1.5392         estimate D2E/DX2                !
 ! R37   R(17,20)                1.5354         estimate D2E/DX2                !
 ! R38   R(17,30)                1.097          estimate D2E/DX2                !
 ! R39   R(18,19)                1.4475         estimate D2E/DX2                !
 ! R40   R(18,28)                1.5368         estimate D2E/DX2                !
 ! R41   R(18,29)                1.5311         estimate D2E/DX2                !
 ! R42   R(20,42)                1.0971         estimate D2E/DX2                !
 ! R43   R(20,43)                1.0953         estimate D2E/DX2                !
 ! R44   R(21,44)                0.9812         estimate D2E/DX2                !
 ! R45   R(22,23)                1.5182         estimate D2E/DX2                !
 ! R46   R(22,45)                1.0953         estimate D2E/DX2                !
 ! R47   R(22,46)                1.0968         estimate D2E/DX2                !
 ! R48   R(23,24)                1.4344         estimate D2E/DX2                !
 ! R49   R(23,25)                1.5107         estimate D2E/DX2                !
 ! R50   R(23,47)                1.0975         estimate D2E/DX2                !
 ! R51   R(24,44)                1.8708         estimate D2E/DX2                !
 ! R52   R(25,26)                1.5072         estimate D2E/DX2                !
 ! R53   R(25,27)                1.3443         estimate D2E/DX2                !
 ! R54   R(26,48)                1.095          estimate D2E/DX2                !
 ! R55   R(26,49)                1.0947         estimate D2E/DX2                !
 ! R56   R(26,50)                1.0953         estimate D2E/DX2                !
 ! R57   R(27,51)                1.0847         estimate D2E/DX2                !
 ! R58   R(27,52)                1.0864         estimate D2E/DX2                !
 ! R59   R(28,53)                1.0965         estimate D2E/DX2                !
 ! R60   R(28,54)                1.0949         estimate D2E/DX2                !
 ! R61   R(28,55)                1.0939         estimate D2E/DX2                !
 ! R62   R(29,56)                1.0965         estimate D2E/DX2                !
 ! R63   R(29,57)                1.0947         estimate D2E/DX2                !
 ! R64   R(29,58)                1.0947         estimate D2E/DX2                !
 ! R65   R(32,59)                1.0951         estimate D2E/DX2                !
 ! R66   R(32,60)                1.0945         estimate D2E/DX2                !
 ! R67   R(32,61)                1.0948         estimate D2E/DX2                !
 ! R68   R(62,63)                1.0913         estimate D2E/DX2                !
 ! R69   R(62,64)                1.0949         estimate D2E/DX2                !
 ! R70   R(62,65)                1.0947         estimate D2E/DX2                !
 ! A1    A(2,1,6)              122.8639         estimate D2E/DX2                !
 ! A2    A(2,1,33)             120.2788         estimate D2E/DX2                !
 ! A3    A(6,1,33)             116.7473         estimate D2E/DX2                !
 ! A4    A(1,2,3)              121.3099         estimate D2E/DX2                !
 ! A5    A(1,2,32)             121.8497         estimate D2E/DX2                !
 ! A6    A(3,2,32)             116.8388         estimate D2E/DX2                !
 ! A7    A(2,3,4)              116.3603         estimate D2E/DX2                !
 ! A8    A(2,3,20)             112.9523         estimate D2E/DX2                !
 ! A9    A(2,3,31)             107.0883         estimate D2E/DX2                !
 ! A10   A(4,3,20)             104.708          estimate D2E/DX2                !
 ! A11   A(4,3,31)             107.6211         estimate D2E/DX2                !
 ! A12   A(20,3,31)            107.7382         estimate D2E/DX2                !
 ! A13   A(3,4,5)              117.7907         estimate D2E/DX2                !
 ! A14   A(3,4,7)              104.3065         estimate D2E/DX2                !
 ! A15   A(3,4,24)             106.2947         estimate D2E/DX2                !
 ! A16   A(5,4,7)              115.0766         estimate D2E/DX2                !
 ! A17   A(5,4,24)             105.6347         estimate D2E/DX2                !
 ! A18   A(7,4,24)             107.0193         estimate D2E/DX2                !
 ! A19   A(4,5,6)              114.6619         estimate D2E/DX2                !
 ! A20   A(4,5,10)             113.1339         estimate D2E/DX2                !
 ! A21   A(4,5,22)             103.3292         estimate D2E/DX2                !
 ! A22   A(6,5,10)             104.8428         estimate D2E/DX2                !
 ! A23   A(6,5,22)             111.8576         estimate D2E/DX2                !
 ! A24   A(10,5,22)            109.0973         estimate D2E/DX2                !
 ! A25   A(1,6,5)              115.259          estimate D2E/DX2                !
 ! A26   A(1,6,34)             106.8281         estimate D2E/DX2                !
 ! A27   A(1,6,35)             108.5355         estimate D2E/DX2                !
 ! A28   A(5,6,34)             111.2395         estimate D2E/DX2                !
 ! A29   A(5,6,35)             109.3682         estimate D2E/DX2                !
 ! A30   A(34,6,35)            105.0841         estimate D2E/DX2                !
 ! A31   A(4,7,8)              115.3616         estimate D2E/DX2                !
 ! A32   A(4,7,17)             107.9083         estimate D2E/DX2                !
 ! A33   A(4,7,21)             112.0016         estimate D2E/DX2                !
 ! A34   A(8,7,17)             100.429          estimate D2E/DX2                !
 ! A35   A(8,7,21)             108.6145         estimate D2E/DX2                !
 ! A36   A(17,7,21)            112.0185         estimate D2E/DX2                !
 ! A37   A(7,8,9)              122.9812         estimate D2E/DX2                !
 ! A38   A(7,8,19)             113.4653         estimate D2E/DX2                !
 ! A39   A(9,8,19)             123.2589         estimate D2E/DX2                !
 ! A40   A(8,9,10)             116.6136         estimate D2E/DX2                !
 ! A41   A(8,9,11)             122.1962         estimate D2E/DX2                !
 ! A42   A(10,9,11)            120.5948         estimate D2E/DX2                !
 ! A43   A(5,10,9)             118.1494         estimate D2E/DX2                !
 ! A44   A(5,10,16)            122.0558         estimate D2E/DX2                !
 ! A45   A(9,10,16)            119.5232         estimate D2E/DX2                !
 ! A46   A(9,11,12)            117.6136         estimate D2E/DX2                !
 ! A47   A(9,11,13)            121.5704         estimate D2E/DX2                !
 ! A48   A(12,11,13)           120.8139         estimate D2E/DX2                !
 ! A49   A(11,13,14)           117.5975         estimate D2E/DX2                !
 ! A50   A(11,13,15)           108.715          estimate D2E/DX2                !
 ! A51   A(11,13,36)           105.1465         estimate D2E/DX2                !
 ! A52   A(14,13,15)           110.2158         estimate D2E/DX2                !
 ! A53   A(14,13,36)           107.2085         estimate D2E/DX2                !
 ! A54   A(15,13,36)           107.404          estimate D2E/DX2                !
 ! A55   A(13,14,37)           111.6867         estimate D2E/DX2                !
 ! A56   A(13,14,38)           108.8495         estimate D2E/DX2                !
 ! A57   A(13,14,62)           113.3159         estimate D2E/DX2                !
 ! A58   A(37,14,38)           105.9732         estimate D2E/DX2                !
 ! A59   A(37,14,62)           109.4908         estimate D2E/DX2                !
 ! A60   A(38,14,62)           107.1594         estimate D2E/DX2                !
 ! A61   A(13,15,39)           111.3505         estimate D2E/DX2                !
 ! A62   A(13,15,40)           110.6841         estimate D2E/DX2                !
 ! A63   A(13,15,41)           111.6302         estimate D2E/DX2                !
 ! A64   A(39,15,40)           107.6201         estimate D2E/DX2                !
 ! A65   A(39,15,41)           107.5772         estimate D2E/DX2                !
 ! A66   A(40,15,41)           107.7982         estimate D2E/DX2                !
 ! A67   A(7,17,18)            103.2083         estimate D2E/DX2                !
 ! A68   A(7,17,20)            102.4448         estimate D2E/DX2                !
 ! A69   A(7,17,30)            112.7481         estimate D2E/DX2                !
 ! A70   A(18,17,20)           116.3142         estimate D2E/DX2                !
 ! A71   A(18,17,30)           111.6177         estimate D2E/DX2                !
 ! A72   A(20,17,30)           110.0252         estimate D2E/DX2                !
 ! A73   A(17,18,19)           106.1249         estimate D2E/DX2                !
 ! A74   A(17,18,28)           112.3754         estimate D2E/DX2                !
 ! A75   A(17,18,29)           113.5868         estimate D2E/DX2                !
 ! A76   A(19,18,28)           107.7394         estimate D2E/DX2                !
 ! A77   A(19,18,29)           108.1842         estimate D2E/DX2                !
 ! A78   A(28,18,29)           108.5741         estimate D2E/DX2                !
 ! A79   A(8,19,18)            106.5842         estimate D2E/DX2                !
 ! A80   A(3,20,17)            103.1365         estimate D2E/DX2                !
 ! A81   A(3,20,42)            110.468          estimate D2E/DX2                !
 ! A82   A(3,20,43)            112.0409         estimate D2E/DX2                !
 ! A83   A(17,20,42)           112.2149         estimate D2E/DX2                !
 ! A84   A(17,20,43)           111.2853         estimate D2E/DX2                !
 ! A85   A(42,20,43)           107.7323         estimate D2E/DX2                !
 ! A86   A(7,21,44)            105.7253         estimate D2E/DX2                !
 ! A87   A(5,22,23)            104.8901         estimate D2E/DX2                !
 ! A88   A(5,22,45)            113.9065         estimate D2E/DX2                !
 ! A89   A(5,22,46)            109.8173         estimate D2E/DX2                !
 ! A90   A(23,22,45)           111.4967         estimate D2E/DX2                !
 ! A91   A(23,22,46)           109.6415         estimate D2E/DX2                !
 ! A92   A(45,22,46)           107.0729         estimate D2E/DX2                !
 ! A93   A(22,23,24)           102.8917         estimate D2E/DX2                !
 ! A94   A(22,23,25)           118.6145         estimate D2E/DX2                !
 ! A95   A(22,23,47)           109.884          estimate D2E/DX2                !
 ! A96   A(24,23,25)           108.8845         estimate D2E/DX2                !
 ! A97   A(24,23,47)           108.2676         estimate D2E/DX2                !
 ! A98   A(25,23,47)           107.8556         estimate D2E/DX2                !
 ! A99   A(4,24,23)            106.9692         estimate D2E/DX2                !
 ! A100  A(23,25,26)           115.1131         estimate D2E/DX2                !
 ! A101  A(23,25,27)           124.8393         estimate D2E/DX2                !
 ! A102  A(26,25,27)           120.0205         estimate D2E/DX2                !
 ! A103  A(25,26,48)           110.2634         estimate D2E/DX2                !
 ! A104  A(25,26,49)           110.6312         estimate D2E/DX2                !
 ! A105  A(25,26,50)           112.1986         estimate D2E/DX2                !
 ! A106  A(48,26,49)           108.6065         estimate D2E/DX2                !
 ! A107  A(48,26,50)           107.4857         estimate D2E/DX2                !
 ! A108  A(49,26,50)           107.5167         estimate D2E/DX2                !
 ! A109  A(25,27,51)           122.6878         estimate D2E/DX2                !
 ! A110  A(25,27,52)           121.2843         estimate D2E/DX2                !
 ! A111  A(51,27,52)           116.0272         estimate D2E/DX2                !
 ! A112  A(18,28,53)           110.5796         estimate D2E/DX2                !
 ! A113  A(18,28,54)           111.3287         estimate D2E/DX2                !
 ! A114  A(18,28,55)           112.2414         estimate D2E/DX2                !
 ! A115  A(53,28,54)           108.3521         estimate D2E/DX2                !
 ! A116  A(53,28,55)           105.588          estimate D2E/DX2                !
 ! A117  A(54,28,55)           108.5155         estimate D2E/DX2                !
 ! A118  A(18,29,56)           110.688          estimate D2E/DX2                !
 ! A119  A(18,29,57)           111.4359         estimate D2E/DX2                !
 ! A120  A(18,29,58)           111.8321         estimate D2E/DX2                !
 ! A121  A(56,29,57)           108.3346         estimate D2E/DX2                !
 ! A122  A(56,29,58)           105.4228         estimate D2E/DX2                !
 ! A123  A(57,29,58)           108.8925         estimate D2E/DX2                !
 ! A124  A(2,32,59)            112.0723         estimate D2E/DX2                !
 ! A125  A(2,32,60)            110.4536         estimate D2E/DX2                !
 ! A126  A(2,32,61)            110.2639         estimate D2E/DX2                !
 ! A127  A(59,32,60)           107.679          estimate D2E/DX2                !
 ! A128  A(59,32,61)           107.6597         estimate D2E/DX2                !
 ! A129  A(60,32,61)           108.5883         estimate D2E/DX2                !
 ! A130  A(14,62,63)           112.038          estimate D2E/DX2                !
 ! A131  A(14,62,64)           109.9321         estimate D2E/DX2                !
 ! A132  A(14,62,65)           111.0055         estimate D2E/DX2                !
 ! A133  A(63,62,64)           107.539          estimate D2E/DX2                !
 ! A134  A(63,62,65)           108.34           estimate D2E/DX2                !
 ! A135  A(64,62,65)           107.8307         estimate D2E/DX2                !
 ! D1    D(6,1,2,3)              2.2986         estimate D2E/DX2                !
 ! D2    D(6,1,2,32)          -177.23           estimate D2E/DX2                !
 ! D3    D(33,1,2,3)           178.3598         estimate D2E/DX2                !
 ! D4    D(33,1,2,32)           -1.1689         estimate D2E/DX2                !
 ! D5    D(2,1,6,5)            -31.5902         estimate D2E/DX2                !
 ! D6    D(2,1,6,34)            92.548          estimate D2E/DX2                !
 ! D7    D(2,1,6,35)          -154.6118         estimate D2E/DX2                !
 ! D8    D(33,1,6,5)           152.2187         estimate D2E/DX2                !
 ! D9    D(33,1,6,34)          -83.6431         estimate D2E/DX2                !
 ! D10   D(33,1,6,35)           29.1971         estimate D2E/DX2                !
 ! D11   D(1,2,3,4)             21.7165         estimate D2E/DX2                !
 ! D12   D(1,2,3,20)           -99.4533         estimate D2E/DX2                !
 ! D13   D(1,2,3,31)           142.1005         estimate D2E/DX2                !
 ! D14   D(32,2,3,4)          -158.7322         estimate D2E/DX2                !
 ! D15   D(32,2,3,20)           80.098          estimate D2E/DX2                !
 ! D16   D(32,2,3,31)          -38.3482         estimate D2E/DX2                !
 ! D17   D(1,2,32,59)           -0.2248         estimate D2E/DX2                !
 ! D18   D(1,2,32,60)          119.8404         estimate D2E/DX2                !
 ! D19   D(1,2,32,61)         -120.1361         estimate D2E/DX2                !
 ! D20   D(3,2,32,59)         -179.7735         estimate D2E/DX2                !
 ! D21   D(3,2,32,60)          -59.7083         estimate D2E/DX2                !
 ! D22   D(3,2,32,61)           60.3153         estimate D2E/DX2                !
 ! D23   D(2,3,4,5)            -15.524          estimate D2E/DX2                !
 ! D24   D(2,3,4,7)           -144.4875         estimate D2E/DX2                !
 ! D25   D(2,3,4,24)           102.6047         estimate D2E/DX2                !
 ! D26   D(20,3,4,5)           109.9293         estimate D2E/DX2                !
 ! D27   D(20,3,4,7)           -19.0342         estimate D2E/DX2                !
 ! D28   D(20,3,4,24)         -131.9421         estimate D2E/DX2                !
 ! D29   D(31,3,4,5)          -135.6224         estimate D2E/DX2                !
 ! D30   D(31,3,4,7)            95.4141         estimate D2E/DX2                !
 ! D31   D(31,3,4,24)          -17.4937         estimate D2E/DX2                !
 ! D32   D(2,3,20,17)          165.3221         estimate D2E/DX2                !
 ! D33   D(2,3,20,42)           45.222          estimate D2E/DX2                !
 ! D34   D(2,3,20,43)          -74.8997         estimate D2E/DX2                !
 ! D35   D(4,3,20,17)           37.7551         estimate D2E/DX2                !
 ! D36   D(4,3,20,42)          -82.345          estimate D2E/DX2                !
 ! D37   D(4,3,20,43)          157.5333         estimate D2E/DX2                !
 ! D38   D(31,3,20,17)         -76.6109         estimate D2E/DX2                !
 ! D39   D(31,3,20,42)         163.2889         estimate D2E/DX2                !
 ! D40   D(31,3,20,43)          43.1673         estimate D2E/DX2                !
 ! D41   D(3,4,5,6)            -11.8347         estimate D2E/DX2                !
 ! D42   D(3,4,5,10)          -132.0128         estimate D2E/DX2                !
 ! D43   D(3,4,5,22)           110.1568         estimate D2E/DX2                !
 ! D44   D(7,4,5,6)            111.8771         estimate D2E/DX2                !
 ! D45   D(7,4,5,10)            -8.3011         estimate D2E/DX2                !
 ! D46   D(7,4,5,22)          -126.1315         estimate D2E/DX2                !
 ! D47   D(24,4,5,6)          -130.314          estimate D2E/DX2                !
 ! D48   D(24,4,5,10)          109.5079         estimate D2E/DX2                !
 ! D49   D(24,4,5,22)           -8.3225         estimate D2E/DX2                !
 ! D50   D(3,4,7,8)            104.3967         estimate D2E/DX2                !
 ! D51   D(3,4,7,17)            -6.931          estimate D2E/DX2                !
 ! D52   D(3,4,7,21)          -130.6772         estimate D2E/DX2                !
 ! D53   D(5,4,7,8)            -26.188          estimate D2E/DX2                !
 ! D54   D(5,4,7,17)          -137.5157         estimate D2E/DX2                !
 ! D55   D(5,4,7,21)            98.7381         estimate D2E/DX2                !
 ! D56   D(24,4,7,8)          -143.215          estimate D2E/DX2                !
 ! D57   D(24,4,7,17)          105.4573         estimate D2E/DX2                !
 ! D58   D(24,4,7,21)          -18.2889         estimate D2E/DX2                !
 ! D59   D(3,4,24,23)          -94.4519         estimate D2E/DX2                !
 ! D60   D(5,4,24,23)           31.4378         estimate D2E/DX2                !
 ! D61   D(7,4,24,23)          154.5264         estimate D2E/DX2                !
 ! D62   D(4,5,6,1)             34.4531         estimate D2E/DX2                !
 ! D63   D(4,5,6,34)           -87.3376         estimate D2E/DX2                !
 ! D64   D(4,5,6,35)           157.031          estimate D2E/DX2                !
 ! D65   D(10,5,6,1)           159.1278         estimate D2E/DX2                !
 ! D66   D(10,5,6,34)           37.3371         estimate D2E/DX2                !
 ! D67   D(10,5,6,35)          -78.2943         estimate D2E/DX2                !
 ! D68   D(22,5,6,1)           -82.7737         estimate D2E/DX2                !
 ! D69   D(22,5,6,34)          155.4356         estimate D2E/DX2                !
 ! D70   D(22,5,6,35)           39.8042         estimate D2E/DX2                !
 ! D71   D(4,5,10,9)            39.3031         estimate D2E/DX2                !
 ! D72   D(4,5,10,16)         -146.7163         estimate D2E/DX2                !
 ! D73   D(6,5,10,9)           -86.333          estimate D2E/DX2                !
 ! D74   D(6,5,10,16)           87.6476         estimate D2E/DX2                !
 ! D75   D(22,5,10,9)          153.7108         estimate D2E/DX2                !
 ! D76   D(22,5,10,16)         -32.3086         estimate D2E/DX2                !
 ! D77   D(4,5,22,23)          -15.8375         estimate D2E/DX2                !
 ! D78   D(4,5,22,45)         -138.0208         estimate D2E/DX2                !
 ! D79   D(4,5,22,46)          101.9068         estimate D2E/DX2                !
 ! D80   D(6,5,22,23)          108.0159         estimate D2E/DX2                !
 ! D81   D(6,5,22,45)          -14.1674         estimate D2E/DX2                !
 ! D82   D(6,5,22,46)         -134.2398         estimate D2E/DX2                !
 ! D83   D(10,5,22,23)        -136.455          estimate D2E/DX2                !
 ! D84   D(10,5,22,45)         101.3618         estimate D2E/DX2                !
 ! D85   D(10,5,22,46)         -18.7107         estimate D2E/DX2                !
 ! D86   D(4,7,8,9)             36.002          estimate D2E/DX2                !
 ! D87   D(4,7,8,19)          -137.944          estimate D2E/DX2                !
 ! D88   D(17,7,8,9)           151.6762         estimate D2E/DX2                !
 ! D89   D(17,7,8,19)          -22.2699         estimate D2E/DX2                !
 ! D90   D(21,7,8,9)           -90.6627         estimate D2E/DX2                !
 ! D91   D(21,7,8,19)           95.3912         estimate D2E/DX2                !
 ! D92   D(4,7,17,18)          151.1814         estimate D2E/DX2                !
 ! D93   D(4,7,17,20)           29.9772         estimate D2E/DX2                !
 ! D94   D(4,7,17,30)          -88.2379         estimate D2E/DX2                !
 ! D95   D(8,7,17,18)           30.0382         estimate D2E/DX2                !
 ! D96   D(8,7,17,20)          -91.166          estimate D2E/DX2                !
 ! D97   D(8,7,17,30)          150.6189         estimate D2E/DX2                !
 ! D98   D(21,7,17,18)         -85.0826         estimate D2E/DX2                !
 ! D99   D(21,7,17,20)         153.7132         estimate D2E/DX2                !
 ! D100  D(21,7,17,30)          35.498          estimate D2E/DX2                !
 ! D101  D(4,7,21,44)           19.4745         estimate D2E/DX2                !
 ! D102  D(8,7,21,44)          148.0517         estimate D2E/DX2                !
 ! D103  D(17,7,21,44)        -101.9345         estimate D2E/DX2                !
 ! D104  D(7,8,9,10)            -5.4716         estimate D2E/DX2                !
 ! D105  D(7,8,9,11)          -176.6662         estimate D2E/DX2                !
 ! D106  D(19,8,9,10)          167.8848         estimate D2E/DX2                !
 ! D107  D(19,8,9,11)           -3.3098         estimate D2E/DX2                !
 ! D108  D(7,8,19,18)            3.7787         estimate D2E/DX2                !
 ! D109  D(9,8,19,18)         -170.1481         estimate D2E/DX2                !
 ! D110  D(8,9,10,5)           -33.6295         estimate D2E/DX2                !
 ! D111  D(8,9,10,16)          152.2327         estimate D2E/DX2                !
 ! D112  D(11,9,10,5)          137.7152         estimate D2E/DX2                !
 ! D113  D(11,9,10,16)         -36.4226         estimate D2E/DX2                !
 ! D114  D(8,9,11,12)          111.6821         estimate D2E/DX2                !
 ! D115  D(8,9,11,13)          -67.7964         estimate D2E/DX2                !
 ! D116  D(10,9,11,12)         -59.1694         estimate D2E/DX2                !
 ! D117  D(10,9,11,13)         121.3521         estimate D2E/DX2                !
 ! D118  D(9,11,13,14)         -13.3411         estimate D2E/DX2                !
 ! D119  D(9,11,13,15)         112.7292         estimate D2E/DX2                !
 ! D120  D(9,11,13,36)        -132.5074         estimate D2E/DX2                !
 ! D121  D(12,11,13,14)        167.1969         estimate D2E/DX2                !
 ! D122  D(12,11,13,15)        -66.7328         estimate D2E/DX2                !
 ! D123  D(12,11,13,36)         48.0307         estimate D2E/DX2                !
 ! D124  D(11,13,14,37)         53.3339         estimate D2E/DX2                !
 ! D125  D(11,13,14,38)        169.9939         estimate D2E/DX2                !
 ! D126  D(11,13,14,62)        -70.888          estimate D2E/DX2                !
 ! D127  D(15,13,14,37)        -71.9982         estimate D2E/DX2                !
 ! D128  D(15,13,14,38)         44.6618         estimate D2E/DX2                !
 ! D129  D(15,13,14,62)        163.7799         estimate D2E/DX2                !
 ! D130  D(36,13,14,37)        171.4037         estimate D2E/DX2                !
 ! D131  D(36,13,14,38)        -71.9363         estimate D2E/DX2                !
 ! D132  D(36,13,14,62)         47.1818         estimate D2E/DX2                !
 ! D133  D(11,13,15,39)         49.4219         estimate D2E/DX2                !
 ! D134  D(11,13,15,40)        169.0907         estimate D2E/DX2                !
 ! D135  D(11,13,15,41)        -70.8306         estimate D2E/DX2                !
 ! D136  D(14,13,15,39)        179.661          estimate D2E/DX2                !
 ! D137  D(14,13,15,40)        -60.6701         estimate D2E/DX2                !
 ! D138  D(14,13,15,41)         59.4085         estimate D2E/DX2                !
 ! D139  D(36,13,15,39)        -63.8629         estimate D2E/DX2                !
 ! D140  D(36,13,15,40)         55.806          estimate D2E/DX2                !
 ! D141  D(36,13,15,41)        175.8846         estimate D2E/DX2                !
 ! D142  D(13,14,62,63)         65.2208         estimate D2E/DX2                !
 ! D143  D(13,14,62,64)       -175.2665         estimate D2E/DX2                !
 ! D144  D(13,14,62,65)        -56.048          estimate D2E/DX2                !
 ! D145  D(37,14,62,63)        -60.1874         estimate D2E/DX2                !
 ! D146  D(37,14,62,64)         59.3253         estimate D2E/DX2                !
 ! D147  D(37,14,62,65)        178.5439         estimate D2E/DX2                !
 ! D148  D(38,14,62,63)       -174.6942         estimate D2E/DX2                !
 ! D149  D(38,14,62,64)        -55.1815         estimate D2E/DX2                !
 ! D150  D(38,14,62,65)         64.0371         estimate D2E/DX2                !
 ! D151  D(7,17,18,19)         -29.9832         estimate D2E/DX2                !
 ! D152  D(7,17,18,28)          87.5335         estimate D2E/DX2                !
 ! D153  D(7,17,18,29)        -148.714          estimate D2E/DX2                !
 ! D154  D(20,17,18,19)         81.3021         estimate D2E/DX2                !
 ! D155  D(20,17,18,28)       -161.1812         estimate D2E/DX2                !
 ! D156  D(20,17,18,29)        -37.4286         estimate D2E/DX2                !
 ! D157  D(30,17,18,19)       -151.332          estimate D2E/DX2                !
 ! D158  D(30,17,18,28)        -33.8154         estimate D2E/DX2                !
 ! D159  D(30,17,18,29)         89.9372         estimate D2E/DX2                !
 ! D160  D(7,17,20,3)          -41.5458         estimate D2E/DX2                !
 ! D161  D(7,17,20,42)          77.3476         estimate D2E/DX2                !
 ! D162  D(7,17,20,43)        -161.8431         estimate D2E/DX2                !
 ! D163  D(18,17,20,3)        -153.2724         estimate D2E/DX2                !
 ! D164  D(18,17,20,42)        -34.3789         estimate D2E/DX2                !
 ! D165  D(18,17,20,43)         86.4303         estimate D2E/DX2                !
 ! D166  D(30,17,20,3)          78.5798         estimate D2E/DX2                !
 ! D167  D(30,17,20,42)       -162.5267         estimate D2E/DX2                !
 ! D168  D(30,17,20,43)        -41.7175         estimate D2E/DX2                !
 ! D169  D(17,18,19,8)          16.5559         estimate D2E/DX2                !
 ! D170  D(28,18,19,8)        -104.0101         estimate D2E/DX2                !
 ! D171  D(29,18,19,8)         138.7903         estimate D2E/DX2                !
 ! D172  D(17,18,28,53)       -177.8082         estimate D2E/DX2                !
 ! D173  D(17,18,28,54)         61.6843         estimate D2E/DX2                !
 ! D174  D(17,18,28,55)        -60.1853         estimate D2E/DX2                !
 ! D175  D(19,18,28,53)        -61.2548         estimate D2E/DX2                !
 ! D176  D(19,18,28,54)        178.2377         estimate D2E/DX2                !
 ! D177  D(19,18,28,55)         56.3682         estimate D2E/DX2                !
 ! D178  D(29,18,28,53)         55.6914         estimate D2E/DX2                !
 ! D179  D(29,18,28,54)        -64.8161         estimate D2E/DX2                !
 ! D180  D(29,18,28,55)        173.3143         estimate D2E/DX2                !
 ! D181  D(17,18,29,56)       -178.5134         estimate D2E/DX2                !
 ! D182  D(17,18,29,57)        -57.8829         estimate D2E/DX2                !
 ! D183  D(17,18,29,58)         64.2593         estimate D2E/DX2                !
 ! D184  D(19,18,29,56)         63.9445         estimate D2E/DX2                !
 ! D185  D(19,18,29,57)       -175.425          estimate D2E/DX2                !
 ! D186  D(19,18,29,58)        -53.2827         estimate D2E/DX2                !
 ! D187  D(28,18,29,56)        -52.7163         estimate D2E/DX2                !
 ! D188  D(28,18,29,57)         67.9142         estimate D2E/DX2                !
 ! D189  D(28,18,29,58)       -169.9435         estimate D2E/DX2                !
 ! D190  D(5,22,23,24)          34.8613         estimate D2E/DX2                !
 ! D191  D(5,22,23,25)         155.0659         estimate D2E/DX2                !
 ! D192  D(5,22,23,47)         -80.2721         estimate D2E/DX2                !
 ! D193  D(45,22,23,24)        158.5993         estimate D2E/DX2                !
 ! D194  D(45,22,23,25)        -81.196          estimate D2E/DX2                !
 ! D195  D(45,22,23,47)         43.466          estimate D2E/DX2                !
 ! D196  D(46,22,23,24)        -83.0025         estimate D2E/DX2                !
 ! D197  D(46,22,23,25)         37.2021         estimate D2E/DX2                !
 ! D198  D(46,22,23,47)        161.8641         estimate D2E/DX2                !
 ! D199  D(22,23,24,4)         -41.462          estimate D2E/DX2                !
 ! D200  D(25,23,24,4)        -168.1559         estimate D2E/DX2                !
 ! D201  D(47,23,24,4)          74.8321         estimate D2E/DX2                !
 ! D202  D(22,23,25,26)       -171.6682         estimate D2E/DX2                !
 ! D203  D(22,23,25,27)         10.2366         estimate D2E/DX2                !
 ! D204  D(24,23,25,26)        -54.5888         estimate D2E/DX2                !
 ! D205  D(24,23,25,27)        127.316          estimate D2E/DX2                !
 ! D206  D(47,23,25,26)         62.6852         estimate D2E/DX2                !
 ! D207  D(47,23,25,27)       -115.41           estimate D2E/DX2                !
 ! D208  D(23,25,26,48)        -55.0206         estimate D2E/DX2                !
 ! D209  D(23,25,26,49)         65.1398         estimate D2E/DX2                !
 ! D210  D(23,25,26,50)       -174.7947         estimate D2E/DX2                !
 ! D211  D(27,25,26,48)        123.1739         estimate D2E/DX2                !
 ! D212  D(27,25,26,49)       -116.6658         estimate D2E/DX2                !
 ! D213  D(27,25,26,50)          3.3998         estimate D2E/DX2                !
 ! D214  D(23,25,27,51)         -0.4364         estimate D2E/DX2                !
 ! D215  D(23,25,27,52)        179.2659         estimate D2E/DX2                !
 ! D216  D(26,25,27,51)       -178.4444         estimate D2E/DX2                !
 ! D217  D(26,25,27,52)          1.2579         estimate D2E/DX2                !
 --------------------------------------------------------------------------------
 Trust Radius=3.00D-01 FncErr=1.00D-07 GrdErr=1.00D-06
 Number of steps in this run=    390 maximum allowed number of steps=    390.
 GradGradGradGradGradGradGradGradGradGradGradGradGradGradGradGradGradGrad

 Stoichiometry    C26H34O5
 Framework group  C1[X(C26H34O5)]
 Deg. of freedom   189
 Full point group                 C1      NOp   1
 Largest Abelian subgroup         C1      NOp   1
 Largest concise Abelian subgroup C1      NOp   1
                         Standard orientation:                         
 ---------------------------------------------------------------------
 Center     Atomic      Atomic             Coordinates (Angstroms)
 Number     Number       Type             X           Y           Z
 ---------------------------------------------------------------------
      1          6           0       -2.089538    0.901424    2.670122
      2          6           0       -2.341105    1.826820    1.733911
      3          6           0       -1.732102    1.735863    0.361060
      4          6           0       -1.254342    0.323817   -0.091563
      5          6           0       -1.097366   -0.768020    0.995285
      6          6           0       -1.161155   -0.246234    2.446071
      7          6           0        0.012573    0.600107   -0.929193
      8          6           0        1.304450    0.288886   -0.254364
      9          6           0        1.460418   -0.746082    0.575895
     10          6           0        0.241458   -1.522082    0.905985
     11          6           0        2.729290   -0.997235    1.292086
     12          8           0        2.733776   -0.848368    2.518392
     13          6           0        4.001250   -1.415568    0.547680
     14          6           0        3.854331   -1.870387   -0.913282
     15          6           0        5.024936   -0.281342    0.648342
     16          8           0        0.342202   -2.711768    1.204344
     17          6           0        0.144062    2.102608   -1.094558
     18          6           0        1.663186    2.309892   -1.230158
     19          8           0        2.283528    1.248335   -0.466358
     20          6           0       -0.503358    2.634969    0.191825
     21          8           0       -0.019219   -0.072380   -2.179589
     22          6           0       -2.249483   -1.746494    0.685556
     23          6           0       -3.178919   -0.975935   -0.234869
     24          8           0       -2.272952   -0.178576   -1.010017
     25          6           0       -4.073856   -1.750909   -1.173263
     26          6           0       -4.816987   -0.915682   -2.184043
     27          6           0       -4.262410   -3.081302   -1.131078
     28          6           0        2.143487    2.182663   -2.684443
     29          6           0        2.151130    3.649009   -0.670783
     30          1           0       -0.395422    2.481697   -1.971327
     31          1           0       -2.496517    2.074367   -0.354953
     32          6           0       -3.232041    3.006227    2.004047
     33          1           0       -2.517670    0.997851    3.665950
     34          1           0       -0.170826    0.072477    2.798187
     35          1           0       -1.452143   -1.066424    3.115572
     36          1           0        4.398833   -2.268584    1.115376
     37          1           0        3.322969   -1.127796   -1.516530
     38          1           0        4.853563   -1.962131   -1.358357
     39          1           0        5.139890    0.061477    1.682232
     40          1           0        6.007785   -0.615055    0.298458
     41          1           0        4.730590    0.582321    0.044676
     42          1           0        0.161642    2.543168    1.059589
     43          1           0       -0.777235    3.690738    0.091631
     44          1           0       -0.962170   -0.291038   -2.340036
     45          1           0       -2.775420   -2.108779    1.575340
     46          1           0       -1.858630   -2.627202    0.161639
     47          1           0       -3.812998   -0.301385    0.354475
     48          1           0       -5.394592   -0.134284   -1.679190
     49          1           0       -4.118302   -0.439463   -2.879364
     50          1           0       -5.518328   -1.511621   -2.777896
     51          1           0       -3.769442   -3.720128   -0.406214
     52          1           0       -4.930151   -3.578874   -1.828839
     53          1           0        3.232553    2.296624   -2.742045
     54          1           0        1.683034    2.942856   -3.323847
     55          1           0        1.928355    1.196826   -3.106783
     56          1           0        3.232561    3.758193   -0.815228
     57          1           0        1.651712    4.492160   -1.158596
     58          1           0        1.993095    3.720561    0.410111
     59          1           0       -3.628761    2.997041    3.024752
     60          1           0       -2.679403    3.941550    1.870626
     61          1           0       -4.084061    3.003168    1.316517
     62          6           0        3.172258   -3.224338   -1.057377
     63          1           0        2.134018   -3.197572   -0.722162
     64          1           0        3.171902   -3.532149   -2.108071
     65          1           0        3.699887   -3.992589   -0.483213
 ---------------------------------------------------------------------
 Rotational constants (GHZ):      0.2152643      0.1306498      0.1143378
 Standard basis: 6-31G(d) (6D, 7F)
 There are   533 symmetry adapted basis functions of A   symmetry.
 Integral buffers will be    131072 words long.
 Raffenetti 2 integral format.
 Two-electron integral symmetry is turned on.
   533 basis functions,  1004 primitive gaussians,   533 cartesian basis functions
   115 alpha electrons      115 beta electrons
       nuclear repulsion energy      3537.1796199788 Hartrees.
 NAtoms=   65 NActive=   65 NUniq=   65 SFac= 1.00D+00 NAtFMM=   50 NAOKFM=T Big=T
 One-electron integrals computed using PRISM.
 NBasis=   533 RedAO= T  NBF=   533
 NBsUse=   533 1.00D-06 NBFU=   533
 Harris functional with IExCor=  402 diagonalized for initial guess.
 ExpMin= 1.61D-01 ExpMax= 5.48D+03 ExpMxC= 8.25D+02 IAcc=1 IRadAn=         1 AccDes= 0.00D+00
 HarFok:  IExCor=  402 AccDes= 0.00D+00 IRadAn=         1 IDoV= 1
 ScaDFX=  1.000000  1.000000  1.000000  1.000000
 FoFCou: FMM=F IPFlag=           0 FMFlag=      100000 FMFlg1=        2001
         NFxFlg=           0 DoJE=T BraDBF=F KetDBF=T FulRan=T
         Omega=  0.000000  0.000000  1.000000  0.000000  0.000000 ICntrl=     500 IOpCl=  0
         NMat0=    1 NMatS0=    1 NMatT0=    0 NMatD0=    1 NMtDS0=    0 NMtDT0=    0
         I1Cent=           4 NGrid=           0.
 Petite list used in FoFCou.
 Initial guess orbital symmetries:
       Occupied  (A) (A) (A) (A) (A) (A) (A) (A) (A) (A) (A) (A)
                 (A) (A) (A) (A) (A) (A) (A) (A) (A) (A) (A) (A)
                 (A) (A) (A) (A) (A) (A) (A) (A) (A) (A) (A) (A)
                 (A) (A) (A) (A) (A) (A) (A) (A) (A) (A) (A) (A)
                 (A) (A) (A) (A) (A) (A) (A) (A) (A) (A) (A) (A)
                 (A) (A) (A) (A) (A) (A) (A) (A) (A) (A) (A) (A)
                 (A) (A) (A) (A) (A) (A) (A) (A) (A) (A) (A) (A)
                 (A) (A) (A) (A) (A) (A) (A) (A) (A) (A) (A) (A)
                 (A) (A) (A) (A) (A) (A) (A) (A) (A) (A) (A) (A)
                 (A) (A) (A) (A) (A) (A) (A)
       Virtual   (A) (A) (A) (A) (A) (A) (A) (A) (A) (A) (A) (A)
                 (A) (A) (A) (A) (A) (A) (A) (A) (A) (A) (A) (A)
                 (A) (A) (A) (A) (A) (A) (A) (A) (A) (A) (A) (A)
                 (A) (A) (A) (A) (A) (A) (A) (A) (A) (A) (A) (A)
                 (A) (A) (A) (A) (A) (A) (A) (A) (A) (A) (A) (A)
                 (A) (A) (A) (A) (A) (A) (A) (A) (A) (A) (A) (A)
                 (A) (A) (A) (A) (A) (A) (A) (A) (A) (A) (A) (A)
                 (A) (A) (A) (A) (A) (A) (A) (A) (A) (A) (A) (A)
                 (A) (A) (A) (A) (A) (A) (A) (A) (A) (A) (A) (A)
                 (A) (A) (A) (A) (A) (A) (A) (A) (A) (A) (A) (A)
                 (A) (A) (A) (A) (A) (A) (A) (A) (A) (A) (A) (A)
                 (A) (A) (A) (A) (A) (A) (A) (A) (A) (A) (A) (A)
                 (A) (A) (A) (A) (A) (A) (A) (A) (A) (A) (A) (A)
                 (A) (A) (A) (A) (A) (A) (A) (A) (A) (A) (A) (A)
                 (A) (A) (A) (A) (A) (A) (A) (A) (A) (A) (A) (A)
                 (A) (A) (A) (A) (A) (A) (A) (A) (A) (A) (A) (A)
                 (A) (A) (A) (A) (A) (A) (A) (A) (A) (A) (A) (A)
                 (A) (A) (A) (A) (A) (A) (A) (A) (A) (A) (A) (A)
                 (A) (A) (A) (A) (A) (A) (A) (A) (A) (A) (A) (A)
                 (A) (A) (A) (A) (A) (A) (A) (A) (A) (A) (A) (A)
                 (A) (A) (A) (A) (A) (A) (A) (A) (A) (A) (A) (A)
                 (A) (A) (A) (A) (A) (A) (A) (A) (A) (A) (A) (A)
                 (A) (A) (A) (A) (A) (A) (A) (A) (A) (A) (A) (A)
                 (A) (A) (A) (A) (A) (A) (A) (A) (A) (A) (A) (A)
                 (A) (A) (A) (A) (A) (A) (A) (A) (A) (A) (A) (A)
                 (A) (A) (A) (A) (A) (A) (A) (A) (A) (A) (A) (A)
                 (A) (A) (A) (A) (A) (A) (A) (A) (A) (A) (A) (A)
                 (A) (A) (A) (A) (A) (A) (A) (A) (A) (A) (A) (A)
                 (A) (A) (A) (A) (A) (A) (A) (A) (A) (A) (A) (A)
                 (A) (A) (A) (A) (A) (A) (A) (A) (A) (A) (A) (A)
                 (A) (A) (A) (A) (A) (A) (A) (A) (A) (A) (A) (A)
                 (A) (A) (A) (A) (A) (A) (A) (A) (A) (A) (A) (A)
                 (A) (A) (A) (A) (A) (A) (A) (A) (A) (A) (A) (A)
                 (A) (A) (A) (A) (A) (A) (A) (A) (A) (A) (A) (A)
                 (A) (A) (A) (A) (A) (A) (A) (A) (A) (A)
 The electronic state of the initial guess is 1-A.
 Requested convergence on RMS density matrix=1.00D-08 within 128 cycles.
 Requested convergence on MAX density matrix=1.00D-06.
 Requested convergence on             energy=1.00D-06.
 No special actions if energy rises.
 Integral accuracy reduced to 1.0D-05 until final iterations.
 Initial convergence to 1.0D-05 achieved.  Increase integral accuracy.
 SCF Done:  E(RB3LYP) =  -1387.29963196     A.U. after   16 cycles
             Convg  =    0.4182D-08             -V/T =  2.0091

 **********************************************************************

            Population analysis using the SCF density.

 **********************************************************************

 Orbital symmetries:
       Occupied  (A) (A) (A) (A) (A) (A) (A) (A) (A) (A) (A) (A)
                 (A) (A) (A) (A) (A) (A) (A) (A) (A) (A) (A) (A)
                 (A) (A) (A) (A) (A) (A) (A) (A) (A) (A) (A) (A)
                 (A) (A) (A) (A) (A) (A) (A) (A) (A) (A) (A) (A)
                 (A) (A) (A) (A) (A) (A) (A) (A) (A) (A) (A) (A)
                 (A) (A) (A) (A) (A) (A) (A) (A) (A) (A) (A) (A)
                 (A) (A) (A) (A) (A) (A) (A) (A) (A) (A) (A) (A)
                 (A) (A) (A) (A) (A) (A) (A) (A) (A) (A) (A) (A)
                 (A) (A) (A) (A) (A) (A) (A) (A) (A) (A) (A) (A)
                 (A) (A) (A) (A) (A) (A) (A)
       Virtual   (A) (A) (A) (A) (A) (A) (A) (A) (A) (A) (A) (A)
                 (A) (A) (A) (A) (A) (A) (A) (A) (A) (A) (A) (A)
                 (A) (A) (A) (A) (A) (A) (A) (A) (A) (A) (A) (A)
                 (A) (A) (A) (A) (A) (A) (A) (A) (A) (A) (A) (A)
                 (A) (A) (A) (A) (A) (A) (A) (A) (A) (A) (A) (A)
                 (A) (A) (A) (A) (A) (A) (A) (A) (A) (A) (A) (A)
                 (A) (A) (A) (A) (A) (A) (A) (A) (A) (A) (A) (A)
                 (A) (A) (A) (A) (A) (A) (A) (A) (A) (A) (A) (A)
                 (A) (A) (A) (A) (A) (A) (A) (A) (A) (A) (A) (A)
                 (A) (A) (A) (A) (A) (A) (A) (A) (A) (A) (A) (A)
                 (A) (A) (A) (A) (A) (A) (A) (A) (A) (A) (A) (A)
                 (A) (A) (A) (A) (A) (A) (A) (A) (A) (A) (A) (A)
                 (A) (A) (A) (A) (A) (A) (A) (A) (A) (A) (A) (A)
                 (A) (A) (A) (A) (A) (A) (A) (A) (A) (A) (A) (A)
                 (A) (A) (A) (A) (A) (A) (A) (A) (A) (A) (A) (A)
                 (A) (A) (A) (A) (A) (A) (A) (A) (A) (A) (A) (A)
                 (A) (A) (A) (A) (A) (A) (A) (A) (A) (A) (A) (A)
                 (A) (A) (A) (A) (A) (A) (A) (A) (A) (A) (A) (A)
                 (A) (A) (A) (A) (A) (A) (A) (A) (A) (A) (A) (A)
                 (A) (A) (A) (A) (A) (A) (A) (A) (A) (A) (A) (A)
                 (A) (A) (A) (A) (A) (A) (A) (A) (A) (A) (A) (A)
                 (A) (A) (A) (A) (A) (A) (A) (A) (A) (A) (A) (A)
                 (A) (A) (A) (A) (A) (A) (A) (A) (A) (A) (A) (A)
                 (A) (A) (A) (A) (A) (A) (A) (A) (A) (A) (A) (A)
                 (A) (A) (A) (A) (A) (A) (A) (A) (A) (A) (A) (A)
                 (A) (A) (A) (A) (A) (A) (A) (A) (A) (A) (A) (A)
                 (A) (A) (A) (A) (A) (A) (A) (A) (A) (A) (A) (A)
                 (A) (A) (A) (A) (A) (A) (A) (A) (A) (A) (A) (A)
                 (A) (A) (A) (A) (A) (A) (A) (A) (A) (A) (A) (A)
                 (A) (A) (A) (A) (A) (A) (A) (A) (A) (A) (A) (A)
                 (A) (A) (A) (A) (A) (A) (A) (A) (A) (A) (A) (A)
                 (A) (A) (A) (A) (A) (A) (A) (A) (A) (A) (A) (A)
                 (A) (A) (A) (A) (A) (A) (A) (A) (A) (A) (A) (A)
                 (A) (A) (A) (A) (A) (A) (A) (A) (A) (A) (A) (A)
                 (A) (A) (A) (A) (A) (A) (A) (A) (A) (A)
 The electronic state is 1-A.
 Alpha  occ. eigenvalues --  -19.19801 -19.17003 -19.14741 -19.13546 -19.13200
 Alpha  occ. eigenvalues --  -10.27703 -10.27169 -10.26642 -10.26349 -10.26173
 Alpha  occ. eigenvalues --  -10.25758 -10.24730 -10.21760 -10.20430 -10.20358
 Alpha  occ. eigenvalues --  -10.20074 -10.19931 -10.19641 -10.19556 -10.19283
 Alpha  occ. eigenvalues --  -10.18913 -10.18831 -10.18726 -10.18655 -10.18647
 Alpha  occ. eigenvalues --  -10.18459 -10.18367 -10.17914 -10.17143 -10.16684
 Alpha  occ. eigenvalues --  -10.15701  -1.08753  -1.06334  -1.03333  -1.02103
 Alpha  occ. eigenvalues --   -1.02016  -0.87671  -0.84070  -0.82657  -0.81581
 Alpha  occ. eigenvalues --   -0.80473  -0.79812  -0.77083  -0.74324  -0.73587
 Alpha  occ. eigenvalues --   -0.72434  -0.71946  -0.69834  -0.69071  -0.68259
 Alpha  occ. eigenvalues --   -0.65203  -0.64029  -0.63618  -0.61742  -0.61213
 Alpha  occ. eigenvalues --   -0.59368  -0.59292  -0.57267  -0.55650  -0.54264
 Alpha  occ. eigenvalues --   -0.53033  -0.51898  -0.51059  -0.50540  -0.49582
 Alpha  occ. eigenvalues --   -0.48175  -0.47377  -0.46728  -0.46525  -0.45839
 Alpha  occ. eigenvalues --   -0.45108  -0.44693  -0.44156  -0.43821  -0.43246
 Alpha  occ. eigenvalues --   -0.42842  -0.42522  -0.42131  -0.41833  -0.41552
 Alpha  occ. eigenvalues --   -0.40835  -0.40753  -0.40528  -0.40252  -0.39743
 Alpha  occ. eigenvalues --   -0.39677  -0.39161  -0.38854  -0.38753  -0.38200
 Alpha  occ. eigenvalues --   -0.37978  -0.37720  -0.37014  -0.36722  -0.36281
 Alpha  occ. eigenvalues --   -0.35625  -0.35365  -0.35117  -0.34380  -0.34036
 Alpha  occ. eigenvalues --   -0.33918  -0.33114  -0.32955  -0.32772  -0.32301
 Alpha  occ. eigenvalues --   -0.31775  -0.31655  -0.31171  -0.27948  -0.27131
 Alpha  occ. eigenvalues --   -0.25737  -0.24934  -0.24522  -0.23688  -0.23194
 Alpha virt. eigenvalues --   -0.04816  -0.02458   0.00780   0.01579   0.03535
 Alpha virt. eigenvalues --    0.06535   0.07960   0.08866   0.09246   0.10222
 Alpha virt. eigenvalues --    0.10975   0.11291   0.11480   0.11876   0.12272
 Alpha virt. eigenvalues --    0.12716   0.13004   0.13066   0.13627   0.13716
 Alpha virt. eigenvalues --    0.14391   0.14442   0.14883   0.15396   0.15492
 Alpha virt. eigenvalues --    0.15700   0.16240   0.16578   0.16799   0.17601
 Alpha virt. eigenvalues --    0.17881   0.18282   0.18428   0.18695   0.18931
 Alpha virt. eigenvalues --    0.19237   0.19423   0.19739   0.20212   0.20505
 Alpha virt. eigenvalues --    0.20911   0.21088   0.21353   0.21664   0.21864
 Alpha virt. eigenvalues --    0.23154   0.23749   0.23985   0.24355   0.24844
 Alpha virt. eigenvalues --    0.25028   0.25558   0.25854   0.26563   0.26789
 Alpha virt. eigenvalues --    0.27415   0.27761   0.27835   0.28662   0.30090
 Alpha virt. eigenvalues --    0.31161   0.31893   0.32532   0.34100   0.34622
 Alpha virt. eigenvalues --    0.35020   0.35898   0.37277   0.38941   0.40419
 Alpha virt. eigenvalues --    0.41840   0.44781   0.46550   0.47965   0.48726
 Alpha virt. eigenvalues --    0.49515   0.49828   0.50495   0.51477   0.51718
 Alpha virt. eigenvalues --    0.51990   0.52263   0.52636   0.53211   0.53858
 Alpha virt. eigenvalues --    0.54089   0.54322   0.54741   0.55413   0.56418
 Alpha virt. eigenvalues --    0.56658   0.57215   0.57849   0.58531   0.58966
 Alpha virt. eigenvalues --    0.59466   0.60539   0.60769   0.61408   0.61754
 Alpha virt. eigenvalues --    0.62164   0.62669   0.63765   0.64271   0.65083
 Alpha virt. eigenvalues --    0.65230   0.65848   0.66114   0.66991   0.67125
 Alpha virt. eigenvalues --    0.67874   0.68066   0.68798   0.69127   0.69819
 Alpha virt. eigenvalues --    0.70018   0.71569   0.71965   0.72541   0.73201
 Alpha virt. eigenvalues --    0.74189   0.74956   0.75359   0.75777   0.76520
 Alpha virt. eigenvalues --    0.76792   0.77171   0.78279   0.78591   0.79300
 Alpha virt. eigenvalues --    0.79959   0.80296   0.81044   0.81373   0.82797
 Alpha virt. eigenvalues --    0.83199   0.83628   0.83921   0.84248   0.84828
 Alpha virt. eigenvalues --    0.85412   0.85536   0.85943   0.86429   0.86586
 Alpha virt. eigenvalues --    0.87300   0.88362   0.88599   0.88889   0.89167
 Alpha virt. eigenvalues --    0.89661   0.89831   0.90134   0.90499   0.90799
 Alpha virt. eigenvalues --    0.91142   0.91258   0.91935   0.92528   0.92817
 Alpha virt. eigenvalues --    0.93359   0.93489   0.93758   0.94282   0.94751
 Alpha virt. eigenvalues --    0.95351   0.95877   0.96076   0.96471   0.96918
 Alpha virt. eigenvalues --    0.97554   0.97915   0.99054   0.99087   1.00418
 Alpha virt. eigenvalues --    1.01221   1.01623   1.02043   1.02547   1.03442
 Alpha virt. eigenvalues --    1.04031   1.04843   1.05915   1.06465   1.07853
 Alpha virt. eigenvalues --    1.08486   1.10005   1.10456   1.11343   1.13009
 Alpha virt. eigenvalues --    1.14344   1.15019   1.15858   1.16271   1.16818
 Alpha virt. eigenvalues --    1.17092   1.17532   1.19305   1.20996   1.21508
 Alpha virt. eigenvalues --    1.23126   1.23403   1.23929   1.25487   1.26854
 Alpha virt. eigenvalues --    1.27000   1.29146   1.31018   1.31453   1.33089
 Alpha virt. eigenvalues --    1.33647   1.34856   1.38199   1.39155   1.40938
 Alpha virt. eigenvalues --    1.41624   1.42713   1.44769   1.45160   1.46218
 Alpha virt. eigenvalues --    1.48604   1.49509   1.50177   1.51043   1.51333
 Alpha virt. eigenvalues --    1.52754   1.54113   1.55789   1.56481   1.58457
 Alpha virt. eigenvalues --    1.60301   1.60669   1.61960   1.63534   1.64793
 Alpha virt. eigenvalues --    1.65552   1.66143   1.67801   1.69819   1.70552
 Alpha virt. eigenvalues --    1.71066   1.71948   1.72240   1.73153   1.74057
 Alpha virt. eigenvalues --    1.75554   1.76158   1.76384   1.77009   1.78584
 Alpha virt. eigenvalues --    1.79074   1.80178   1.80441   1.81021   1.82449
 Alpha virt. eigenvalues --    1.82793   1.83577   1.84434   1.84854   1.86048
 Alpha virt. eigenvalues --    1.86871   1.87317   1.87482   1.87902   1.89099
 Alpha virt. eigenvalues --    1.89541   1.90234   1.90655   1.91695   1.92204
 Alpha virt. eigenvalues --    1.92397   1.92685   1.93851   1.94267   1.95258
 Alpha virt. eigenvalues --    1.96394   1.96974   1.97218   1.97535   1.98409
 Alpha virt. eigenvalues --    1.99350   1.99838   2.00223   2.01365   2.02123
 Alpha virt. eigenvalues --    2.02802   2.03353   2.04067   2.04613   2.05415
 Alpha virt. eigenvalues --    2.06041   2.06914   2.08157   2.08291   2.09505
 Alpha virt. eigenvalues --    2.10068   2.10586   2.11960   2.12409   2.14411
 Alpha virt. eigenvalues --    2.14514   2.15446   2.16285   2.17419   2.17966
 Alpha virt. eigenvalues --    2.18547   2.18893   2.20411   2.21772   2.23081
 Alpha virt. eigenvalues --    2.23551   2.24755   2.25824   2.26063   2.27436
 Alpha virt. eigenvalues --    2.28084   2.28460   2.28917   2.30787   2.31651
 Alpha virt. eigenvalues --    2.32810   2.33001   2.33712   2.33808   2.34556
 Alpha virt. eigenvalues --    2.36286   2.37057   2.38195   2.38786   2.39233
 Alpha virt. eigenvalues --    2.41217   2.41761   2.42625   2.43181   2.45159
 Alpha virt. eigenvalues --    2.45733   2.46469   2.47576   2.48184   2.48803
 Alpha virt. eigenvalues --    2.49726   2.51062   2.51462   2.52830   2.53846
 Alpha virt. eigenvalues --    2.55695   2.57099   2.58057   2.59349   2.61765
 Alpha virt. eigenvalues --    2.61914   2.62758   2.64007   2.65095   2.66328
 Alpha virt. eigenvalues --    2.66815   2.68430   2.69493   2.70222   2.71279
 Alpha virt. eigenvalues --    2.72238   2.73984   2.74068   2.76622   2.78662
 Alpha virt. eigenvalues --    2.79135   2.80504   2.81493   2.83504   2.87432
 Alpha virt. eigenvalues --    2.89399   2.91897   2.93140   2.94452   2.96128
 Alpha virt. eigenvalues --    2.97638   2.99263   3.00103   3.01198   3.03363
 Alpha virt. eigenvalues --    3.05172   3.07799   3.12302   3.16477   3.22731
 Alpha virt. eigenvalues --    3.23533   3.28393   3.99816   4.08679   4.10472
 Alpha virt. eigenvalues --    4.13507   4.16538   4.18074   4.18366   4.20633
 Alpha virt. eigenvalues --    4.22150   4.23372   4.25045   4.27247   4.28241
 Alpha virt. eigenvalues --    4.31674   4.33535   4.36344   4.38887   4.42674
 Alpha virt. eigenvalues --    4.46209   4.50265   4.51922   4.55319   4.60889
 Alpha virt. eigenvalues --    4.65509   4.66891   4.71131   4.74430   4.77419
 Alpha virt. eigenvalues --    4.89699   4.95605   5.27274
          Condensed to atoms (all electrons):
 Mulliken atomic charges:
              1
     1  C   -0.195297
     2  C    0.194157
     3  C   -0.191489
     4  C    0.317904
     5  C   -0.032049
     6  C   -0.331647
     7  C    0.201182
     8  C    0.412208
     9  C   -0.093643
    10  C    0.408115
    11  C    0.421549
    12  O   -0.463405
    13  C   -0.143245
    14  C   -0.269562
    15  C   -0.461937
    16  O   -0.486482
    17  C   -0.152193
    18  C    0.304671
    19  O   -0.540649
    20  C   -0.307711
    21  O   -0.672211
    22  C   -0.313027
    23  C    0.098929
    24  O   -0.584832
    25  C    0.188408
    26  C   -0.504567
    27  C   -0.395039
    28  C   -0.461313
    29  C   -0.464580
    30  H    0.146171
    31  H    0.148970
    32  C   -0.519291
    33  H    0.126359
    34  H    0.184142
    35  H    0.164538
    36  H    0.159669
    37  H    0.149738
    38  H    0.130504
    39  H    0.161749
    40  H    0.141625
    41  H    0.159418
    42  H    0.164400
    43  H    0.149405
    44  H    0.419321
    45  H    0.151903
    46  H    0.177579
    47  H    0.137006
    48  H    0.149964
    49  H    0.166277
    50  H    0.153369
    51  H    0.149786
    52  H    0.141205
    53  H    0.149655
    54  H    0.141566
    55  H    0.186127
    56  H    0.158140
    57  H    0.150526
    58  H    0.159447
    59  H    0.158497
    60  H    0.156444
    61  H    0.153027
    62  C   -0.457593
    63  H    0.171837
    64  H    0.136811
    65  H    0.139466
 Sum of Mulliken atomic charges =   0.00000
 Mulliken charges with hydrogens summed into heavy atoms:
              1
     1  C   -0.068939
     2  C    0.194157
     3  C   -0.042519
     4  C    0.317904
     5  C   -0.032049
     6  C    0.017032
     7  C    0.201182
     8  C    0.412208
     9  C   -0.093643
    10  C    0.408115
    11  C    0.421549
    12  O   -0.463405
    13  C    0.016425
    14  C    0.010679
    15  C    0.000854
    16  O   -0.486482
    17  C   -0.006023
    18  C    0.304671
    19  O   -0.540649
    20  C    0.006094
    21  O   -0.252890
    22  C    0.016455
    23  C    0.235935
    24  O   -0.584832
    25  C    0.188408
    26  C   -0.034958
    27  C   -0.104047
    28  C    0.016036
    29  C    0.003533
    32  C   -0.051323
    62  C   -0.009478
 Sum of Mulliken charges with hydrogens summed into heavy atoms =   0.00000
 Electronic spatial extent (au):  <R**2>=          11215.7191
 Charge=              0.0000 electrons
 Dipole moment (field-independent basis, Debye):
    X=             -3.2940    Y=              4.3832    Z=             -2.1523  Tot=              5.8903
 Quadrupole moment (field-independent basis, Debye-Ang):
   XX=           -176.3940   YY=           -181.6462   ZZ=           -190.3413
   XY=              2.5424   XZ=             -7.7305   YZ=              2.3329
 Traceless Quadrupole moment (field-independent basis, Debye-Ang):
   XX=              6.3998   YY=              1.1476   ZZ=             -7.5475
   XY=              2.5424   XZ=             -7.7305   YZ=              2.3329
 Octapole moment (field-independent basis, Debye-Ang**2):
  XXX=              2.8833  YYY=             41.1614  ZZZ=            -16.4774  XYY=             -4.2101
  XXY=            -13.8709  XXZ=            -27.7348  XZZ=            -36.5381  YZZ=             12.7019
  YYZ=            -21.4222  XYZ=             -4.2133
 Hexadecapole moment (field-independent basis, Debye-Ang**3):
 XXXX=          -8157.0124 YYYY=          -4183.2217 ZZZZ=          -2589.1347 XXXY=            -26.2474
 XXXZ=             48.8702 YYYX=             53.9060 YYYZ=            -12.8246 ZZZX=            -55.8801
 ZZZY=              1.3374 XXYY=          -1999.0364 XXZZ=          -1819.8080 YYZZ=          -1126.2368
 XXYZ=             35.5648 YYXZ=              9.3445 ZZXY=             39.5869
 N-N= 3.537179619979D+03 E-N=-1.030057524445D+04  KE= 1.374821372018D+03
 Calling FoFJK, ICntrl=      2127 FMM=T ISym2X=0 I1Cent= 0 IOpClX= 0 NMat=1 NMatS=1 NMatT=0.
 ***** Axes restored to original set *****
 -------------------------------------------------------------------
 Center     Atomic                   Forces (Hartrees/Bohr)
 Number     Number              X              Y              Z
 -------------------------------------------------------------------
      1        6           0.009505235    0.000161523    0.000849603
      2        6          -0.009653343   -0.006483244    0.003503613
      3        6          -0.006587257   -0.009863048   -0.003151479
      4        6           0.010889032   -0.007938394    0.012674830
      5        6          -0.008184039    0.005387398    0.006693615
      6        6          -0.008707752   -0.008588982   -0.006155672
      7        6           0.021229402    0.013607316    0.010745101
      8        6          -0.005146567   -0.002627609   -0.023507826
      9        6           0.007093290   -0.003623363    0.007040049
     10        6          -0.018687088    0.016364500   -0.003299693
     11        6          -0.024580611   -0.010990697   -0.009948413
     12        8           0.010869394    0.016793834    0.006471372
     13        6           0.002562066    0.004347323   -0.003769445
     14        6          -0.002171412    0.001011604    0.004495717
     15        6           0.000520194   -0.002908130   -0.011841023
     16        8           0.011217080   -0.010587502    0.000557899
     17        6           0.003448486   -0.006416375   -0.011515349
     18        6           0.030860982    0.004579641   -0.012958666
     19        8          -0.011638883   -0.007169368    0.032518974
     20        6           0.009722804   -0.001620143   -0.005499533
     21        8          -0.003930580    0.004832890    0.005028042
     22        6          -0.005827778    0.000160750    0.011375171
     23        6          -0.004682780    0.003452464    0.007436152
     24        8           0.000641312    0.002793238   -0.011704391
     25        6          -0.002655341    0.006424997    0.013194810
     26        6           0.001145016    0.001420360    0.001095518
     27        6           0.001302101   -0.004188005   -0.010594534
     28        6          -0.001949604    0.008498596    0.001420948
     29        6          -0.008261880   -0.000752923   -0.007773917
     30        1          -0.002999706    0.001867150    0.000065187
     31        1          -0.001720228    0.005938925    0.000593306
     32        6          -0.002422821   -0.000316138    0.000036382
     33        1           0.000649066   -0.000720062    0.000012158
     34        1          -0.001714715    0.005132213   -0.001227776
     35        1           0.000485685    0.005235469   -0.000618160
     36        1          -0.001008557   -0.002860153   -0.000140452
     37        1           0.001153627   -0.002050972   -0.001738363
     38        1           0.000212117   -0.002184558   -0.004016609
     39        1          -0.000684237   -0.000061048    0.001023943
     40        1          -0.000335117    0.000904499    0.000960964
     41        1           0.000392042   -0.000058286    0.001493559
     42        1           0.000311548    0.001017221    0.000732396
     43        1          -0.002056706   -0.001490236   -0.001506510
     44        1          -0.003022867    0.000815025   -0.003710284
     45        1          -0.000095123    0.000599788   -0.003044273
     46        1           0.000200377   -0.002139588   -0.001830983
     47        1           0.001434721   -0.003286963   -0.000684828
     48        1           0.003381602   -0.001209868   -0.001933454
     49        1           0.002362286   -0.002344011   -0.001791665
     50        1          -0.002071725    0.000246168   -0.000606418
     51        1          -0.000944405    0.000840820   -0.000769986
     52        1           0.000640025   -0.001307070    0.000095804
     53        1           0.000716696   -0.003328692   -0.002171731
     54        1           0.000080125   -0.000768956   -0.000313631
     55        1           0.000333411   -0.004693781    0.003632941
     56        1           0.001912720    0.001571465    0.001838502
     57        1          -0.000130457    0.000794240    0.001299284
     58        1           0.001232920   -0.001842658    0.002722619
     59        1          -0.000635306    0.000961344   -0.000306464
     60        1           0.004030925   -0.001625528   -0.000059314
     61        1           0.004286680   -0.001202931    0.000120562
     62        6           0.002082018    0.002273445    0.005180537
     63        1          -0.002357889   -0.001867162    0.001155198
     64        1          -0.000502216    0.001050589    0.001593317
     65        1          -0.001537996    0.000031650    0.000532765
 -------------------------------------------------------------------
 Cartesian Forces:  Max     0.032518974 RMS     0.006800877

 GradGradGradGradGradGradGradGradGradGradGradGradGradGradGradGradGradGrad
 Berny optimization.
 Internal  Forces:  Max     0.020765702 RMS     0.003473079
 Search for a local minimum.
 Step number   1 out of a maximum of  390
 All quantities printed in internal units (Hartrees-Bohrs-Radians)
 Mixed Optimization -- RFO/linear search
 Second derivative matrix not updated -- first step.
 ITU=  0
     Eigenvalues ---    0.00274   0.00279   0.00343   0.00353   0.00355
     Eigenvalues ---    0.00463   0.00475   0.00552   0.00588   0.00615
     Eigenvalues ---    0.00625   0.00671   0.00732   0.00737   0.00891
     Eigenvalues ---    0.01050   0.01167   0.01253   0.01303   0.01450
     Eigenvalues ---    0.01511   0.01713   0.01738   0.01834   0.02085
     Eigenvalues ---    0.02625   0.02825   0.02825   0.03104   0.03205
     Eigenvalues ---    0.03399   0.03421   0.03705   0.03787   0.04076
     Eigenvalues ---    0.04252   0.04294   0.04378   0.04489   0.04660
     Eigenvalues ---    0.04773   0.04821   0.04975   0.05146   0.05279
     Eigenvalues ---    0.05320   0.05338   0.05410   0.05428   0.05463
     Eigenvalues ---    0.05472   0.05504   0.05520   0.05570   0.05647
     Eigenvalues ---    0.05704   0.05865   0.05868   0.05939   0.06150
     Eigenvalues ---    0.06561   0.06793   0.07094   0.07111   0.07148
     Eigenvalues ---    0.07183   0.07256   0.07311   0.07430   0.08030
     Eigenvalues ---    0.08346   0.08481   0.08946   0.09427   0.09432
     Eigenvalues ---    0.09972   0.10244   0.11437   0.11913   0.12318
     Eigenvalues ---    0.12562   0.13286   0.14553   0.15424   0.15903
     Eigenvalues ---    0.15967   0.16000   0.16000   0.16000   0.16000
     Eigenvalues ---    0.16000   0.16000   0.16000   0.16000   0.16000
     Eigenvalues ---    0.16000   0.16000   0.16000   0.16000   0.16000
     Eigenvalues ---    0.16000   0.16000   0.16000   0.16000   0.16000
     Eigenvalues ---    0.16000   0.16585   0.16843   0.18115   0.19061
     Eigenvalues ---    0.19807   0.20990   0.21901   0.22392   0.22564
     Eigenvalues ---    0.23414   0.24635   0.24860   0.24984   0.24992
     Eigenvalues ---    0.24999   0.24999   0.25000   0.26135   0.26718
     Eigenvalues ---    0.26937   0.27117   0.27409   0.27741   0.28401
     Eigenvalues ---    0.28772   0.28802   0.28919   0.29239   0.29314
     Eigenvalues ---    0.29323   0.30091   0.30226   0.30842   0.31285
     Eigenvalues ---    0.31638   0.31867   0.32108   0.33002   0.33602
     Eigenvalues ---    0.33784   0.33868   0.33904   0.33936   0.33966
     Eigenvalues ---    0.34003   0.34013   0.34042   0.34069   0.34074
     Eigenvalues ---    0.34202   0.34207   0.34207   0.34208   0.34213
     Eigenvalues ---    0.34227   0.34238   0.34255   0.34258   0.34261
     Eigenvalues ---    0.34272   0.34272   0.34280   0.34280   0.34292
     Eigenvalues ---    0.34310   0.34348   0.34370   0.34658   0.34739
     Eigenvalues ---    0.34993   0.35017   0.35229   0.35434   0.36666
     Eigenvalues ---    0.37135   0.41107   0.44438   0.50138   0.53538
     Eigenvalues ---    0.54405   0.56241   0.88906   0.90813
 RFO step:  Lambda=-2.18413158D-02 EMin= 2.74420815D-03
 Linear search not attempted -- first point.
 Iteration  1 RMS(Cart)=  0.05748410 RMS(Int)=  0.00081302
 Iteration  2 RMS(Cart)=  0.00148186 RMS(Int)=  0.00023681
 Iteration  3 RMS(Cart)=  0.00000086 RMS(Int)=  0.00023681
 Variable       Old X    -DE/DX   Delta X   Delta X   Delta X     New X
                                 (Linear)    (Quad)   (Total)
    R1        2.53261  -0.00151   0.00000  -0.00340  -0.00347   2.52914
    R2        2.82147   0.00869   0.00000   0.02506   0.02494   2.84641
    R3        2.05648   0.00029   0.00000   0.00079   0.00079   2.05727
    R4        2.84332   0.00536   0.00000   0.01365   0.01368   2.85700
    R5        2.83946   0.00464   0.00000   0.01352   0.01352   2.85298
    R6        2.94397   0.00645   0.00000   0.01660   0.01654   2.96051
    R7        2.89495   0.01055   0.00000   0.03564   0.03561   2.93056
    R8        2.08006  -0.00186   0.00000  -0.00519  -0.00519   2.07487
    R9        2.92633   0.01328   0.00000   0.04152   0.04151   2.96783
   R10        2.91719   0.00810   0.00000   0.03176   0.03201   2.94920
   R11        2.76024  -0.00628   0.00000  -0.01742  -0.01745   2.74279
   R12        2.91601   0.00566   0.00000   0.02081   0.02077   2.93678
   R13        2.90860   0.00454   0.00000   0.00751   0.00717   2.91578
   R14        2.91577   0.00623   0.00000   0.02075   0.02074   2.93651
   R15        2.07553   0.00245   0.00000   0.00678   0.00678   2.08231
   R16        2.07493  -0.00164   0.00000  -0.00454  -0.00454   2.07039
   R17        2.81639   0.01153   0.00000   0.02676   0.02646   2.84284
   R18        2.86725   0.01518   0.00000   0.05317   0.05264   2.91989
   R19        2.68364   0.00258   0.00000   0.00658   0.00659   2.69023
   R20        2.52462   0.01331   0.00000   0.02342   0.02352   2.54813
   R21        2.62126  -0.01691   0.00000  -0.03951  -0.03922   2.58204
   R22        2.80100   0.00168   0.00000   0.00063   0.00076   2.80176
   R23        2.79401   0.01675   0.00000   0.04536   0.04536   2.83938
   R24        2.32561  -0.01323   0.00000  -0.01423  -0.01423   2.31138
   R25        2.33441  -0.02077   0.00000  -0.02280  -0.02280   2.31161
   R26        2.89506  -0.00043   0.00000  -0.00135  -0.00135   2.89371
   R27        2.90481   0.00110   0.00000   0.00356   0.00356   2.90837
   R28        2.89352   0.00784   0.00000   0.02491   0.02491   2.91843
   R29        2.07697   0.00023   0.00000   0.00065   0.00065   2.07762
   R30        2.06810   0.00129   0.00000   0.00354   0.00354   2.07164
   R31        2.07438   0.00037   0.00000   0.00102   0.00102   2.07540
   R32        2.87783   0.00866   0.00000   0.02684   0.02684   2.90467
   R33        2.06981  -0.00020   0.00000  -0.00054  -0.00054   2.06927
   R34        2.06990   0.00042   0.00000   0.00116   0.00116   2.07106
   R35        2.06747   0.00034   0.00000   0.00093   0.00093   2.06840
   R36        2.90864  -0.00009   0.00000   0.01110   0.01130   2.91994
   R37        2.90142   0.00576   0.00000   0.01893   0.01894   2.92036
[...]
     55          1           0        1.672520    1.362693   -3.145595
     56          1           0        3.312739    3.683998   -0.722744
     57          1           0        1.817936    4.558580   -1.100135
     58          1           0        1.996263    3.731404    0.462059
     59          1           0       -3.651092    2.865336    3.175126
     60          1           0       -2.814923    3.900996    2.005200
     61          1           0       -4.160893    2.898321    1.474367
     62          6           0        3.354838   -3.182713   -1.095291
     63          1           0        2.346559   -3.257590   -0.673211
     64          1           0        3.293538   -3.435264   -2.159996
     65          1           0        3.972868   -3.946076   -0.606214
 ---------------------------------------------------------------------
 Rotational constants (GHZ):      0.2101323      0.1312948      0.1143322

 **********************************************************************

            Population analysis using the SCF density.

 **********************************************************************

 Orbital symmetries:
       Occupied  (A) (A) (A) (A) (A) (A) (A) (A) (A) (A) (A) (A)
                 (A) (A) (A) (A) (A) (A) (A) (A) (A) (A) (A) (A)
                 (A) (A) (A) (A) (A) (A) (A) (A) (A) (A) (A) (A)
                 (A) (A) (A) (A) (A) (A) (A) (A) (A) (A) (A) (A)
                 (A) (A) (A) (A) (A) (A) (A) (A) (A) (A) (A) (A)
                 (A) (A) (A) (A) (A) (A) (A) (A) (A) (A) (A) (A)
                 (A) (A) (A) (A) (A) (A) (A) (A) (A) (A) (A) (A)
                 (A) (A) (A) (A) (A) (A) (A) (A) (A) (A) (A) (A)
                 (A) (A) (A) (A) (A) (A) (A) (A) (A) (A) (A) (A)
                 (A) (A) (A) (A) (A) (A) (A)
       Virtual   (A) (A) (A) (A) (A) (A) (A) (A) (A) (A) (A) (A)
                 (A) (A) (A) (A) (A) (A) (A) (A) (A) (A) (A) (A)
                 (A) (A) (A) (A) (A) (A) (A) (A) (A) (A) (A) (A)
                 (A) (A) (A) (A) (A) (A) (A) (A) (A) (A) (A) (A)
                 (A) (A) (A) (A) (A) (A) (A) (A) (A) (A) (A) (A)
                 (A) (A) (A) (A) (A) (A) (A) (A) (A) (A) (A) (A)
                 (A) (A) (A) (A) (A) (A) (A) (A) (A) (A) (A) (A)
                 (A) (A) (A) (A) (A) (A) (A) (A) (A) (A) (A) (A)
                 (A) (A) (A) (A) (A) (A) (A) (A) (A) (A) (A) (A)
                 (A) (A) (A) (A) (A) (A) (A) (A) (A) (A) (A) (A)
                 (A) (A) (A) (A) (A) (A) (A) (A) (A) (A) (A) (A)
                 (A) (A) (A) (A) (A) (A) (A) (A) (A) (A) (A) (A)
                 (A) (A) (A) (A) (A) (A) (A) (A) (A) (A) (A) (A)
                 (A) (A) (A) (A) (A) (A) (A) (A) (A) (A) (A) (A)
                 (A) (A) (A) (A) (A) (A) (A) (A) (A) (A) (A) (A)
                 (A) (A) (A) (A) (A) (A) (A) (A) (A) (A) (A) (A)
                 (A) (A) (A) (A) (A) (A) (A) (A) (A) (A) (A) (A)
                 (A) (A) (A) (A) (A) (A) (A) (A) (A) (A) (A) (A)
                 (A) (A) (A) (A) (A) (A) (A) (A) (A) (A) (A) (A)
                 (A) (A) (A) (A) (A) (A) (A) (A) (A) (A) (A) (A)
                 (A) (A) (A) (A) (A) (A) (A) (A) (A) (A) (A) (A)
                 (A) (A) (A) (A) (A) (A) (A) (A) (A) (A) (A) (A)
                 (A) (A) (A) (A) (A) (A) (A) (A) (A) (A) (A) (A)
                 (A) (A) (A) (A) (A) (A) (A) (A) (A) (A) (A) (A)
                 (A) (A) (A) (A) (A) (A) (A) (A) (A) (A) (A) (A)
                 (A) (A) (A) (A) (A) (A) (A) (A) (A) (A) (A) (A)
                 (A) (A) (A) (A) (A) (A) (A) (A) (A) (A) (A) (A)
                 (A) (A) (A) (A) (A) (A) (A) (A) (A) (A) (A) (A)
                 (A) (A) (A) (A) (A) (A) (A) (A) (A) (A) (A) (A)
                 (A) (A) (A) (A) (A) (A) (A) (A) (A) (A) (A) (A)
                 (A) (A) (A) (A) (A) (A) (A) (A) (A) (A) (A) (A)
                 (A) (A) (A) (A) (A) (A) (A) (A) (A) (A) (A) (A)
                 (A) (A) (A) (A) (A) (A) (A) (A) (A) (A) (A) (A)
                 (A) (A) (A) (A) (A) (A) (A) (A) (A) (A) (A) (A)
                 (A) (A) (A) (A) (A) (A) (A) (A) (A) (A)
 The electronic state is 1-A.
 Alpha  occ. eigenvalues --  -19.19690 -19.17028 -19.15042 -19.13273 -19.12699
 Alpha  occ. eigenvalues --  -10.27124 -10.26828 -10.26698 -10.26685 -10.26164
 Alpha  occ. eigenvalues --  -10.26000 -10.24848 -10.21308 -10.20605 -10.20509
 Alpha  occ. eigenvalues --  -10.20318 -10.20259 -10.19826 -10.19380 -10.19325
 Alpha  occ. eigenvalues --  -10.19084 -10.18969 -10.18734 -10.18552 -10.18435
 Alpha  occ. eigenvalues --  -10.18407 -10.18319 -10.18195 -10.17109 -10.16884
 Alpha  occ. eigenvalues --  -10.15756  -1.08996  -1.06417  -1.03535  -1.02327
 Alpha  occ. eigenvalues --   -1.02219  -0.86903  -0.83786  -0.82112  -0.81307
 Alpha  occ. eigenvalues --   -0.80095  -0.79475  -0.76715  -0.73979  -0.73007
 Alpha  occ. eigenvalues --   -0.72006  -0.71594  -0.70291  -0.69110  -0.68198
 Alpha  occ. eigenvalues --   -0.64852  -0.63937  -0.63472  -0.61581  -0.60706
 Alpha  occ. eigenvalues --   -0.59057  -0.59015  -0.56794  -0.55521  -0.53886
 Alpha  occ. eigenvalues --   -0.52869  -0.51814  -0.51057  -0.49900  -0.49442
 Alpha  occ. eigenvalues --   -0.47956  -0.47080  -0.46722  -0.46366  -0.45871
 Alpha  occ. eigenvalues --   -0.44945  -0.44493  -0.44244  -0.43520  -0.42969
 Alpha  occ. eigenvalues --   -0.42713  -0.42275  -0.41921  -0.41729  -0.41305
 Alpha  occ. eigenvalues --   -0.41011  -0.40561  -0.40497  -0.40169  -0.39702
 Alpha  occ. eigenvalues --   -0.39506  -0.39118  -0.38964  -0.38586  -0.38172
 Alpha  occ. eigenvalues --   -0.37974  -0.37634  -0.37338  -0.36999  -0.36279
 Alpha  occ. eigenvalues --   -0.35638  -0.35389  -0.35288  -0.34484  -0.34122
 Alpha  occ. eigenvalues --   -0.33652  -0.33133  -0.33000  -0.32780  -0.32326
 Alpha  occ. eigenvalues --   -0.31450  -0.31250  -0.31138  -0.28073  -0.27357
 Alpha  occ. eigenvalues --   -0.25781  -0.24582  -0.24305  -0.23389  -0.22769
 Alpha virt. eigenvalues --   -0.04019  -0.01825   0.01036   0.01256   0.04538
 Alpha virt. eigenvalues --    0.07015   0.07831   0.08769   0.09216   0.10041
 Alpha virt. eigenvalues --    0.10664   0.11291   0.11479   0.11874   0.12387
 Alpha virt. eigenvalues --    0.12822   0.12967   0.13409   0.13632   0.13961
 Alpha virt. eigenvalues --    0.14265   0.14624   0.14978   0.15188   0.15690
 Alpha virt. eigenvalues --    0.15725   0.16305   0.16562   0.16730   0.17207
 Alpha virt. eigenvalues --    0.17931   0.18225   0.18477   0.18712   0.19061
 Alpha virt. eigenvalues --    0.19185   0.19684   0.19774   0.19939   0.20568
 Alpha virt. eigenvalues --    0.20826   0.21076   0.21356   0.21722   0.22170
 Alpha virt. eigenvalues --    0.22651   0.23505   0.23779   0.23936   0.24467
 Alpha virt. eigenvalues --    0.24675   0.25078   0.25657   0.26122   0.26533
 Alpha virt. eigenvalues --    0.27171   0.27758   0.28158   0.28772   0.30116
 Alpha virt. eigenvalues --    0.30220   0.31591   0.32400   0.34021   0.34403
 Alpha virt. eigenvalues --    0.34868   0.35814   0.37766   0.39131   0.39556
 Alpha virt. eigenvalues --    0.42299   0.44912   0.46340   0.47362   0.48408
 Alpha virt. eigenvalues --    0.49508   0.49756   0.50106   0.50848   0.51117
 Alpha virt. eigenvalues --    0.51577   0.51835   0.52300   0.52513   0.53503
 Alpha virt. eigenvalues --    0.53729   0.53901   0.54279   0.55110   0.55564
 Alpha virt. eigenvalues --    0.56719   0.57117   0.57922   0.58190   0.59057
 Alpha virt. eigenvalues --    0.59606   0.60177   0.60420   0.61150   0.61530
 Alpha virt. eigenvalues --    0.62063   0.62453   0.63786   0.64066   0.64354
 Alpha virt. eigenvalues --    0.65191   0.65997   0.66307   0.67225   0.67514
 Alpha virt. eigenvalues --    0.68069   0.68089   0.69066   0.69732   0.70162
 Alpha virt. eigenvalues --    0.70529   0.71033   0.71815   0.72255   0.73066
 Alpha virt. eigenvalues --    0.73597   0.74315   0.74732   0.75813   0.76185
 Alpha virt. eigenvalues --    0.76648   0.77516   0.77743   0.78136   0.78694
 Alpha virt. eigenvalues --    0.79481   0.79766   0.80999   0.81439   0.82025
 Alpha virt. eigenvalues --    0.83231   0.83487   0.83875   0.84174   0.84892
 Alpha virt. eigenvalues --    0.85126   0.85482   0.86184   0.86514   0.86546
 Alpha virt. eigenvalues --    0.87019   0.87978   0.88146   0.88546   0.89265
 Alpha virt. eigenvalues --    0.89336   0.89803   0.90195   0.90692   0.90720
 Alpha virt. eigenvalues --    0.91268   0.91392   0.91910   0.92619   0.92868
 Alpha virt. eigenvalues --    0.93287   0.93682   0.94089   0.94185   0.94748
 Alpha virt. eigenvalues --    0.94925   0.95511   0.95666   0.96599   0.97152
 Alpha virt. eigenvalues --    0.97241   0.97594   0.98570   0.98962   0.99823
 Alpha virt. eigenvalues --    0.99970   1.00794   1.01595   1.01987   1.03496
 Alpha virt. eigenvalues --    1.04073   1.04898   1.07032   1.07148   1.08040
 Alpha virt. eigenvalues --    1.09224   1.10650   1.11044   1.12805   1.13529
 Alpha virt. eigenvalues --    1.13928   1.14446   1.15414   1.16190   1.16320
 Alpha virt. eigenvalues --    1.17114   1.17928   1.19599   1.20009   1.21401
 Alpha virt. eigenvalues --    1.22514   1.24178   1.24886   1.25417   1.27079
 Alpha virt. eigenvalues --    1.28334   1.29338   1.31506   1.32024   1.33059
 Alpha virt. eigenvalues --    1.34474   1.35992   1.37976   1.38985   1.40266
 Alpha virt. eigenvalues --    1.41581   1.43674   1.44630   1.45438   1.46281
 Alpha virt. eigenvalues --    1.46920   1.49129   1.50133   1.51663   1.52543
 Alpha virt. eigenvalues --    1.53601   1.54431   1.55259   1.56857   1.58101
 Alpha virt. eigenvalues --    1.59739   1.60652   1.61269   1.62015   1.64746
 Alpha virt. eigenvalues --    1.65304   1.66485   1.67581   1.68178   1.69783
 Alpha virt. eigenvalues --    1.69976   1.71349   1.71656   1.72811   1.74137
 Alpha virt. eigenvalues --    1.74725   1.75174   1.75960   1.76589   1.78224
 Alpha virt. eigenvalues --    1.78650   1.79353   1.80652   1.80977   1.82234
 Alpha virt. eigenvalues --    1.82252   1.83262   1.84014   1.84662   1.85828
 Alpha virt. eigenvalues --    1.85955   1.86449   1.86784   1.87413   1.87917
 Alpha virt. eigenvalues --    1.88989   1.89602   1.89997   1.90502   1.91359
 Alpha virt. eigenvalues --    1.92172   1.92648   1.93159   1.93596   1.94638
 Alpha virt. eigenvalues --    1.95695   1.96066   1.96807   1.97649   1.97883
 Alpha virt. eigenvalues --    1.98125   1.98760   1.99281   2.00167   2.00947
 Alpha virt. eigenvalues --    2.01913   2.03066   2.03266   2.03763   2.04644
 Alpha virt. eigenvalues --    2.05498   2.06645   2.07309   2.07538   2.08770
 Alpha virt. eigenvalues --    2.09648   2.10431   2.10996   2.11650   2.12523
 Alpha virt. eigenvalues --    2.14048   2.14986   2.15882   2.16413   2.17063
 Alpha virt. eigenvalues --    2.18496   2.18791   2.20064   2.20565   2.22075
 Alpha virt. eigenvalues --    2.23522   2.24121   2.25207   2.25943   2.27125
 Alpha virt. eigenvalues --    2.27725   2.28006   2.29155   2.29746   2.32237
 Alpha virt. eigenvalues --    2.32444   2.32981   2.33181   2.33910   2.34356
 Alpha virt. eigenvalues --    2.35283   2.36465   2.38097   2.38701   2.39223
 Alpha virt. eigenvalues --    2.40630   2.41359   2.42173   2.42970   2.44958
 Alpha virt. eigenvalues --    2.45287   2.46110   2.46822   2.48456   2.49327
 Alpha virt. eigenvalues --    2.49827   2.50782   2.51534   2.52581   2.53641
 Alpha virt. eigenvalues --    2.55613   2.56197   2.57167   2.58263   2.59816
 Alpha virt. eigenvalues --    2.61568   2.63016   2.63439   2.65286   2.65793
 Alpha virt. eigenvalues --    2.66701   2.67735   2.68882   2.69875   2.71261
 Alpha virt. eigenvalues --    2.71771   2.73481   2.74828   2.76437   2.76764
 Alpha virt. eigenvalues --    2.78148   2.78288   2.79656   2.80913   2.86512
 Alpha virt. eigenvalues --    2.89216   2.89647   2.92356   2.94999   2.97076
 Alpha virt. eigenvalues --    2.97956   2.99221   2.99751   3.00353   3.02662
 Alpha virt. eigenvalues --    3.05117   3.06909   3.10981   3.13731   3.21709
 Alpha virt. eigenvalues --    3.23714   3.26913   4.00494   4.07464   4.10628
 Alpha virt. eigenvalues --    4.11941   4.13595   4.16093   4.17424   4.20216
 Alpha virt. eigenvalues --    4.23102   4.23573   4.25453   4.27893   4.28408
 Alpha virt. eigenvalues --    4.31701   4.32408   4.36141   4.38438   4.41951
 Alpha virt. eigenvalues --    4.46184   4.50628   4.52017   4.55804   4.60031
 Alpha virt. eigenvalues --    4.65348   4.66770   4.69448   4.73377   4.76569
 Alpha virt. eigenvalues --    4.88538   4.95158   5.24594
          Condensed to atoms (all electrons):
 Mulliken atomic charges:
              1
     1  C   -0.193723
     2  C    0.197493
     3  C   -0.196915
     4  C    0.312642
     5  C   -0.027286
     6  C   -0.330715
     7  C    0.198866
     8  C    0.412476
     9  C   -0.103460
    10  C    0.407276
    11  C    0.421047
    12  O   -0.453660
    13  C   -0.142935
    14  C   -0.268101
    15  C   -0.470139
    16  O   -0.474165
    17  C   -0.155935
    18  C    0.299259
    19  O   -0.542432
    20  C   -0.308777
    21  O   -0.670071
    22  C   -0.333019
    23  C    0.102987
    24  O   -0.585154
    25  C    0.188118
    26  C   -0.505841
    27  C   -0.393835
    28  C   -0.467667
    29  C   -0.462081
    30  H    0.147356
    31  H    0.146456
    32  C   -0.521009
    33  H    0.125720
    34  H    0.178436
    35  H    0.165945
    36  H    0.153094
    37  H    0.147890
    38  H    0.127436
    39  H    0.156994
    40  H    0.143524
    41  H    0.164398
    42  H    0.162449
    43  H    0.150869
    44  H    0.422250
    45  H    0.150397
    46  H    0.187229
    47  H    0.136445
    48  H    0.151077
    49  H    0.168199
    50  H    0.153895
    51  H    0.153241
    52  H    0.139116
    53  H    0.156179
    54  H    0.144729
    55  H    0.196155
    56  H    0.163314
    57  H    0.151704
    58  H    0.162127
    59  H    0.158685
    60  H    0.155105
    61  H    0.153779
    62  C   -0.461357
    63  H    0.175877
    64  H    0.138566
    65  H    0.139476
 Sum of Mulliken atomic charges =   0.00000
 Mulliken charges with hydrogens summed into heavy atoms:
              1
     1  C   -0.068003
     2  C    0.197493
     3  C   -0.050459
     4  C    0.312642
     5  C   -0.027286
     6  C    0.013666
     7  C    0.198866
     8  C    0.412476
     9  C   -0.103460
    10  C    0.407276
    11  C    0.421047
    12  O   -0.453660
    13  C    0.010159
    14  C    0.007226
    15  C   -0.005222
    16  O   -0.474165
    17  C   -0.008580
    18  C    0.299259
    19  O   -0.542432
    20  C    0.004541
    21  O   -0.247821
    22  C    0.004607
    23  C    0.239431
    24  O   -0.585154
    25  C    0.188118
    26  C   -0.032670
    27  C   -0.101478
    28  C    0.029397
    29  C    0.015064
    32  C   -0.053440
    62  C   -0.007438
 Sum of Mulliken charges with hydrogens summed into heavy atoms =   0.00000
 Electronic spatial extent (au):  <R**2>=          11250.1491
 Charge=              0.0000 electrons
 Dipole moment (field-independent basis, Debye):
    X=             -2.9788    Y=              5.3849    Z=             -1.9890  Tot=              6.4673
 Quadrupole moment (field-independent basis, Debye-Ang):
   XX=           -175.4449   YY=           -182.3367   ZZ=           -189.4235
   XY=              5.3921   XZ=             -6.9997   YZ=              3.3807
 Traceless Quadrupole moment (field-independent basis, Debye-Ang):
   XX=              6.9568   YY=              0.0650   ZZ=             -7.0218
   XY=              5.3921   XZ=             -6.9997   YZ=              3.3807
 Octapole moment (field-independent basis, Debye-Ang**2):
  XXX=              4.8167  YYY=             48.6428  ZZZ=            -16.3675  XYY=             -7.6057
  XXY=             -5.5389  XXZ=            -24.4539  XZZ=            -32.5981  YZZ=             15.1523
  YYZ=            -25.7818  XYZ=             -1.9356
 Hexadecapole moment (field-independent basis, Debye-Ang**3):
 XXXX=          -8067.9684 YYYY=          -4246.4692 ZZZZ=          -2652.4560 XXXY=             -9.7329
 XXXZ=             53.7141 YYYX=             66.0337 YYYZ=            -21.8864 ZZZX=            -48.0795
 ZZZY=              8.1898 XXYY=          -2006.6644 XXZZ=          -1804.7123 YYZZ=          -1152.3760
 XXYZ=             40.2015 YYXZ=             -9.0497 ZZXY=             58.5819
 N-N= 3.527089645800D+03 E-N=-1.028032417368D+04  KE= 1.374456617079D+03
 1\1\GINC-B0801\FOpt\RB3LYP\6-31G(d)\C26H34O5\CAOFEI\24-Mar-2021\0\\# o
 pt rb3lyp/6-31g(d) geom=connectivity\\Title Card Required\\0,1\C,-0.03
 88455847,0.0304085743,-0.1196386049\C,1.2959659294,-0.0348455987,-0.04
 65504806\C,2.1202238337,1.2316066791,-0.0363003461\C,1.4216457001,2.50
 87417324,0.5350947513\C,-0.1426374949,2.4680687188,0.650891827\C,-0.79
 41714887,1.3297509273,-0.1915903163\C,1.9826642028,3.6834833346,-0.332
 213482\C,1.0040630438,4.1561342882,-1.3950887333\C,-0.3222023054,4.282
 9639811,-1.1795140289\C,-0.8140996671,3.7656712333,0.1252313928\C,-1.3
 699944227,4.7371704432,-2.1644654676\O,-2.3235442266,3.9998122518,-2.3
 593693989\C,-1.2750251492,6.078715739,-2.9025593069\C,-0.5377981313,7.
 1851374172,-2.1286628884\C,-0.7065287898,5.8590105738,-4.321258779\O,-
 1.7704235681,4.2544475954,0.7032835591\C,3.1073666752,3.1173181674,-1.
 2286713889\C,3.0756218165,4.0413248827,-2.4663399078\O,1.6443596377,4.
 4340676216,-2.5450025364\C,2.6622042809,1.6553661995,-1.4265764378\O,2
 .3452349887,4.799812234,0.4549146688\C,-0.400806859,2.2953525581,2.170
 2109219\C,0.9807647161,2.1014182722,2.7984655841\O,1.8869306283,2.7484
 054459,1.8712543985\C,1.244258805,2.6398358703,4.1874345378\C,2.686494
 6801,2.5900455297,4.6312319751\C,0.2658503877,3.0661127014,4.990841203
 \C,3.8945650615,5.3180264518,-2.2595457605\C,3.4090322601,3.3817040827
 ,-3.8010845974\H,4.0745680252,3.1686435206,-0.7197637156\H,2.992494202
 2,1.0821568721,0.6151553228\C,2.0504886767,-1.3387931621,-0.0077593725
 \H,-0.6213277633,-0.889123271,-0.1574836995\H,-0.8909722648,1.65227150
 34,-1.2380868146\H,-1.8229193298,1.200143218,0.1613905545\H,-2.3255751
 708,6.3766252616,-3.0218378518\H,0.4822928147,6.8586034137,-1.89342901
 01\H,-0.4325255851,8.0521066094,-2.7953121768\H,-1.2785686818,5.088240
 9213,-4.8483557559\H,-0.776082629,6.7893413968,-4.8966585446\H,0.34202
 8506,5.5517499886,-4.2886022141\H,1.8557134713,1.5903439975,-2.1669021
 961\H,3.4714863872,1.0049279434,-1.7722770663\H,2.3252002928,4.4741507
 424,1.3779726399\H,-1.0572021239,1.4472037247,2.3812280823\H,-0.891943
 0619,3.1972067363,2.5422799552\H,1.2368294825,1.0287936773,2.799087202
 4\H,3.0826256725,1.5671340464,4.5671796176\H,3.3205835271,3.210132921,
 3.9874027207\H,2.797160059,2.9357450069,5.6631613988\H,-0.7753211865,3
 .092890281,4.6865679903\H,0.4797630397,3.401158087,6.0026101969\H,3.69
 23434929,6.0273886566,-3.0687241453\H,4.9650582156,5.0827995201,-2.269
 4522634\H,3.6512488666,5.7869743327,-1.3033642331\H,3.2910442596,4.102
 01836,-4.6169972274\H,4.4495145639,3.0386903087,-3.7990516738\H,2.7611
 320581,2.5257364555,-4.0057322351\H,1.3717647683,-2.1970754905,-0.0348
 220385\H,2.7409951272,-1.4299274357,-0.8577370883\H,2.6638824051,-1.41
 70117335,0.90085873\C,-1.262015837,7.616271782,-0.8471234802\H,-1.4114
 009287,6.7756574087,-0.1605112851\H,-0.6936755414,8.3880133829,-0.3155
 786904\H,-2.2512567705,8.0304431079,-1.0789539904\\Version=EM64L-G09Re
 vB.01\State=1-A\HF=-1387.315639\RMSD=8.553e-09\RMSF=2.883e-06\Dipole=2
 .2453002,-1.1965433,0.0324916\Quadrupole=-7.134543,2.9724419,4.1621011
 ,0.2819487,-4.9537696,-3.6504917\PG=C01 [X(C26H34O5)]\\@


 MARY HAD A LITTLE LAMB
      HIS FEET WERE BLACK AS SOOT,
           AND EVERYWHERE THAT MARY WENT
                HIS SOOTY FOOT HE PUT.

                    -- NONAME
 Job cpu time:  0 days  5 hours 55 minutes 53.7 seconds.
 File lengths (MBytes):  RWF=    186 Int=      0 D2E=      0 Chk=     20 Scr=      1
 Normal termination of Gaussian 09 at Wed Mar 24 16:53:43 2021.
