 Entering Gaussian System, Link 0=g09
 Initial command:
 /public/software/g09/g09/l1.exe /tmp/Gau-28106.inp -scrdir=/tmp/
 Entering Link 1 = /public/software/g09/g09/l1.exe PID=     28107.
  
 Copyright (c) 1988,1990,1992,1993,1995,1998,2003,2009,2010,
            Gaussian, Inc.  All Rights Reserved.
  
 This is part of the Gaussian(R) 09 program.  It is based on
 the Gaussian(R) 03 system (copyright 2003, Gaussian, Inc.),
 the Gaussian(R) 98 system (copyright 1998, Gaussian, Inc.),
 the Gaussian(R) 94 system (copyright 1995, Gaussian, Inc.),
 the Gaussian 92(TM) system (copyright 1992, Gaussian, Inc.),
 the Gaussian 90(TM) system (copyright 1990, Gaussian, Inc.),
 the Gaussian 88(TM) system (copyright 1988, Gaussian, Inc.),
 the Gaussian 86(TM) system (copyright 1986, Carnegie Mellon
 University), and the Gaussian 82(TM) system (copyright 1983,
 Carnegie Mellon University). Gaussian is a federally registered
 trademark of Gaussian, Inc.
  
 This software contains proprietary and confidential information,
 including trade secrets, belonging to Gaussian, Inc.
  
 This software is provided under written license and may be
 used, copied, transmitted, or stored only in accord with that
 written license.
  
 The following legend is applicable only to US Government
 contracts under FAR:
  
                    RESTRICTED RIGHTS LEGEND
  
 Use, reproduction and disclosure by the US Government is
 subject to restrictions as set forth in subparagraphs (a)
 and (c) of the Commercial Computer Software - Restricted
 Rights clause in FAR 52.227-19.
  
 Gaussian, Inc.
 340 Quinnipiac St., Bldg. 40, Wallingford CT 06492
  
  
 ---------------------------------------------------------------
 Warning -- This program may not be used in any manner that
 competes with the business of Gaussian, Inc. or will provide
 assistance to any competitor of Gaussian, Inc.  The licensee
 of this program is prohibited from giving any competitor of
 Gaussian, Inc. access to this program.  By using this program,
 the user acknowledges that Gaussian, Inc. is engaged in the
 business of creating and licensing software in the field of
 computational chemistry and represents and warrants to the
 licensee that it is not a competitor of Gaussian, Inc. and that
 it will not use this program in any manner prohibited above.
 ---------------------------------------------------------------
  

 Cite this work as:
 Gaussian 09, Revision B.01,
 M. J. Frisch, G. W. Trucks, H. B. Schlegel, G. E. Scuseria, 
 M. A. Robb, J. R. Cheeseman, G. Scalmani, V. Barone, B. Mennucci, 
 G. A. Petersson, H. Nakatsuji, M. Caricato, X. Li, H. P. Hratchian, 
 A. F. Izmaylov, J. Bloino, G. Zheng, J. L. Sonnenberg, M. Hada, 
 M. Ehara, K. Toyota, R. Fukuda, J. Hasegawa, M. Ishida, T. Nakajima, 
 Y. Honda, O. Kitao, H. Nakai, T. Vreven, J. A. Montgomery, Jr., 
 J. E. Peralta, F. Ogliaro, M. Bearpark, J. J. Heyd, E. Brothers, 
 K. N. Kudin, V. N. Staroverov, T. Keith, R. Kobayashi, J. Normand, 
 K. Raghavachari, A. Rendell, J. C. Burant, S. S. Iyengar, J. Tomasi, 
 M. Cossi, N. Rega, J. M. Millam, M. Klene, J. E. Knox, J. B. Cross, 
 V. Bakken, C. Adamo, J. Jaramillo, R. Gomperts, R. E. Stratmann, 
 O. Yazyev, A. J. Austin, R. Cammi, C. Pomelli, J. W. Ochterski, 
 R. L. Martin, K. Morokuma, V. G. Zakrzewski, G. A. Voth, 
 P. Salvador, J. J. Dannenberg, S. Dapprich, A. D. Daniels, 
 O. Farkas, J. B. Foresman, J. V. Ortiz, J. Cioslowski, 
 and D. J. Fox, Gaussian, Inc., Wallingford CT, 2010.
 
 ******************************************
 Gaussian 09:  EM64L-G09RevB.01 12-Aug-2010
                24-Mar-2021 
 ******************************************
 %mem=600MW
 %nprocshared=10
 Will use up to   10 processors via shared memory.
 ---------------------------------------
 # opt rb3lyp/6-31g(d) geom=connectivity
 ---------------------------------------
 1/14=-1,18=20,19=15,26=3,38=1,57=2/1,3;
 2/9=110,12=2,17=6,18=5,40=1/2;
 3/5=1,6=6,7=1,11=2,16=1,25=1,30=1,71=1,74=-5,116=1/1,2,3;
 4//1;
 5/5=2,38=5/2;
 6/7=2,8=2,9=2,10=2,28=1/1;
 7//1,2,3,16;
 1/14=-1,18=20,19=15/3(2);
 2/9=110/2;
 99//99;
 2/9=110/2;
 3/5=1,6=6,7=1,11=2,16=1,25=1,30=1,71=1,74=-5,116=1/1,2,3;
 4/5=5,16=3/1;
 5/5=2,38=5/2;
 7//1,2,3,16;
 1/14=-1,18=20,19=15/3(-5);
 2/9=110/2;
 6/7=2,8=2,9=2,10=2,19=2,28=1/1;
 99/9=1/99;
 -------------------
 Title Card Required
 -------------------
 Symbolic Z-matrix:
 Charge =  0 Multiplicity = 1
 C                     0.        0.        0. 
 C                     1.3409    0.        0. 
 C                     2.1161    1.2921    0. 
 C                     1.392     2.5323    0.605 
 C                    -0.134     2.4191    0.7986 
 C                    -0.7968    1.2656    0.0091 
 C                     1.8472    3.7066   -0.2992 
 C                     0.8211    4.2231   -1.2446 
 C                    -0.4758    4.3022   -0.9321 
 C                    -0.8922    3.6783    0.346 
 C                    -1.468     4.776    -1.9194 
 O                    -2.0401    3.9397   -2.6229 
 C                    -1.8256    6.2614   -1.9911 
 C                    -2.875     6.6506   -0.9397 
 C                    -0.6063    7.1775   -1.8842 
 O                    -1.8987    4.0846    0.9226 
 C                     2.8924    3.1873   -1.266 
 C                     2.7122    4.0943   -2.4989 
 O                     1.3246    4.5102   -2.5045 
 C                     2.495     1.7173   -1.4259 
 O                     2.3473    4.8057    0.4499 
 C                    -0.2774    2.1785    2.3046 
 C                     0.9758    2.7585    2.939 
 O                     1.9836    2.7606    1.9176 
 C                     0.9525    4.1397    3.5614 
 C                     2.2391    4.5502    4.2375 
 C                    -0.1026    4.9703    3.5968 
 C                     3.5761    5.363    -2.4162 
 C                     3.0055    3.3906   -3.8265 
 H                     3.9111    3.2545   -0.8639 
 H                     3.0421    1.1285    0.5706 
 C                     2.1378   -1.2722   -0.0417 
 H                    -0.5536   -0.9353   -0.0428 
 H                    -1.7832    1.0544    0.4441 
 H                    -0.9884    1.5414   -1.0357 
 H                    -2.2514    6.423    -2.991 
 H                    -2.4889    6.4794    0.0712 
 H                    -3.0783    7.7261   -1.0168 
 H                    -0.8942    8.2219   -2.0468 
 H                     0.1438    6.9231   -2.6396 
 H                    -0.1327    7.1142   -0.8987 
 H                     3.3235    1.1217   -1.8242 
 H                     1.6414    1.5948   -2.104 
 H                     2.6018    4.4356    1.3196 
 H                    -0.2738    1.0994    2.5099 
 H                    -1.2075    2.5484    2.7445 
 H                     1.3106    2.0657    3.7219 
 H                     2.5035    3.8277    5.0168 
 H                     3.0615    4.5994    3.5176 
 H                     2.1618    5.5335    4.7141 
 H                    -1.0655    4.7267    3.1651 
 H                    -0.0396    5.9419    4.0791 
 H                     3.3325    5.9719   -1.5406 
 H                     3.3975    6.0087   -3.2841 
 H                     4.6425    5.1173   -2.3827 
 H                     4.0215    2.9834   -3.8479 
 H                     2.8956    4.0866   -4.6666 
 H                     2.2949    2.5816   -4.0238 
 H                     1.4956   -2.1591   -0.0599 
 H                     2.7686   -1.2994   -0.9357 
 H                     2.7808   -1.3453    0.8413 
 C                    -4.1956    5.9105   -1.1034 
 H                    -4.0799    4.8366   -0.9302 
 H                    -4.6058    6.0574   -2.1076 
 H                    -4.9276    6.2856   -0.3809 
 

 GradGradGradGradGradGradGradGradGradGradGradGradGradGradGradGradGradGrad
 Berny optimization.
 Initialization pass.
                           ----------------------------
                           !    Initial Parameters    !
                           ! (Angstroms and Degrees)  !
 --------------------------                            --------------------------
 ! Name  Definition              Value          Derivative Info.                !
 --------------------------------------------------------------------------------
 ! R1    R(1,2)                  1.3409         estimate D2E/DX2                !
 ! R2    R(1,6)                  1.4956         estimate D2E/DX2                !
 ! R3    R(1,33)                 1.0877         estimate D2E/DX2                !
 ! R4    R(2,3)                  1.5068         estimate D2E/DX2                !
 ! R5    R(2,32)                 1.5018         estimate D2E/DX2                !
 ! R6    R(3,4)                  1.5583         estimate D2E/DX2                !
 ! R7    R(3,20)                 1.5354         estimate D2E/DX2                !
 ! R8    R(3,31)                 1.0999         estimate D2E/DX2                !
 ! R9    R(4,5)                  1.5424         estimate D2E/DX2                !
 ! R10   R(4,7)                  1.5504         estimate D2E/DX2                !
 ! R11   R(4,24)                 1.4577         estimate D2E/DX2                !
 ! R12   R(5,6)                  1.547          estimate D2E/DX2                !
 ! R13   R(5,10)                 1.538          estimate D2E/DX2                !
 ! R14   R(5,22)                 1.5318         estimate D2E/DX2                !
 ! R15   R(6,34)                 1.0986         estimate D2E/DX2                !
 ! R16   R(6,35)                 1.0974         estimate D2E/DX2                !
 ! R17   R(7,8)                  1.4878         estimate D2E/DX2                !
 ! R18   R(7,17)                 1.5155         estimate D2E/DX2                !
 ! R19   R(7,21)                 1.421          estimate D2E/DX2                !
 ! R20   R(8,9)                  1.3364         estimate D2E/DX2                !
 ! R21   R(8,19)                 1.3868         estimate D2E/DX2                !
 ! R22   R(9,10)                 1.482          estimate D2E/DX2                !
 ! R23   R(9,11)                 1.4777         estimate D2E/DX2                !
 ! R24   R(10,16)                1.2291         estimate D2E/DX2                !
 ! R25   R(11,12)                1.2335         estimate D2E/DX2                !
 ! R26   R(11,13)                1.5295         estimate D2E/DX2                !
 ! R27   R(13,14)                1.5356         estimate D2E/DX2                !
 ! R28   R(13,15)                1.5288         estimate D2E/DX2                !
 ! R29   R(13,36)                1.0987         estimate D2E/DX2                !
 ! R30   R(14,37)                1.0956         estimate D2E/DX2                !
 ! R31   R(14,38)                1.0973         estimate D2E/DX2                !
 ! R32   R(14,62)                1.5227         estimate D2E/DX2                !
 ! R33   R(15,39)                1.0955         estimate D2E/DX2                !
 ! R34   R(15,40)                1.0945         estimate D2E/DX2                !
 ! R35   R(15,41)                1.0952         estimate D2E/DX2                !
 ! R36   R(17,18)                1.5412         estimate D2E/DX2                !
 ! R37   R(17,20)                1.5311         estimate D2E/DX2                !
 ! R38   R(17,30)                1.0972         estimate D2E/DX2                !
 ! R39   R(18,19)                1.4486         estimate D2E/DX2                !
 ! R40   R(18,28)                1.5371         estimate D2E/DX2                !
 ! R41   R(18,29)                1.5309         estimate D2E/DX2                !
 ! R42   R(20,42)                1.0954         estimate D2E/DX2                !
 ! R43   R(20,43)                1.097          estimate D2E/DX2                !
 ! R44   R(21,44)                0.9788         estimate D2E/DX2                !
 ! R45   R(22,23)                1.5197         estimate D2E/DX2                !
 ! R46   R(22,45)                1.0985         estimate D2E/DX2                !
 ! R47   R(22,46)                1.0934         estimate D2E/DX2                !
 ! R48   R(23,24)                1.4349         estimate D2E/DX2                !
 ! R49   R(23,25)                1.5151         estimate D2E/DX2                !
 ! R50   R(23,47)                1.0977         estimate D2E/DX2                !
 ! R51   R(24,44)                1.8829         estimate D2E/DX2                !
 ! R52   R(25,26)                1.5103         estimate D2E/DX2                !
 ! R53   R(25,27)                1.3433         estimate D2E/DX2                !
 ! R54   R(26,48)                1.0951         estimate D2E/DX2                !
 ! R55   R(26,49)                1.0941         estimate D2E/DX2                !
 ! R56   R(26,50)                1.0954         estimate D2E/DX2                !
 ! R57   R(27,51)                1.083          estimate D2E/DX2                !
 ! R58   R(27,52)                1.0865         estimate D2E/DX2                !
 ! R59   R(28,53)                1.094          estimate D2E/DX2                !
 ! R60   R(28,54)                1.0964         estimate D2E/DX2                !
 ! R61   R(28,55)                1.0949         estimate D2E/DX2                !
 ! R62   R(29,56)                1.0948         estimate D2E/DX2                !
 ! R63   R(29,57)                1.0965         estimate D2E/DX2                !
 ! R64   R(29,58)                1.0947         estimate D2E/DX2                !
 ! R65   R(32,59)                1.0951         estimate D2E/DX2                !
 ! R66   R(32,60)                1.0945         estimate D2E/DX2                !
 ! R67   R(32,61)                1.0948         estimate D2E/DX2                !
 ! R68   R(62,63)                1.0939         estimate D2E/DX2                !
 ! R69   R(62,64)                1.0947         estimate D2E/DX2                !
 ! R70   R(62,65)                1.0948         estimate D2E/DX2                !
 ! A1    A(2,1,6)              122.1931         estimate D2E/DX2                !
 ! A2    A(2,1,33)             120.5948         estimate D2E/DX2                !
 ! A3    A(6,1,33)             117.1772         estimate D2E/DX2                !
 ! A4    A(1,2,3)              120.9618         estimate D2E/DX2                !
 ! A5    A(1,2,32)             122.049          estimate D2E/DX2                !
 ! A6    A(3,2,32)             116.9641         estimate D2E/DX2                !
 ! A7    A(2,3,4)              116.3206         estimate D2E/DX2                !
 ! A8    A(2,3,20)             111.372          estimate D2E/DX2                !
 ! A9    A(2,3,31)             107.7927         estimate D2E/DX2                !
 ! A10   A(4,3,20)             104.7625         estimate D2E/DX2                !
 ! A11   A(4,3,31)             107.9483         estimate D2E/DX2                !
 ! A12   A(20,3,31)            108.3727         estimate D2E/DX2                !
 ! A13   A(3,4,5)              116.7464         estimate D2E/DX2                !
 ! A14   A(3,4,7)              103.8831         estimate D2E/DX2                !
 ! A15   A(3,4,24)             106.5971         estimate D2E/DX2                !
 ! A16   A(5,4,7)              114.7886         estimate D2E/DX2                !
 ! A17   A(5,4,24)             107.4571         estimate D2E/DX2                !
 ! A18   A(7,4,24)             106.7            estimate D2E/DX2                !
 ! A19   A(4,5,6)              114.4915         estimate D2E/DX2                !
 ! A20   A(4,5,10)             112.9996         estimate D2E/DX2                !
 ! A21   A(4,5,22)             103.1529         estimate D2E/DX2                !
 ! A22   A(6,5,10)             104.4234         estimate D2E/DX2                !
 ! A23   A(6,5,22)             110.1524         estimate D2E/DX2                !
 ! A24   A(10,5,22)            111.8251         estimate D2E/DX2                !
 ! A25   A(1,6,5)              113.9431         estimate D2E/DX2                !
 ! A26   A(1,6,34)             108.5482         estimate D2E/DX2                !
 ! A27   A(1,6,35)             107.4511         estimate D2E/DX2                !
 ! A28   A(5,6,34)             109.0245         estimate D2E/DX2                !
 ! A29   A(5,6,35)             111.9179         estimate D2E/DX2                !
 ! A30   A(34,6,35)            105.577          estimate D2E/DX2                !
 ! A31   A(4,7,8)              115.5342         estimate D2E/DX2                !
 ! A32   A(4,7,17)             108.3606         estimate D2E/DX2                !
 ! A33   A(4,7,21)             112.4402         estimate D2E/DX2                !
 ! A34   A(8,7,17)             100.9084         estimate D2E/DX2                !
 ! A35   A(8,7,21)             108.0104         estimate D2E/DX2                !
 ! A36   A(17,7,21)            111.0147         estimate D2E/DX2                !
 ! A37   A(7,8,9)              122.7708         estimate D2E/DX2                !
 ! A38   A(7,8,19)             113.5009         estimate D2E/DX2                !
 ! A39   A(9,8,19)             123.5405         estimate D2E/DX2                !
 ! A40   A(8,9,10)             116.7079         estimate D2E/DX2                !
 ! A41   A(8,9,11)             120.9539         estimate D2E/DX2                !
 ! A42   A(10,9,11)            121.5025         estimate D2E/DX2                !
 ! A43   A(5,10,9)             117.3857         estimate D2E/DX2                !
 ! A44   A(5,10,16)            122.4335         estimate D2E/DX2                !
 ! A45   A(9,10,16)            119.7049         estimate D2E/DX2                !
 ! A46   A(9,11,12)            118.3634         estimate D2E/DX2                !
 ! A47   A(9,11,13)            119.9786         estimate D2E/DX2                !
 ! A48   A(12,11,13)           121.5502         estimate D2E/DX2                !
 ! A49   A(11,13,14)           111.9508         estimate D2E/DX2                !
 ! A50   A(11,13,15)           113.0907         estimate D2E/DX2                !
 ! A51   A(11,13,36)           106.0277         estimate D2E/DX2                !
 ! A52   A(14,13,15)           110.198          estimate D2E/DX2                !
 ! A53   A(14,13,36)           108.7219         estimate D2E/DX2                !
 ! A54   A(15,13,36)           106.5334         estimate D2E/DX2                !
 ! A55   A(13,14,37)           110.5678         estimate D2E/DX2                !
 ! A56   A(13,14,38)           109.0823         estimate D2E/DX2                !
 ! A57   A(13,14,62)           113.321          estimate D2E/DX2                !
 ! A58   A(37,14,38)           106.457          estimate D2E/DX2                !
 ! A59   A(37,14,62)           109.2016         estimate D2E/DX2                !
 ! A60   A(38,14,62)           107.9489         estimate D2E/DX2                !
 ! A61   A(13,15,39)           110.5664         estimate D2E/DX2                !
 ! A62   A(13,15,40)           111.0406         estimate D2E/DX2                !
 ! A63   A(13,15,41)           111.9104         estimate D2E/DX2                !
 ! A64   A(39,15,40)           107.4129         estimate D2E/DX2                !
 ! A65   A(39,15,41)           107.5959         estimate D2E/DX2                !
 ! A66   A(40,15,41)           108.1337         estimate D2E/DX2                !
 ! A67   A(7,17,18)            103.1815         estimate D2E/DX2                !
 ! A68   A(7,17,20)            102.509          estimate D2E/DX2                !
 ! A69   A(7,17,30)            112.6766         estimate D2E/DX2                !
 ! A70   A(18,17,20)           116.816          estimate D2E/DX2                !
 ! A71   A(18,17,30)           111.4492         estimate D2E/DX2                !
 ! A72   A(20,17,30)           109.7572         estimate D2E/DX2                !
 ! A73   A(17,18,19)           106.5027         estimate D2E/DX2                !
 ! A74   A(17,18,28)           112.1474         estimate D2E/DX2                !
 ! A75   A(17,18,29)           113.6293         estimate D2E/DX2                !
 ! A76   A(19,18,28)           107.5535         estimate D2E/DX2                !
 ! A77   A(19,18,29)           108.1878         estimate D2E/DX2                !
 ! A78   A(28,18,29)           108.5643         estimate D2E/DX2                !
 ! A79   A(8,19,18)            106.5483         estimate D2E/DX2                !
 ! A80   A(3,20,17)            103.4698         estimate D2E/DX2                !
 ! A81   A(3,20,42)            111.9478         estimate D2E/DX2                !
 ! A82   A(3,20,43)            110.5543         estimate D2E/DX2                !
 ! A83   A(17,20,42)           111.3276         estimate D2E/DX2                !
 ! A84   A(17,20,43)           111.9448         estimate D2E/DX2                !
 ! A85   A(42,20,43)           107.6412         estimate D2E/DX2                !
 ! A86   A(7,21,44)            105.5119         estimate D2E/DX2                !
 ! A87   A(5,22,23)            105.8594         estimate D2E/DX2                !
 ! A88   A(5,22,45)            109.7392         estimate D2E/DX2                !
 ! A89   A(5,22,46)            114.9643         estimate D2E/DX2                !
 ! A90   A(23,22,45)           107.1102         estimate D2E/DX2                !
 ! A91   A(23,22,46)           113.856          estimate D2E/DX2                !
 ! A92   A(45,22,46)           105.0668         estimate D2E/DX2                !
 ! A93   A(22,23,24)           106.4152         estimate D2E/DX2                !
 ! A94   A(22,23,25)           120.4464         estimate D2E/DX2                !
 ! A95   A(22,23,47)           107.9612         estimate D2E/DX2                !
 ! A96   A(24,23,25)           107.5704         estimate D2E/DX2                !
 ! A97   A(24,23,47)           107.1209         estimate D2E/DX2                !
 ! A98   A(25,23,47)           106.6813         estimate D2E/DX2                !
 ! A99   A(4,24,23)            110.8355         estimate D2E/DX2                !
 ! A100  A(23,25,26)           114.7444         estimate D2E/DX2                !
 ! A101  A(23,25,27)           125.915          estimate D2E/DX2                !
 ! A102  A(26,25,27)           119.2927         estimate D2E/DX2                !
 ! A103  A(25,26,48)           110.1774         estimate D2E/DX2                !
 ! A104  A(25,26,49)           110.9782         estimate D2E/DX2                !
 ! A105  A(25,26,50)           112.2489         estimate D2E/DX2                !
 ! A106  A(48,26,49)           108.4472         estimate D2E/DX2                !
 ! A107  A(48,26,50)           107.4363         estimate D2E/DX2                !
 ! A108  A(49,26,50)           107.3947         estimate D2E/DX2                !
 ! A109  A(25,27,51)           123.2831         estimate D2E/DX2                !
 ! A110  A(25,27,52)           121.2705         estimate D2E/DX2                !
 ! A111  A(51,27,52)           115.4438         estimate D2E/DX2                !
 ! A112  A(18,28,53)           112.1672         estimate D2E/DX2                !
 ! A113  A(18,28,54)           110.6063         estimate D2E/DX2                !
 ! A114  A(18,28,55)           111.3361         estimate D2E/DX2                !
 ! A115  A(53,28,54)           105.6353         estimate D2E/DX2                !
 ! A116  A(53,28,55)           108.5001         estimate D2E/DX2                !
 ! A117  A(54,28,55)           108.3638         estimate D2E/DX2                !
 ! A118  A(18,29,56)           111.4518         estimate D2E/DX2                !
 ! A119  A(18,29,57)           110.6984         estimate D2E/DX2                !
 ! A120  A(18,29,58)           111.816          estimate D2E/DX2                !
 ! A121  A(56,29,57)           108.3089         estimate D2E/DX2                !
 ! A122  A(56,29,58)           108.9064         estimate D2E/DX2                !
 ! A123  A(57,29,58)           105.4232         estimate D2E/DX2                !
 ! A124  A(2,32,59)            112.0454         estimate D2E/DX2                !
 ! A125  A(2,32,60)            110.461          estimate D2E/DX2                !
 ! A126  A(2,32,61)            110.2332         estimate D2E/DX2                !
 ! A127  A(59,32,60)           107.7144         estimate D2E/DX2                !
 ! A128  A(59,32,61)           107.6831         estimate D2E/DX2                !
 ! A129  A(60,32,61)           108.5817         estimate D2E/DX2                !
 ! A130  A(14,62,63)           111.6175         estimate D2E/DX2                !
 ! A131  A(14,62,64)           111.0019         estimate D2E/DX2                !
 ! A132  A(14,62,65)           110.0239         estimate D2E/DX2                !
 ! A133  A(63,62,64)           108.4589         estimate D2E/DX2                !
 ! A134  A(63,62,65)           107.6131         estimate D2E/DX2                !
 ! A135  A(64,62,65)           107.992          estimate D2E/DX2                !
 ! D1    D(6,1,2,3)             -0.412          estimate D2E/DX2                !
 ! D2    D(6,1,2,32)          -178.5346         estimate D2E/DX2                !
 ! D3    D(33,1,2,3)           177.3799         estimate D2E/DX2                !
 ! D4    D(33,1,2,32)           -0.7427         estimate D2E/DX2                !
 ! D5    D(2,1,6,5)            -33.5398         estimate D2E/DX2                !
 ! D6    D(2,1,6,34)          -155.2211         estimate D2E/DX2                !
 ! D7    D(2,1,6,35)            91.0513         estimate D2E/DX2                !
 ! D8    D(33,1,6,5)           148.5968         estimate D2E/DX2                !
 ! D9    D(33,1,6,34)           26.9155         estimate D2E/DX2                !
 ! D10   D(33,1,6,35)          -86.8121         estimate D2E/DX2                !
 ! D11   D(1,2,3,4)             25.6668         estimate D2E/DX2                !
 ! D12   D(1,2,3,20)           -94.2579         estimate D2E/DX2                !
 ! D13   D(1,2,3,31)           146.9873         estimate D2E/DX2                !
 ! D14   D(32,2,3,4)          -156.1185         estimate D2E/DX2                !
 ! D15   D(32,2,3,20)           83.9568         estimate D2E/DX2                !
 ! D16   D(32,2,3,31)          -34.798          estimate D2E/DX2                !
 ! D17   D(1,2,32,59)           -0.6133         estimate D2E/DX2                !
 ! D18   D(1,2,32,60)          119.484          estimate D2E/DX2                !
 ! D19   D(1,2,32,61)         -120.5157         estimate D2E/DX2                !
 ! D20   D(3,2,32,59)         -178.8071         estimate D2E/DX2                !
 ! D21   D(3,2,32,60)          -58.7098         estimate D2E/DX2                !
 ! D22   D(3,2,32,61)           61.2905         estimate D2E/DX2                !
 ! D23   D(2,3,4,5)            -15.4559         estimate D2E/DX2                !
 ! D24   D(2,3,4,7)           -142.9149         estimate D2E/DX2                !
 ! D25   D(2,3,4,24)           104.5937         estimate D2E/DX2                !
 ! D26   D(20,3,4,5)           107.9663         estimate D2E/DX2                !
 ! D27   D(20,3,4,7)           -19.4928         estimate D2E/DX2                !
 ! D28   D(20,3,4,24)         -131.9842         estimate D2E/DX2                !
 ! D29   D(31,3,4,5)          -136.6939         estimate D2E/DX2                !
 ! D30   D(31,3,4,7)            95.8471         estimate D2E/DX2                !
 ! D31   D(31,3,4,24)          -16.6443         estimate D2E/DX2                !
 ! D32   D(2,3,20,17)          164.3183         estimate D2E/DX2                !
 ! D33   D(2,3,20,42)          -75.6996         estimate D2E/DX2                !
 ! D34   D(2,3,20,43)           44.3036         estimate D2E/DX2                !
 ! D35   D(4,3,20,17)           37.7694         estimate D2E/DX2                !
 ! D36   D(4,3,20,42)          157.7515         estimate D2E/DX2                !
 ! D37   D(4,3,20,43)          -82.2453         estimate D2E/DX2                !
 ! D38   D(31,3,20,17)         -77.2745         estimate D2E/DX2                !
 ! D39   D(31,3,20,42)          42.7076         estimate D2E/DX2                !
 ! D40   D(31,3,20,43)         162.7108         estimate D2E/DX2                !
 ! D41   D(3,4,5,6)            -16.5387         estimate D2E/DX2                !
 ! D42   D(3,4,5,10)          -135.9263         estimate D2E/DX2                !
 ! D43   D(3,4,5,22)           103.1464         estimate D2E/DX2                !
 ! D44   D(7,4,5,6)            105.379          estimate D2E/DX2                !
 ! D45   D(7,4,5,10)           -14.0086         estimate D2E/DX2                !
 ! D46   D(7,4,5,22)          -134.9359         estimate D2E/DX2                !
 ! D47   D(24,4,5,6)          -136.1288         estimate D2E/DX2                !
 ! D48   D(24,4,5,10)          104.4836         estimate D2E/DX2                !
 ! D49   D(24,4,5,22)          -16.4437         estimate D2E/DX2                !
 ! D50   D(3,4,7,8)            106.353          estimate D2E/DX2                !
 ! D51   D(3,4,7,17)            -5.9509         estimate D2E/DX2                !
 ! D52   D(3,4,7,21)          -129.0347         estimate D2E/DX2                !
 ! D53   D(5,4,7,8)            -22.313          estimate D2E/DX2                !
 ! D54   D(5,4,7,17)          -134.617          estimate D2E/DX2                !
 ! D55   D(5,4,7,21)           102.2992         estimate D2E/DX2                !
 ! D56   D(24,4,7,8)          -141.23           estimate D2E/DX2                !
 ! D57   D(24,4,7,17)          106.4661         estimate D2E/DX2                !
 ! D58   D(24,4,7,21)          -16.6177         estimate D2E/DX2                !
 ! D59   D(3,4,24,23)         -123.9302         estimate D2E/DX2                !
 ! D60   D(5,4,24,23)            1.9444         estimate D2E/DX2                !
 ! D61   D(7,4,24,23)          125.5323         estimate D2E/DX2                !
 ! D62   D(4,5,6,1)             40.3334         estimate D2E/DX2                !
 ! D63   D(4,5,6,34)           161.7507         estimate D2E/DX2                !
 ! D64   D(4,5,6,35)           -81.8314         estimate D2E/DX2                !
 ! D65   D(10,5,6,1)           164.4233         estimate D2E/DX2                !
 ! D66   D(10,5,6,34)          -74.1593         estimate D2E/DX2                !
 ! D67   D(10,5,6,35)           42.2585         estimate D2E/DX2                !
 ! D68   D(22,5,6,1)           -75.3586         estimate D2E/DX2                !
 ! D69   D(22,5,6,34)           46.0587         estimate D2E/DX2                !
 ! D70   D(22,5,6,35)          162.4766         estimate D2E/DX2                !
 ! D71   D(4,5,10,9)            43.0922         estimate D2E/DX2                !
 ! D72   D(4,5,10,16)         -144.8548         estimate D2E/DX2                !
 ! D73   D(6,5,10,9)           -81.9503         estimate D2E/DX2                !
 ! D74   D(6,5,10,16)           90.1026         estimate D2E/DX2                !
 ! D75   D(22,5,10,9)          158.9588         estimate D2E/DX2                !
 ! D76   D(22,5,10,16)         -28.9882         estimate D2E/DX2                !
 ! D77   D(4,5,22,23)           24.3034         estimate D2E/DX2                !
 ! D78   D(4,5,22,45)          -90.9667         estimate D2E/DX2                !
 ! D79   D(4,5,22,46)          150.8896         estimate D2E/DX2                !
 ! D80   D(6,5,22,23)          146.9357         estimate D2E/DX2                !
 ! D81   D(6,5,22,45)           31.6656         estimate D2E/DX2                !
 ! D82   D(6,5,22,46)          -86.4781         estimate D2E/DX2                !
 ! D83   D(10,5,22,23)         -97.4198         estimate D2E/DX2                !
 ! D84   D(10,5,22,45)         147.3101         estimate D2E/DX2                !
 ! D85   D(10,5,22,46)          29.1664         estimate D2E/DX2                !
 ! D86   D(4,7,8,9)             36.5131         estimate D2E/DX2                !
 ! D87   D(4,7,8,19)          -138.6657         estimate D2E/DX2                !
 ! D88   D(17,7,8,9)           153.1017         estimate D2E/DX2                !
 ! D89   D(17,7,8,19)          -22.0771         estimate D2E/DX2                !
 ! D90   D(21,7,8,9)           -90.3674         estimate D2E/DX2                !
 ! D91   D(21,7,8,19)           94.4538         estimate D2E/DX2                !
 ! D92   D(4,7,17,18)          150.735          estimate D2E/DX2                !
 ! D93   D(4,7,17,20)           28.9615         estimate D2E/DX2                !
 ! D94   D(4,7,17,30)          -88.9406         estimate D2E/DX2                !
 ! D95   D(8,7,17,18)           28.9664         estimate D2E/DX2                !
 ! D96   D(8,7,17,20)          -92.8071         estimate D2E/DX2                !
 ! D97   D(8,7,17,30)          149.2908         estimate D2E/DX2                !
 ! D98   D(21,7,17,18)         -85.3233         estimate D2E/DX2                !
 ! D99   D(21,7,17,20)         152.9032         estimate D2E/DX2                !
 ! D100  D(21,7,17,30)          35.0011         estimate D2E/DX2                !
 ! D101  D(4,7,21,44)           21.2059         estimate D2E/DX2                !
 ! D102  D(8,7,21,44)          149.8635         estimate D2E/DX2                !
 ! D103  D(17,7,21,44)        -100.3775         estimate D2E/DX2                !
 ! D104  D(7,8,9,10)            -8.0773         estimate D2E/DX2                !
 ! D105  D(7,8,9,11)          -177.7627         estimate D2E/DX2                !
 ! D106  D(19,8,9,10)          166.6169         estimate D2E/DX2                !
 ! D107  D(19,8,9,11)           -3.0685         estimate D2E/DX2                !
 ! D108  D(7,8,19,18)            4.5012         estimate D2E/DX2                !
 ! D109  D(9,8,19,18)         -170.635          estimate D2E/DX2                !
 ! D110  D(8,9,10,5)           -33.0553         estimate D2E/DX2                !
 ! D111  D(8,9,10,16)          154.6655         estimate D2E/DX2                !
 ! D112  D(11,9,10,5)          136.5694         estimate D2E/DX2                !
 ! D113  D(11,9,10,16)         -35.7098         estimate D2E/DX2                !
 ! D114  D(8,9,11,12)           92.4495         estimate D2E/DX2                !
 ! D115  D(8,9,11,13)          -91.2657         estimate D2E/DX2                !
 ! D116  D(10,9,11,12)         -76.7378         estimate D2E/DX2                !
 ! D117  D(10,9,11,13)          99.547          estimate D2E/DX2                !
 ! D118  D(9,11,13,14)         -82.5532         estimate D2E/DX2                !
 ! D119  D(9,11,13,15)          42.6516         estimate D2E/DX2                !
 ! D120  D(9,11,13,36)         159.033          estimate D2E/DX2                !
 ! D121  D(12,11,13,14)         93.6103         estimate D2E/DX2                !
 ! D122  D(12,11,13,15)       -141.1849         estimate D2E/DX2                !
 ! D123  D(12,11,13,36)        -24.8035         estimate D2E/DX2                !
 ! D124  D(11,13,14,37)         61.9216         estimate D2E/DX2                !
 ! D125  D(11,13,14,38)        178.6642         estimate D2E/DX2                !
 ! D126  D(11,13,14,62)        -61.0553         estimate D2E/DX2                !
 ! D127  D(15,13,14,37)        -64.8636         estimate D2E/DX2                !
 ! D128  D(15,13,14,38)         51.879          estimate D2E/DX2                !
 ! D129  D(15,13,14,62)        172.1594         estimate D2E/DX2                !
 ! D130  D(36,13,14,37)        178.7232         estimate D2E/DX2                !
 ! D131  D(36,13,14,38)        -64.5342         estimate D2E/DX2                !
 ! D132  D(36,13,14,62)         55.7463         estimate D2E/DX2                !
 ! D133  D(11,13,15,39)        173.9704         estimate D2E/DX2                !
 ! D134  D(11,13,15,40)         54.8403         estimate D2E/DX2                !
 ! D135  D(11,13,15,41)        -66.1005         estimate D2E/DX2                !
 ! D136  D(14,13,15,39)        -59.884          estimate D2E/DX2                !
 ! D137  D(14,13,15,40)       -179.014          estimate D2E/DX2                !
 ! D138  D(14,13,15,41)         60.0452         estimate D2E/DX2                !
 ! D139  D(36,13,15,39)         57.8887         estimate D2E/DX2                !
 ! D140  D(36,13,15,40)        -61.2414         estimate D2E/DX2                !
 ! D141  D(36,13,15,41)        177.8178         estimate D2E/DX2                !
 ! D142  D(13,14,62,63)         65.1676         estimate D2E/DX2                !
 ! D143  D(13,14,62,64)        -55.9602         estimate D2E/DX2                !
 ! D144  D(13,14,62,65)       -175.4364         estimate D2E/DX2                !
 ! D145  D(37,14,62,63)        -58.5602         estimate D2E/DX2                !
 ! D146  D(37,14,62,64)       -179.6879         estimate D2E/DX2                !
 ! D147  D(37,14,62,65)         60.8359         estimate D2E/DX2                !
 ! D148  D(38,14,62,63)       -173.9102         estimate D2E/DX2                !
 ! D149  D(38,14,62,64)         64.962          estimate D2E/DX2                !
 ! D150  D(38,14,62,65)        -54.5142         estimate D2E/DX2                !
 ! D151  D(7,17,18,19)         -28.3847         estimate D2E/DX2                !
 ! D152  D(7,17,18,28)          89.0151         estimate D2E/DX2                !
 ! D153  D(7,17,18,29)        -147.394          estimate D2E/DX2                !
 ! D154  D(20,17,18,19)         83.1859         estimate D2E/DX2                !
 ! D155  D(20,17,18,28)       -159.4142         estimate D2E/DX2                !
 ! D156  D(20,17,18,29)        -35.8234         estimate D2E/DX2                !
 ! D157  D(30,17,18,19)       -149.5456         estimate D2E/DX2                !
 ! D158  D(30,17,18,28)        -32.1457         estimate D2E/DX2                !
 ! D159  D(30,17,18,29)         91.4451         estimate D2E/DX2                !
 ! D160  D(7,17,20,3)          -40.8483         estimate D2E/DX2                !
 ! D161  D(7,17,20,42)        -161.2532         estimate D2E/DX2                !
 ! D162  D(7,17,20,43)          78.2122         estimate D2E/DX2                !
 ! D163  D(18,17,20,3)        -152.8031         estimate D2E/DX2                !
 ! D164  D(18,17,20,42)         86.792          estimate D2E/DX2                !
 ! D165  D(18,17,20,43)        -33.7426         estimate D2E/DX2                !
 ! D166  D(30,17,20,3)          79.1048         estimate D2E/DX2                !
 ! D167  D(30,17,20,42)        -41.3001         estimate D2E/DX2                !
 ! D168  D(30,17,20,43)       -161.8348         estimate D2E/DX2                !
 ! D169  D(17,18,19,8)          15.1718         estimate D2E/DX2                !
 ! D170  D(28,18,19,8)        -105.2331         estimate D2E/DX2                !
 ! D171  D(29,18,19,8)         137.6759         estimate D2E/DX2                !
 ! D172  D(17,18,28,53)        -59.9956         estimate D2E/DX2                !
 ! D173  D(17,18,28,54)       -177.6481         estimate D2E/DX2                !
 ! D174  D(17,18,28,55)         61.8065         estimate D2E/DX2                !
 ! D175  D(19,18,28,53)         56.775          estimate D2E/DX2                !
 ! D176  D(19,18,28,54)        -60.8775         estimate D2E/DX2                !
 ! D177  D(19,18,28,55)        178.5771         estimate D2E/DX2                !
 ! D178  D(29,18,28,53)        173.6202         estimate D2E/DX2                !
 ! D179  D(29,18,28,54)         55.9677         estimate D2E/DX2                !
 ! D180  D(29,18,28,55)        -64.5777         estimate D2E/DX2                !
 ! D181  D(17,18,29,56)        -57.4833         estimate D2E/DX2                !
 ! D182  D(17,18,29,57)       -178.099          estimate D2E/DX2                !
 ! D183  D(17,18,29,58)         64.6768         estimate D2E/DX2                !
 ! D184  D(19,18,29,56)       -175.5242         estimate D2E/DX2                !
 ! D185  D(19,18,29,57)         63.8601         estimate D2E/DX2                !
 ! D186  D(19,18,29,58)        -53.3641         estimate D2E/DX2                !
 ! D187  D(28,18,29,56)         68.0382         estimate D2E/DX2                !
 ! D188  D(28,18,29,57)        -52.5775         estimate D2E/DX2                !
 ! D189  D(28,18,29,58)       -169.8016         estimate D2E/DX2                !
 ! D190  D(5,22,23,24)         -23.9873         estimate D2E/DX2                !
 ! D191  D(5,22,23,25)          98.5744         estimate D2E/DX2                !
 ! D192  D(5,22,23,47)        -138.7035         estimate D2E/DX2                !
 ! D193  D(45,22,23,24)         93.0658         estimate D2E/DX2                !
 ! D194  D(45,22,23,25)       -144.3725         estimate D2E/DX2                !
 ! D195  D(45,22,23,47)        -21.6504         estimate D2E/DX2                !
 ! D196  D(46,22,23,24)       -151.2429         estimate D2E/DX2                !
 ! D197  D(46,22,23,25)        -28.6812         estimate D2E/DX2                !
 ! D198  D(46,22,23,47)         94.0408         estimate D2E/DX2                !
 ! D199  D(22,23,24,4)          13.74           estimate D2E/DX2                !
 ! D200  D(25,23,24,4)        -116.606          estimate D2E/DX2                !
 ! D201  D(47,23,24,4)         129.0258         estimate D2E/DX2                !
 ! D202  D(22,23,25,26)        175.9931         estimate D2E/DX2                !
 ! D203  D(22,23,25,27)         -1.4529         estimate D2E/DX2                !
 ! D204  D(24,23,25,26)        -62.004          estimate D2E/DX2                !
 ! D205  D(24,23,25,27)        120.55           estimate D2E/DX2                !
 ! D206  D(47,23,25,26)         52.6571         estimate D2E/DX2                !
 ! D207  D(47,23,25,27)       -124.789          estimate D2E/DX2                !
 ! D208  D(23,25,26,48)        -57.5653         estimate D2E/DX2                !
 ! D209  D(23,25,26,49)         62.5641         estimate D2E/DX2                !
 ! D210  D(23,25,26,50)       -177.2514         estimate D2E/DX2                !
 ! D211  D(27,25,26,48)        120.0632         estimate D2E/DX2                !
 ! D212  D(27,25,26,49)       -119.8075         estimate D2E/DX2                !
 ! D213  D(27,25,26,50)          0.377          estimate D2E/DX2                !
 ! D214  D(23,25,27,51)         -0.395          estimate D2E/DX2                !
 ! D215  D(23,25,27,52)        178.9971         estimate D2E/DX2                !
 ! D216  D(26,25,27,51)       -177.7354         estimate D2E/DX2                !
 ! D217  D(26,25,27,52)          1.6567         estimate D2E/DX2                !
 --------------------------------------------------------------------------------
 Trust Radius=3.00D-01 FncErr=1.00D-07 GrdErr=1.00D-06
 Number of steps in this run=    390 maximum allowed number of steps=    390.
 GradGradGradGradGradGradGradGradGradGradGradGradGradGradGradGradGradGrad

 Stoichiometry    C26H34O5
 Framework group  C1[X(C26H34O5)]
 Deg. of freedom   189
 Full point group                 C1      NOp   1
 Largest Abelian subgroup         C1      NOp   1
 Largest concise Abelian subgroup C1      NOp   1
                         Standard orientation:                         
 ---------------------------------------------------------------------
 Center     Atomic      Atomic             Coordinates (Angstroms)
 Number     Number       Type             X           Y           Z
 ---------------------------------------------------------------------
      1          6           0        2.258590   -0.120059   -2.826582
      2          6           0        3.060357    0.506085   -1.953011
      3          6           0        2.614328    0.761066   -0.536501
      4          6           0        1.540284   -0.212402    0.035540
      5          6           0        0.781743   -1.086050   -0.984424
      6          6           0        0.894755   -0.604953   -2.450354
      7          6           0        0.639209    0.698960    0.908035
      8          6           0       -0.700334    1.009364    0.339959
      9          6           0       -1.411673    0.122093   -0.361902
     10          6           0       -0.731503   -1.145911   -0.716464
     11          6           0       -2.716950    0.488751   -0.949712
     12          8           0       -2.740023    0.910219   -2.108781
     13          6           0       -4.003873    0.261879   -0.154859
     14          6           0       -4.502250   -1.186024   -0.270433
     15          6           0       -3.878703    0.661261    1.315578
     16          8           0       -1.398284   -2.157187   -0.924585
     17          6           0        1.259088    2.081194    0.952716
     18          6           0        0.040237    3.007372    1.130931
     19          8           0       -1.084364    2.329909    0.518759
     20          6           0        1.994946    2.158137   -0.387802
     21          8           0        0.451719    0.181962    2.218314
     22          6           0        1.442700   -2.458958   -0.827115
     23          6           0        2.026951   -2.480320    0.575585
     24          8           0        2.236508   -1.110660    0.948467
     25          6           0        1.279354   -3.153540    1.708507
     26          6           0        2.018878   -3.181981    3.025039
     27          6           0        0.077364   -3.746179    1.616940
     28          6           0       -0.304580    3.232902    2.611809
     29          6           0        0.202021    4.371417    0.454952
     30          1           0        1.975045    2.197313    1.776046
     31          1           0        3.501919    0.704666    0.110667
     32          6           0        4.416401    1.020273   -2.342931
     33          1           0        2.569552   -0.263430   -3.858977
     34          1           0        0.620385   -1.431041   -3.120514
     35          1           0        0.185517    0.202572   -2.672316
     36          1           0       -4.755545    0.929970   -0.597423
     37          1           0       -3.763341   -1.881543    0.142565
     38          1           0       -5.410442   -1.302145    0.334281
     39          1           0       -4.848364    0.583484    1.819368
     40          1           0       -3.540702    1.697643    1.413895
     41          1           0       -3.173165    0.020027    1.854606
     42          1           0        2.756901    2.944996   -0.379402
     43          1           0        1.310828    2.366680   -1.219638
     44          1           0        1.197822   -0.434226    2.365848
     45          1           0        2.283164   -2.548657   -1.528678
     46          1           0        0.794819   -3.311194   -1.049306
     47          1           0        3.014950   -2.955868    0.523558
     48          1           0        2.984309   -3.684774    2.905191
     49          1           0        2.200006   -2.168234    3.394537
     50          1           0        1.463193   -3.719103    3.801387
     51          1           0       -0.492402   -3.795574    0.697262
     52          1           0       -0.384010   -4.221837    2.478028
     53          1           0       -0.543191    2.297853    3.127099
     54          1           0       -1.198612    3.860123    2.708641
     55          1           0        0.518852    3.721720    3.142577
     56          1           0        1.087955    4.898409    0.823632
     57          1           0       -0.675684    5.002078    0.639785
     58          1           0        0.270972    4.280295   -0.633765
     59          1           0        4.649746    0.809863   -3.392037
     60          1           0        4.470002    2.104154   -2.200759
     61          1           0        5.190832    0.549193   -1.729073
     62          6           0       -4.833657   -1.597277   -1.698568
     63          1           0       -3.942130   -1.606800   -2.332394
     64          1           0       -5.567303   -0.916898   -2.142539
     65          1           0       -5.258412   -2.606238   -1.709134
 ---------------------------------------------------------------------
 Rotational constants (GHZ):      0.1861037      0.1497332      0.1248786
 Standard basis: 6-31G(d) (6D, 7F)
 There are   533 symmetry adapted basis functions of A   symmetry.
 Integral buffers will be    131072 words long.
 Raffenetti 2 integral format.
 Two-electron integral symmetry is turned on.
   533 basis functions,  1004 primitive gaussians,   533 cartesian basis functions
   115 alpha electrons      115 beta electrons
       nuclear repulsion energy      3567.7112964697 Hartrees.
 NAtoms=   65 NActive=   65 NUniq=   65 SFac= 1.00D+00 NAtFMM=   50 NAOKFM=T Big=T
 One-electron integrals computed using PRISM.
 NBasis=   533 RedAO= T  NBF=   533
 NBsUse=   533 1.00D-06 NBFU=   533
 Harris functional with IExCor=  402 diagonalized for initial guess.
 ExpMin= 1.61D-01 ExpMax= 5.48D+03 ExpMxC= 8.25D+02 IAcc=1 IRadAn=         1 AccDes= 0.00D+00
 HarFok:  IExCor=  402 AccDes= 0.00D+00 IRadAn=         1 IDoV= 1
 ScaDFX=  1.000000  1.000000  1.000000  1.000000
 FoFCou: FMM=F IPFlag=           0 FMFlag=      100000 FMFlg1=        2001
         NFxFlg=           0 DoJE=T BraDBF=F KetDBF=T FulRan=T
         Omega=  0.000000  0.000000  1.000000  0.000000  0.000000 ICntrl=     500 IOpCl=  0
         NMat0=    1 NMatS0=    1 NMatT0=    0 NMatD0=    1 NMtDS0=    0 NMtDT0=    0
         I1Cent=           4 NGrid=           0.
 Petite list used in FoFCou.
 Initial guess orbital symmetries:
       Occupied  (A) (A) (A) (A) (A) (A) (A) (A) (A) (A) (A) (A)
                 (A) (A) (A) (A) (A) (A) (A) (A) (A) (A) (A) (A)
                 (A) (A) (A) (A) (A) (A) (A) (A) (A) (A) (A) (A)
                 (A) (A) (A) (A) (A) (A) (A) (A) (A) (A) (A) (A)
                 (A) (A) (A) (A) (A) (A) (A) (A) (A) (A) (A) (A)
                 (A) (A) (A) (A) (A) (A) (A) (A) (A) (A) (A) (A)
                 (A) (A) (A) (A) (A) (A) (A) (A) (A) (A) (A) (A)
                 (A) (A) (A) (A) (A) (A) (A) (A) (A) (A) (A) (A)
                 (A) (A) (A) (A) (A) (A) (A) (A) (A) (A) (A) (A)
                 (A) (A) (A) (A) (A) (A) (A)
       Virtual   (A) (A) (A) (A) (A) (A) (A) (A) (A) (A) (A) (A)
                 (A) (A) (A) (A) (A) (A) (A) (A) (A) (A) (A) (A)
                 (A) (A) (A) (A) (A) (A) (A) (A) (A) (A) (A) (A)
                 (A) (A) (A) (A) (A) (A) (A) (A) (A) (A) (A) (A)
                 (A) (A) (A) (A) (A) (A) (A) (A) (A) (A) (A) (A)
                 (A) (A) (A) (A) (A) (A) (A) (A) (A) (A) (A) (A)
                 (A) (A) (A) (A) (A) (A) (A) (A) (A) (A) (A) (A)
                 (A) (A) (A) (A) (A) (A) (A) (A) (A) (A) (A) (A)
                 (A) (A) (A) (A) (A) (A) (A) (A) (A) (A) (A) (A)
                 (A) (A) (A) (A) (A) (A) (A) (A) (A) (A) (A) (A)
                 (A) (A) (A) (A) (A) (A) (A) (A) (A) (A) (A) (A)
                 (A) (A) (A) (A) (A) (A) (A) (A) (A) (A) (A) (A)
                 (A) (A) (A) (A) (A) (A) (A) (A) (A) (A) (A) (A)
                 (A) (A) (A) (A) (A) (A) (A) (A) (A) (A) (A) (A)
                 (A) (A) (A) (A) (A) (A) (A) (A) (A) (A) (A) (A)
                 (A) (A) (A) (A) (A) (A) (A) (A) (A) (A) (A) (A)
                 (A) (A) (A) (A) (A) (A) (A) (A) (A) (A) (A) (A)
                 (A) (A) (A) (A) (A) (A) (A) (A) (A) (A) (A) (A)
                 (A) (A) (A) (A) (A) (A) (A) (A) (A) (A) (A) (A)
                 (A) (A) (A) (A) (A) (A) (A) (A) (A) (A) (A) (A)
                 (A) (A) (A) (A) (A) (A) (A) (A) (A) (A) (A) (A)
                 (A) (A) (A) (A) (A) (A) (A) (A) (A) (A) (A) (A)
                 (A) (A) (A) (A) (A) (A) (A) (A) (A) (A) (A) (A)
                 (A) (A) (A) (A) (A) (A) (A) (A) (A) (A) (A) (A)
                 (A) (A) (A) (A) (A) (A) (A) (A) (A) (A) (A) (A)
                 (A) (A) (A) (A) (A) (A) (A) (A) (A) (A) (A) (A)
                 (A) (A) (A) (A) (A) (A) (A) (A) (A) (A) (A) (A)
                 (A) (A) (A) (A) (A) (A) (A) (A) (A) (A) (A) (A)
                 (A) (A) (A) (A) (A) (A) (A) (A) (A) (A) (A) (A)
                 (A) (A) (A) (A) (A) (A) (A) (A) (A) (A) (A) (A)
                 (A) (A) (A) (A) (A) (A) (A) (A) (A) (A) (A) (A)
                 (A) (A) (A) (A) (A) (A) (A) (A) (A) (A) (A) (A)
                 (A) (A) (A) (A) (A) (A) (A) (A) (A) (A) (A) (A)
                 (A) (A) (A) (A) (A) (A) (A) (A) (A) (A) (A) (A)
                 (A) (A) (A) (A) (A) (A) (A) (A) (A) (A)
 The electronic state of the initial guess is 1-A.
 Requested convergence on RMS density matrix=1.00D-08 within 128 cycles.
 Requested convergence on MAX density matrix=1.00D-06.
 Requested convergence on             energy=1.00D-06.
 No special actions if energy rises.
 Integral accuracy reduced to 1.0D-05 until final iterations.
 Initial convergence to 1.0D-05 achieved.  Increase integral accuracy.
 SCF Done:  E(RB3LYP) =  -1387.29991271     A.U. after   16 cycles
             Convg  =    0.3444D-08             -V/T =  2.0091

 **********************************************************************

            Population analysis using the SCF density.

 **********************************************************************

 Orbital symmetries:
       Occupied  (A) (A) (A) (A) (A) (A) (A) (A) (A) (A) (A) (A)
                 (A) (A) (A) (A) (A) (A) (A) (A) (A) (A) (A) (A)
                 (A) (A) (A) (A) (A) (A) (A) (A) (A) (A) (A) (A)
                 (A) (A) (A) (A) (A) (A) (A) (A) (A) (A) (A) (A)
                 (A) (A) (A) (A) (A) (A) (A) (A) (A) (A) (A) (A)
                 (A) (A) (A) (A) (A) (A) (A) (A) (A) (A) (A) (A)
                 (A) (A) (A) (A) (A) (A) (A) (A) (A) (A) (A) (A)
                 (A) (A) (A) (A) (A) (A) (A) (A) (A) (A) (A) (A)
                 (A) (A) (A) (A) (A) (A) (A) (A) (A) (A) (A) (A)
                 (A) (A) (A) (A) (A) (A) (A)
       Virtual   (A) (A) (A) (A) (A) (A) (A) (A) (A) (A) (A) (A)
                 (A) (A) (A) (A) (A) (A) (A) (A) (A) (A) (A) (A)
                 (A) (A) (A) (A) (A) (A) (A) (A) (A) (A) (A) (A)
                 (A) (A) (A) (A) (A) (A) (A) (A) (A) (A) (A) (A)
                 (A) (A) (A) (A) (A) (A) (A) (A) (A) (A) (A) (A)
                 (A) (A) (A) (A) (A) (A) (A) (A) (A) (A) (A) (A)
                 (A) (A) (A) (A) (A) (A) (A) (A) (A) (A) (A) (A)
                 (A) (A) (A) (A) (A) (A) (A) (A) (A) (A) (A) (A)
                 (A) (A) (A) (A) (A) (A) (A) (A) (A) (A) (A) (A)
                 (A) (A) (A) (A) (A) (A) (A) (A) (A) (A) (A) (A)
                 (A) (A) (A) (A) (A) (A) (A) (A) (A) (A) (A) (A)
                 (A) (A) (A) (A) (A) (A) (A) (A) (A) (A) (A) (A)
                 (A) (A) (A) (A) (A) (A) (A) (A) (A) (A) (A) (A)
                 (A) (A) (A) (A) (A) (A) (A) (A) (A) (A) (A) (A)
                 (A) (A) (A) (A) (A) (A) (A) (A) (A) (A) (A) (A)
                 (A) (A) (A) (A) (A) (A) (A) (A) (A) (A) (A) (A)
                 (A) (A) (A) (A) (A) (A) (A) (A) (A) (A) (A) (A)
                 (A) (A) (A) (A) (A) (A) (A) (A) (A) (A) (A) (A)
                 (A) (A) (A) (A) (A) (A) (A) (A) (A) (A) (A) (A)
                 (A) (A) (A) (A) (A) (A) (A) (A) (A) (A) (A) (A)
                 (A) (A) (A) (A) (A) (A) (A) (A) (A) (A) (A) (A)
                 (A) (A) (A) (A) (A) (A) (A) (A) (A) (A) (A) (A)
                 (A) (A) (A) (A) (A) (A) (A) (A) (A) (A) (A) (A)
                 (A) (A) (A) (A) (A) (A) (A) (A) (A) (A) (A) (A)
                 (A) (A) (A) (A) (A) (A) (A) (A) (A) (A) (A) (A)
                 (A) (A) (A) (A) (A) (A) (A) (A) (A) (A) (A) (A)
                 (A) (A) (A) (A) (A) (A) (A) (A) (A) (A) (A) (A)
                 (A) (A) (A) (A) (A) (A) (A) (A) (A) (A) (A) (A)
                 (A) (A) (A) (A) (A) (A) (A) (A) (A) (A) (A) (A)
                 (A) (A) (A) (A) (A) (A) (A) (A) (A) (A) (A) (A)
                 (A) (A) (A) (A) (A) (A) (A) (A) (A) (A) (A) (A)
                 (A) (A) (A) (A) (A) (A) (A) (A) (A) (A) (A) (A)
                 (A) (A) (A) (A) (A) (A) (A) (A) (A) (A) (A) (A)
                 (A) (A) (A) (A) (A) (A) (A) (A) (A) (A) (A) (A)
                 (A) (A) (A) (A) (A) (A) (A) (A) (A) (A)
 The electronic state is 1-A.
 Alpha  occ. eigenvalues --  -19.19447 -19.16925 -19.14325 -19.13899 -19.13469
 Alpha  occ. eigenvalues --  -10.28039 -10.27134 -10.26388 -10.26319 -10.25889
 Alpha  occ. eigenvalues --  -10.25270 -10.24616 -10.21969 -10.20273 -10.19739
 Alpha  occ. eigenvalues --  -10.19700 -10.19650 -10.19584 -10.19471 -10.19111
 Alpha  occ. eigenvalues --  -10.19103 -10.18780 -10.18531 -10.18514 -10.18389
 Alpha  occ. eigenvalues --  -10.18275 -10.17627 -10.17391 -10.17101 -10.16604
 Alpha  occ. eigenvalues --  -10.15419  -1.08371  -1.06079  -1.03728  -1.02396
 Alpha  occ. eigenvalues --   -1.01625  -0.87661  -0.84027  -0.82530  -0.81286
 Alpha  occ. eigenvalues --   -0.80208  -0.79708  -0.76992  -0.74431  -0.73509
 Alpha  occ. eigenvalues --   -0.72455  -0.71562  -0.69522  -0.68699  -0.67929
 Alpha  occ. eigenvalues --   -0.65108  -0.64021  -0.63325  -0.61863  -0.61086
 Alpha  occ. eigenvalues --   -0.59376  -0.58823  -0.56938  -0.55501  -0.53859
 Alpha  occ. eigenvalues --   -0.53111  -0.52018  -0.50809  -0.50159  -0.49350
 Alpha  occ. eigenvalues --   -0.47590  -0.47224  -0.46865  -0.46278  -0.45643
 Alpha  occ. eigenvalues --   -0.44926  -0.44751  -0.44381  -0.43697  -0.43106
 Alpha  occ. eigenvalues --   -0.42570  -0.42500  -0.42118  -0.41622  -0.41367
 Alpha  occ. eigenvalues --   -0.40778  -0.40595  -0.40430  -0.39925  -0.39905
 Alpha  occ. eigenvalues --   -0.39370  -0.38766  -0.38634  -0.38425  -0.38101
 Alpha  occ. eigenvalues --   -0.37698  -0.37106  -0.36990  -0.36341  -0.35982
 Alpha  occ. eigenvalues --   -0.35462  -0.35106  -0.34921  -0.34712  -0.34101
 Alpha  occ. eigenvalues --   -0.33944  -0.33282  -0.33073  -0.32629  -0.32101
 Alpha  occ. eigenvalues --   -0.31973  -0.31473  -0.30884  -0.27358  -0.26884
 Alpha  occ. eigenvalues --   -0.25258  -0.24904  -0.24428  -0.23713  -0.23005
 Alpha virt. eigenvalues --   -0.04631  -0.02161   0.01132   0.01754   0.03068
 Alpha virt. eigenvalues --    0.06503   0.08552   0.08866   0.09353   0.10225
 Alpha virt. eigenvalues --    0.10769   0.11063   0.11556   0.11794   0.12575
 Alpha virt. eigenvalues --    0.13032   0.13349   0.13641   0.13866   0.14200
 Alpha virt. eigenvalues --    0.14612   0.14742   0.15224   0.15547   0.15678
 Alpha virt. eigenvalues --    0.16211   0.16544   0.16650   0.17390   0.17854
 Alpha virt. eigenvalues --    0.17952   0.18508   0.18842   0.19363   0.19545
 Alpha virt. eigenvalues --    0.19725   0.19773   0.19934   0.20468   0.20564
 Alpha virt. eigenvalues --    0.20991   0.21216   0.21850   0.22120   0.22352
 Alpha virt. eigenvalues --    0.24034   0.24145   0.24344   0.24527   0.24890
 Alpha virt. eigenvalues --    0.25268   0.25832   0.25986   0.26049   0.26792
 Alpha virt. eigenvalues --    0.27053   0.27165   0.28054   0.28459   0.31143
 Alpha virt. eigenvalues --    0.31892   0.32359   0.32994   0.33669   0.34770
 Alpha virt. eigenvalues --    0.35200   0.36130   0.37441   0.38986   0.40238
 Alpha virt. eigenvalues --    0.41760   0.43905   0.45348   0.47795   0.48299
 Alpha virt. eigenvalues --    0.49029   0.50063   0.50536   0.51456   0.52026
 Alpha virt. eigenvalues --    0.52131   0.52613   0.52869   0.53383   0.53725
 Alpha virt. eigenvalues --    0.54324   0.54609   0.54703   0.55802   0.56212
 Alpha virt. eigenvalues --    0.56542   0.57324   0.58104   0.58642   0.59485
 Alpha virt. eigenvalues --    0.59831   0.60638   0.60859   0.61572   0.62009
 Alpha virt. eigenvalues --    0.62317   0.62716   0.63577   0.64346   0.64751
 Alpha virt. eigenvalues --    0.65134   0.66082   0.66395   0.66636   0.67228
 Alpha virt. eigenvalues --    0.68256   0.68807   0.69384   0.69741   0.70362
 Alpha virt. eigenvalues --    0.71134   0.71796   0.72774   0.73306   0.73884
 Alpha virt. eigenvalues --    0.74463   0.75414   0.75620   0.76092   0.76438
 Alpha virt. eigenvalues --    0.76904   0.77621   0.77897   0.78567   0.78846
 Alpha virt. eigenvalues --    0.79684   0.80259   0.80542   0.81771   0.82773
 Alpha virt. eigenvalues --    0.82909   0.83499   0.84065   0.84626   0.84925
 Alpha virt. eigenvalues --    0.85268   0.85949   0.86423   0.86884   0.87052
 Alpha virt. eigenvalues --    0.87436   0.87856   0.88743   0.89112   0.89326
 Alpha virt. eigenvalues --    0.89631   0.90138   0.90182   0.90460   0.91021
 Alpha virt. eigenvalues --    0.91405   0.91613   0.91667   0.92183   0.92574
 Alpha virt. eigenvalues --    0.93198   0.93455   0.94095   0.94373   0.94438
 Alpha virt. eigenvalues --    0.94985   0.95320   0.95673   0.96262   0.96701
 Alpha virt. eigenvalues --    0.97383   0.97787   0.98180   0.99209   0.99871
 Alpha virt. eigenvalues --    1.00093   1.00578   1.02081   1.02700   1.03051
 Alpha virt. eigenvalues --    1.03290   1.04128   1.05214   1.06625   1.08145
 Alpha virt. eigenvalues --    1.09009   1.10767   1.11706   1.12460   1.13249
 Alpha virt. eigenvalues --    1.13857   1.14594   1.16211   1.16542   1.17257
 Alpha virt. eigenvalues --    1.17937   1.19254   1.20061   1.21073   1.21897
 Alpha virt. eigenvalues --    1.22751   1.24831   1.25331   1.26463   1.27877
 Alpha virt. eigenvalues --    1.28985   1.30256   1.31968   1.33022   1.34252
 Alpha virt. eigenvalues --    1.34647   1.36507   1.38020   1.39560   1.40164
 Alpha virt. eigenvalues --    1.41657   1.43130   1.43989   1.44956   1.46145
 Alpha virt. eigenvalues --    1.47983   1.48773   1.51482   1.52063   1.53640
 Alpha virt. eigenvalues --    1.54440   1.55591   1.57221   1.57628   1.58630
 Alpha virt. eigenvalues --    1.59504   1.60564   1.60954   1.62577   1.64312
 Alpha virt. eigenvalues --    1.65759   1.66533   1.67768   1.68502   1.69266
 Alpha virt. eigenvalues --    1.70414   1.72252   1.73239   1.73659   1.75192
 Alpha virt. eigenvalues --    1.76137   1.77074   1.77644   1.77914   1.79130
 Alpha virt. eigenvalues --    1.80223   1.80824   1.81196   1.81859   1.82225
 Alpha virt. eigenvalues --    1.82717   1.84254   1.85601   1.86109   1.86812
 Alpha virt. eigenvalues --    1.87327   1.87795   1.88122   1.89027   1.89419
 Alpha virt. eigenvalues --    1.89696   1.90341   1.91070   1.91320   1.91769
 Alpha virt. eigenvalues --    1.92407   1.93024   1.94189   1.94976   1.95325
 Alpha virt. eigenvalues --    1.96880   1.96984   1.97881   1.98595   1.98861
 Alpha virt. eigenvalues --    1.99949   2.00195   2.00611   2.01077   2.02208
 Alpha virt. eigenvalues --    2.02985   2.03494   2.04290   2.04507   2.05238
 Alpha virt. eigenvalues --    2.05572   2.06326   2.07199   2.08909   2.09481
 Alpha virt. eigenvalues --    2.10676   2.11365   2.12301   2.13054   2.13434
 Alpha virt. eigenvalues --    2.14301   2.16123   2.16596   2.18244   2.18764
 Alpha virt. eigenvalues --    2.19573   2.20395   2.21611   2.22434   2.22860
 Alpha virt. eigenvalues --    2.23050   2.24052   2.26493   2.27051   2.27970
 Alpha virt. eigenvalues --    2.28118   2.28588   2.29533   2.30349   2.30892
 Alpha virt. eigenvalues --    2.32062   2.32999   2.33590   2.34439   2.34788
 Alpha virt. eigenvalues --    2.35507   2.36827   2.37572   2.38082   2.39071
 Alpha virt. eigenvalues --    2.39765   2.40654   2.41289   2.41667   2.44438
 Alpha virt. eigenvalues --    2.45166   2.46028   2.46524   2.48039   2.49731
 Alpha virt. eigenvalues --    2.50011   2.51602   2.52421   2.53408   2.54182
 Alpha virt. eigenvalues --    2.55535   2.56604   2.58122   2.61146   2.61552
 Alpha virt. eigenvalues --    2.62597   2.63452   2.64503   2.65349   2.65442
 Alpha virt. eigenvalues --    2.68123   2.68693   2.69572   2.69968   2.71765
 Alpha virt. eigenvalues --    2.72390   2.73791   2.75576   2.76680   2.77700
 Alpha virt. eigenvalues --    2.79035   2.79867   2.80614   2.81826   2.85975
 Alpha virt. eigenvalues --    2.88428   2.91045   2.93690   2.94603   2.95391
 Alpha virt. eigenvalues --    2.96713   2.98695   2.99886   3.01604   3.03973
 Alpha virt. eigenvalues --    3.07065   3.07256   3.12348   3.17817   3.19877
 Alpha virt. eigenvalues --    3.20893   3.28524   4.01251   4.09980   4.12743
 Alpha virt. eigenvalues --    4.14069   4.14614   4.17045   4.19066   4.19861
 Alpha virt. eigenvalues --    4.23629   4.26263   4.27092   4.29903   4.30799
 Alpha virt. eigenvalues --    4.32435   4.34327   4.37789   4.38958   4.42441
 Alpha virt. eigenvalues --    4.47273   4.49084   4.55262   4.57047   4.62177
 Alpha virt. eigenvalues --    4.66374   4.67905   4.71478   4.74469   4.78174
 Alpha virt. eigenvalues --    4.90392   4.95348   5.25992
          Condensed to atoms (all electrons):
 Mulliken atomic charges:
              1
     1  C   -0.199801
     2  C    0.201981
     3  C   -0.200315
     4  C    0.320633
     5  C   -0.040924
     6  C   -0.330745
     7  C    0.206595
     8  C    0.422832
     9  C   -0.098579
    10  C    0.422689
    11  C    0.415111
    12  O   -0.454477
    13  C   -0.146898
    14  C   -0.259545
    15  C   -0.472849
    16  O   -0.498080
    17  C   -0.151790
    18  C    0.305308
    19  O   -0.536945
    20  C   -0.306898
    21  O   -0.677394
    22  C   -0.328568
    23  C    0.090838
    24  O   -0.581870
    25  C    0.187257
    26  C   -0.510005
    27  C   -0.405185
    28  C   -0.460013
    29  C   -0.463398
    30  H    0.144493
    31  H    0.150155
    32  C   -0.519253
    33  H    0.126301
    34  H    0.164074
    35  H    0.184789
    36  H    0.145929
    37  H    0.161739
    38  H    0.132186
    39  H    0.143568
    40  H    0.157533
    41  H    0.159553
    42  H    0.148867
    43  H    0.164907
    44  H    0.430462
    45  H    0.153403
    46  H    0.186063
    47  H    0.134799
    48  H    0.152006
    49  H    0.155566
    50  H    0.157703
    51  H    0.173601
    52  H    0.136494
    53  H    0.184922
    54  H    0.149085
    55  H    0.139910
    56  H    0.149018
    57  H    0.158041
    58  H    0.159980
    59  H    0.157476
    60  H    0.156008
    61  H    0.155755
    62  C   -0.444519
    63  H    0.166136
    64  H    0.139165
    65  H    0.135119
 Sum of Mulliken atomic charges =   0.00000
 Mulliken charges with hydrogens summed into heavy atoms:
              1
     1  C   -0.073500
     2  C    0.201981
     3  C   -0.050160
     4  C    0.320633
     5  C   -0.040924
     6  C    0.018118
     7  C    0.206595
     8  C    0.422832
     9  C   -0.098579
    10  C    0.422689
    11  C    0.415111
    12  O   -0.454477
    13  C   -0.000969
    14  C    0.034380
    15  C   -0.012195
    16  O   -0.498080
    17  C   -0.007297
    18  C    0.305308
    19  O   -0.536945
    20  C    0.006876
    21  O   -0.246932
    22  C    0.010898
    23  C    0.225637
    24  O   -0.581870
    25  C    0.187257
    26  C   -0.044730
    27  C   -0.095089
    28  C    0.013904
    29  C    0.003641
    32  C   -0.050014
    62  C   -0.004098
 Sum of Mulliken charges with hydrogens summed into heavy atoms =   0.00000
 Electronic spatial extent (au):  <R**2>=          10731.5102
 Charge=              0.0000 electrons
 Dipole moment (field-independent basis, Debye):
    X=              4.5744    Y=              1.1785    Z=              1.5057  Tot=              4.9579
 Quadrupole moment (field-independent basis, Debye-Ang):
   XX=           -180.1266   YY=           -178.2886   ZZ=           -187.4039
   XY=              1.5497   XZ=             -8.7291   YZ=              2.1946
 Traceless Quadrupole moment (field-independent basis, Debye-Ang):
   XX=              1.8131   YY=              3.6511   ZZ=             -5.4642
   XY=              1.5497   XZ=             -8.7291   YZ=              2.1946
 Octapole moment (field-independent basis, Debye-Ang**2):
  XXX=             -2.2004  YYY=             30.9527  ZZZ=              8.8437  XYY=             23.0571
  XXY=              1.4566  XXZ=             21.0971  XZZ=             31.1648  YZZ=            -14.6884
  YYZ=             25.5940  XYZ=             -2.5966
 Hexadecapole moment (field-independent basis, Debye-Ang**3):
 XXXX=          -6484.5275 YYYY=          -4754.3862 ZZZZ=          -2946.8120 XXXY=             -0.3332
 XXXZ=            -54.3411 YYYX=            -16.6510 YYYZ=              8.7214 ZZZX=            -31.0406
 ZZZY=              0.9036 XXYY=          -1886.4883 XXZZ=          -1637.5287 YYZZ=          -1262.7500
 XXYZ=              9.4568 YYXZ=             -0.1786 ZZXY=              2.2205
 N-N= 3.567711296470D+03 E-N=-1.036201827381D+04  KE= 1.374855153948D+03
 Calling FoFJK, ICntrl=      2127 FMM=T ISym2X=0 I1Cent= 0 IOpClX= 0 NMat=1 NMatS=1 NMatT=0.
 ***** Axes restored to original set *****
 -------------------------------------------------------------------
 Center     Atomic                   Forces (Hartrees/Bohr)
 Number     Number              X              Y              Z
 -------------------------------------------------------------------
      1        6           0.009805462    0.000869249    0.001773938
      2        6          -0.009903810   -0.005921881    0.004371671
      3        6          -0.005930204   -0.009485041   -0.003023679
      4        6           0.012685632   -0.005539471    0.007654079
      5        6          -0.007264610    0.002905985    0.004923265
      6        6          -0.007175241   -0.008929201   -0.005349984
      7        6           0.022004832    0.016540876    0.006880372
      8        6          -0.006666898   -0.001861779   -0.024026434
      9        6           0.011141586   -0.007197266    0.008991351
     10        6          -0.013506300    0.018630394   -0.002501125
     11        6          -0.030950192   -0.005263696   -0.015444617
     12        8           0.009582199    0.013582027    0.009684438
     13        6           0.006653280    0.006288602   -0.007855373
     14        6          -0.007411171   -0.002757892    0.004243890
     15        6           0.007791918    0.001376296   -0.000220306
     16        8           0.004251983   -0.009698536    0.001392699
     17        6           0.001977417   -0.006674639   -0.011922722
     18        6           0.029326314    0.005517005   -0.015696458
     19        8          -0.009466303   -0.009256426    0.033903902
     20        6           0.009036360   -0.001839269   -0.006552974
     21        8          -0.004654804    0.005667043    0.004257755
     22        6          -0.002716597   -0.007444763    0.008306677
     23        6          -0.000862101    0.006440230    0.016106872
     24        8          -0.004563913   -0.008962639   -0.013359933
     25        6          -0.011649148    0.015369262    0.007940129
     26        6          -0.000207301    0.001081874   -0.001150623
     27        6           0.001121253   -0.008813819   -0.001531602
     28        6          -0.001770393    0.008331347    0.002100814
     29        6          -0.009031358   -0.000607974   -0.006935661
     30        1          -0.003215797    0.002221797    0.000591692
     31        1          -0.001798328    0.005641893    0.000731661
     32        6          -0.002504005   -0.000494940    0.000267342
     33        1           0.000641316   -0.000957010   -0.000027376
     34        1           0.000468414    0.004886670   -0.000041485
     35        1          -0.001724335    0.006083552   -0.000293424
     36        1          -0.003532408   -0.004185307    0.001153088
     37        1           0.002102901   -0.000888484   -0.000421668
     38        1           0.004236313    0.001430923   -0.002289582
     39        1          -0.001758594   -0.000193723    0.000272049
     40        1           0.001333818    0.000283105    0.000645317
     41        1           0.000566435   -0.000387505    0.000269348
     42        1          -0.002212457   -0.001670259   -0.001277025
     43        1           0.000230349    0.000361891    0.001109181
     44        1          -0.002915978   -0.001120808   -0.002615948
     45        1           0.000891972    0.000960505   -0.004485555
     46        1           0.000677079    0.004804426   -0.005703956
     47        1           0.004534430   -0.000141750    0.000388419
     48        1           0.003784824   -0.002049642    0.000172328
     49        1           0.004153070   -0.002014364    0.001443370
     50        1          -0.001831402   -0.000806116   -0.001497019
     51        1          -0.000531081   -0.000848871   -0.002589867
     52        1           0.001712700    0.000004996    0.000475583
     53        1           0.000567076   -0.004681957    0.003229368
     54        1           0.000393198   -0.003274376   -0.002370386
     55        1           0.000124514   -0.000820513   -0.000407422
     56        1          -0.000029895    0.000800140    0.001390442
     57        1           0.002008840    0.001493823    0.001670385
     58        1           0.001469248   -0.001809343    0.002524959
     59        1          -0.000624909    0.000861227   -0.000364737
     60        1           0.004121804   -0.001543988   -0.000197777
     61        1           0.004135262   -0.001092406    0.000059623
     62        6          -0.004208113   -0.001998304    0.002739315
     63        1          -0.000450251   -0.000119243   -0.000864587
     64        1          -0.000977011   -0.000852551   -0.001025359
     65        1          -0.001486892   -0.000229389    0.000379343
 -------------------------------------------------------------------
 Cartesian Forces:  Max     0.033903902 RMS     0.007131394

 GradGradGradGradGradGradGradGradGradGradGradGradGradGradGradGradGradGrad
 Berny optimization.
 Internal  Forces:  Max     0.020193795 RMS     0.003533992
 Search for a local minimum.
 Step number   1 out of a maximum of  390
 All quantities printed in internal units (Hartrees-Bohrs-Radians)
 Mixed Optimization -- RFO/linear search
 Second derivative matrix not updated -- first step.
 ITU=  0
     Eigenvalues ---    0.00275   0.00295   0.00357   0.00375   0.00384
     Eigenvalues ---    0.00466   0.00531   0.00566   0.00571   0.00599
     Eigenvalues ---    0.00630   0.00649   0.00696   0.00743   0.00808
     Eigenvalues ---    0.01060   0.01121   0.01226   0.01276   0.01458
     Eigenvalues ---    0.01499   0.01710   0.01722   0.01830   0.02067
     Eigenvalues ---    0.02568   0.02839   0.02839   0.03132   0.03161
     Eigenvalues ---    0.03471   0.03608   0.03663   0.03889   0.04082
     Eigenvalues ---    0.04281   0.04350   0.04457   0.04463   0.04619
     Eigenvalues ---    0.04830   0.04915   0.04946   0.05124   0.05283
     Eigenvalues ---    0.05305   0.05338   0.05405   0.05420   0.05499
     Eigenvalues ---    0.05518   0.05564   0.05571   0.05586   0.05606
     Eigenvalues ---    0.05644   0.05703   0.05841   0.05929   0.06145
     Eigenvalues ---    0.06580   0.06847   0.07044   0.07078   0.07158
     Eigenvalues ---    0.07217   0.07321   0.07336   0.07570   0.08101
     Eigenvalues ---    0.08352   0.08462   0.08729   0.09111   0.09607
     Eigenvalues ---    0.09768   0.10332   0.11511   0.11883   0.12295
     Eigenvalues ---    0.12601   0.13310   0.14491   0.15335   0.15989
     Eigenvalues ---    0.16000   0.16000   0.16000   0.16000   0.16000
     Eigenvalues ---    0.16000   0.16000   0.16000   0.16000   0.16000
     Eigenvalues ---    0.16000   0.16000   0.16000   0.16000   0.16000
     Eigenvalues ---    0.16000   0.16000   0.16000   0.16000   0.16000
     Eigenvalues ---    0.16412   0.16957   0.16972   0.18147   0.18592
     Eigenvalues ---    0.19424   0.20825   0.21919   0.22143   0.22747
     Eigenvalues ---    0.23285   0.24481   0.24759   0.24958   0.24972
     Eigenvalues ---    0.24983   0.24986   0.25000   0.26106   0.26625
     Eigenvalues ---    0.26900   0.27461   0.27845   0.28271   0.28279
     Eigenvalues ---    0.28775   0.28859   0.28910   0.29338   0.29468
     Eigenvalues ---    0.29531   0.30111   0.30334   0.30548   0.30840
     Eigenvalues ---    0.31322   0.31673   0.32193   0.33029   0.33691
     Eigenvalues ---    0.33822   0.33843   0.33853   0.33935   0.33966
     Eigenvalues ---    0.33987   0.33988   0.34014   0.34075   0.34084
     Eigenvalues ---    0.34175   0.34186   0.34191   0.34201   0.34216
     Eigenvalues ---    0.34225   0.34231   0.34258   0.34267   0.34267
     Eigenvalues ---    0.34269   0.34275   0.34281   0.34294   0.34300
     Eigenvalues ---    0.34345   0.34358   0.34364   0.34428   0.34830
     Eigenvalues ---    0.35080   0.35215   0.35635   0.35880   0.36585
     Eigenvalues ---    0.37880   0.40967   0.44507   0.50594   0.53388
     Eigenvalues ---    0.54277   0.56477   0.89629   0.91479
 RFO step:  Lambda=-2.35110642D-02 EMin= 2.74816459D-03
 Linear search not attempted -- first point.
 Iteration  1 RMS(Cart)=  0.05069165 RMS(Int)=  0.00091927
 Iteration  2 RMS(Cart)=  0.00160796 RMS(Int)=  0.00026525
 Iteration  3 RMS(Cart)=  0.00000163 RMS(Int)=  0.00026525
 Iteration  4 RMS(Cart)=  0.00000000 RMS(Int)=  0.00026525
 Variable       Old X    -DE/DX   Delta X   Delta X   Delta X     New X
                                 (Linear)    (Quad)   (Total)
    R1        2.53393  -0.00265   0.00000  -0.00512  -0.00514   2.52879
    R2        2.82621   0.00788   0.00000   0.02275   0.02265   2.84886
    R3        2.05545   0.00050   0.00000   0.00133   0.00133   2.05678
    R4        2.84745   0.00440   0.00000   0.01135   0.01143   2.85888
    R5        2.83791   0.00465   0.00000   0.01347   0.01347   2.85138
    R6        2.94485   0.00590   0.00000   0.01416   0.01410   2.95895
    R7        2.90155   0.01027   0.00000   0.03418   0.03412   2.93567
    R8        2.07855  -0.00197   0.00000  -0.00548  -0.00548   2.07307
    R9        2.91470   0.01051   0.00000   0.03031   0.03034   2.94504
   R10        2.92985   0.00953   0.00000   0.03554   0.03588   2.96573
   R11        2.75475  -0.00331   0.00000  -0.00790  -0.00786   2.74689
   R12        2.92339   0.00392   0.00000   0.01408   0.01403   2.93742
   R13        2.90631   0.00624   0.00000   0.01330   0.01297   2.91928
   R14        2.89473   0.00406   0.00000   0.01160   0.01145   2.90618
   R15        2.07596  -0.00138   0.00000  -0.00380  -0.00380   2.07216
   R16        2.07387   0.00211   0.00000   0.00580   0.00580   2.07967
   R17        2.81146   0.01037   0.00000   0.02480   0.02447   2.83593
   R18        2.86393   0.01483   0.00000   0.05230   0.05184   2.91577
   R19        2.68532   0.00106   0.00000   0.00271   0.00281   2.68813
   R20        2.52536   0.01252   0.00000   0.02190   0.02200   2.54736
   R21        2.62072  -0.01816   0.00000  -0.04222  -0.04198   2.57874
   R22        2.80048   0.00089   0.00000  -0.00267  -0.00250   2.79798
   R23        2.79252   0.02019   0.00000   0.05431   0.05431   2.84683
   R24        2.32259  -0.00603   0.00000  -0.00643  -0.00643   2.31616
   R25        2.33104  -0.01918   0.00000  -0.02085  -0.02085   2.31020
   R26        2.89037  -0.00270   0.00000  -0.00848  -0.00848   2.88189
   R27        2.90192   0.00615   0.00000   0.01968   0.01968   2.92160
   R28        2.88909   0.00703   0.00000   0.02206   0.02206   2.91115
   R29        2.07631  -0.00030   0.00000  -0.00082  -0.00082   2.07549
   R30        2.07035   0.00049   0.00000   0.00135   0.00135   2.07171
   R31        2.07352   0.00078   0.00000   0.00214   0.00214   2.07566
   R32        2.87743   0.00760   0.00000   0.02342   0.02342   2.90086
   R33        2.07017   0.00024   0.00000   0.00065   0.00065   2.07082
   R34        2.06836   0.00040   0.00000   0.00109   0.00109   2.06946
   R35        2.06967   0.00051   0.00000   0.00139   0.00139   2.07107
   R36        2.91236   0.00016   0.00000   0.01228   0.01245   2.92481
[...]
     55          1           0        0.359610    3.910764    3.072037
     56          1           0        0.924213    5.045240    0.793040
     57          1           0       -0.818064    4.984323    0.467614
     58          1           0        0.321290    4.303549   -0.705286
     59          1           0        4.862681    0.618523   -3.210032
     60          1           0        4.709351    1.954749   -2.055035
     61          1           0        5.307831    0.392946   -1.505446
     62          6           0       -4.794194   -1.873244   -1.436734
     63          1           0       -3.933912   -1.920400   -2.109891
     64          1           0       -5.603504   -1.342818   -1.953144
     65          1           0       -5.129203   -2.900376   -1.251913
 ---------------------------------------------------------------------
 Rotational constants (GHZ):      0.1850480      0.1494231      0.1228445

 **********************************************************************

            Population analysis using the SCF density.

 **********************************************************************

 Orbital symmetries:
       Occupied  (A) (A) (A) (A) (A) (A) (A) (A) (A) (A) (A) (A)
                 (A) (A) (A) (A) (A) (A) (A) (A) (A) (A) (A) (A)
                 (A) (A) (A) (A) (A) (A) (A) (A) (A) (A) (A) (A)
                 (A) (A) (A) (A) (A) (A) (A) (A) (A) (A) (A) (A)
                 (A) (A) (A) (A) (A) (A) (A) (A) (A) (A) (A) (A)
                 (A) (A) (A) (A) (A) (A) (A) (A) (A) (A) (A) (A)
                 (A) (A) (A) (A) (A) (A) (A) (A) (A) (A) (A) (A)
                 (A) (A) (A) (A) (A) (A) (A) (A) (A) (A) (A) (A)
                 (A) (A) (A) (A) (A) (A) (A) (A) (A) (A) (A) (A)
                 (A) (A) (A) (A) (A) (A) (A)
       Virtual   (A) (A) (A) (A) (A) (A) (A) (A) (A) (A) (A) (A)
                 (A) (A) (A) (A) (A) (A) (A) (A) (A) (A) (A) (A)
                 (A) (A) (A) (A) (A) (A) (A) (A) (A) (A) (A) (A)
                 (A) (A) (A) (A) (A) (A) (A) (A) (A) (A) (A) (A)
                 (A) (A) (A) (A) (A) (A) (A) (A) (A) (A) (A) (A)
                 (A) (A) (A) (A) (A) (A) (A) (A) (A) (A) (A) (A)
                 (A) (A) (A) (A) (A) (A) (A) (A) (A) (A) (A) (A)
                 (A) (A) (A) (A) (A) (A) (A) (A) (A) (A) (A) (A)
                 (A) (A) (A) (A) (A) (A) (A) (A) (A) (A) (A) (A)
                 (A) (A) (A) (A) (A) (A) (A) (A) (A) (A) (A) (A)
                 (A) (A) (A) (A) (A) (A) (A) (A) (A) (A) (A) (A)
                 (A) (A) (A) (A) (A) (A) (A) (A) (A) (A) (A) (A)
                 (A) (A) (A) (A) (A) (A) (A) (A) (A) (A) (A) (A)
                 (A) (A) (A) (A) (A) (A) (A) (A) (A) (A) (A) (A)
                 (A) (A) (A) (A) (A) (A) (A) (A) (A) (A) (A) (A)
                 (A) (A) (A) (A) (A) (A) (A) (A) (A) (A) (A) (A)
                 (A) (A) (A) (A) (A) (A) (A) (A) (A) (A) (A) (A)
                 (A) (A) (A) (A) (A) (A) (A) (A) (A) (A) (A) (A)
                 (A) (A) (A) (A) (A) (A) (A) (A) (A) (A) (A) (A)
                 (A) (A) (A) (A) (A) (A) (A) (A) (A) (A) (A) (A)
                 (A) (A) (A) (A) (A) (A) (A) (A) (A) (A) (A) (A)
                 (A) (A) (A) (A) (A) (A) (A) (A) (A) (A) (A) (A)
                 (A) (A) (A) (A) (A) (A) (A) (A) (A) (A) (A) (A)
                 (A) (A) (A) (A) (A) (A) (A) (A) (A) (A) (A) (A)
                 (A) (A) (A) (A) (A) (A) (A) (A) (A) (A) (A) (A)
                 (A) (A) (A) (A) (A) (A) (A) (A) (A) (A) (A) (A)
                 (A) (A) (A) (A) (A) (A) (A) (A) (A) (A) (A) (A)
                 (A) (A) (A) (A) (A) (A) (A) (A) (A) (A) (A) (A)
                 (A) (A) (A) (A) (A) (A) (A) (A) (A) (A) (A) (A)
                 (A) (A) (A) (A) (A) (A) (A) (A) (A) (A) (A) (A)
                 (A) (A) (A) (A) (A) (A) (A) (A) (A) (A) (A) (A)
                 (A) (A) (A) (A) (A) (A) (A) (A) (A) (A) (A) (A)
                 (A) (A) (A) (A) (A) (A) (A) (A) (A) (A) (A) (A)
                 (A) (A) (A) (A) (A) (A) (A) (A) (A) (A) (A) (A)
                 (A) (A) (A) (A) (A) (A) (A) (A) (A) (A)
 The electronic state is 1-A.
 Alpha  occ. eigenvalues --  -19.19489 -19.16692 -19.14786 -19.13170 -19.13161
 Alpha  occ. eigenvalues --  -10.27256 -10.26872 -10.26596 -10.26551 -10.26002
 Alpha  occ. eigenvalues --  -10.25569 -10.24717 -10.21383 -10.20320 -10.20207
 Alpha  occ. eigenvalues --  -10.20017 -10.19701 -10.19632 -10.19413 -10.19042
 Alpha  occ. eigenvalues --  -10.18866 -10.18780 -10.18631 -10.18517 -10.18507
 Alpha  occ. eigenvalues --  -10.18355 -10.18238 -10.17635 -10.17289 -10.16812
 Alpha  occ. eigenvalues --  -10.15442  -1.08846  -1.05663  -1.03447  -1.02616
 Alpha  occ. eigenvalues --   -1.01839  -0.86761  -0.83677  -0.81934  -0.81128
 Alpha  occ. eigenvalues --   -0.79843  -0.79549  -0.76655  -0.74017  -0.72894
 Alpha  occ. eigenvalues --   -0.71980  -0.71346  -0.70034  -0.68763  -0.67996
 Alpha  occ. eigenvalues --   -0.64817  -0.63829  -0.63322  -0.61627  -0.60556
 Alpha  occ. eigenvalues --   -0.59020  -0.58736  -0.56502  -0.55218  -0.53558
 Alpha  occ. eigenvalues --   -0.52753  -0.51938  -0.50575  -0.49871  -0.49016
 Alpha  occ. eigenvalues --   -0.47491  -0.47179  -0.46831  -0.46091  -0.45709
 Alpha  occ. eigenvalues --   -0.44857  -0.44543  -0.44212  -0.43484  -0.42953
 Alpha  occ. eigenvalues --   -0.42220  -0.42173  -0.42022  -0.41593  -0.41167
 Alpha  occ. eigenvalues --   -0.40863  -0.40501  -0.40132  -0.40032  -0.39877
 Alpha  occ. eigenvalues --   -0.39220  -0.38903  -0.38733  -0.38229  -0.37959
 Alpha  occ. eigenvalues --   -0.37647  -0.37346  -0.37047  -0.36512  -0.36125
 Alpha  occ. eigenvalues --   -0.35510  -0.35193  -0.35034  -0.34712  -0.34409
 Alpha  occ. eigenvalues --   -0.33481  -0.33347  -0.33045  -0.32471  -0.32195
 Alpha  occ. eigenvalues --   -0.32067  -0.31217  -0.30717  -0.27363  -0.27149
 Alpha  occ. eigenvalues --   -0.25419  -0.24633  -0.24263  -0.23489  -0.22589
 Alpha virt. eigenvalues --   -0.04131  -0.01408   0.00901   0.01537   0.04196
 Alpha virt. eigenvalues --    0.06967   0.08537   0.08982   0.09179   0.10350
 Alpha virt. eigenvalues --    0.10538   0.11178   0.11545   0.11730   0.12634
 Alpha virt. eigenvalues --    0.13122   0.13175   0.13639   0.13968   0.14201
 Alpha virt. eigenvalues --    0.14499   0.14800   0.15452   0.15592   0.15609
 Alpha virt. eigenvalues --    0.16242   0.16649   0.16792   0.17220   0.17314
 Alpha virt. eigenvalues --    0.17789   0.18261   0.18847   0.18979   0.19300
 Alpha virt. eigenvalues --    0.19655   0.19798   0.19850   0.20099   0.20638
 Alpha virt. eigenvalues --    0.20997   0.21271   0.21609   0.21933   0.22229
 Alpha virt. eigenvalues --    0.23401   0.23799   0.23976   0.24449   0.24759
 Alpha virt. eigenvalues --    0.24804   0.25319   0.25629   0.26145   0.26630
 Alpha virt. eigenvalues --    0.27035   0.27277   0.27958   0.28201   0.30237
 Alpha virt. eigenvalues --    0.31494   0.31625   0.32629   0.33541   0.34786
 Alpha virt. eigenvalues --    0.35134   0.36368   0.37645   0.38991   0.39739
 Alpha virt. eigenvalues --    0.41590   0.44014   0.45337   0.47807   0.48125
 Alpha virt. eigenvalues --    0.49126   0.49856   0.50350   0.50694   0.51497
 Alpha virt. eigenvalues --    0.51977   0.52218   0.52371   0.53269   0.53331
 Alpha virt. eigenvalues --    0.54009   0.54158   0.54425   0.55432   0.55768
 Alpha virt. eigenvalues --    0.56465   0.57126   0.58051   0.58657   0.59414
 Alpha virt. eigenvalues --    0.60123   0.60260   0.60752   0.61316   0.61514
 Alpha virt. eigenvalues --    0.62371   0.62535   0.62875   0.64442   0.64765
 Alpha virt. eigenvalues --    0.65110   0.65626   0.66318   0.67175   0.67442
 Alpha virt. eigenvalues --    0.67926   0.68754   0.69186   0.69535   0.70749
 Alpha virt. eigenvalues --    0.70933   0.71583   0.72304   0.72781   0.73698
 Alpha virt. eigenvalues --    0.74711   0.74764   0.75388   0.76022   0.76495
 Alpha virt. eigenvalues --    0.76932   0.77476   0.78135   0.78274   0.78696
 Alpha virt. eigenvalues --    0.79369   0.80200   0.80605   0.81205   0.83089
 Alpha virt. eigenvalues --    0.83141   0.83582   0.84251   0.84522   0.85236
 Alpha virt. eigenvalues --    0.85430   0.85819   0.85965   0.86788   0.87110
 Alpha virt. eigenvalues --    0.87592   0.87932   0.88358   0.88718   0.88937
 Alpha virt. eigenvalues --    0.89284   0.89644   0.89986   0.90104   0.91060
 Alpha virt. eigenvalues --    0.91242   0.91428   0.91839   0.92356   0.92623
 Alpha virt. eigenvalues --    0.93004   0.93330   0.93913   0.94323   0.94630
 Alpha virt. eigenvalues --    0.94812   0.95518   0.95872   0.96049   0.96791
 Alpha virt. eigenvalues --    0.97255   0.97428   0.98477   0.99055   0.99655
 Alpha virt. eigenvalues --    0.99825   1.01289   1.01914   1.02688   1.03239
 Alpha virt. eigenvalues --    1.03542   1.04034   1.04767   1.06410   1.09039
 Alpha virt. eigenvalues --    1.09387   1.11067   1.12254   1.12793   1.13561
 Alpha virt. eigenvalues --    1.14379   1.14772   1.15367   1.16313   1.17836
 Alpha virt. eigenvalues --    1.18035   1.18564   1.19640   1.20764   1.21401
 Alpha virt. eigenvalues --    1.23505   1.23985   1.25688   1.26491   1.27019
 Alpha virt. eigenvalues --    1.28556   1.30053   1.31384   1.32884   1.34431
 Alpha virt. eigenvalues --    1.35216   1.36589   1.37829   1.39234   1.39984
 Alpha virt. eigenvalues --    1.41262   1.42960   1.43845   1.45210   1.46090
 Alpha virt. eigenvalues --    1.47693   1.48110   1.51008   1.51854   1.54022
 Alpha virt. eigenvalues --    1.54526   1.55069   1.56403   1.57393   1.58853
 Alpha virt. eigenvalues --    1.60183   1.60875   1.61158   1.62169   1.63539
 Alpha virt. eigenvalues --    1.64855   1.66276   1.67662   1.68595   1.69133
 Alpha virt. eigenvalues --    1.70063   1.71821   1.72624   1.73032   1.73998
 Alpha virt. eigenvalues --    1.75167   1.75875   1.76841   1.78481   1.78901
 Alpha virt. eigenvalues --    1.79049   1.79546   1.80662   1.81229   1.82686
 Alpha virt. eigenvalues --    1.83502   1.84399   1.84794   1.85246   1.86090
 Alpha virt. eigenvalues --    1.86738   1.86964   1.87149   1.88445   1.88603
 Alpha virt. eigenvalues --    1.89137   1.90142   1.90354   1.91008   1.92144
 Alpha virt. eigenvalues --    1.92362   1.93024   1.93732   1.94391   1.95430
 Alpha virt. eigenvalues --    1.95774   1.96796   1.96934   1.97574   1.97809
 Alpha virt. eigenvalues --    1.98885   1.99536   2.00408   2.00894   2.01599
 Alpha virt. eigenvalues --    2.02516   2.03153   2.03226   2.04143   2.04802
 Alpha virt. eigenvalues --    2.05204   2.05850   2.06473   2.07524   2.08770
 Alpha virt. eigenvalues --    2.10822   2.11304   2.12003   2.12517   2.12657
 Alpha virt. eigenvalues --    2.13207   2.15205   2.16313   2.17694   2.17927
 Alpha virt. eigenvalues --    2.18484   2.20301   2.21379   2.21756   2.22358
 Alpha virt. eigenvalues --    2.23200   2.23433   2.25263   2.26512   2.27253
 Alpha virt. eigenvalues --    2.27520   2.28508   2.29136   2.29993   2.30470
 Alpha virt. eigenvalues --    2.32322   2.32785   2.33038   2.34045   2.34223
 Alpha virt. eigenvalues --    2.35878   2.36788   2.37608   2.37909   2.38835
 Alpha virt. eigenvalues --    2.39395   2.40555   2.40730   2.42007   2.42965
 Alpha virt. eigenvalues --    2.44106   2.44562   2.46197   2.47377   2.48875
 Alpha virt. eigenvalues --    2.49538   2.50645   2.52127   2.52967   2.53843
 Alpha virt. eigenvalues --    2.56258   2.56456   2.57776   2.59601   2.61063
 Alpha virt. eigenvalues --    2.62166   2.62646   2.63954   2.64280   2.66097
 Alpha virt. eigenvalues --    2.66848   2.67984   2.69012   2.69696   2.71078
 Alpha virt. eigenvalues --    2.71261   2.72409   2.74466   2.76707   2.77065
 Alpha virt. eigenvalues --    2.77445   2.78295   2.79681   2.80164   2.86150
 Alpha virt. eigenvalues --    2.87227   2.89162   2.94091   2.94579   2.96063
 Alpha virt. eigenvalues --    2.97166   2.98223   3.00171   3.01005   3.03931
 Alpha virt. eigenvalues --    3.05903   3.06896   3.12424   3.15545   3.17429
 Alpha virt. eigenvalues --    3.20880   3.26791   4.02717   4.09801   4.12127
 Alpha virt. eigenvalues --    4.13071   4.14199   4.15943   4.17974   4.19978
 Alpha virt. eigenvalues --    4.23175   4.26354   4.26754   4.27746   4.31046
 Alpha virt. eigenvalues --    4.32244   4.34083   4.36645   4.37499   4.41999
 Alpha virt. eigenvalues --    4.46992   4.48806   4.54870   4.58260   4.62487
 Alpha virt. eigenvalues --    4.66322   4.67993   4.70524   4.74435   4.76299
 Alpha virt. eigenvalues --    4.88583   4.95608   5.24781
          Condensed to atoms (all electrons):
 Mulliken atomic charges:
              1
     1  C   -0.197332
     2  C    0.205284
     3  C   -0.201043
     4  C    0.324908
     5  C   -0.047413
     6  C   -0.328483
     7  C    0.199536
     8  C    0.420660
     9  C   -0.108144
    10  C    0.428295
    11  C    0.420399
    12  O   -0.444666
    13  C   -0.150110
    14  C   -0.260760
    15  C   -0.469944
    16  O   -0.511955
    17  C   -0.155538
    18  C    0.298197
    19  O   -0.535168
    20  C   -0.308914
    21  O   -0.673532
    22  C   -0.332138
    23  C    0.092635
    24  O   -0.590200
    25  C    0.183338
    26  C   -0.514333
    27  C   -0.406069
    28  C   -0.466624
    29  C   -0.460211
    30  H    0.144850
    31  H    0.148784
    32  C   -0.521176
    33  H    0.125253
    34  H    0.166510
    35  H    0.179313
    36  H    0.144579
    37  H    0.155949
    38  H    0.131117
    39  H    0.143282
    40  H    0.156969
    41  H    0.160917
    42  H    0.150266
    43  H    0.163450
    44  H    0.431428
    45  H    0.151958
    46  H    0.187762
    47  H    0.136667
    48  H    0.154759
    49  H    0.159928
    50  H    0.157836
    51  H    0.181214
    52  H    0.136808
    53  H    0.193751
    54  H    0.155948
    55  H    0.144085
    56  H    0.150362
    57  H    0.162835
    58  H    0.163510
    59  H    0.157399
    60  H    0.154197
    61  H    0.156559
    62  C   -0.446885
    63  H    0.176106
    64  H    0.136622
    65  H    0.136412
 Sum of Mulliken atomic charges =   0.00000
 Mulliken charges with hydrogens summed into heavy atoms:
              1
     1  C   -0.072079
     2  C    0.205284
     3  C   -0.052259
     4  C    0.324908
     5  C   -0.047413
     6  C    0.017340
     7  C    0.199536
     8  C    0.420660
     9  C   -0.108144
    10  C    0.428295
    11  C    0.420399
    12  O   -0.444666
    13  C   -0.005532
    14  C    0.026306
    15  C   -0.008776
    16  O   -0.511955
    17  C   -0.010688
    18  C    0.298197
    19  O   -0.535168
    20  C    0.004803
    21  O   -0.242103
    22  C    0.007582
    23  C    0.229302
    24  O   -0.590200
    25  C    0.183338
    26  C   -0.041810
    27  C   -0.088047
    28  C    0.027160
    29  C    0.016495
    32  C   -0.053020
    62  C    0.002255
 Sum of Mulliken charges with hydrogens summed into heavy atoms =   0.00000
 Electronic spatial extent (au):  <R**2>=          10811.7203
 Charge=              0.0000 electrons
 Dipole moment (field-independent basis, Debye):
    X=              4.5393    Y=              1.9154    Z=              2.2721  Tot=              5.4255
 Quadrupole moment (field-independent basis, Debye-Ang):
   XX=           -180.5190   YY=           -175.5511   ZZ=           -188.6893
   XY=              0.3380   XZ=             -9.3127   YZ=              1.0114
 Traceless Quadrupole moment (field-independent basis, Debye-Ang):
   XX=              1.0675   YY=              6.0353   ZZ=             -7.1028
   XY=              0.3380   XZ=             -9.3127   YZ=              1.0114
 Octapole moment (field-independent basis, Debye-Ang**2):
  XXX=              2.2718  YYY=             42.3802  ZZZ=             15.7116  XYY=             20.7260
  XXY=              3.4837  XXZ=             20.1006  XZZ=             32.9008  YZZ=            -12.8601
  YYZ=             30.0808  XYZ=             -0.9612
 Hexadecapole moment (field-independent basis, Debye-Ang**3):
 XXXX=          -6576.8319 YYYY=          -4825.4241 ZZZZ=          -2886.1812 XXXY=            -10.8764
 XXXZ=            -53.0249 YYYX=            -20.6717 YYYZ=             12.0140 ZZZX=            -35.7560
 ZZZY=              4.7439 XXYY=          -1912.4666 XXZZ=          -1641.3269 YYZZ=          -1259.8653
 XXYZ=              2.5218 YYXZ=              4.9592 ZZXY=             -3.6977
 N-N= 3.553900806371D+03 E-N=-1.033428737210D+04  KE= 1.374463820027D+03
 1\1\GINC-B0604\FOpt\RB3LYP\6-31G(d)\C26H34O5\CAOFEI\24-Mar-2021\0\\# o
 pt rb3lyp/6-31g(d) geom=connectivity\\Title Card Required\\0,1\C,0.066
 9788053,-0.0501406269,0.0094983246\C,1.4048114894,-0.0385381068,0.0374
 468348\C,2.1481552957,1.275150362,-0.0246846211\C,1.4116575614,2.50978
 83368,0.5876157374\C,-0.1341876025,2.3866928169,0.7624201287\C,-0.7560
 362001,1.2077646065,-0.0533713169\C,1.8678862965,3.708760347,-0.320183
 6803\C,0.7965929637,4.1556251636,-1.2929357227\C,-0.5112698104,4.25473
 19267,-0.9744519444\C,-0.9457308772,3.6211448611,0.2790070958\C,-1.581
 2212781,4.7553441319,-1.930221974\O,-2.241167289,3.9349446607,-2.54290
 3016\C,-1.8468537896,6.2530885248,-2.0485628203\C,-2.7177460916,6.7280
 522941,-0.8547661269\C,-0.5644176202,7.0929761991,-2.1560936043\O,-2.0
 044253516,3.9071418101,0.82891283\C,2.9377403005,3.1881620648,-1.30713
 15513\C,2.7668983271,4.1112027929,-2.5361618274\O,1.3233968921,4.46492
 44055,-2.4881793128\C,2.5492408018,1.7065250202,-1.4600161537\O,2.2565
 223332,4.8300246072,0.444054609\C,-0.3072958153,2.1438190391,2.2744571
 175\C,0.9308146418,2.7391647863,2.9472568056\O,1.9532619349,2.73993046
 75,1.9027810661\C,0.8525412691,4.1223367459,3.5754836617\C,2.101148788
 4,4.5251958059,4.3272492052\C,-0.2178048087,4.91925402,3.5076217717\C,
 3.5640205943,5.4103988417,-2.3974143149\C,2.9958087249,3.4626907898,-3
 .8977282421\H,3.9402276424,3.285132606,-0.8791495274\H,3.0740091988,1.
 1908046937,0.5599557414\C,2.2364189339,-1.293363327,0.0881273619\H,-0.
 4665874929,-0.999611918,0.0188791757\H,-1.7629974193,1.0308834914,0.34
 06350355\H,-0.9033634448,1.5196045696,-1.0973549003\H,-2.4371006071,6.
 3659291268,-2.9670099212\H,-2.190965575,6.5155864881,0.0836290729\H,-2
 .7951523964,7.8213609162,-0.9308554279\H,-0.8263562622,8.1476477282,-2
 .2977459325\H,0.0575843762,6.7792674779,-2.9997497991\H,0.0390081706,7
 .016184555,-1.2447678294\H,3.3583140768,1.0915374189,-1.8660758127\H,1
 .689533459,1.5929375398,-2.1312458929\H,2.3968220408,4.4680024626,1.34
 3257054\H,-0.3246714022,1.0664626946,2.4631078282\H,-1.2505199073,2.56
 32996965,2.6260457979\H,1.313796296,2.0530109753,3.7142984893\H,2.2859
 534288,3.8439712335,5.1699440237\H,2.9935924629,4.4735718057,3.6904400
 924\H,2.0219929252,5.5419664847,4.7223570382\H,-1.123913673,4.65176131
 61,2.9753393702\H,-0.209261541,5.8970863562,3.9837873898\H,3.390494643
 7,5.8696859692,-1.421564598\H,3.2724588918,6.1145052579,-3.1835851581\
 H,4.6358496368,5.2057260083,-2.5007506123\H,4.0419681978,3.1517838446,
 -3.9934889778\H,2.7788752328,4.1792879613,-4.6963228751\H,2.35730704,2
 .5878130071,-4.0430519664\H,1.6110345293,-2.1917976567,0.089235226\H,2
 .9181102897,-1.3586800901,-0.7712856836\H,2.8669514096,-1.3144965094,0
 .9879424645\C,-4.1189376527,6.1134018254,-0.8050828346\H,-4.0728997034
 ,5.0317355806,-0.6523458698\H,-4.6709167874,6.3042286995,-1.7334785662
 \H,-4.6946795038,6.542515016,0.0230320649\\Version=EM64L-G09RevB.01\St
 ate=1-A\HF=-1387.3160004\RMSD=4.624e-09\RMSF=5.605e-06\Dipole=1.993322
 7,-0.7049371,0.2934883\Quadrupole=-5.5329765,4.7347899,0.7981866,-2.31
 27452,-6.1507357,-1.6963184\PG=C01 [X(C26H34O5)]\\@


 KNOWLEDGE IS OF TWO KINDS:  WE KNOW A SUBJECT OURSELVES OR WE KNOW 
 WHERE WE CAN FIND INFORMATION UPON IT.

                                    -- SAMUEL JOHNSON
 Job cpu time:  0 days  5 hours 22 minutes 43.5 seconds.
 File lengths (MBytes):  RWF=    186 Int=      0 D2E=      0 Chk=     20 Scr=      1
 Normal termination of Gaussian 09 at Wed Mar 24 16:30:05 2021.
