 Entering Gaussian System, Link 0=g09
 Initial command:
 /public/software/g09/g09/l1.exe /tmp/Gau-29892.inp -scrdir=/tmp/
 Entering Link 1 = /public/software/g09/g09/l1.exe PID=     29893.
  
 Copyright (c) 1988,1990,1992,1993,1995,1998,2003,2009,2010,
            Gaussian, Inc.  All Rights Reserved.
  
 This is part of the Gaussian(R) 09 program.  It is based on
 the Gaussian(R) 03 system (copyright 2003, Gaussian, Inc.),
 the Gaussian(R) 98 system (copyright 1998, Gaussian, Inc.),
 the Gaussian(R) 94 system (copyright 1995, Gaussian, Inc.),
 the Gaussian 92(TM) system (copyright 1992, Gaussian, Inc.),
 the Gaussian 90(TM) system (copyright 1990, Gaussian, Inc.),
 the Gaussian 88(TM) system (copyright 1988, Gaussian, Inc.),
 the Gaussian 86(TM) system (copyright 1986, Carnegie Mellon
 University), and the Gaussian 82(TM) system (copyright 1983,
 Carnegie Mellon University). Gaussian is a federally registered
 trademark of Gaussian, Inc.
  
 This software contains proprietary and confidential information,
 including trade secrets, belonging to Gaussian, Inc.
  
 This software is provided under written license and may be
 used, copied, transmitted, or stored only in accord with that
 written license.
  
 The following legend is applicable only to US Government
 contracts under FAR:
  
                    RESTRICTED RIGHTS LEGEND
  
 Use, reproduction and disclosure by the US Government is
 subject to restrictions as set forth in subparagraphs (a)
 and (c) of the Commercial Computer Software - Restricted
 Rights clause in FAR 52.227-19.
  
 Gaussian, Inc.
 340 Quinnipiac St., Bldg. 40, Wallingford CT 06492
  
  
 ---------------------------------------------------------------
 Warning -- This program may not be used in any manner that
 competes with the business of Gaussian, Inc. or will provide
 assistance to any competitor of Gaussian, Inc.  The licensee
 of this program is prohibited from giving any competitor of
 Gaussian, Inc. access to this program.  By using this program,
 the user acknowledges that Gaussian, Inc. is engaged in the
 business of creating and licensing software in the field of
 computational chemistry and represents and warrants to the
 licensee that it is not a competitor of Gaussian, Inc. and that
 it will not use this program in any manner prohibited above.
 ---------------------------------------------------------------
  

 Cite this work as:
 Gaussian 09, Revision B.01,
 M. J. Frisch, G. W. Trucks, H. B. Schlegel, G. E. Scuseria, 
 M. A. Robb, J. R. Cheeseman, G. Scalmani, V. Barone, B. Mennucci, 
 G. A. Petersson, H. Nakatsuji, M. Caricato, X. Li, H. P. Hratchian, 
 A. F. Izmaylov, J. Bloino, G. Zheng, J. L. Sonnenberg, M. Hada, 
 M. Ehara, K. Toyota, R. Fukuda, J. Hasegawa, M. Ishida, T. Nakajima, 
 Y. Honda, O. Kitao, H. Nakai, T. Vreven, J. A. Montgomery, Jr., 
 J. E. Peralta, F. Ogliaro, M. Bearpark, J. J. Heyd, E. Brothers, 
 K. N. Kudin, V. N. Staroverov, T. Keith, R. Kobayashi, J. Normand, 
 K. Raghavachari, A. Rendell, J. C. Burant, S. S. Iyengar, J. Tomasi, 
 M. Cossi, N. Rega, J. M. Millam, M. Klene, J. E. Knox, J. B. Cross, 
 V. Bakken, C. Adamo, J. Jaramillo, R. Gomperts, R. E. Stratmann, 
 O. Yazyev, A. J. Austin, R. Cammi, C. Pomelli, J. W. Ochterski, 
 R. L. Martin, K. Morokuma, V. G. Zakrzewski, G. A. Voth, 
 P. Salvador, J. J. Dannenberg, S. Dapprich, A. D. Daniels, 
 O. Farkas, J. B. Foresman, J. V. Ortiz, J. Cioslowski, 
 and D. J. Fox, Gaussian, Inc., Wallingford CT, 2010.
 
 ******************************************
 Gaussian 09:  EM64L-G09RevB.01 12-Aug-2010
                24-Mar-2021 
 ******************************************
 %mem=600MW
 %nprocshared=10
 Will use up to   10 processors via shared memory.
 ---------------------------------------
 # opt rb3lyp/6-31g(d) geom=connectivity
 ---------------------------------------
 1/14=-1,18=20,19=15,26=3,38=1,57=2/1,3;
 2/9=110,12=2,17=6,18=5,40=1/2;
 3/5=1,6=6,7=1,11=2,16=1,25=1,30=1,71=1,74=-5,116=1/1,2,3;
 4//1;
 5/5=2,38=5/2;
 6/7=2,8=2,9=2,10=2,28=1/1;
 7//1,2,3,16;
 1/14=-1,18=20,19=15/3(2);
 2/9=110/2;
 99//99;
 2/9=110/2;
 3/5=1,6=6,7=1,11=2,16=1,25=1,30=1,71=1,74=-5,116=1/1,2,3;
 4/5=5,16=3/1;
 5/5=2,38=5/2;
 7//1,2,3,16;
 1/14=-1,18=20,19=15/3(-5);
 2/9=110/2;
 6/7=2,8=2,9=2,10=2,19=2,28=1/1;
 99/9=1/99;
 -------------------
 Title Card Required
 -------------------
 Symbolic Z-matrix:
 Charge =  0 Multiplicity = 1
 C                     0.        0.        0. 
 C                     1.3409    0.        0. 
 C                     2.1175    1.2914    0. 
 C                     1.3924    2.5342    0.598 
 C                    -0.1339    2.4207    0.7923 
 C                    -0.7984    1.2647    0.0084 
 C                     1.8474    3.7065   -0.3116 
 C                     0.8241    4.2123   -1.268 
 C                    -0.4777    4.268    -0.9708 
 C                    -0.8808    3.6821    0.3303 
 C                    -1.4856    4.7284   -1.9499 
 O                    -2.383     3.9556   -2.2859 
 C                    -1.3853    6.1613   -2.4653 
 C                    -1.2684    6.2027   -3.9981 
 C                    -2.549     6.978    -1.9109 
 O                    -1.8508    4.1402    0.9294 
 C                     2.899     3.1832   -1.2697 
 C                     2.7241    4.0823   -2.5091 
 O                     1.3338    4.49     -2.5276 
 C                     2.5044    1.7118   -1.425 
 O                     2.34      4.8121    0.4319 
 C                    -0.2784    2.1873    2.2991 
 C                     0.9797    2.7578    2.9331 
 O                     1.9842    2.7693    1.9086 
 C                     0.9649    4.1314    3.5719 
 C                     2.2572    4.5305    4.2438 
 C                    -0.0873    4.9648    3.6233 
 C                     3.5812    5.3556   -2.4284 
 C                     3.0302    3.3723   -3.8306 
 H                     3.9154    3.2542   -0.8624 
 H                     3.0405    1.128     0.5755 
 C                     2.1371   -1.2728   -0.0395 
 H                    -0.5534   -0.9355   -0.0414 
 H                    -1.7831    1.0541    0.4474 
 H                    -0.9941    1.5357   -1.0369 
 H                    -0.4628    6.6017   -2.065 
 H                    -0.5264    5.4662   -4.3294 
 H                    -0.8804    7.1869   -4.2894 
 H                    -3.5183    6.5436   -2.1774 
 H                    -2.5157    8.0076   -2.2813 
 H                    -2.505     7.0115   -0.8164 
 H                     1.655     1.5849   -2.1077 
 H                     3.336     1.1156   -1.816 
 H                     2.5778    4.4528    1.311 
 H                    -1.2061    2.5657    2.7368 
 H                    -0.2845    1.109     2.5086 
 H                     1.3163    2.0553    3.7064 
 H                     3.0739    4.5884    3.5181 
 H                     2.5265    3.7969    5.011 
 H                     2.1852    5.5072    4.7345 
 H                    -0.0186    5.9308    4.1161 
 H                    -1.053     4.7296    3.1932 
 H                     3.3284    5.9693   -1.5589 
 H                     4.6484    5.1153   -2.3856 
 H                     3.4059    5.9946   -3.302 
 H                     2.3251    2.5585   -4.0281 
 H                     4.0483    2.9703   -3.8426 
 H                     2.9223    4.0628   -4.6755 
 H                     1.4945   -2.1594   -0.0566 
 H                     2.7681   -1.3018   -0.9334 
 H                     2.7799   -1.345     0.8437 
 C                    -2.5599    5.9646   -4.7701 
 H                    -2.357     5.9855   -5.8461 
 H                    -3.0009    4.9923   -4.5361 
 H                    -3.3006    6.7426   -4.5627 
 

 GradGradGradGradGradGradGradGradGradGradGradGradGradGradGradGradGradGrad
 Berny optimization.
 Initialization pass.
                           ----------------------------
                           !    Initial Parameters    !
                           ! (Angstroms and Degrees)  !
 --------------------------                            --------------------------
 ! Name  Definition              Value          Derivative Info.                !
 --------------------------------------------------------------------------------
 ! R1    R(1,2)                  1.3409         estimate D2E/DX2                !
 ! R2    R(1,6)                  1.4957         estimate D2E/DX2                !
 ! R3    R(1,33)                 1.0877         estimate D2E/DX2                !
 ! R4    R(2,3)                  1.5069         estimate D2E/DX2                !
 ! R5    R(2,32)                 1.5018         estimate D2E/DX2                !
 ! R6    R(3,4)                  1.5582         estimate D2E/DX2                !
 ! R7    R(3,20)                 1.5353         estimate D2E/DX2                !
 ! R8    R(3,31)                 1.0999         estimate D2E/DX2                !
 ! R9    R(4,5)                  1.5428         estimate D2E/DX2                !
 ! R10   R(4,7)                  1.552          estimate D2E/DX2                !
 ! R11   R(4,24)                 1.4571         estimate D2E/DX2                !
 ! R12   R(5,6)                  1.5467         estimate D2E/DX2                !
 ! R13   R(5,10)                 1.537          estimate D2E/DX2                !
 ! R14   R(5,22)                 1.5316         estimate D2E/DX2                !
 ! R15   R(6,34)                 1.0985         estimate D2E/DX2                !
 ! R16   R(6,35)                 1.0974         estimate D2E/DX2                !
 ! R17   R(7,8)                  1.4892         estimate D2E/DX2                !
 ! R18   R(7,17)                 1.5158         estimate D2E/DX2                !
 ! R19   R(7,21)                 1.4205         estimate D2E/DX2                !
 ! R20   R(8,9)                  1.3365         estimate D2E/DX2                !
 ! R21   R(8,19)                 1.3869         estimate D2E/DX2                !
 ! R22   R(9,10)                 1.4828         estimate D2E/DX2                !
 ! R23   R(9,11)                 1.4787         estimate D2E/DX2                !
 ! R24   R(10,16)                1.2287         estimate D2E/DX2                !
 ! R25   R(11,12)                1.231          estimate D2E/DX2                !
 ! R26   R(11,13)                1.5261         estimate D2E/DX2                !
 ! R27   R(13,14)                1.5378         estimate D2E/DX2                !
 ! R28   R(13,15)                1.526          estimate D2E/DX2                !
 ! R29   R(13,36)                1.0978         estimate D2E/DX2                !
 ! R30   R(14,37)                1.0967         estimate D2E/DX2                !
 ! R31   R(14,38)                1.0973         estimate D2E/DX2                !
 ! R32   R(14,62)                1.5234         estimate D2E/DX2                !
 ! R33   R(15,39)                1.0951         estimate D2E/DX2                !
 ! R34   R(15,40)                1.0947         estimate D2E/DX2                !
 ! R35   R(15,41)                1.0959         estimate D2E/DX2                !
 ! R36   R(17,18)                1.5411         estimate D2E/DX2                !
 ! R37   R(17,20)                1.5313         estimate D2E/DX2                !
 ! R38   R(17,30)                1.0973         estimate D2E/DX2                !
 ! R39   R(18,19)                1.449          estimate D2E/DX2                !
 ! R40   R(18,28)                1.537          estimate D2E/DX2                !
 ! R41   R(18,29)                1.5311         estimate D2E/DX2                !
 ! R42   R(20,42)                1.0971         estimate D2E/DX2                !
 ! R43   R(20,43)                1.0954         estimate D2E/DX2                !
 ! R44   R(21,44)                0.979          estimate D2E/DX2                !
 ! R45   R(22,23)                1.5199         estimate D2E/DX2                !
 ! R46   R(22,45)                1.0933         estimate D2E/DX2                !
 ! R47   R(22,46)                1.0985         estimate D2E/DX2                !
 ! R48   R(23,24)                1.4348         estimate D2E/DX2                !
 ! R49   R(23,25)                1.5149         estimate D2E/DX2                !
 ! R50   R(23,47)                1.0976         estimate D2E/DX2                !
 ! R51   R(24,44)                1.8825         estimate D2E/DX2                !
 ! R52   R(25,26)                1.5102         estimate D2E/DX2                !
 ! R53   R(25,27)                1.3433         estimate D2E/DX2                !
 ! R54   R(26,48)                1.0941         estimate D2E/DX2                !
 ! R55   R(26,49)                1.0951         estimate D2E/DX2                !
 ! R56   R(26,50)                1.0954         estimate D2E/DX2                !
 ! R57   R(27,51)                1.0866         estimate D2E/DX2                !
 ! R58   R(27,52)                1.083          estimate D2E/DX2                !
 ! R59   R(28,53)                1.0939         estimate D2E/DX2                !
 ! R60   R(28,54)                1.0948         estimate D2E/DX2                !
 ! R61   R(28,55)                1.0965         estimate D2E/DX2                !
 ! R62   R(29,56)                1.0947         estimate D2E/DX2                !
 ! R63   R(29,57)                1.0947         estimate D2E/DX2                !
 ! R64   R(29,58)                1.0965         estimate D2E/DX2                !
 ! R65   R(32,59)                1.0951         estimate D2E/DX2                !
 ! R66   R(32,60)                1.0946         estimate D2E/DX2                !
 ! R67   R(32,61)                1.0947         estimate D2E/DX2                !
 ! R68   R(62,63)                1.0952         estimate D2E/DX2                !
 ! R69   R(62,64)                1.093          estimate D2E/DX2                !
 ! R70   R(62,65)                1.094          estimate D2E/DX2                !
 ! A1    A(2,1,6)              122.2635         estimate D2E/DX2                !
 ! A2    A(2,1,33)             120.5821         estimate D2E/DX2                !
 ! A3    A(6,1,33)             117.1213         estimate D2E/DX2                !
 ! A4    A(1,2,3)              121.0211         estimate D2E/DX2                !
 ! A5    A(1,2,32)             122.0156         estimate D2E/DX2                !
 ! A6    A(3,2,32)             116.9407         estimate D2E/DX2                !
 ! A7    A(2,3,4)              116.3403         estimate D2E/DX2                !
 ! A8    A(2,3,20)             111.3791         estimate D2E/DX2                !
 ! A9    A(2,3,31)             107.7672         estimate D2E/DX2                !
 ! A10   A(4,3,20)             104.7785         estimate D2E/DX2                !
 ! A11   A(4,3,31)             107.9499         estimate D2E/DX2                !
 ! A12   A(20,3,31)            108.3515         estimate D2E/DX2                !
 ! A13   A(3,4,5)              116.7456         estimate D2E/DX2                !
 ! A14   A(3,4,7)              103.9521         estimate D2E/DX2                !
 ! A15   A(3,4,24)             106.5518         estimate D2E/DX2                !
 ! A16   A(5,4,7)              114.7978         estimate D2E/DX2                !
 ! A17   A(5,4,24)             107.4814         estimate D2E/DX2                !
 ! A18   A(7,4,24)             106.6312         estimate D2E/DX2                !
 ! A19   A(4,5,6)              114.5934         estimate D2E/DX2                !
 ! A20   A(4,5,10)             112.4894         estimate D2E/DX2                !
 ! A21   A(4,5,22)             103.2057         estimate D2E/DX2                !
 ! A22   A(6,5,10)             104.611          estimate D2E/DX2                !
 ! A23   A(6,5,22)             110.1316         estimate D2E/DX2                !
 ! A24   A(10,5,22)            112.02           estimate D2E/DX2                !
 ! A25   A(1,6,5)              113.9215         estimate D2E/DX2                !
 ! A26   A(1,6,34)             108.581          estimate D2E/DX2                !
 ! A27   A(1,6,35)             107.3764         estimate D2E/DX2                !
 ! A28   A(5,6,34)             109.0173         estimate D2E/DX2                !
 ! A29   A(5,6,35)             112.0108         estimate D2E/DX2                !
 ! A30   A(34,6,35)            105.5535         estimate D2E/DX2                !
 ! A31   A(4,7,8)              115.5629         estimate D2E/DX2                !
 ! A32   A(4,7,17)             108.2443         estimate D2E/DX2                !
 ! A33   A(4,7,21)             112.5078         estimate D2E/DX2                !
 ! A34   A(8,7,17)             100.8383         estimate D2E/DX2                !
 ! A35   A(8,7,21)             108.0644         estimate D2E/DX2                !
 ! A36   A(17,7,21)            111.0358         estimate D2E/DX2                !
 ! A37   A(7,8,9)              122.7294         estimate D2E/DX2                !
 ! A38   A(7,8,19)             113.5002         estimate D2E/DX2                !
 ! A39   A(9,8,19)             123.4769         estimate D2E/DX2                !
 ! A40   A(8,9,10)             116.3254         estimate D2E/DX2                !
 ! A41   A(8,9,11)             121.9838         estimate D2E/DX2                !
 ! A42   A(10,9,11)            121.2482         estimate D2E/DX2                !
 ! A43   A(5,10,9)             117.1246         estimate D2E/DX2                !
 ! A44   A(5,10,16)            122.8913         estimate D2E/DX2                !
 ! A45   A(9,10,16)            119.6795         estimate D2E/DX2                !
 ! A46   A(9,11,12)            118.8265         estimate D2E/DX2                !
 ! A47   A(9,11,13)            118.1108         estimate D2E/DX2                !
 ! A48   A(12,11,13)           123.0362         estimate D2E/DX2                !
 ! A49   A(11,13,14)           111.5248         estimate D2E/DX2                !
 ! A50   A(11,13,15)           109.2509         estimate D2E/DX2                !
 ! A51   A(11,13,36)           107.9838         estimate D2E/DX2                !
 ! A52   A(14,13,15)           113.9345         estimate D2E/DX2                !
 ! A53   A(14,13,36)           106.7842         estimate D2E/DX2                !
 ! A54   A(15,13,36)           107.076          estimate D2E/DX2                !
 ! A55   A(13,14,37)           109.5394         estimate D2E/DX2                !
 ! A56   A(13,14,38)           108.3991         estimate D2E/DX2                !
 ! A57   A(13,14,62)           115.8787         estimate D2E/DX2                !
 ! A58   A(37,14,38)           106.4342         estimate D2E/DX2                !
 ! A59   A(37,14,62)           108.3935         estimate D2E/DX2                !
 ! A60   A(38,14,62)           107.7843         estimate D2E/DX2                !
 ! A61   A(13,15,39)           111.9796         estimate D2E/DX2                !
 ! A62   A(13,15,40)           110.9312         estimate D2E/DX2                !
 ! A63   A(13,15,41)           110.4012         estimate D2E/DX2                !
 ! A64   A(39,15,40)           108.5218         estimate D2E/DX2                !
 ! A65   A(39,15,41)           106.9003         estimate D2E/DX2                !
 ! A66   A(40,15,41)           107.9359         estimate D2E/DX2                !
 ! A67   A(7,17,18)            103.1901         estimate D2E/DX2                !
 ! A68   A(7,17,20)            102.5362         estimate D2E/DX2                !
 ! A69   A(7,17,30)            112.6851         estimate D2E/DX2                !
 ! A70   A(18,17,20)           116.7295         estimate D2E/DX2                !
 ! A71   A(18,17,30)           111.4626         estimate D2E/DX2                !
 ! A72   A(20,17,30)           109.7867         estimate D2E/DX2                !
 ! A73   A(17,18,19)           106.4582         estimate D2E/DX2                !
 ! A74   A(17,18,28)           112.1971         estimate D2E/DX2                !
 ! A75   A(17,18,29)           113.6349         estimate D2E/DX2                !
 ! A76   A(19,18,28)           107.616          estimate D2E/DX2                !
 ! A77   A(19,18,29)           108.1372         estimate D2E/DX2                !
 ! A78   A(28,18,29)           108.5417         estimate D2E/DX2                !
 ! A79   A(8,19,18)            106.5406         estimate D2E/DX2                !
 ! A80   A(3,20,17)            103.5283         estimate D2E/DX2                !
 ! A81   A(3,20,42)            110.5359         estimate D2E/DX2                !
 ! A82   A(3,20,43)            111.9372         estimate D2E/DX2                !
 ! A83   A(17,20,42)           111.9477         estimate D2E/DX2                !
 ! A84   A(17,20,43)           111.3189         estimate D2E/DX2                !
 ! A85   A(42,20,43)           107.6193         estimate D2E/DX2                !
 ! A86   A(7,21,44)            105.5798         estimate D2E/DX2                !
 ! A87   A(5,22,23)            105.9665         estimate D2E/DX2                !
 ! A88   A(5,22,45)            114.9079         estimate D2E/DX2                !
 ! A89   A(5,22,46)            109.7395         estimate D2E/DX2                !
 ! A90   A(23,22,45)           113.9184         estimate D2E/DX2                !
 ! A91   A(23,22,46)           107.0671         estimate D2E/DX2                !
 ! A92   A(45,22,46)           104.9914         estimate D2E/DX2                !
 ! A93   A(22,23,24)           106.538          estimate D2E/DX2                !
 ! A94   A(22,23,25)           120.5387         estimate D2E/DX2                !
 ! A95   A(22,23,47)           107.9071         estimate D2E/DX2                !
 ! A96   A(24,23,25)           107.4966         estimate D2E/DX2                !
 ! A97   A(24,23,47)           107.0665         estimate D2E/DX2                !
 ! A98   A(25,23,47)           106.6321         estimate D2E/DX2                !
 ! A99   A(4,24,23)            110.8914         estimate D2E/DX2                !
 ! A100  A(23,25,26)           114.762          estimate D2E/DX2                !
 ! A101  A(23,25,27)           125.8974         estimate D2E/DX2                !
 ! A102  A(26,25,27)           119.2951         estimate D2E/DX2                !
 ! A103  A(25,26,48)           110.9556         estimate D2E/DX2                !
 ! A104  A(25,26,49)           110.1867         estimate D2E/DX2                !
 ! A105  A(25,26,50)           112.2521         estimate D2E/DX2                !
 ! A106  A(48,26,49)           108.4556         estimate D2E/DX2                !
 ! A107  A(48,26,50)           107.3983         estimate D2E/DX2                !
 ! A108  A(49,26,50)           107.4352         estimate D2E/DX2                !
 ! A109  A(25,27,51)           121.2918         estimate D2E/DX2                !
 ! A110  A(25,27,52)           123.2672         estimate D2E/DX2                !
 ! A111  A(51,27,52)           115.4394         estimate D2E/DX2                !
 ! A112  A(18,28,53)           112.1872         estimate D2E/DX2                !
 ! A113  A(18,28,54)           111.3347         estimate D2E/DX2                !
 ! A114  A(18,28,55)           110.5977         estimate D2E/DX2                !
 ! A115  A(53,28,54)           108.5032         estimate D2E/DX2                !
 ! A116  A(53,28,55)           105.629          estimate D2E/DX2                !
 ! A117  A(54,28,55)           108.3562         estimate D2E/DX2                !
 ! A118  A(18,29,56)           111.8188         estimate D2E/DX2                !
 ! A119  A(18,29,57)           111.451          estimate D2E/DX2                !
 ! A120  A(18,29,58)           110.6942         estimate D2E/DX2                !
 ! A121  A(56,29,57)           108.9089         estimate D2E/DX2                !
 ! A122  A(56,29,58)           105.4107         estimate D2E/DX2                !
 ! A123  A(57,29,58)           108.3209         estimate D2E/DX2                !
 ! A124  A(2,32,59)            112.0522         estimate D2E/DX2                !
 ! A125  A(2,32,60)            110.4604         estimate D2E/DX2                !
 ! A126  A(2,32,61)            110.2407         estimate D2E/DX2                !
 ! A127  A(59,32,60)           107.7024         estimate D2E/DX2                !
 ! A128  A(59,32,61)           107.6829         estimate D2E/DX2                !
 ! A129  A(60,32,61)           108.5797         estimate D2E/DX2                !
 ! A130  A(14,62,63)           109.7461         estimate D2E/DX2                !
 ! A131  A(14,62,64)           111.877          estimate D2E/DX2                !
 ! A132  A(14,62,65)           111.5161         estimate D2E/DX2                !
 ! A133  A(63,62,64)           107.5824         estimate D2E/DX2                !
 ! A134  A(63,62,65)           107.3445         estimate D2E/DX2                !
 ! A135  A(64,62,65)           108.5933         estimate D2E/DX2                !
 ! D1    D(6,1,2,3)             -0.3805         estimate D2E/DX2                !
 ! D2    D(6,1,2,32)          -178.603          estimate D2E/DX2                !
 ! D3    D(33,1,2,3)           177.4661         estimate D2E/DX2                !
 ! D4    D(33,1,2,32)           -0.7564         estimate D2E/DX2                !
 ! D5    D(2,1,6,5)            -33.2978         estimate D2E/DX2                !
 ! D6    D(2,1,6,34)          -154.9793         estimate D2E/DX2                !
 ! D7    D(2,1,6,35)            91.342          estimate D2E/DX2                !
 ! D8    D(33,1,6,5)           148.785          estimate D2E/DX2                !
 ! D9    D(33,1,6,34)           27.1036         estimate D2E/DX2                !
 ! D10   D(33,1,6,35)          -86.5751         estimate D2E/DX2                !
 ! D11   D(1,2,3,4)             25.3562         estimate D2E/DX2                !
 ! D12   D(1,2,3,20)           -94.6103         estimate D2E/DX2                !
 ! D13   D(1,2,3,31)           146.6725         estimate D2E/DX2                !
 ! D14   D(32,2,3,4)          -156.3345         estimate D2E/DX2                !
 ! D15   D(32,2,3,20)           83.6991         estimate D2E/DX2                !
 ! D16   D(32,2,3,31)          -35.0182         estimate D2E/DX2                !
 ! D17   D(1,2,32,59)           -0.5876         estimate D2E/DX2                !
 ! D18   D(1,2,32,60)          119.4985         estimate D2E/DX2                !
 ! D19   D(1,2,32,61)         -120.4993         estimate D2E/DX2                !
 ! D20   D(3,2,32,59)         -178.8789         estimate D2E/DX2                !
 ! D21   D(3,2,32,60)          -58.7928         estimate D2E/DX2                !
 ! D22   D(3,2,32,61)           61.2095         estimate D2E/DX2                !
 ! D23   D(2,3,4,5)            -15.1261         estimate D2E/DX2                !
 ! D24   D(2,3,4,7)           -142.6536         estimate D2E/DX2                !
 ! D25   D(2,3,4,24)           104.92           estimate D2E/DX2                !
 ! D26   D(20,3,4,5)           108.3303         estimate D2E/DX2                !
 ! D27   D(20,3,4,7)           -19.1972         estimate D2E/DX2                !
 ! D28   D(20,3,4,24)         -131.6236         estimate D2E/DX2                !
 ! D29   D(31,3,4,5)          -136.3455         estimate D2E/DX2                !
 ! D30   D(31,3,4,7)            96.1269         estimate D2E/DX2                !
 ! D31   D(31,3,4,24)          -16.2994         estimate D2E/DX2                !
 ! D32   D(2,3,20,17)          164.1634         estimate D2E/DX2                !
 ! D33   D(2,3,20,42)           44.1209         estimate D2E/DX2                !
 ! D34   D(2,3,20,43)          -75.835          estimate D2E/DX2                !
 ! D35   D(4,3,20,17)           37.5746         estimate D2E/DX2                !
 ! D36   D(4,3,20,42)          -82.4679         estimate D2E/DX2                !
 ! D37   D(4,3,20,43)          157.5762         estimate D2E/DX2                !
 ! D38   D(31,3,20,17)         -77.4696         estimate D2E/DX2                !
 ! D39   D(31,3,20,42)         162.4879         estimate D2E/DX2                !
 ! D40   D(31,3,20,43)          42.532          estimate D2E/DX2                !
 ! D41   D(3,4,5,6)            -16.6441         estimate D2E/DX2                !
 ! D42   D(3,4,5,10)          -135.9676         estimate D2E/DX2                !
 ! D43   D(3,4,5,22)           103.1045         estimate D2E/DX2                !
 ! D44   D(7,4,5,6)            105.3783         estimate D2E/DX2                !
 ! D45   D(7,4,5,10)           -13.9451         estimate D2E/DX2                !
 ! D46   D(7,4,5,22)          -134.8731         estimate D2E/DX2                !
 ! D47   D(24,4,5,6)          -136.1934         estimate D2E/DX2                !
 ! D48   D(24,4,5,10)          104.4831         estimate D2E/DX2                !
 ! D49   D(24,4,5,22)          -16.4448         estimate D2E/DX2                !
 ! D50   D(3,4,7,8)            105.9207         estimate D2E/DX2                !
 ! D51   D(3,4,7,17)            -6.2365         estimate D2E/DX2                !
 ! D52   D(3,4,7,21)          -129.3096         estimate D2E/DX2                !
 ! D53   D(5,4,7,8)            -22.8051         estimate D2E/DX2                !
 ! D54   D(5,4,7,17)          -134.9623         estimate D2E/DX2                !
 ! D55   D(5,4,7,21)           101.9646         estimate D2E/DX2                !
 ! D56   D(24,4,7,8)          -141.7104         estimate D2E/DX2                !
 ! D57   D(24,4,7,17)          106.1324         estimate D2E/DX2                !
 ! D58   D(24,4,7,21)          -16.9407         estimate D2E/DX2                !
 ! D59   D(3,4,24,23)         -123.3118         estimate D2E/DX2                !
 ! D60   D(5,4,24,23)            2.5489         estimate D2E/DX2                !
 ! D61   D(7,4,24,23)          126.122          estimate D2E/DX2                !
 ! D62   D(4,5,6,1)             40.1459         estimate D2E/DX2                !
 ! D63   D(4,5,6,34)           161.5855         estimate D2E/DX2                !
 ! D64   D(4,5,6,35)           -81.9755         estimate D2E/DX2                !
 ! D65   D(10,5,6,1)           163.791          estimate D2E/DX2                !
 ! D66   D(10,5,6,34)          -74.7693         estimate D2E/DX2                !
 ! D67   D(10,5,6,35)           41.6696         estimate D2E/DX2                !
 ! D68   D(22,5,6,1)           -75.6628         estimate D2E/DX2                !
 ! D69   D(22,5,6,34)           45.7769         estimate D2E/DX2                !
 ! D70   D(22,5,6,35)          162.2158         estimate D2E/DX2                !
 ! D71   D(4,5,10,9)            44.8571         estimate D2E/DX2                !
 ! D72   D(4,5,10,16)         -141.511          estimate D2E/DX2                !
 ! D73   D(6,5,10,9)           -80.131          estimate D2E/DX2                !
 ! D74   D(6,5,10,16)           93.5009         estimate D2E/DX2                !
 ! D75   D(22,5,10,9)          160.5878         estimate D2E/DX2                !
 ! D76   D(22,5,10,16)         -25.7803         estimate D2E/DX2                !
 ! D77   D(4,5,22,23)           23.7401         estimate D2E/DX2                !
 ! D78   D(4,5,22,45)          150.4531         estimate D2E/DX2                !
 ! D79   D(4,5,22,46)          -91.5366         estimate D2E/DX2                !
 ! D80   D(6,5,22,23)          146.5132         estimate D2E/DX2                !
 ! D81   D(6,5,22,45)          -86.7738         estimate D2E/DX2                !
 ! D82   D(6,5,22,46)           31.2365         estimate D2E/DX2                !
 ! D83   D(10,5,22,23)         -97.5064         estimate D2E/DX2                !
 ! D84   D(10,5,22,45)          29.2066         estimate D2E/DX2                !
 ! D85   D(10,5,22,46)         147.2169         estimate D2E/DX2                !
 ! D86   D(4,7,8,9)             35.513          estimate D2E/DX2                !
 ! D87   D(4,7,8,19)          -138.4592         estimate D2E/DX2                !
 ! D88   D(17,7,8,9)           151.9312         estimate D2E/DX2                !
 ! D89   D(17,7,8,19)          -22.041          estimate D2E/DX2                !
 ! D90   D(21,7,8,9)           -91.5261         estimate D2E/DX2                !
 ! D91   D(21,7,8,19)           94.5017         estimate D2E/DX2                !
 ! D92   D(4,7,17,18)          150.8171         estimate D2E/DX2                !
 ! D93   D(4,7,17,20)           29.1245         estimate D2E/DX2                !
 ! D94   D(4,7,17,30)          -88.8327         estimate D2E/DX2                !
 ! D95   D(8,7,17,18)           29.1015         estimate D2E/DX2                !
 ! D96   D(8,7,17,20)          -92.5911         estimate D2E/DX2                !
 ! D97   D(8,7,17,30)          149.4517         estimate D2E/DX2                !
 ! D98   D(21,7,17,18)         -85.2221         estimate D2E/DX2                !
 ! D99   D(21,7,17,20)         153.0853         estimate D2E/DX2                !
 ! D100  D(21,7,17,30)          35.1281         estimate D2E/DX2                !
 ! D101  D(4,7,21,44)           20.2103         estimate D2E/DX2                !
 ! D102  D(8,7,21,44)          148.999          estimate D2E/DX2                !
 ! D103  D(17,7,21,44)        -101.2858         estimate D2E/DX2                !
 ! D104  D(7,8,9,10)            -5.3425         estimate D2E/DX2                !
 ! D105  D(7,8,9,11)          -177.7934         estimate D2E/DX2                !
 ! D106  D(19,8,9,10)          168.0277         estimate D2E/DX2                !
 ! D107  D(19,8,9,11)           -4.4232         estimate D2E/DX2                !
 ! D108  D(7,8,19,18)            4.3098         estimate D2E/DX2                !
 ! D109  D(9,8,19,18)         -169.6107         estimate D2E/DX2                !
 ! D110  D(8,9,10,5)           -36.3012         estimate D2E/DX2                !
 ! D111  D(8,9,10,16)          149.8527         estimate D2E/DX2                !
 ! D112  D(11,9,10,5)          136.2095         estimate D2E/DX2                !
 ! D113  D(11,9,10,16)         -37.6366         estimate D2E/DX2                !
 ! D114  D(8,9,11,12)          119.6695         estimate D2E/DX2                !
 ! D115  D(8,9,11,13)          -62.1445         estimate D2E/DX2                !
 ! D116  D(10,9,11,12)         -52.4139         estimate D2E/DX2                !
 ! D117  D(10,9,11,13)         125.7721         estimate D2E/DX2                !
 ! D118  D(9,11,13,14)         122.7334         estimate D2E/DX2                !
 ! D119  D(9,11,13,15)        -110.4199         estimate D2E/DX2                !
 ! D120  D(9,11,13,36)           5.7076         estimate D2E/DX2                !
 ! D121  D(12,11,13,14)        -59.1624         estimate D2E/DX2                !
 ! D122  D(12,11,13,15)         67.6843         estimate D2E/DX2                !
 ! D123  D(12,11,13,36)       -176.1881         estimate D2E/DX2                !
 ! D124  D(11,13,14,37)        -46.2013         estimate D2E/DX2                !
 ! D125  D(11,13,14,38)       -161.95           estimate D2E/DX2                !
 ! D126  D(11,13,14,62)         76.7759         estimate D2E/DX2                !
 ! D127  D(15,13,14,37)       -170.4529         estimate D2E/DX2                !
 ! D128  D(15,13,14,38)         73.7983         estimate D2E/DX2                !
 ! D129  D(15,13,14,62)        -47.4757         estimate D2E/DX2                !
 ! D130  D(36,13,14,37)         71.5494         estimate D2E/DX2                !
 ! D131  D(36,13,14,38)        -44.1994         estimate D2E/DX2                !
 ! D132  D(36,13,14,62)       -165.4734         estimate D2E/DX2                !
 ! D133  D(11,13,15,39)        -57.3872         estimate D2E/DX2                !
 ! D134  D(11,13,15,40)       -178.7961         estimate D2E/DX2                !
 ! D135  D(11,13,15,41)         61.598          estimate D2E/DX2                !
 ! D136  D(14,13,15,39)         68.0779         estimate D2E/DX2                !
 ! D137  D(14,13,15,40)        -53.3311         estimate D2E/DX2                !
 ! D138  D(14,13,15,41)       -172.9369         estimate D2E/DX2                !
 ! D139  D(36,13,15,39)       -174.0921         estimate D2E/DX2                !
 ! D140  D(36,13,15,40)         64.499          estimate D2E/DX2                !
 ! D141  D(36,13,15,41)        -55.1068         estimate D2E/DX2                !
 ! D142  D(13,14,62,63)       -178.2893         estimate D2E/DX2                !
 ! D143  D(13,14,62,64)        -58.9494         estimate D2E/DX2                !
 ! D144  D(13,14,62,65)         62.8958         estimate D2E/DX2                !
 ! D145  D(37,14,62,63)        -54.712          estimate D2E/DX2                !
 ! D146  D(37,14,62,64)         64.6279         estimate D2E/DX2                !
 ! D147  D(37,14,62,65)       -173.5269         estimate D2E/DX2                !
 ! D148  D(38,14,62,63)         60.1081         estimate D2E/DX2                !
 ! D149  D(38,14,62,64)        179.448          estimate D2E/DX2                !
 ! D150  D(38,14,62,65)        -58.7068         estimate D2E/DX2                !
 ! D151  D(7,17,18,19)         -28.6526         estimate D2E/DX2                !
 ! D152  D(7,17,18,28)          88.8227         estimate D2E/DX2                !
 ! D153  D(7,17,18,29)        -147.5729         estimate D2E/DX2                !
 ! D154  D(20,17,18,19)         82.9173         estimate D2E/DX2                !
 ! D155  D(20,17,18,28)       -159.6075         estimate D2E/DX2                !
 ! D156  D(20,17,18,29)        -36.003          estimate D2E/DX2                !
 ! D157  D(30,17,18,19)       -149.8355         estimate D2E/DX2                !
 ! D158  D(30,17,18,28)        -32.3603         estimate D2E/DX2                !
 ! D159  D(30,17,18,29)         91.2441         estimate D2E/DX2                !
 ! D160  D(7,17,20,3)          -40.8643         estimate D2E/DX2                !
 ! D161  D(7,17,20,42)          78.2105         estimate D2E/DX2                !
 ! D162  D(7,17,20,43)        -161.2869         estimate D2E/DX2                !
 ! D163  D(18,17,20,3)        -152.8083         estimate D2E/DX2                !
 ! D164  D(18,17,20,42)        -33.7335         estimate D2E/DX2                !
 ! D165  D(18,17,20,43)         86.7691         estimate D2E/DX2                !
 ! D166  D(30,17,20,3)          79.1271         estimate D2E/DX2                !
 ! D167  D(30,17,20,42)       -161.7981         estimate D2E/DX2                !
 ! D168  D(30,17,20,43)        -41.2955         estimate D2E/DX2                !
 ! D169  D(17,18,19,8)          15.4401         estimate D2E/DX2                !
 ! D170  D(28,18,19,8)        -105.0321         estimate D2E/DX2                !
 ! D171  D(29,18,19,8)         137.8968         estimate D2E/DX2                !
 ! D172  D(17,18,28,53)        -60.0216         estimate D2E/DX2                !
 ! D173  D(17,18,28,54)         61.7977         estimate D2E/DX2                !
 ! D174  D(17,18,28,55)       -177.6733         estimate D2E/DX2                !
 ! D175  D(19,18,28,53)         56.7611         estimate D2E/DX2                !
 ! D176  D(19,18,28,54)        178.5804         estimate D2E/DX2                !
 ! D177  D(19,18,28,55)        -60.8906         estimate D2E/DX2                !
 ! D178  D(29,18,28,53)        173.5683         estimate D2E/DX2                !
 ! D179  D(29,18,28,54)        -64.6123         estimate D2E/DX2                !
 ! D180  D(29,18,28,55)         55.9167         estimate D2E/DX2                !
 ! D181  D(17,18,29,56)         64.622          estimate D2E/DX2                !
 ! D182  D(17,18,29,57)        -57.5428         estimate D2E/DX2                !
 ! D183  D(17,18,29,58)       -178.1703         estimate D2E/DX2                !
 ! D184  D(19,18,29,56)        -53.3328         estimate D2E/DX2                !
 ! D185  D(19,18,29,57)       -175.4976         estimate D2E/DX2                !
 ! D186  D(19,18,29,58)         63.8749         estimate D2E/DX2                !
 ! D187  D(28,18,29,56)       -169.8049         estimate D2E/DX2                !
 ! D188  D(28,18,29,57)         68.0303         estimate D2E/DX2                !
 ! D189  D(28,18,29,58)        -52.5972         estimate D2E/DX2                !
 ! D190  D(5,22,23,24)         -23.0564         estimate D2E/DX2                !
 ! D191  D(5,22,23,25)          99.5805         estimate D2E/DX2                !
 ! D192  D(5,22,23,47)        -137.7446         estimate D2E/DX2                !
 ! D193  D(45,22,23,24)       -150.3651         estimate D2E/DX2                !
 ! D194  D(45,22,23,25)        -27.7283         estimate D2E/DX2                !
 ! D195  D(45,22,23,47)         94.9467         estimate D2E/DX2                !
 ! D196  D(46,22,23,24)         94.029          estimate D2E/DX2                !
 ! D197  D(46,22,23,25)       -143.3341         estimate D2E/DX2                !
 ! D198  D(46,22,23,47)        -20.6591         estimate D2E/DX2                !
 ! D199  D(22,23,24,4)          12.7798         estimate D2E/DX2                !
 ! D200  D(25,23,24,4)        -117.7139         estimate D2E/DX2                !
 ! D201  D(47,23,24,4)         128.0366         estimate D2E/DX2                !
 ! D202  D(22,23,25,26)        176.0394         estimate D2E/DX2                !
 ! D203  D(22,23,25,27)         -1.4732         estimate D2E/DX2                !
 ! D204  D(24,23,25,26)        -61.786          estimate D2E/DX2                !
 ! D205  D(24,23,25,27)        120.7015         estimate D2E/DX2                !
 ! D206  D(47,23,25,26)         52.7536         estimate D2E/DX2                !
 ! D207  D(47,23,25,27)       -124.759          estimate D2E/DX2                !
 ! D208  D(23,25,26,48)         62.7102         estimate D2E/DX2                !
 ! D209  D(23,25,26,49)        -57.4212         estimate D2E/DX2                !
 ! D210  D(23,25,26,50)       -177.1143         estimate D2E/DX2                !
 ! D211  D(27,25,26,48)       -119.6002         estimate D2E/DX2                !
 ! D212  D(27,25,26,49)        120.2684         estimate D2E/DX2                !
 ! D213  D(27,25,26,50)          0.5753         estimate D2E/DX2                !
 ! D214  D(23,25,27,51)        179.031          estimate D2E/DX2                !
 ! D215  D(23,25,27,52)         -0.4789         estimate D2E/DX2                !
 ! D216  D(26,25,27,51)          1.6211         estimate D2E/DX2                !
 ! D217  D(26,25,27,52)       -177.8888         estimate D2E/DX2                !
 --------------------------------------------------------------------------------
 Trust Radius=3.00D-01 FncErr=1.00D-07 GrdErr=1.00D-06
 Number of steps in this run=    390 maximum allowed number of steps=    390.
 GradGradGradGradGradGradGradGradGradGradGradGradGradGradGradGradGradGrad

 Stoichiometry    C26H34O5
 Framework group  C1[X(C26H34O5)]
 Deg. of freedom   189
 Full point group                 C1      NOp   1
 Largest Abelian subgroup         C1      NOp   1
 Largest concise Abelian subgroup C1      NOp   1
                         Standard orientation:                         
 ---------------------------------------------------------------------
 Center     Atomic      Atomic             Coordinates (Angstroms)
 Number     Number       Type             X           Y           Z
 ---------------------------------------------------------------------
      1          6           0        1.997616    1.014066   -2.848693
      2          6           0        2.508594    1.831838   -1.916939
      3          6           0        2.115476    1.700161   -0.468167
      4          6           0        1.627550    0.293282   -0.009314
      5          6           0        1.253187   -0.708524   -1.121278
      6          6           0        1.024901   -0.071006   -2.511907
      7          6           0        0.488644    0.602563    0.998617
      8          6           0       -0.893306    0.352582    0.503238
      9          6           0       -1.194706   -0.657373   -0.318506
     10          6           0       -0.053313   -1.460039   -0.820082
     11          6           0       -2.563703   -0.862175   -0.838477
     12          8           0       -2.747023   -0.832531   -2.055423
     13          6           0       -3.679187   -1.143270    0.164309
     14          6           0       -4.814054   -0.111867    0.049677
     15          6           0       -4.139814   -2.590055    0.012020
     16          8           0       -0.215037   -2.649175   -1.083664
     17          6           0        0.445194    2.101439    1.220300
     18          6           0       -1.036988    2.365371    1.549787
     19          8           0       -1.798296    1.338198    0.868009
     20          6           0        0.962666    2.649696   -0.112547
     21          8           0        0.647812   -0.090352    2.228386
     22          6           0        2.460352   -1.650151   -1.164807
     23          6           0        3.114067   -1.555428    0.204107
     24          8           0        2.717178   -0.293514    0.759810
     25          6           0        2.857830   -2.616498    1.254599
     26          6           0        3.644648   -2.444799    2.532177
     27          6           0        2.050996   -3.681675    1.117707
     28          6           0       -1.328840    2.239702    3.053601
     29          6           0       -1.539289    3.729325    1.068663
     30          1           0        1.102157    2.427750    2.036341
     31          1           0        2.988915    1.971892    0.142648
     32          6           0        3.461310    2.939238   -2.265521
     33          1           0        2.254632    1.141505   -3.897897
     34          1           0        1.093495   -0.853367   -3.279965
     35          1           0        0.016485    0.350605   -2.610558
     36          1           0       -3.260393   -1.042896    1.174129
     37          1           0       -4.388467    0.897576   -0.001852
     38          1           0       -5.411285   -0.150398    0.969394
     39          1           0       -4.478619   -2.807286   -1.006454
     40          1           0       -4.956159   -2.815638    0.705616
     41          1           0       -3.314531   -3.278347    0.226846
     42          1           0        0.191230    2.627424   -0.892325
     43          1           0        1.302460    3.686174   -0.011808
     44          1           0        1.593899   -0.338692    2.269730
     45          1           0        2.235409   -2.672993   -1.478797
     46          1           0        3.191560   -1.282332   -1.897406
     47          1           0        4.201043   -1.515039    0.056964
     48          1           0        3.377043   -1.510110    3.033910
     49          1           0        4.717967   -2.426979    2.315479
     50          1           0        3.466568   -3.260079    3.241767
     51          1           0        1.933827   -4.407474    1.917841
     52          1           0        1.483751   -3.885533    0.217953
     53          1           0       -1.096122    1.242235    3.437616
     54          1           0       -0.761628    2.975835    3.632282
     55          1           0       -2.396198    2.391544    3.253400
     56          1           0       -1.522880    3.806959   -0.023191
     57          1           0       -0.945885    4.546324    1.491346
     58          1           0       -2.586772    3.879793    1.355765
     59          1           0        3.676590    2.973828   -3.338715
     60          1           0        3.042310    3.908891   -1.978694
     61          1           0        4.411637    2.800706   -1.740036
     62          6           0       -5.762053   -0.294575   -1.128697
     63          1           0       -6.508308    0.506974   -1.130946
     64          1           0       -5.234632   -0.257328   -2.085276
     65          1           0       -6.302837   -1.243501   -1.065237
 ---------------------------------------------------------------------
 Rotational constants (GHZ):      0.2013244      0.1337402      0.1166677
 Standard basis: 6-31G(d) (6D, 7F)
 There are   533 symmetry adapted basis functions of A   symmetry.
 Integral buffers will be    131072 words long.
 Raffenetti 2 integral format.
 Two-electron integral symmetry is turned on.
   533 basis functions,  1004 primitive gaussians,   533 cartesian basis functions
   115 alpha electrons      115 beta electrons
       nuclear repulsion energy      3537.7349236436 Hartrees.
 NAtoms=   65 NActive=   65 NUniq=   65 SFac= 1.00D+00 NAtFMM=   50 NAOKFM=T Big=T
 One-electron integrals computed using PRISM.
 NBasis=   533 RedAO= T  NBF=   533
 NBsUse=   533 1.00D-06 NBFU=   533
 Harris functional with IExCor=  402 diagonalized for initial guess.
 ExpMin= 1.61D-01 ExpMax= 5.48D+03 ExpMxC= 8.25D+02 IAcc=1 IRadAn=         1 AccDes= 0.00D+00
 HarFok:  IExCor=  402 AccDes= 0.00D+00 IRadAn=         1 IDoV= 1
 ScaDFX=  1.000000  1.000000  1.000000  1.000000
 FoFCou: FMM=F IPFlag=           0 FMFlag=      100000 FMFlg1=        2001
         NFxFlg=           0 DoJE=T BraDBF=F KetDBF=T FulRan=T
         Omega=  0.000000  0.000000  1.000000  0.000000  0.000000 ICntrl=     500 IOpCl=  0
         NMat0=    1 NMatS0=    1 NMatT0=    0 NMatD0=    1 NMtDS0=    0 NMtDT0=    0
         I1Cent=           4 NGrid=           0.
 Petite list used in FoFCou.
 Initial guess orbital symmetries:
       Occupied  (A) (A) (A) (A) (A) (A) (A) (A) (A) (A) (A) (A)
                 (A) (A) (A) (A) (A) (A) (A) (A) (A) (A) (A) (A)
                 (A) (A) (A) (A) (A) (A) (A) (A) (A) (A) (A) (A)
                 (A) (A) (A) (A) (A) (A) (A) (A) (A) (A) (A) (A)
                 (A) (A) (A) (A) (A) (A) (A) (A) (A) (A) (A) (A)
                 (A) (A) (A) (A) (A) (A) (A) (A) (A) (A) (A) (A)
                 (A) (A) (A) (A) (A) (A) (A) (A) (A) (A) (A) (A)
                 (A) (A) (A) (A) (A) (A) (A) (A) (A) (A) (A) (A)
                 (A) (A) (A) (A) (A) (A) (A) (A) (A) (A) (A) (A)
                 (A) (A) (A) (A) (A) (A) (A)
       Virtual   (A) (A) (A) (A) (A) (A) (A) (A) (A) (A) (A) (A)
                 (A) (A) (A) (A) (A) (A) (A) (A) (A) (A) (A) (A)
                 (A) (A) (A) (A) (A) (A) (A) (A) (A) (A) (A) (A)
                 (A) (A) (A) (A) (A) (A) (A) (A) (A) (A) (A) (A)
                 (A) (A) (A) (A) (A) (A) (A) (A) (A) (A) (A) (A)
                 (A) (A) (A) (A) (A) (A) (A) (A) (A) (A) (A) (A)
                 (A) (A) (A) (A) (A) (A) (A) (A) (A) (A) (A) (A)
                 (A) (A) (A) (A) (A) (A) (A) (A) (A) (A) (A) (A)
                 (A) (A) (A) (A) (A) (A) (A) (A) (A) (A) (A) (A)
                 (A) (A) (A) (A) (A) (A) (A) (A) (A) (A) (A) (A)
                 (A) (A) (A) (A) (A) (A) (A) (A) (A) (A) (A) (A)
                 (A) (A) (A) (A) (A) (A) (A) (A) (A) (A) (A) (A)
                 (A) (A) (A) (A) (A) (A) (A) (A) (A) (A) (A) (A)
                 (A) (A) (A) (A) (A) (A) (A) (A) (A) (A) (A) (A)
                 (A) (A) (A) (A) (A) (A) (A) (A) (A) (A) (A) (A)
                 (A) (A) (A) (A) (A) (A) (A) (A) (A) (A) (A) (A)
                 (A) (A) (A) (A) (A) (A) (A) (A) (A) (A) (A) (A)
                 (A) (A) (A) (A) (A) (A) (A) (A) (A) (A) (A) (A)
                 (A) (A) (A) (A) (A) (A) (A) (A) (A) (A) (A) (A)
                 (A) (A) (A) (A) (A) (A) (A) (A) (A) (A) (A) (A)
                 (A) (A) (A) (A) (A) (A) (A) (A) (A) (A) (A) (A)
                 (A) (A) (A) (A) (A) (A) (A) (A) (A) (A) (A) (A)
                 (A) (A) (A) (A) (A) (A) (A) (A) (A) (A) (A) (A)
                 (A) (A) (A) (A) (A) (A) (A) (A) (A) (A) (A) (A)
                 (A) (A) (A) (A) (A) (A) (A) (A) (A) (A) (A) (A)
                 (A) (A) (A) (A) (A) (A) (A) (A) (A) (A) (A) (A)
                 (A) (A) (A) (A) (A) (A) (A) (A) (A) (A) (A) (A)
                 (A) (A) (A) (A) (A) (A) (A) (A) (A) (A) (A) (A)
                 (A) (A) (A) (A) (A) (A) (A) (A) (A) (A) (A) (A)
                 (A) (A) (A) (A) (A) (A) (A) (A) (A) (A) (A) (A)
                 (A) (A) (A) (A) (A) (A) (A) (A) (A) (A) (A) (A)
                 (A) (A) (A) (A) (A) (A) (A) (A) (A) (A) (A) (A)
                 (A) (A) (A) (A) (A) (A) (A) (A) (A) (A) (A) (A)
                 (A) (A) (A) (A) (A) (A) (A) (A) (A) (A) (A) (A)
                 (A) (A) (A) (A) (A) (A) (A) (A) (A) (A)
 The electronic state of the initial guess is 1-A.
 Requested convergence on RMS density matrix=1.00D-08 within 128 cycles.
 Requested convergence on MAX density matrix=1.00D-06.
 Requested convergence on             energy=1.00D-06.
 No special actions if energy rises.
 Integral accuracy reduced to 1.0D-05 until final iterations.
 Initial convergence to 1.0D-05 achieved.  Increase integral accuracy.
 SCF Done:  E(RB3LYP) =  -1387.30007951     A.U. after   16 cycles
             Convg  =    0.4462D-08             -V/T =  2.0090

 **********************************************************************

            Population analysis using the SCF density.

 **********************************************************************

 Orbital symmetries:
       Occupied  (A) (A) (A) (A) (A) (A) (A) (A) (A) (A) (A) (A)
                 (A) (A) (A) (A) (A) (A) (A) (A) (A) (A) (A) (A)
                 (A) (A) (A) (A) (A) (A) (A) (A) (A) (A) (A) (A)
                 (A) (A) (A) (A) (A) (A) (A) (A) (A) (A) (A) (A)
                 (A) (A) (A) (A) (A) (A) (A) (A) (A) (A) (A) (A)
                 (A) (A) (A) (A) (A) (A) (A) (A) (A) (A) (A) (A)
                 (A) (A) (A) (A) (A) (A) (A) (A) (A) (A) (A) (A)
                 (A) (A) (A) (A) (A) (A) (A) (A) (A) (A) (A) (A)
                 (A) (A) (A) (A) (A) (A) (A) (A) (A) (A) (A) (A)
                 (A) (A) (A) (A) (A) (A) (A)
       Virtual   (A) (A) (A) (A) (A) (A) (A) (A) (A) (A) (A) (A)
                 (A) (A) (A) (A) (A) (A) (A) (A) (A) (A) (A) (A)
                 (A) (A) (A) (A) (A) (A) (A) (A) (A) (A) (A) (A)
                 (A) (A) (A) (A) (A) (A) (A) (A) (A) (A) (A) (A)
                 (A) (A) (A) (A) (A) (A) (A) (A) (A) (A) (A) (A)
                 (A) (A) (A) (A) (A) (A) (A) (A) (A) (A) (A) (A)
                 (A) (A) (A) (A) (A) (A) (A) (A) (A) (A) (A) (A)
                 (A) (A) (A) (A) (A) (A) (A) (A) (A) (A) (A) (A)
                 (A) (A) (A) (A) (A) (A) (A) (A) (A) (A) (A) (A)
                 (A) (A) (A) (A) (A) (A) (A) (A) (A) (A) (A) (A)
                 (A) (A) (A) (A) (A) (A) (A) (A) (A) (A) (A) (A)
                 (A) (A) (A) (A) (A) (A) (A) (A) (A) (A) (A) (A)
                 (A) (A) (A) (A) (A) (A) (A) (A) (A) (A) (A) (A)
                 (A) (A) (A) (A) (A) (A) (A) (A) (A) (A) (A) (A)
                 (A) (A) (A) (A) (A) (A) (A) (A) (A) (A) (A) (A)
                 (A) (A) (A) (A) (A) (A) (A) (A) (A) (A) (A) (A)
                 (A) (A) (A) (A) (A) (A) (A) (A) (A) (A) (A) (A)
                 (A) (A) (A) (A) (A) (A) (A) (A) (A) (A) (A) (A)
                 (A) (A) (A) (A) (A) (A) (A) (A) (A) (A) (A) (A)
                 (A) (A) (A) (A) (A) (A) (A) (A) (A) (A) (A) (A)
                 (A) (A) (A) (A) (A) (A) (A) (A) (A) (A) (A) (A)
                 (A) (A) (A) (A) (A) (A) (A) (A) (A) (A) (A) (A)
                 (A) (A) (A) (A) (A) (A) (A) (A) (A) (A) (A) (A)
                 (A) (A) (A) (A) (A) (A) (A) (A) (A) (A) (A) (A)
                 (A) (A) (A) (A) (A) (A) (A) (A) (A) (A) (A) (A)
                 (A) (A) (A) (A) (A) (A) (A) (A) (A) (A) (A) (A)
                 (A) (A) (A) (A) (A) (A) (A) (A) (A) (A) (A) (A)
                 (A) (A) (A) (A) (A) (A) (A) (A) (A) (A) (A) (A)
                 (A) (A) (A) (A) (A) (A) (A) (A) (A) (A) (A) (A)
                 (A) (A) (A) (A) (A) (A) (A) (A) (A) (A) (A) (A)
                 (A) (A) (A) (A) (A) (A) (A) (A) (A) (A) (A) (A)
                 (A) (A) (A) (A) (A) (A) (A) (A) (A) (A) (A) (A)
                 (A) (A) (A) (A) (A) (A) (A) (A) (A) (A) (A) (A)
                 (A) (A) (A) (A) (A) (A) (A) (A) (A) (A) (A) (A)
                 (A) (A) (A) (A) (A) (A) (A) (A) (A) (A)
 The electronic state is 1-A.
 Alpha  occ. eigenvalues --  -19.19742 -19.16916 -19.14406 -19.13654 -19.13189
 Alpha  occ. eigenvalues --  -10.27722 -10.26838 -10.26554 -10.26347 -10.26088
 Alpha  occ. eigenvalues --  -10.25385 -10.24547 -10.21817 -10.20303 -10.19858
 Alpha  occ. eigenvalues --  -10.19767 -10.19651 -10.19594 -10.19355 -10.19049
 Alpha  occ. eigenvalues --  -10.18997 -10.18802 -10.18770 -10.18518 -10.18441
 Alpha  occ. eigenvalues --  -10.18198 -10.17786 -10.17271 -10.17258 -10.16830
 Alpha  occ. eigenvalues --  -10.15573  -1.08602  -1.06097  -1.03461  -1.02271
 Alpha  occ. eigenvalues --   -1.01699  -0.87689  -0.84094  -0.82543  -0.81280
 Alpha  occ. eigenvalues --   -0.80161  -0.79683  -0.77119  -0.74383  -0.73555
 Alpha  occ. eigenvalues --   -0.72501  -0.71527  -0.69699  -0.68687  -0.67861
 Alpha  occ. eigenvalues --   -0.65744  -0.64058  -0.63624  -0.62195  -0.61116
 Alpha  occ. eigenvalues --   -0.59307  -0.58560  -0.56858  -0.54638  -0.53386
 Alpha  occ. eigenvalues --   -0.53112  -0.51956  -0.50742  -0.50073  -0.49302
 Alpha  occ. eigenvalues --   -0.48227  -0.47283  -0.47081  -0.46536  -0.45876
 Alpha  occ. eigenvalues --   -0.44955  -0.44559  -0.44536  -0.43985  -0.43013
 Alpha  occ. eigenvalues --   -0.42757  -0.42514  -0.42084  -0.41759  -0.41427
 Alpha  occ. eigenvalues --   -0.41165  -0.40688  -0.40136  -0.39990  -0.39516
 Alpha  occ. eigenvalues --   -0.38945  -0.38657  -0.38539  -0.38466  -0.38116
 Alpha  occ. eigenvalues --   -0.37583  -0.37169  -0.36975  -0.36568  -0.36286
 Alpha  occ. eigenvalues --   -0.35848  -0.35329  -0.34964  -0.34804  -0.34174
 Alpha  occ. eigenvalues --   -0.33878  -0.33313  -0.32970  -0.32592  -0.32329
 Alpha  occ. eigenvalues --   -0.31662  -0.31490  -0.31243  -0.27327  -0.26921
 Alpha  occ. eigenvalues --   -0.25044  -0.24815  -0.24217  -0.23629  -0.23171
 Alpha virt. eigenvalues --   -0.04802  -0.02414   0.01297   0.01804   0.04176
 Alpha virt. eigenvalues --    0.06704   0.08362   0.08875   0.09518   0.10047
 Alpha virt. eigenvalues --    0.10339   0.10880   0.11350   0.11632   0.12727
 Alpha virt. eigenvalues --    0.13105   0.13370   0.13791   0.13911   0.14209
 Alpha virt. eigenvalues --    0.14338   0.15048   0.15330   0.15600   0.16144
 Alpha virt. eigenvalues --    0.16206   0.16462   0.16843   0.17269   0.17624
 Alpha virt. eigenvalues --    0.17937   0.18542   0.18755   0.18963   0.19311
 Alpha virt. eigenvalues --    0.19504   0.19733   0.19968   0.20113   0.20427
 Alpha virt. eigenvalues --    0.20799   0.21311   0.21803   0.22087   0.22384
 Alpha virt. eigenvalues --    0.22808   0.23840   0.24243   0.24470   0.24729
 Alpha virt. eigenvalues --    0.24876   0.25428   0.25983   0.26388   0.26566
 Alpha virt. eigenvalues --    0.26948   0.27780   0.28095   0.29657   0.30448
 Alpha virt. eigenvalues --    0.31443   0.31852   0.32837   0.33618   0.34694
 Alpha virt. eigenvalues --    0.35039   0.36229   0.37594   0.38965   0.40109
 Alpha virt. eigenvalues --    0.42038   0.43996   0.45906   0.47439   0.48607
 Alpha virt. eigenvalues --    0.49088   0.50039   0.51442   0.51865   0.52167
 Alpha virt. eigenvalues --    0.52204   0.52750   0.52794   0.53523   0.53820
 Alpha virt. eigenvalues --    0.54445   0.54685   0.54930   0.55795   0.56197
 Alpha virt. eigenvalues --    0.56844   0.57211   0.57599   0.58756   0.59037
 Alpha virt. eigenvalues --    0.59516   0.60439   0.60636   0.61267   0.61334
 Alpha virt. eigenvalues --    0.62067   0.63179   0.63370   0.64554   0.64739
 Alpha virt. eigenvalues --    0.65072   0.66362   0.66636   0.66880   0.67206
 Alpha virt. eigenvalues --    0.67971   0.68393   0.68709   0.69520   0.69606
 Alpha virt. eigenvalues --    0.70670   0.71515   0.72636   0.73140   0.73300
 Alpha virt. eigenvalues --    0.73984   0.74958   0.75556   0.76095   0.76464
 Alpha virt. eigenvalues --    0.77174   0.77707   0.78372   0.78905   0.79082
 Alpha virt. eigenvalues --    0.79780   0.80293   0.80383   0.81486   0.81969
 Alpha virt. eigenvalues --    0.82557   0.83027   0.84016   0.84510   0.84859
 Alpha virt. eigenvalues --    0.85286   0.86051   0.86294   0.86708   0.86927
 Alpha virt. eigenvalues --    0.87602   0.87832   0.88848   0.88964   0.89266
 Alpha virt. eigenvalues --    0.89310   0.89689   0.90066   0.90391   0.90541
 Alpha virt. eigenvalues --    0.90721   0.91274   0.91482   0.91828   0.92380
 Alpha virt. eigenvalues --    0.92563   0.92776   0.93343   0.93446   0.94918
 Alpha virt. eigenvalues --    0.95088   0.95302   0.96237   0.96708   0.97186
 Alpha virt. eigenvalues --    0.97427   0.98196   0.98591   0.99015   0.99554
 Alpha virt. eigenvalues --    1.00927   1.01436   1.02423   1.02518   1.03514
 Alpha virt. eigenvalues --    1.04177   1.05058   1.05827   1.07119   1.08693
 Alpha virt. eigenvalues --    1.09362   1.10862   1.11130   1.11914   1.13675
 Alpha virt. eigenvalues --    1.14776   1.14956   1.15679   1.16232   1.17092
 Alpha virt. eigenvalues --    1.18063   1.18919   1.19096   1.19963   1.21424
 Alpha virt. eigenvalues --    1.21870   1.23256   1.25845   1.25964   1.27390
 Alpha virt. eigenvalues --    1.29267   1.30040   1.31073   1.32504   1.34054
 Alpha virt. eigenvalues --    1.34530   1.35255   1.37101   1.39371   1.40108
 Alpha virt. eigenvalues --    1.40645   1.42475   1.44003   1.44917   1.45901
 Alpha virt. eigenvalues --    1.47754   1.50070   1.50247   1.51810   1.52573
 Alpha virt. eigenvalues --    1.53843   1.55009   1.57048   1.57690   1.58621
 Alpha virt. eigenvalues --    1.59557   1.60154   1.61782   1.63825   1.64983
 Alpha virt. eigenvalues --    1.65823   1.67080   1.68091   1.68894   1.69516
 Alpha virt. eigenvalues --    1.70781   1.71131   1.72723   1.73307   1.74848
 Alpha virt. eigenvalues --    1.75689   1.76568   1.76847   1.77949   1.78524
 Alpha virt. eigenvalues --    1.79505   1.80074   1.80170   1.80857   1.81609
 Alpha virt. eigenvalues --    1.82233   1.82834   1.84114   1.85016   1.86030
 Alpha virt. eigenvalues --    1.86596   1.87260   1.87793   1.88255   1.88704
 Alpha virt. eigenvalues --    1.89075   1.89884   1.90424   1.91891   1.92047
 Alpha virt. eigenvalues --    1.92685   1.92941   1.93512   1.94457   1.95901
 Alpha virt. eigenvalues --    1.96639   1.96744   1.97961   1.98473   1.98892
 Alpha virt. eigenvalues --    1.98945   1.99987   2.00431   2.01048   2.01939
 Alpha virt. eigenvalues --    2.02088   2.03841   2.04511   2.05000   2.05911
 Alpha virt. eigenvalues --    2.06953   2.07477   2.08521   2.09327   2.10270
 Alpha virt. eigenvalues --    2.11184   2.11435   2.12632   2.12841   2.13528
 Alpha virt. eigenvalues --    2.13942   2.15878   2.16341   2.17059   2.18534
 Alpha virt. eigenvalues --    2.18965   2.19737   2.21643   2.22253   2.22658
 Alpha virt. eigenvalues --    2.23072   2.24195   2.26215   2.26615   2.27763
 Alpha virt. eigenvalues --    2.28290   2.28616   2.29070   2.31105   2.31307
 Alpha virt. eigenvalues --    2.32076   2.33390   2.33690   2.34076   2.35133
 Alpha virt. eigenvalues --    2.36009   2.36712   2.37198   2.38525   2.38914
 Alpha virt. eigenvalues --    2.40623   2.41117   2.41700   2.43674   2.44928
 Alpha virt. eigenvalues --    2.45919   2.46798   2.47080   2.47966   2.49180
 Alpha virt. eigenvalues --    2.49944   2.50174   2.52090   2.53061   2.54296
 Alpha virt. eigenvalues --    2.55874   2.56902   2.57694   2.60112   2.61080
 Alpha virt. eigenvalues --    2.62431   2.63401   2.64418   2.66198   2.66634
 Alpha virt. eigenvalues --    2.66862   2.67777   2.69562   2.69999   2.71557
 Alpha virt. eigenvalues --    2.72579   2.74940   2.75495   2.76644   2.77680
 Alpha virt. eigenvalues --    2.77864   2.79232   2.79442   2.81875   2.85227
 Alpha virt. eigenvalues --    2.88663   2.91037   2.92580   2.93757   2.94793
 Alpha virt. eigenvalues --    2.97143   2.98697   3.00339   3.01138   3.03267
 Alpha virt. eigenvalues --    3.05818   3.07145   3.11639   3.17986   3.20355
 Alpha virt. eigenvalues --    3.23329   3.27809   4.01190   4.10105   4.13209
 Alpha virt. eigenvalues --    4.14792   4.16629   4.18311   4.19037   4.21138
 Alpha virt. eigenvalues --    4.23687   4.25693   4.26799   4.27970   4.30154
 Alpha virt. eigenvalues --    4.32184   4.33907   4.37735   4.40269   4.42581
 Alpha virt. eigenvalues --    4.46756   4.47628   4.54900   4.56916   4.61850
 Alpha virt. eigenvalues --    4.65646   4.68251   4.70536   4.72429   4.77868
 Alpha virt. eigenvalues --    4.89506   4.92748   5.25359
          Condensed to atoms (all electrons):
 Mulliken atomic charges:
              1
     1  C   -0.200169
     2  C    0.201517
     3  C   -0.199549
     4  C    0.318276
     5  C   -0.044135
     6  C   -0.327113
     7  C    0.209791
     8  C    0.408468
     9  C   -0.096937
    10  C    0.420032
    11  C    0.422106
    12  O   -0.467780
    13  C   -0.139345
    14  C   -0.259715
    15  C   -0.458528
    16  O   -0.486316
    17  C   -0.152019
    18  C    0.305618
    19  O   -0.537199
    20  C   -0.306244
    21  O   -0.677669
    22  C   -0.328027
    23  C    0.091398
    24  O   -0.581795
    25  C    0.184600
    26  C   -0.509824
    27  C   -0.403301
    28  C   -0.459598
    29  C   -0.464079
    30  H    0.145415
    31  H    0.150610
    32  C   -0.519118
    33  H    0.126303
    34  H    0.165749
    35  H    0.181547
    36  H    0.140033
    37  H    0.145486
    38  H    0.129070
    39  H    0.169389
    40  H    0.144095
    41  H    0.160954
    42  H    0.161502
    43  H    0.149175
    44  H    0.431383
    45  H    0.186851
    46  H    0.152566
    47  H    0.134357
    48  H    0.155177
    49  H    0.151586
    50  H    0.157513
    51  H    0.136190
    52  H    0.175829
    53  H    0.184976
    54  H    0.140849
    55  H    0.149065
    56  H    0.157896
    57  H    0.150635
    58  H    0.157958
    59  H    0.157585
    60  H    0.155385
    61  H    0.155849
    62  C   -0.450854
    63  H    0.131566
    64  H    0.174885
    65  H    0.140080
 Sum of Mulliken atomic charges =   0.00000
 Mulliken charges with hydrogens summed into heavy atoms:
              1
     1  C   -0.073866
     2  C    0.201517
     3  C   -0.048938
     4  C    0.318276
     5  C   -0.044135
     6  C    0.020183
     7  C    0.209791
     8  C    0.408468
     9  C   -0.096937
    10  C    0.420032
    11  C    0.422106
    12  O   -0.467780
    13  C    0.000688
    14  C    0.014841
    15  C    0.015910
    16  O   -0.486316
    17  C   -0.006604
    18  C    0.305618
    19  O   -0.537199
    20  C    0.004433
    21  O   -0.246286
    22  C    0.011390
    23  C    0.225755
    24  O   -0.581795
    25  C    0.184600
    26  C   -0.045549
    27  C   -0.091283
    28  C    0.015292
    29  C    0.002411
    32  C   -0.050300
    62  C   -0.004323
 Sum of Mulliken charges with hydrogens summed into heavy atoms =   0.00000
 Electronic spatial extent (au):  <R**2>=          11236.6027
 Charge=              0.0000 electrons
 Dipole moment (field-independent basis, Debye):
    X=              3.4356    Y=              3.8343    Z=              1.7005  Tot=              5.4218
 Quadrupole moment (field-independent basis, Debye-Ang):
   XX=           -180.2559   YY=           -179.8260   ZZ=           -186.4897
   XY=             -1.6681   XZ=             -9.0144   YZ=             -2.5467
 Traceless Quadrupole moment (field-independent basis, Debye-Ang):
   XX=              1.9346   YY=              2.3645   ZZ=             -4.2991
   XY=             -1.6681   XZ=             -9.0144   YZ=             -2.5467
 Octapole moment (field-independent basis, Debye-Ang**2):
  XXX=             16.2195  YYY=             33.7071  ZZZ=              5.4671  XYY=              6.1861
  XXY=             -8.5930  XXZ=             24.2542  XZZ=             29.7601  YZZ=              7.4041
  YYZ=             27.5214  XYZ=              0.1338
 Hexadecapole moment (field-independent basis, Debye-Ang**3):
 XXXX=          -7841.3735 YYYY=          -4374.6368 ZZZZ=          -2802.0534 XXXY=              6.9390
 XXXZ=            -60.4687 YYYX=              7.5704 YYYZ=             -2.3271 ZZZX=            -35.1011
 ZZZY=             -0.3254 XXYY=          -2002.3716 XXZZ=          -1800.4153 YYZZ=          -1172.2533
 XXYZ=            -26.6086 YYXZ=              7.4949 ZZXY=            -30.7555
 N-N= 3.537734923644D+03 E-N=-1.030203268324D+04  KE= 1.374865208154D+03
 Calling FoFJK, ICntrl=      2127 FMM=T ISym2X=0 I1Cent= 0 IOpClX= 0 NMat=1 NMatS=1 NMatT=0.
 ***** Axes restored to original set *****
 -------------------------------------------------------------------
 Center     Atomic                   Forces (Hartrees/Bohr)
 Number     Number              X              Y              Z
 -------------------------------------------------------------------
      1        6           0.009831618    0.000752983    0.001625507
      2        6          -0.009945112   -0.005839008    0.004536038
      3        6          -0.005894518   -0.009193684   -0.003104182
      4        6           0.012570292   -0.005897369    0.007380915
      5        6          -0.006970501    0.002921872    0.005453174
      6        6          -0.006672784   -0.008846650   -0.005035457
      7        6           0.022115669    0.016066396    0.006423119
      8        6          -0.005622712   -0.001078144   -0.023770497
      9        6           0.005197625   -0.003619322    0.004864556
     10        6          -0.017972442    0.017452470    0.001919257
     11        6          -0.020437547   -0.005860102   -0.003591917
     12        8           0.008003725    0.010383289    0.002268889
     13        6           0.007729773   -0.001022845   -0.001526511
     14        6          -0.000963805   -0.000034405   -0.007554598
     15        6          -0.007697052    0.001698148    0.005834375
     16        8           0.007705279   -0.010409631   -0.001523630
     17        6           0.002123906   -0.006288678   -0.011809718
     18        6           0.029805374    0.005184967   -0.015834807
     19        8          -0.009114018   -0.008907290    0.033720201
     20        6           0.009191886   -0.001850769   -0.006508169
     21        8          -0.005100675    0.005445143    0.004070858
     22        6          -0.002906493   -0.007745620    0.008164175
     23        6          -0.001013881    0.006199742    0.016862043
     24        8          -0.004397856   -0.008210430   -0.014219642
     25        6          -0.011627442    0.015435989    0.008088550
     26        6          -0.000140589    0.001032154   -0.001035347
     27        6           0.001017172   -0.008819879   -0.001614138
     28        6          -0.001973358    0.008548051    0.001834397
     29        6          -0.009074551   -0.000477253   -0.006853091
     30        1          -0.003328594    0.002188559    0.000486714
     31        1          -0.001793341    0.005568614    0.000710297
     32        6          -0.002465817   -0.000445092    0.000143697
     33        1           0.000680769   -0.000989978   -0.000044996
     34        1           0.000457203    0.004936056   -0.000253444
     35        1          -0.002212932    0.005956086   -0.000059871
     36        1          -0.000001797   -0.002654787    0.000422640
     37        1           0.002156143    0.001031497    0.002162198
     38        1           0.002078941    0.001069581    0.001841119
     39        1           0.001140451   -0.000094997   -0.001218332
     40        1           0.000564605    0.000814655   -0.000741709
     41        1           0.000121444    0.000380941    0.000269643
     42        1           0.000184367    0.000310324    0.001307847
     43        1          -0.002220036   -0.001714392   -0.001331043
     44        1          -0.002985753   -0.001372090   -0.002593729
     45        1           0.000852288    0.005021254   -0.005763740
     46        1           0.000939876    0.000905110   -0.004550150
     47        1           0.004486804   -0.000271677    0.000468958
     48        1           0.004261990   -0.002086578    0.001350495
     49        1           0.003792160   -0.002071620    0.000116063
     50        1          -0.001856232   -0.000772889   -0.001512820
     51        1           0.001776606   -0.000049329    0.000502380
     52        1          -0.000601750   -0.000753165   -0.002574885
     53        1           0.000532349   -0.004684238    0.003322987
     54        1           0.000108860   -0.000854946   -0.000377096
     55        1           0.000394393   -0.003283253   -0.002262604
     56        1           0.001530955   -0.001919878    0.002521554
     57        1          -0.000051027    0.000718261    0.001353621
     58        1           0.002093491    0.001551917    0.001697752
     59        1          -0.000643295    0.000865930   -0.000328508
     60        1           0.004105392   -0.001583872   -0.000157207
     61        1           0.004148548   -0.001114770    0.000065577
     62        6          -0.003728447   -0.002261538   -0.004355844
     63        1          -0.000154609    0.000611845   -0.001349546
     64        1          -0.000563886    0.000188393    0.001601797
     65        1          -0.001567103   -0.000160055    0.000065836
 -------------------------------------------------------------------
 Cartesian Forces:  Max     0.033720201 RMS     0.006722432

 GradGradGradGradGradGradGradGradGradGradGradGradGradGradGradGradGradGrad
 Berny optimization.
 Internal  Forces:  Max     0.017696197 RMS     0.003402762
 Search for a local minimum.
 Step number   1 out of a maximum of  390
 All quantities printed in internal units (Hartrees-Bohrs-Radians)
 Mixed Optimization -- RFO/linear search
 Second derivative matrix not updated -- first step.
 ITU=  0
     Eigenvalues ---    0.00266   0.00276   0.00355   0.00421   0.00423
     Eigenvalues ---    0.00457   0.00529   0.00565   0.00568   0.00595
     Eigenvalues ---    0.00631   0.00661   0.00691   0.00742   0.00817
     Eigenvalues ---    0.01048   0.01123   0.01227   0.01276   0.01457
     Eigenvalues ---    0.01513   0.01704   0.01723   0.01817   0.02069
     Eigenvalues ---    0.02564   0.02839   0.02840   0.03134   0.03159
     Eigenvalues ---    0.03243   0.03619   0.03661   0.03876   0.04081
     Eigenvalues ---    0.04277   0.04346   0.04456   0.04459   0.04631
     Eigenvalues ---    0.04727   0.04768   0.04946   0.05122   0.05283
     Eigenvalues ---    0.05309   0.05337   0.05397   0.05430   0.05447
     Eigenvalues ---    0.05501   0.05553   0.05571   0.05606   0.05634
     Eigenvalues ---    0.05715   0.05841   0.05927   0.05930   0.06143
     Eigenvalues ---    0.06574   0.06856   0.07045   0.07075   0.07156
     Eigenvalues ---    0.07217   0.07319   0.07349   0.07575   0.08093
     Eigenvalues ---    0.08355   0.08743   0.08865   0.09122   0.09616
     Eigenvalues ---    0.09768   0.10336   0.11510   0.11876   0.12579
     Eigenvalues ---    0.12582   0.13304   0.14489   0.15314   0.15989
     Eigenvalues ---    0.16000   0.16000   0.16000   0.16000   0.16000
     Eigenvalues ---    0.16000   0.16000   0.16000   0.16000   0.16000
     Eigenvalues ---    0.16000   0.16000   0.16000   0.16000   0.16000
     Eigenvalues ---    0.16000   0.16000   0.16000   0.16000   0.16000
     Eigenvalues ---    0.16406   0.17008   0.17377   0.18132   0.18142
     Eigenvalues ---    0.19433   0.20794   0.21977   0.22084   0.22740
     Eigenvalues ---    0.23243   0.24703   0.24851   0.24973   0.24985
     Eigenvalues ---    0.24987   0.24989   0.25000   0.26110   0.26597
     Eigenvalues ---    0.26886   0.27452   0.27848   0.28277   0.28311
     Eigenvalues ---    0.28714   0.28785   0.28854   0.29325   0.29789
     Eigenvalues ---    0.29800   0.30045   0.30247   0.30546   0.30859
     Eigenvalues ---    0.31328   0.31661   0.32185   0.32932   0.33691
     Eigenvalues ---    0.33848   0.33851   0.33925   0.33945   0.33966
     Eigenvalues ---    0.33983   0.33986   0.34003   0.34049   0.34073
     Eigenvalues ---    0.34076   0.34140   0.34195   0.34196   0.34223
     Eigenvalues ---    0.34228   0.34228   0.34229   0.34269   0.34271
     Eigenvalues ---    0.34271   0.34274   0.34280   0.34291   0.34346
     Eigenvalues ---    0.34349   0.34368   0.34429   0.34471   0.34722
     Eigenvalues ---    0.35078   0.35207   0.35635   0.35961   0.36533
     Eigenvalues ---    0.37910   0.41028   0.44491   0.50554   0.53386
     Eigenvalues ---    0.54233   0.56483   0.90657   0.91635
 RFO step:  Lambda=-2.23068397D-02 EMin= 2.65811627D-03
 Linear search not attempted -- first point.
 Iteration  1 RMS(Cart)=  0.06537315 RMS(Int)=  0.00103606
 Iteration  2 RMS(Cart)=  0.00192537 RMS(Int)=  0.00024671
 Iteration  3 RMS(Cart)=  0.00000177 RMS(Int)=  0.00024671
 Iteration  4 RMS(Cart)=  0.00000000 RMS(Int)=  0.00024671
 Variable       Old X    -DE/DX   Delta X   Delta X   Delta X     New X
                                 (Linear)    (Quad)   (Total)
    R1        2.53393  -0.00266   0.00000  -0.00505  -0.00510   2.52883
    R2        2.82638   0.00796   0.00000   0.02326   0.02313   2.84951
    R3        2.05549   0.00051   0.00000   0.00136   0.00136   2.05684
    R4        2.84767   0.00443   0.00000   0.01147   0.01153   2.85921
    R5        2.83806   0.00466   0.00000   0.01355   0.01355   2.85161
    R6        2.94453   0.00577   0.00000   0.01349   0.01345   2.95798
    R7        2.90124   0.01024   0.00000   0.03433   0.03428   2.93552
    R8        2.07855  -0.00196   0.00000  -0.00546  -0.00546   2.07309
    R9        2.91547   0.01090   0.00000   0.03122   0.03122   2.94668
   R10        2.93284   0.00995   0.00000   0.03614   0.03646   2.96930
   R11        2.75354  -0.00344   0.00000  -0.00815  -0.00812   2.74542
   R12        2.92291   0.00383   0.00000   0.01382   0.01378   2.93668
   R13        2.90455   0.00670   0.00000   0.01511   0.01477   2.91932
   R14        2.89431   0.00403   0.00000   0.01148   0.01133   2.90564
   R15        2.07587  -0.00146   0.00000  -0.00404  -0.00404   2.07183
   R16        2.07388   0.00192   0.00000   0.00531   0.00531   2.07918
   R17        2.81416   0.01040   0.00000   0.02410   0.02379   2.83795
   R18        2.86445   0.01492   0.00000   0.05224   0.05175   2.91621
   R19        2.68434   0.00067   0.00000   0.00185   0.00194   2.68628
   R20        2.52554   0.01350   0.00000   0.02381   0.02393   2.54946
   R21        2.62087  -0.01770   0.00000  -0.04116  -0.04091   2.57996
   R22        2.80204   0.00315   0.00000   0.00445   0.00462   2.80666
   R23        2.79428   0.01424   0.00000   0.03855   0.03855   2.83283
   R24        2.32189  -0.01071   0.00000  -0.01141  -0.01141   2.31048
   R25        2.32632  -0.01297   0.00000  -0.01397  -0.01397   2.31235
   R26        2.88386   0.00106   0.00000   0.00332   0.00332   2.88718
   R27        2.90604   0.00737   0.00000   0.02382   0.02382   2.92986
   R28        2.88365   0.00748   0.00000   0.02335   0.02335   2.90699
   R29        2.07457  -0.00091   0.00000  -0.00253  -0.00253   2.07205
   R30        2.07247   0.00011   0.00000   0.00031   0.00031   2.07278
   R31        2.07358   0.00120   0.00000   0.00333   0.00333   2.07691
   R32        2.87875   0.00740   0.00000   0.02294   0.02294   2.90168
   R33        2.06946  -0.00068   0.00000  -0.00185  -0.00185   2.06761
   R34        2.06869   0.00103   0.00000   0.00283   0.00283   2.07153
   R35        2.07094   0.00029   0.00000   0.00078   0.00078   2.07173
   R36        2.91231   0.00009   0.00000   0.01205   0.01223   2.92455
[...]
     56          1           0        1.844832    3.668572   -0.039272
     57          1           0        1.463225    4.462888   -1.581512
     58          1           0        2.963080    3.533494   -1.407749
     59          1           0       -3.342217    3.052102    3.552459
     60          1           0       -2.725974    4.032588    2.210308
     61          1           0       -4.136907    3.008914    1.964645
     62          6           0        5.397706   -0.337389    1.609354
     63          1           0        6.009404    0.511663    1.937148
     64          1           0        4.681739   -0.572687    2.401632
     65          1           0        6.063648   -1.200299    1.500668
 ---------------------------------------------------------------------
 Rotational constants (GHZ):      0.2013499      0.1313428      0.1158072

 **********************************************************************

            Population analysis using the SCF density.

 **********************************************************************

 Orbital symmetries:
       Occupied  (A) (A) (A) (A) (A) (A) (A) (A) (A) (A) (A) (A)
                 (A) (A) (A) (A) (A) (A) (A) (A) (A) (A) (A) (A)
                 (A) (A) (A) (A) (A) (A) (A) (A) (A) (A) (A) (A)
                 (A) (A) (A) (A) (A) (A) (A) (A) (A) (A) (A) (A)
                 (A) (A) (A) (A) (A) (A) (A) (A) (A) (A) (A) (A)
                 (A) (A) (A) (A) (A) (A) (A) (A) (A) (A) (A) (A)
                 (A) (A) (A) (A) (A) (A) (A) (A) (A) (A) (A) (A)
                 (A) (A) (A) (A) (A) (A) (A) (A) (A) (A) (A) (A)
                 (A) (A) (A) (A) (A) (A) (A) (A) (A) (A) (A) (A)
                 (A) (A) (A) (A) (A) (A) (A)
       Virtual   (A) (A) (A) (A) (A) (A) (A) (A) (A) (A) (A) (A)
                 (A) (A) (A) (A) (A) (A) (A) (A) (A) (A) (A) (A)
                 (A) (A) (A) (A) (A) (A) (A) (A) (A) (A) (A) (A)
                 (A) (A) (A) (A) (A) (A) (A) (A) (A) (A) (A) (A)
                 (A) (A) (A) (A) (A) (A) (A) (A) (A) (A) (A) (A)
                 (A) (A) (A) (A) (A) (A) (A) (A) (A) (A) (A) (A)
                 (A) (A) (A) (A) (A) (A) (A) (A) (A) (A) (A) (A)
                 (A) (A) (A) (A) (A) (A) (A) (A) (A) (A) (A) (A)
                 (A) (A) (A) (A) (A) (A) (A) (A) (A) (A) (A) (A)
                 (A) (A) (A) (A) (A) (A) (A) (A) (A) (A) (A) (A)
                 (A) (A) (A) (A) (A) (A) (A) (A) (A) (A) (A) (A)
                 (A) (A) (A) (A) (A) (A) (A) (A) (A) (A) (A) (A)
                 (A) (A) (A) (A) (A) (A) (A) (A) (A) (A) (A) (A)
                 (A) (A) (A) (A) (A) (A) (A) (A) (A) (A) (A) (A)
                 (A) (A) (A) (A) (A) (A) (A) (A) (A) (A) (A) (A)
                 (A) (A) (A) (A) (A) (A) (A) (A) (A) (A) (A) (A)
                 (A) (A) (A) (A) (A) (A) (A) (A) (A) (A) (A) (A)
                 (A) (A) (A) (A) (A) (A) (A) (A) (A) (A) (A) (A)
                 (A) (A) (A) (A) (A) (A) (A) (A) (A) (A) (A) (A)
                 (A) (A) (A) (A) (A) (A) (A) (A) (A) (A) (A) (A)
                 (A) (A) (A) (A) (A) (A) (A) (A) (A) (A) (A) (A)
                 (A) (A) (A) (A) (A) (A) (A) (A) (A) (A) (A) (A)
                 (A) (A) (A) (A) (A) (A) (A) (A) (A) (A) (A) (A)
                 (A) (A) (A) (A) (A) (A) (A) (A) (A) (A) (A) (A)
                 (A) (A) (A) (A) (A) (A) (A) (A) (A) (A) (A) (A)
                 (A) (A) (A) (A) (A) (A) (A) (A) (A) (A) (A) (A)
                 (A) (A) (A) (A) (A) (A) (A) (A) (A) (A) (A) (A)
                 (A) (A) (A) (A) (A) (A) (A) (A) (A) (A) (A) (A)
                 (A) (A) (A) (A) (A) (A) (A) (A) (A) (A) (A) (A)
                 (A) (A) (A) (A) (A) (A) (A) (A) (A) (A) (A) (A)
                 (A) (A) (A) (A) (A) (A) (A) (A) (A) (A) (A) (A)
                 (A) (A) (A) (A) (A) (A) (A) (A) (A) (A) (A) (A)
                 (A) (A) (A) (A) (A) (A) (A) (A) (A) (A) (A) (A)
                 (A) (A) (A) (A) (A) (A) (A) (A) (A) (A) (A) (A)
                 (A) (A) (A) (A) (A) (A) (A) (A) (A) (A)
 The electronic state is 1-A.
 Alpha  occ. eigenvalues --  -19.20124 -19.16731 -19.14980 -19.13072 -19.12003
 Alpha  occ. eigenvalues --  -10.27133 -10.27025 -10.26983 -10.26136 -10.26048
 Alpha  occ. eigenvalues --  -10.25854 -10.24688 -10.21312 -10.20608 -10.20383
 Alpha  occ. eigenvalues --  -10.20310 -10.19827 -10.19637 -10.19536 -10.19460
 Alpha  occ. eigenvalues --  -10.19028 -10.18966 -10.18708 -10.18547 -10.18530
 Alpha  occ. eigenvalues --  -10.18368 -10.18081 -10.17482 -10.17430 -10.16313
 Alpha  occ. eigenvalues --  -10.15780  -1.09411  -1.05809  -1.03366  -1.02015
 Alpha  occ. eigenvalues --   -1.01712  -0.86938  -0.83944  -0.81982  -0.81159
 Alpha  occ. eigenvalues --   -0.79923  -0.79109  -0.76872  -0.74024  -0.73089
 Alpha  occ. eigenvalues --   -0.72116  -0.71190  -0.70351  -0.68687  -0.68042
 Alpha  occ. eigenvalues --   -0.65233  -0.64241  -0.63428  -0.61850  -0.60681
 Alpha  occ. eigenvalues --   -0.59182  -0.58451  -0.56540  -0.54502  -0.53151
 Alpha  occ. eigenvalues --   -0.52879  -0.51801  -0.50651  -0.49797  -0.48996
 Alpha  occ. eigenvalues --   -0.47865  -0.47431  -0.46847  -0.46559  -0.46124
 Alpha  occ. eigenvalues --   -0.44975  -0.44439  -0.44178  -0.43912  -0.43070
 Alpha  occ. eigenvalues --   -0.42722  -0.42298  -0.42044  -0.41585  -0.41289
 Alpha  occ. eigenvalues --   -0.41022  -0.40609  -0.40359  -0.40006  -0.39442
 Alpha  occ. eigenvalues --   -0.39212  -0.38722  -0.38554  -0.38030  -0.37976
 Alpha  occ. eigenvalues --   -0.37603  -0.37305  -0.36985  -0.36395  -0.36278
 Alpha  occ. eigenvalues --   -0.35849  -0.35678  -0.35013  -0.34676  -0.34622
 Alpha  occ. eigenvalues --   -0.33447  -0.33373  -0.33185  -0.32930  -0.32212
 Alpha  occ. eigenvalues --   -0.31324  -0.31238  -0.30780  -0.27443  -0.27249
 Alpha  occ. eigenvalues --   -0.25277  -0.24607  -0.24303  -0.23466  -0.22214
 Alpha virt. eigenvalues --   -0.04563  -0.01757   0.00971   0.01490   0.05545
 Alpha virt. eigenvalues --    0.07553   0.08228   0.08513   0.09533   0.10223
 Alpha virt. eigenvalues --    0.10632   0.10684   0.11097   0.11642   0.12651
 Alpha virt. eigenvalues --    0.12981   0.13277   0.13762   0.13978   0.14215
 Alpha virt. eigenvalues --    0.14510   0.15112   0.15253   0.15553   0.16002
 Alpha virt. eigenvalues --    0.16225   0.16680   0.16885   0.16968   0.17300
 Alpha virt. eigenvalues --    0.17714   0.17935   0.18703   0.18909   0.19044
 Alpha virt. eigenvalues --    0.19549   0.19742   0.19851   0.19944   0.20300
 Alpha virt. eigenvalues --    0.20902   0.21067   0.21523   0.22077   0.22186
 Alpha virt. eigenvalues --    0.22414   0.23329   0.23640   0.24135   0.24500
 Alpha virt. eigenvalues --    0.24590   0.24718   0.25646   0.26009   0.26473
 Alpha virt. eigenvalues --    0.26547   0.27613   0.28302   0.29483   0.29829
 Alpha virt. eigenvalues --    0.30584   0.31377   0.32611   0.33308   0.34488
 Alpha virt. eigenvalues --    0.34818   0.36202   0.38027   0.39007   0.39443
 Alpha virt. eigenvalues --    0.42635   0.43920   0.45786   0.47080   0.48202
 Alpha virt. eigenvalues --    0.49601   0.49617   0.50525   0.51280   0.51849
 Alpha virt. eigenvalues --    0.51880   0.52616   0.52837   0.53103   0.53586
 Alpha virt. eigenvalues --    0.53839   0.54120   0.54506   0.55063   0.55642
 Alpha virt. eigenvalues --    0.56821   0.57473   0.57554   0.58496   0.59027
 Alpha virt. eigenvalues --    0.59324   0.60154   0.60455   0.60843   0.61590
 Alpha virt. eigenvalues --    0.62055   0.62425   0.63157   0.64321   0.64840
 Alpha virt. eigenvalues --    0.65869   0.66381   0.66409   0.67106   0.67468
 Alpha virt. eigenvalues --    0.67716   0.68273   0.68618   0.69367   0.69980
 Alpha virt. eigenvalues --    0.70508   0.70914   0.72394   0.72467   0.73269
 Alpha virt. eigenvalues --    0.73942   0.74594   0.74797   0.75558   0.76172
 Alpha virt. eigenvalues --    0.77140   0.77258   0.77854   0.78391   0.78636
 Alpha virt. eigenvalues --    0.79162   0.80208   0.80846   0.81247   0.82161
 Alpha virt. eigenvalues --    0.82938   0.83347   0.84231   0.84321   0.85138
 Alpha virt. eigenvalues --    0.85473   0.85785   0.86255   0.86623   0.87351
 Alpha virt. eigenvalues --    0.87821   0.88275   0.88396   0.88737   0.89133
 Alpha virt. eigenvalues --    0.89260   0.89511   0.90029   0.90286   0.90376
 Alpha virt. eigenvalues --    0.90636   0.90953   0.91746   0.92057   0.92314
 Alpha virt. eigenvalues --    0.92736   0.93064   0.93262   0.93462   0.94141
 Alpha virt. eigenvalues --    0.94858   0.95456   0.96416   0.96748   0.97000
 Alpha virt. eigenvalues --    0.97414   0.98298   0.98843   0.99232   0.99534
 Alpha virt. eigenvalues --    1.00540   1.01100   1.02206   1.02366   1.03456
 Alpha virt. eigenvalues --    1.03789   1.04797   1.05700   1.08155   1.09921
 Alpha virt. eigenvalues --    1.11636   1.11938   1.12047   1.12669   1.12940
 Alpha virt. eigenvalues --    1.14548   1.14890   1.15158   1.15631   1.16053
 Alpha virt. eigenvalues --    1.17967   1.18441   1.19768   1.20144   1.21762
 Alpha virt. eigenvalues --    1.23434   1.24560   1.25239   1.25973   1.27881
 Alpha virt. eigenvalues --    1.28373   1.30206   1.31077   1.32304   1.35057
 Alpha virt. eigenvalues --    1.35857   1.36227   1.36749   1.38770   1.39885
 Alpha virt. eigenvalues --    1.42092   1.42322   1.44365   1.45544   1.45883
 Alpha virt. eigenvalues --    1.46324   1.48399   1.50037   1.51453   1.52384
 Alpha virt. eigenvalues --    1.54630   1.55116   1.56622   1.57111   1.58410
 Alpha virt. eigenvalues --    1.58811   1.60941   1.62018   1.62607   1.63898
 Alpha virt. eigenvalues --    1.64501   1.66956   1.67337   1.68117   1.69117
 Alpha virt. eigenvalues --    1.69918   1.71177   1.72203   1.72529   1.74245
 Alpha virt. eigenvalues --    1.74570   1.75317   1.76554   1.77022   1.77543
 Alpha virt. eigenvalues --    1.78836   1.79548   1.79709   1.80275   1.81154
 Alpha virt. eigenvalues --    1.81295   1.82925   1.83606   1.84055   1.85208
 Alpha virt. eigenvalues --    1.85565   1.86158   1.86777   1.87513   1.87899
 Alpha virt. eigenvalues --    1.88403   1.89392   1.90100   1.91341   1.92063
 Alpha virt. eigenvalues --    1.92206   1.93446   1.93609   1.94029   1.94968
 Alpha virt. eigenvalues --    1.95763   1.96354   1.97216   1.97404   1.98179
 Alpha virt. eigenvalues --    1.98467   1.99181   1.99475   1.99936   2.01711
 Alpha virt. eigenvalues --    2.01977   2.02469   2.03502   2.03983   2.05203
 Alpha virt. eigenvalues --    2.06108   2.06976   2.07400   2.08885   2.10318
 Alpha virt. eigenvalues --    2.10859   2.11454   2.11645   2.12364   2.13040
 Alpha virt. eigenvalues --    2.13274   2.14305   2.15956   2.17121   2.17796
 Alpha virt. eigenvalues --    2.17987   2.20170   2.21077   2.21741   2.22562
 Alpha virt. eigenvalues --    2.22876   2.23358   2.25471   2.26179   2.26923
 Alpha virt. eigenvalues --    2.27485   2.27677   2.28613   2.30493   2.30678
 Alpha virt. eigenvalues --    2.32139   2.32776   2.33501   2.33845   2.34712
 Alpha virt. eigenvalues --    2.35791   2.36980   2.37083   2.38219   2.38999
 Alpha virt. eigenvalues --    2.40136   2.41393   2.41900   2.42987   2.43794
 Alpha virt. eigenvalues --    2.44247   2.45906   2.46945   2.48147   2.48406
 Alpha virt. eigenvalues --    2.49164   2.50126   2.51053   2.52114   2.53932
 Alpha virt. eigenvalues --    2.55135   2.56978   2.57559   2.59195   2.60867
 Alpha virt. eigenvalues --    2.62022   2.63075   2.63935   2.65041   2.66086
 Alpha virt. eigenvalues --    2.67169   2.67317   2.68230   2.68561   2.70478
 Alpha virt. eigenvalues --    2.71328   2.74275   2.74444   2.76332   2.76521
 Alpha virt. eigenvalues --    2.77186   2.77624   2.78002   2.79811   2.84235
 Alpha virt. eigenvalues --    2.87190   2.88132   2.90992   2.94573   2.96193
 Alpha virt. eigenvalues --    2.98027   2.98813   2.99698   3.01349   3.03098
 Alpha virt. eigenvalues --    3.05721   3.06806   3.11062   3.15300   3.17440
 Alpha virt. eigenvalues --    3.25563   3.26913   4.01840   4.09180   4.11474
 Alpha virt. eigenvalues --    4.12136   4.14042   4.16418   4.17814   4.18637
 Alpha virt. eigenvalues --    4.22990   4.25587   4.26095   4.26871   4.28254
 Alpha virt. eigenvalues --    4.31541   4.34930   4.35412   4.40150   4.41727
 Alpha virt. eigenvalues --    4.46437   4.47018   4.55429   4.57580   4.62000
 Alpha virt. eigenvalues --    4.67038   4.67647   4.69852   4.75595   4.76322
 Alpha virt. eigenvalues --    4.88381   4.92573   5.23375
          Condensed to atoms (all electrons):
 Mulliken atomic charges:
              1
     1  C   -0.197063
     2  C    0.204095
     3  C   -0.200148
     4  C    0.322574
     5  C   -0.051087
     6  C   -0.324319
     7  C    0.203582
     8  C    0.390153
     9  C   -0.088619
    10  C    0.417835
    11  C    0.429841
    12  O   -0.469249
    13  C   -0.145317
    14  C   -0.263796
    15  C   -0.453353
    16  O   -0.470849
    17  C   -0.155924
    18  C    0.298427
    19  O   -0.531710
    20  C   -0.308315
    21  O   -0.670219
    22  C   -0.333103
    23  C    0.094799
    24  O   -0.589856
    25  C    0.180696
    26  C   -0.513605
    27  C   -0.404354
    28  C   -0.467763
    29  C   -0.462600
    30  H    0.146767
    31  H    0.150014
    32  C   -0.520884
    33  H    0.125594
    34  H    0.168687
    35  H    0.168708
    36  H    0.135904
    37  H    0.139478
    38  H    0.129196
    39  H    0.173261
    40  H    0.135568
    41  H    0.150052
    42  H    0.159043
    43  H    0.151051
    44  H    0.430431
    45  H    0.190478
    46  H    0.150949
    47  H    0.135038
    48  H    0.159792
    49  H    0.153598
    50  H    0.157206
    51  H    0.136543
    52  H    0.186889
    53  H    0.196330
    54  H    0.145711
    55  H    0.156555
    56  H    0.161589
    57  H    0.152807
    58  H    0.164492
    59  H    0.157822
    60  H    0.154019
    61  H    0.156884
    62  C   -0.446536
    63  H    0.130911
    64  H    0.171046
    65  H    0.144257
 Sum of Mulliken atomic charges =   0.00000
 Mulliken charges with hydrogens summed into heavy atoms:
              1
     1  C   -0.071469
     2  C    0.204095
     3  C   -0.050133
     4  C    0.322574
     5  C   -0.051087
     6  C    0.013077
     7  C    0.203582
     8  C    0.390153
     9  C   -0.088619
    10  C    0.417835
    11  C    0.429841
    12  O   -0.469249
    13  C   -0.009413
    14  C    0.004877
    15  C    0.005527
    16  O   -0.470849
    17  C   -0.009157
    18  C    0.298427
    19  O   -0.531710
    20  C    0.001778
    21  O   -0.239788
    22  C    0.008324
    23  C    0.229837
    24  O   -0.589856
    25  C    0.180696
    26  C   -0.043009
    27  C   -0.080922
    28  C    0.030834
    29  C    0.016288
    32  C   -0.052160
    62  C   -0.000322
 Sum of Mulliken charges with hydrogens summed into heavy atoms =   0.00000
 Electronic spatial extent (au):  <R**2>=          11326.6224
 Charge=              0.0000 electrons
 Dipole moment (field-independent basis, Debye):
    X=             -3.0314    Y=              5.7116    Z=             -1.7143  Tot=              6.6896
 Quadrupole moment (field-independent basis, Debye-Ang):
   XX=           -179.5618   YY=           -183.6325   ZZ=           -184.0920
   XY=              6.5560   XZ=             -7.9652   YZ=              4.4086
 Traceless Quadrupole moment (field-independent basis, Debye-Ang):
   XX=              2.8669   YY=             -1.2038   ZZ=             -1.6632
   XY=              6.5560   XZ=             -7.9652   YZ=              4.4086
 Octapole moment (field-independent basis, Debye-Ang**2):
  XXX=            -20.2734  YYY=             48.2715  ZZZ=             -3.3819  XYY=            -13.9481
  XXY=              1.5967  XXZ=            -24.2638  XZZ=            -22.1077  YZZ=             12.7299
  YYZ=            -37.8783  XYZ=              0.5766
 Hexadecapole moment (field-independent basis, Debye-Ang**3):
 XXXX=          -7940.9844 YYYY=          -4278.9110 ZZZZ=          -2861.2771 XXXY=             20.4595
 XXXZ=            -37.4742 YYYX=             14.1804 YYYZ=             10.9645 ZZZX=            -28.5523
 ZZZY=            -13.7313 XXYY=          -2047.1654 XXZZ=          -1817.2168 YYZZ=          -1176.7754
 XXYZ=             43.3774 YYXZ=            -17.1694 ZZXY=             45.6524
 N-N= 3.523600508528D+03 E-N=-1.027357472858D+04  KE= 1.374450145247D+03
 1\1\GINC-B0606\FOpt\RB3LYP\6-31G(d)\C26H34O5\CAOFEI\24-Mar-2021\0\\# o
 pt rb3lyp/6-31g(d) geom=connectivity\\Title Card Required\\0,1\C,-0.06
 3500709,0.0926566806,-0.0774305431\C,1.2739363379,0.0469626234,-0.0892
 975271\C,2.0738209079,1.3288301297,-0.0949732599\C,1.3998048478,2.5585
 658005,0.5941246315\C,-0.1416756016,2.4869583536,0.8145692291\C,-0.834
 8786648,1.3844637234,-0.0451884808\C,1.8673609092,3.7862588976,-0.2708
 182518\C,0.7925604213,4.3038262604,-1.2116796472\C,-0.5139076912,4.420
 1085183,-0.8658202668\C,-0.8900272973,3.7988189144,0.4337921729\C,-1.5
 995127878,5.0136340511,-1.7091524518\O,-2.7381465231,4.5762971736,-1.6
 219391251\C,-1.2792573293,6.1795740426,-2.6528976646\C,-1.2967117092,5
 .7253689251,-4.1386496022\C,-2.2560261382,7.3352889145,-2.3749916299\O
 ,-1.8221726862,4.1983952665,1.1092252608\C,2.9126130006,3.2799221025,-
 1.2910843781\C,2.7558287448,4.258440315,-2.4748227229\O,1.3154199994,4
 .6276042693,-2.4030056624\C,2.4750274732,1.8200087981,-1.5108383963\O,
 2.2848952916,4.8647389054,0.5358884447\C,-0.281994941,2.1695263542,2.3
 157314337\C,1.0142139409,2.6394452294,2.9828710783\O,1.9905349836,2.71
 65866879,1.8963510768\C,1.0364089237,3.9488111431,3.7560851504\C,2.329
 5224983,4.1972437087,4.49969114\C,0.0175791502,4.811844025,3.803396886
 5\C,3.5680620412,5.5410316269,-2.2811284335\C,2.9704436452,3.670265255
 6,-3.8653928385\H,3.9212051992,3.3272664241,-0.8696354403\H,3.00293219
 91,1.1730721422,0.4691596968\C,2.0495148399,-1.2436470158,-0.134904744
 5\H,-0.6363795758,-0.8331983084,-0.1055947088\H,-1.8393689402,1.226178
 9055,0.3629831347\H,-0.9923757201,1.7573514202,-1.0670820312\H,-0.2621
 418356,6.5255731119,-2.4425690472\H,-0.5682607753,4.9142409766,-4.2613
 53923\H,-0.9149993449,6.5662966508,-4.7347474787\H,-3.292630481,7.0012
 258625,-2.464365402\H,-2.08682648,8.1559438236,-3.0823408155\H,-2.1186
 703468,7.7284515174,-1.3614676694\H,1.6047704841,1.768676919,-2.176343
 6845\H,3.2587863811,1.2001782669,-1.9572732664\H,2.426951339,4.4632861
 271,1.4186493849\H,-1.1802737384,2.6381098335,2.7188336094\H,-0.375190
 3655,1.0879623212,2.4492894075\H,1.397738807,1.858087584,3.6525581775\
 H,3.1955406389,4.1645617414,3.8261418682\H,2.5004625663,3.420928505,5.
 2590106558\H,2.3237866368,5.1688522565,5.0021345581\H,0.1014597752,5.7
 324567718,4.3764615811\H,-0.915448838,4.6586279627,3.2726692594\H,3.40
 53180542,5.956289564,-1.2839641092\H,4.6367575435,5.329246485,-2.40045
 95923\H,3.2800043498,6.2838549251,-3.0321573722\H,2.326474262,2.805782
 5273,-4.0453095354\H,4.0138304394,3.3568936182,-3.9807145828\H,2.75497
 45065,4.4229961141,-4.6305127907\H,1.3840727641,-2.1124396355,-0.15827
 81911\H,2.6982648442,-1.2927176424,-1.020503222\H,2.7083594513,-1.3408
 568775,0.7392037742\C,-2.6547377533,5.2858985526,-4.6973502493\H,-2.54
 52041525,4.9552845978,-5.7371625067\H,-3.0811787306,4.4630301078,-4.11
 7077971\H,-3.380539042,6.1062771675,-4.687542396\\Version=EM64L-G09Rev
 B.01\State=1-A\HF=-1387.3168122\RMSD=4.247e-09\RMSF=4.751e-06\Dipole=2
 .3378496,-1.1704302,-0.3022297\Quadrupole=-8.6452415,3.9322207,4.71302
 07,1.6523562,-3.0802056,-2.140501\PG=C01 [X(C26H34O5)]\\@


 WHAT, THEN, IS TIME?  IF NO ONE ASKS ME, I KNOW WHAT IT IS.
 IF I WISH TO EXPLAIN WHAT IT IS TO HIM WHO ASKS ME, I DO NOT KNOW.
                                   -- ST. AUGUSTINE (FIFTH CENTURY)
 Job cpu time:  0 days  5 hours 39 minutes  4.6 seconds.
 File lengths (MBytes):  RWF=    186 Int=      0 D2E=      0 Chk=     20 Scr=      1
 Normal termination of Gaussian 09 at Wed Mar 24 14:23:08 2021.
