 Entering Gaussian System, Link 0=g09
 Initial command:
 /public/software/g09/g09/l1.exe /tmp/Gau-15863.inp -scrdir=/tmp/
 Entering Link 1 = /public/software/g09/g09/l1.exe PID=     15864.
  
 Copyright (c) 1988,1990,1992,1993,1995,1998,2003,2009,2010,
            Gaussian, Inc.  All Rights Reserved.
  
 This is part of the Gaussian(R) 09 program.  It is based on
 the Gaussian(R) 03 system (copyright 2003, Gaussian, Inc.),
 the Gaussian(R) 98 system (copyright 1998, Gaussian, Inc.),
 the Gaussian(R) 94 system (copyright 1995, Gaussian, Inc.),
 the Gaussian 92(TM) system (copyright 1992, Gaussian, Inc.),
 the Gaussian 90(TM) system (copyright 1990, Gaussian, Inc.),
 the Gaussian 88(TM) system (copyright 1988, Gaussian, Inc.),
 the Gaussian 86(TM) system (copyright 1986, Carnegie Mellon
 University), and the Gaussian 82(TM) system (copyright 1983,
 Carnegie Mellon University). Gaussian is a federally registered
 trademark of Gaussian, Inc.
  
 This software contains proprietary and confidential information,
 including trade secrets, belonging to Gaussian, Inc.
  
 This software is provided under written license and may be
 used, copied, transmitted, or stored only in accord with that
 written license.
  
 The following legend is applicable only to US Government
 contracts under FAR:
  
                    RESTRICTED RIGHTS LEGEND
  
 Use, reproduction and disclosure by the US Government is
 subject to restrictions as set forth in subparagraphs (a)
 and (c) of the Commercial Computer Software - Restricted
 Rights clause in FAR 52.227-19.
  
 Gaussian, Inc.
 340 Quinnipiac St., Bldg. 40, Wallingford CT 06492
  
  
 ---------------------------------------------------------------
 Warning -- This program may not be used in any manner that
 competes with the business of Gaussian, Inc. or will provide
 assistance to any competitor of Gaussian, Inc.  The licensee
 of this program is prohibited from giving any competitor of
 Gaussian, Inc. access to this program.  By using this program,
 the user acknowledges that Gaussian, Inc. is engaged in the
 business of creating and licensing software in the field of
 computational chemistry and represents and warrants to the
 licensee that it is not a competitor of Gaussian, Inc. and that
 it will not use this program in any manner prohibited above.
 ---------------------------------------------------------------
  

 Cite this work as:
 Gaussian 09, Revision B.01,
 M. J. Frisch, G. W. Trucks, H. B. Schlegel, G. E. Scuseria, 
 M. A. Robb, J. R. Cheeseman, G. Scalmani, V. Barone, B. Mennucci, 
 G. A. Petersson, H. Nakatsuji, M. Caricato, X. Li, H. P. Hratchian, 
 A. F. Izmaylov, J. Bloino, G. Zheng, J. L. Sonnenberg, M. Hada, 
 M. Ehara, K. Toyota, R. Fukuda, J. Hasegawa, M. Ishida, T. Nakajima, 
 Y. Honda, O. Kitao, H. Nakai, T. Vreven, J. A. Montgomery, Jr., 
 J. E. Peralta, F. Ogliaro, M. Bearpark, J. J. Heyd, E. Brothers, 
 K. N. Kudin, V. N. Staroverov, T. Keith, R. Kobayashi, J. Normand, 
 K. Raghavachari, A. Rendell, J. C. Burant, S. S. Iyengar, J. Tomasi, 
 M. Cossi, N. Rega, J. M. Millam, M. Klene, J. E. Knox, J. B. Cross, 
 V. Bakken, C. Adamo, J. Jaramillo, R. Gomperts, R. E. Stratmann, 
 O. Yazyev, A. J. Austin, R. Cammi, C. Pomelli, J. W. Ochterski, 
 R. L. Martin, K. Morokuma, V. G. Zakrzewski, G. A. Voth, 
 P. Salvador, J. J. Dannenberg, S. Dapprich, A. D. Daniels, 
 O. Farkas, J. B. Foresman, J. V. Ortiz, J. Cioslowski, 
 and D. J. Fox, Gaussian, Inc., Wallingford CT, 2010.
 
 ******************************************
 Gaussian 09:  EM64L-G09RevB.01 12-Aug-2010
                24-Mar-2021 
 ******************************************
 %mem=600MW
 %nprocshared=10
 Will use up to   10 processors via shared memory.
 ---------------------------------------
 # opt rb3lyp/6-31g(d) geom=connectivity
 ---------------------------------------
 1/14=-1,18=20,19=15,26=3,38=1,57=2/1,3;
 2/9=110,12=2,17=6,18=5,40=1/2;
 3/5=1,6=6,7=1,11=2,16=1,25=1,30=1,71=1,74=-5,116=1/1,2,3;
 4//1;
 5/5=2,38=5/2;
 6/7=2,8=2,9=2,10=2,28=1/1;
 7//1,2,3,16;
 1/14=-1,18=20,19=15/3(2);
 2/9=110/2;
 99//99;
 2/9=110/2;
 3/5=1,6=6,7=1,11=2,16=1,25=1,30=1,71=1,74=-5,116=1/1,2,3;
 4/5=5,16=3/1;
 5/5=2,38=5/2;
 7//1,2,3,16;
 1/14=-1,18=20,19=15/3(-5);
 2/9=110/2;
 6/7=2,8=2,9=2,10=2,19=2,28=1/1;
 99/9=1/99;
 -------------------
 Title Card Required
 -------------------
 Symbolic Z-matrix:
 Charge =  0 Multiplicity = 1
 C                     0.        0.        0. 
 C                     1.3398    0.        0. 
 C                     2.1408    1.2774    0. 
 C                     1.3499    2.5965   -0.2374 
 C                    -0.1727    2.5145   -0.4933 
 C                    -0.8468    1.2275    0.0316 
 C                     2.11      3.3093   -1.3754 
 C                     1.6521    2.9831   -2.7538 
 C                     0.3863    2.6688   -3.0418 
 C                    -0.612     2.7052   -1.9536 
 C                     0.005     2.2624   -4.413 
 O                    -0.2956    1.0832   -4.6062 
 C                     0.0675    3.3036   -5.5379 
 C                    -0.6955    2.8247   -6.7893 
 C                    -0.3987    4.6904   -5.0925 
 O                    -1.7968    2.8973   -2.2362 
 C                     3.5074    2.7323   -1.4255 
 C                     3.9207    2.9737   -2.8926 
 O                     2.6971    2.8685   -3.6654 
 C                     3.259     1.2628   -1.0583 
 O                     2.1071    4.7165   -1.2098 
 C                    -0.6905    3.7207    0.3036 
 C                     0.2442    3.7427    1.4986 
 O                     1.5368    3.4319    0.9589 
 C                     0.2737    5.042     2.2638 
 C                     0.9086    6.2451    1.6258 
 C                    -0.2541    5.1273    3.4978 
 C                     4.5113    4.3743   -3.1224 
 C                     4.9189    1.9404   -3.4264 
 H                     4.1978    3.2022   -0.7157 
 H                     2.6285    1.3404    0.984 
 C                     2.1061   -1.2951    0.081 
 H                    -0.5387   -0.9459    0.038 
 H                    -1.1872    1.348     1.0677 
 H                    -1.7579    1.0135   -0.5422 
 H                     1.1246    3.3762   -5.8254 
 H                    -0.4553    3.4897   -7.6284 
 H                    -0.3411    1.8274   -7.0778 
 H                    -0.452     5.3777   -5.9435 
 H                     0.2966    5.1277   -4.3682 
 H                    -1.384     4.6531   -4.6161 
 H                     2.9419    0.6762   -1.9294 
 H                     4.1733    0.797    -0.673 
 H                     2.2762    4.8562   -0.2569 
 H                    -0.5987    4.6371   -0.2927 
 H                    -1.742     3.6341    0.6001 
 H                    -0.0064    2.923     2.184 
 H                     0.4716    6.4468    0.6438 
 H                     0.7723    7.1487    2.2303 
 H                     1.9858    6.0923    1.5107 
 H                    -0.2367    6.0556    4.0612 
 H                    -0.7168    4.2724    3.9818 
 H                     4.7845    4.5086   -4.1758 
 H                     5.4065    4.5329   -2.5125 
 H                     3.7958    5.1719   -2.9055 
 H                     4.4878    0.9355   -3.4711 
 H                     5.2066    2.1769   -4.4578 
 H                     5.8265    1.9098   -2.815 
 H                     1.4452   -2.1566    0.2251 
 H                     2.6762   -1.4689   -0.8365 
 H                     2.8016   -1.271     0.9264 
 C                    -2.211     2.7772   -6.6335 
 H                    -2.6654    2.3668   -7.5413 
 H                    -2.5117    2.1448   -5.7933 
 H                    -2.6291    3.7766   -6.4807 
 

 GradGradGradGradGradGradGradGradGradGradGradGradGradGradGradGradGradGrad
 Berny optimization.
 Initialization pass.
                           ----------------------------
                           !    Initial Parameters    !
                           ! (Angstroms and Degrees)  !
 --------------------------                            --------------------------
 ! Name  Definition              Value          Derivative Info.                !
 --------------------------------------------------------------------------------
 ! R1    R(1,2)                  1.3398         estimate D2E/DX2                !
 ! R2    R(1,6)                  1.4916         estimate D2E/DX2                !
 ! R3    R(1,33)                 1.0892         estimate D2E/DX2                !
 ! R4    R(2,3)                  1.5078         estimate D2E/DX2                !
 ! R5    R(2,32)                 1.507          estimate D2E/DX2                !
 ! R6    R(3,4)                  1.5562         estimate D2E/DX2                !
 ! R7    R(3,20)                 1.5397         estimate D2E/DX2                !
 ! R8    R(3,31)                 1.1            estimate D2E/DX2                !
 ! R9    R(4,5)                  1.5461         estimate D2E/DX2                !
 ! R10   R(4,7)                  1.543          estimate D2E/DX2                !
 ! R11   R(4,24)                 1.471          estimate D2E/DX2                !
 ! R12   R(5,6)                  1.5448         estimate D2E/DX2                !
 ! R13   R(5,10)                 1.5368         estimate D2E/DX2                !
 ! R14   R(5,22)                 1.5356         estimate D2E/DX2                !
 ! R15   R(6,34)                 1.0972         estimate D2E/DX2                !
 ! R16   R(6,35)                 1.0978         estimate D2E/DX2                !
 ! R17   R(7,8)                  1.4886         estimate D2E/DX2                !
 ! R18   R(7,17)                 1.5127         estimate D2E/DX2                !
 ! R19   R(7,21)                 1.4169         estimate D2E/DX2                !
 ! R20   R(8,9)                  1.3357         estimate D2E/DX2                !
 ! R21   R(8,19)                 1.3915         estimate D2E/DX2                !
 ! R22   R(9,10)                 1.4772         estimate D2E/DX2                !
 ! R23   R(9,11)                 1.4801         estimate D2E/DX2                !
 ! R24   R(10,16)                1.2331         estimate D2E/DX2                !
 ! R25   R(11,12)                1.2322         estimate D2E/DX2                !
 ! R26   R(11,13)                1.5341         estimate D2E/DX2                !
 ! R27   R(13,14)                1.5419         estimate D2E/DX2                !
 ! R28   R(13,15)                1.5294         estimate D2E/DX2                !
 ! R29   R(13,36)                1.0979         estimate D2E/DX2                !
 ! R30   R(14,37)                1.0973         estimate D2E/DX2                !
 ! R31   R(14,38)                1.097          estimate D2E/DX2                !
 ! R32   R(14,62)                1.5242         estimate D2E/DX2                !
 ! R33   R(15,39)                1.0952         estimate D2E/DX2                !
 ! R34   R(15,40)                1.0951         estimate D2E/DX2                !
 ! R35   R(15,41)                1.0951         estimate D2E/DX2                !
 ! R36   R(17,18)                1.5432         estimate D2E/DX2                !
 ! R37   R(17,20)                1.5349         estimate D2E/DX2                !
 ! R38   R(17,30)                1.096          estimate D2E/DX2                !
 ! R39   R(18,19)                1.451          estimate D2E/DX2                !
 ! R40   R(18,28)                1.5373         estimate D2E/DX2                !
 ! R41   R(18,29)                1.5327         estimate D2E/DX2                !
 ! R42   R(20,42)                1.097          estimate D2E/DX2                !
 ! R43   R(20,43)                1.0961         estimate D2E/DX2                !
 ! R44   R(21,44)                0.9778         estimate D2E/DX2                !
 ! R45   R(22,23)                1.5173         estimate D2E/DX2                !
 ! R46   R(22,45)                1.0972         estimate D2E/DX2                !
 ! R47   R(22,46)                1.0959         estimate D2E/DX2                !
 ! R48   R(23,24)                1.4348         estimate D2E/DX2                !
 ! R49   R(23,25)                1.5082         estimate D2E/DX2                !
 ! R50   R(23,47)                1.0975         estimate D2E/DX2                !
 ! R51   R(25,26)                1.5025         estimate D2E/DX2                !
 ! R52   R(25,27)                1.3448         estimate D2E/DX2                !
 ! R53   R(26,48)                1.0936         estimate D2E/DX2                !
 ! R54   R(26,49)                1.0957         estimate D2E/DX2                !
 ! R55   R(26,50)                1.0941         estimate D2E/DX2                !
 ! R56   R(27,51)                1.086          estimate D2E/DX2                !
 ! R57   R(27,52)                1.0859         estimate D2E/DX2                !
 ! R58   R(28,53)                1.0965         estimate D2E/DX2                !
 ! R59   R(28,54)                1.0948         estimate D2E/DX2                !
 ! R60   R(28,55)                1.0932         estimate D2E/DX2                !
 ! R61   R(29,56)                1.0944         estimate D2E/DX2                !
 ! R62   R(29,57)                1.0966         estimate D2E/DX2                !
 ! R63   R(29,58)                1.0948         estimate D2E/DX2                !
 ! R64   R(32,59)                1.0953         estimate D2E/DX2                !
 ! R65   R(32,60)                1.0941         estimate D2E/DX2                !
 ! R66   R(32,61)                1.095          estimate D2E/DX2                !
 ! R67   R(62,63)                1.095          estimate D2E/DX2                !
 ! R68   R(62,64)                1.0937         estimate D2E/DX2                !
 ! R69   R(62,65)                1.0941         estimate D2E/DX2                !
 ! A1    A(2,1,6)              124.5913         estimate D2E/DX2                !
 ! A2    A(2,1,33)             119.6421         estimate D2E/DX2                !
 ! A3    A(6,1,33)             115.6679         estimate D2E/DX2                !
 ! A4    A(1,2,3)              122.09           estimate D2E/DX2                !
 ! A5    A(1,2,32)             120.5635         estimate D2E/DX2                !
 ! A6    A(3,2,32)             117.2548         estimate D2E/DX2                !
 ! A7    A(2,3,4)              116.6235         estimate D2E/DX2                !
 ! A8    A(2,3,20)             112.197          estimate D2E/DX2                !
 ! A9    A(2,3,31)             106.5021         estimate D2E/DX2                !
 ! A10   A(4,3,20)             105.7998         estimate D2E/DX2                !
 ! A11   A(4,3,31)             108.2538         estimate D2E/DX2                !
 ! A12   A(20,3,31)            107.062          estimate D2E/DX2                !
 ! A13   A(3,4,5)              118.7357         estimate D2E/DX2                !
 ! A14   A(3,4,7)              104.6976         estimate D2E/DX2                !
 ! A15   A(3,4,24)             107.0217         estimate D2E/DX2                !
 ! A16   A(5,4,7)              112.8018         estimate D2E/DX2                !
 ! A17   A(5,4,24)             106.8482         estimate D2E/DX2                !
 ! A18   A(7,4,24)             105.9528         estimate D2E/DX2                !
 ! A19   A(4,5,6)              114.6884         estimate D2E/DX2                !
 ! A20   A(4,5,10)             115.6064         estimate D2E/DX2                !
 ! A21   A(4,5,22)             101.8011         estimate D2E/DX2                !
 ! A22   A(6,5,10)             107.5487         estimate D2E/DX2                !
 ! A23   A(6,5,22)             109.3258         estimate D2E/DX2                !
 ! A24   A(10,5,22)            107.4127         estimate D2E/DX2                !
 ! A25   A(1,6,5)              115.5115         estimate D2E/DX2                !
 ! A26   A(1,6,34)             106.6492         estimate D2E/DX2                !
 ! A27   A(1,6,35)             107.4381         estimate D2E/DX2                !
 ! A28   A(5,6,34)             111.3921         estimate D2E/DX2                !
 ! A29   A(5,6,35)             110.3021         estimate D2E/DX2                !
 ! A30   A(34,6,35)            104.9217         estimate D2E/DX2                !
 ! A31   A(4,7,8)              115.4771         estimate D2E/DX2                !
 ! A32   A(4,7,17)             107.6552         estimate D2E/DX2                !
 ! A33   A(4,7,21)             111.8132         estimate D2E/DX2                !
 ! A34   A(8,7,17)              99.7822         estimate D2E/DX2                !
 ! A35   A(8,7,21)             108.9784         estimate D2E/DX2                !
 ! A36   A(17,7,21)            112.6184         estimate D2E/DX2                !
 ! A37   A(7,8,9)              122.8694         estimate D2E/DX2                !
 ! A38   A(7,8,19)             113.1824         estimate D2E/DX2                !
 ! A39   A(9,8,19)             123.4415         estimate D2E/DX2                !
 ! A40   A(8,9,10)             118.4128         estimate D2E/DX2                !
 ! A41   A(8,9,11)             120.5647         estimate D2E/DX2                !
 ! A42   A(10,9,11)            121.0059         estimate D2E/DX2                !
 ! A43   A(5,10,9)             120.2483         estimate D2E/DX2                !
 ! A44   A(5,10,16)            120.7807         estimate D2E/DX2                !
 ! A45   A(9,10,16)            118.9699         estimate D2E/DX2                !
 ! A46   A(9,11,12)            118.0916         estimate D2E/DX2                !
 ! A47   A(9,11,13)            118.8464         estimate D2E/DX2                !
 ! A48   A(12,11,13)           122.991          estimate D2E/DX2                !
 ! A49   A(11,13,14)           111.3556         estimate D2E/DX2                !
 ! A50   A(11,13,15)           112.9218         estimate D2E/DX2                !
 ! A51   A(11,13,36)           106.0291         estimate D2E/DX2                !
 ! A52   A(14,13,15)           111.5402         estimate D2E/DX2                !
 ! A53   A(14,13,36)           106.5267         estimate D2E/DX2                !
 ! A54   A(15,13,36)           108.0475         estimate D2E/DX2                !
 ! A55   A(13,14,37)           108.9097         estimate D2E/DX2                !
 ! A56   A(13,14,38)           109.6291         estimate D2E/DX2                !
 ! A57   A(13,14,62)           114.7542         estimate D2E/DX2                !
 ! A58   A(37,14,38)           106.2084         estimate D2E/DX2                !
 ! A59   A(37,14,62)           108.343          estimate D2E/DX2                !
 ! A60   A(38,14,62)           108.6484         estimate D2E/DX2                !
 ! A61   A(13,15,39)           110.9531         estimate D2E/DX2                !
 ! A62   A(13,15,40)           111.1722         estimate D2E/DX2                !
 ! A63   A(13,15,41)           111.7212         estimate D2E/DX2                !
 ! A64   A(39,15,40)           107.1112         estimate D2E/DX2                !
 ! A65   A(39,15,41)           108.399          estimate D2E/DX2                !
 ! A66   A(40,15,41)           107.2857         estimate D2E/DX2                !
 ! A67   A(7,17,18)            102.6638         estimate D2E/DX2                !
 ! A68   A(7,17,20)            101.9914         estimate D2E/DX2                !
 ! A69   A(7,17,30)            113.3861         estimate D2E/DX2                !
 ! A70   A(18,17,20)           114.8685         estimate D2E/DX2                !
 ! A71   A(18,17,30)           112.3279         estimate D2E/DX2                !
 ! A72   A(20,17,30)           110.9449         estimate D2E/DX2                !
 ! A73   A(17,18,19)           105.6131         estimate D2E/DX2                !
 ! A74   A(17,18,28)           112.8003         estimate D2E/DX2                !
 ! A75   A(17,18,29)           113.5827         estimate D2E/DX2                !
 ! A76   A(19,18,28)           108.0837         estimate D2E/DX2                !
 ! A77   A(19,18,29)           108.3509         estimate D2E/DX2                !
 ! A78   A(28,18,29)           108.1776         estimate D2E/DX2                !
 ! A79   A(8,19,18)            106.1652         estimate D2E/DX2                !
 ! A80   A(3,20,17)            105.8364         estimate D2E/DX2                !
 ! A81   A(3,20,42)            109.9342         estimate D2E/DX2                !
 ! A82   A(3,20,43)            111.6061         estimate D2E/DX2                !
 ! A83   A(17,20,42)           111.6382         estimate D2E/DX2                !
 ! A84   A(17,20,43)           110.8525         estimate D2E/DX2                !
 ! A85   A(42,20,43)           107.0383         estimate D2E/DX2                !
 ! A86   A(7,21,44)            104.7991         estimate D2E/DX2                !
 ! A87   A(5,22,23)            102.262          estimate D2E/DX2                !
 ! A88   A(5,22,45)            110.2315         estimate D2E/DX2                !
 ! A89   A(5,22,46)            113.6943         estimate D2E/DX2                !
 ! A90   A(23,22,45)           111.3701         estimate D2E/DX2                !
 ! A91   A(23,22,46)           112.2794         estimate D2E/DX2                !
 ! A92   A(45,22,46)           107.0566         estimate D2E/DX2                !
 ! A93   A(22,23,24)           104.8082         estimate D2E/DX2                !
 ! A94   A(22,23,25)           115.0962         estimate D2E/DX2                !
 ! A95   A(22,23,47)           109.8993         estimate D2E/DX2                !
 ! A96   A(24,23,25)           111.0902         estimate D2E/DX2                !
 ! A97   A(24,23,47)           106.1905         estimate D2E/DX2                !
 ! A98   A(25,23,47)           109.3328         estimate D2E/DX2                !
 ! A99   A(4,24,23)            108.3276         estimate D2E/DX2                !
 ! A100  A(23,25,26)           118.8586         estimate D2E/DX2                !
 ! A101  A(23,25,27)           120.8317         estimate D2E/DX2                !
 ! A102  A(26,25,27)           120.3094         estimate D2E/DX2                !
 ! A103  A(25,26,48)           111.1072         estimate D2E/DX2                !
 ! A104  A(25,26,49)           111.9328         estimate D2E/DX2                !
 ! A105  A(25,26,50)           110.4191         estimate D2E/DX2                !
 ! A106  A(48,26,49)           107.0736         estimate D2E/DX2                !
 ! A107  A(48,26,50)           108.9492         estimate D2E/DX2                !
 ! A108  A(49,26,50)           107.1999         estimate D2E/DX2                !
 ! A109  A(25,27,51)           121.5969         estimate D2E/DX2                !
 ! A110  A(25,27,52)           121.7534         estimate D2E/DX2                !
 ! A111  A(51,27,52)           116.6496         estimate D2E/DX2                !
 ! A112  A(18,28,53)           110.5433         estimate D2E/DX2                !
 ! A113  A(18,28,54)           111.2758         estimate D2E/DX2                !
 ! A114  A(18,28,55)           112.5573         estimate D2E/DX2                !
 ! A115  A(53,28,54)           108.2838         estimate D2E/DX2                !
 ! A116  A(53,28,55)           105.3261         estimate D2E/DX2                !
 ! A117  A(54,28,55)           108.5994         estimate D2E/DX2                !
 ! A118  A(18,29,56)           112.1314         estimate D2E/DX2                !
 ! A119  A(18,29,57)           110.674          estimate D2E/DX2                !
 ! A120  A(18,29,58)           111.3633         estimate D2E/DX2                !
 ! A121  A(56,29,57)           105.2463         estimate D2E/DX2                !
 ! A122  A(56,29,58)           108.8883         estimate D2E/DX2                !
 ! A123  A(57,29,58)           108.2887         estimate D2E/DX2                !
 ! A124  A(2,32,59)            112.0976         estimate D2E/DX2                !
 ! A125  A(2,32,60)            110.8796         estimate D2E/DX2                !
 ! A126  A(2,32,61)            110.216          estimate D2E/DX2                !
 ! A127  A(59,32,60)           107.445          estimate D2E/DX2                !
 ! A128  A(59,32,61)           107.3968         estimate D2E/DX2                !
 ! A129  A(60,32,61)           108.6616         estimate D2E/DX2                !
 ! A130  A(14,62,63)           109.849          estimate D2E/DX2                !
 ! A131  A(14,62,64)           111.7089         estimate D2E/DX2                !
 ! A132  A(14,62,65)           111.4554         estimate D2E/DX2                !
 ! A133  A(63,62,64)           107.8223         estimate D2E/DX2                !
 ! A134  A(63,62,65)           107.4319         estimate D2E/DX2                !
 ! A135  A(64,62,65)           108.4102         estimate D2E/DX2                !
 ! D1    D(6,1,2,3)             -1.4747         estimate D2E/DX2                !
 ! D2    D(6,1,2,32)           174.9465         estimate D2E/DX2                !
 ! D3    D(33,1,2,3)          -177.6995         estimate D2E/DX2                !
 ! D4    D(33,1,2,32)           -1.2783         estimate D2E/DX2                !
 ! D5    D(2,1,6,5)             23.5866         estimate D2E/DX2                !
 ! D6    D(2,1,6,34)          -100.7845         estimate D2E/DX2                !
 ! D7    D(2,1,6,35)           147.1511         estimate D2E/DX2                !
 ! D8    D(33,1,6,5)          -160.0536         estimate D2E/DX2                !
 ! D9    D(33,1,6,34)           75.5753         estimate D2E/DX2                !
 ! D10   D(33,1,6,35)          -36.4891         estimate D2E/DX2                !
 ! D11   D(1,2,3,4)             -9.825          estimate D2E/DX2                !
 ! D12   D(1,2,3,20)          -132.0661         estimate D2E/DX2                !
 ! D13   D(1,2,3,31)           111.1012         estimate D2E/DX2                !
 ! D14   D(32,2,3,4)           173.6413         estimate D2E/DX2                !
 ! D15   D(32,2,3,20)           51.4002         estimate D2E/DX2                !
 ! D16   D(32,2,3,31)          -65.4325         estimate D2E/DX2                !
 ! D17   D(1,2,32,59)           -5.0902         estimate D2E/DX2                !
 ! D18   D(1,2,32,60)          114.9873         estimate D2E/DX2                !
 ! D19   D(1,2,32,61)         -124.6535         estimate D2E/DX2                !
 ! D20   D(3,2,32,59)          171.4993         estimate D2E/DX2                !
 ! D21   D(3,2,32,60)          -68.4231         estimate D2E/DX2                !
 ! D22   D(3,2,32,61)           51.936          estimate D2E/DX2                !
 ! D23   D(2,3,4,5)             -1.6679         estimate D2E/DX2                !
 ! D24   D(2,3,4,7)           -128.5912         estimate D2E/DX2                !
 ! D25   D(2,3,4,24)           119.2322         estimate D2E/DX2                !
 ! D26   D(20,3,4,5)           123.8556         estimate D2E/DX2                !
 ! D27   D(20,3,4,7)            -3.0676         estimate D2E/DX2                !
 ! D28   D(20,3,4,24)         -115.2442         estimate D2E/DX2                !
 ! D29   D(31,3,4,5)          -121.662          estimate D2E/DX2                !
 ! D30   D(31,3,4,7)           111.4148         estimate D2E/DX2                !
 ! D31   D(31,3,4,24)           -0.7618         estimate D2E/DX2                !
 ! D32   D(2,3,20,17)          153.0458         estimate D2E/DX2                !
 ! D33   D(2,3,20,42)           32.3423         estimate D2E/DX2                !
 ! D34   D(2,3,20,43)          -86.2697         estimate D2E/DX2                !
 ! D35   D(4,3,20,17)           24.8422         estimate D2E/DX2                !
 ! D36   D(4,3,20,42)          -95.8613         estimate D2E/DX2                !
 ! D37   D(4,3,20,43)          145.5267         estimate D2E/DX2                !
 ! D38   D(31,3,20,17)         -90.4579         estimate D2E/DX2                !
 ! D39   D(31,3,20,42)         148.8387         estimate D2E/DX2                !
 ! D40   D(31,3,20,43)          30.2267         estimate D2E/DX2                !
 ! D41   D(3,4,5,6)             22.3114         estimate D2E/DX2                !
 ! D42   D(3,4,5,10)          -103.7256         estimate D2E/DX2                !
 ! D43   D(3,4,5,22)           140.2253         estimate D2E/DX2                !
 ! D44   D(7,4,5,6)            145.2939         estimate D2E/DX2                !
 ! D45   D(7,4,5,10)            19.2569         estimate D2E/DX2                !
 ! D46   D(7,4,5,22)           -96.7922         estimate D2E/DX2                !
 ! D47   D(24,4,5,6)           -98.6769         estimate D2E/DX2                !
 ! D48   D(24,4,5,10)          135.2861         estimate D2E/DX2                !
 ! D49   D(24,4,5,22)           19.237          estimate D2E/DX2                !
 ! D50   D(3,4,7,8)             90.1772         estimate D2E/DX2                !
 ! D51   D(3,4,7,17)           -20.2589         estimate D2E/DX2                !
 ! D52   D(3,4,7,21)          -144.4612         estimate D2E/DX2                !
 ! D53   D(5,4,7,8)            -40.3221         estimate D2E/DX2                !
 ! D54   D(5,4,7,17)          -150.7583         estimate D2E/DX2                !
 ! D55   D(5,4,7,21)            85.0395         estimate D2E/DX2                !
 ! D56   D(24,4,7,8)          -156.8846         estimate D2E/DX2                !
 ! D57   D(24,4,7,17)           92.6793         estimate D2E/DX2                !
 ! D58   D(24,4,7,21)          -31.523          estimate D2E/DX2                !
 ! D59   D(3,4,24,23)         -122.8233         estimate D2E/DX2                !
 ! D60   D(5,4,24,23)            5.351          estimate D2E/DX2                !
 ! D61   D(7,4,24,23)          125.8625         estimate D2E/DX2                !
 ! D62   D(4,5,6,1)            -32.4696         estimate D2E/DX2                !
 ! D63   D(4,5,6,34)            89.3941         estimate D2E/DX2                !
 ! D64   D(4,5,6,35)          -154.5152         estimate D2E/DX2                !
 ! D65   D(10,5,6,1)            97.6404         estimate D2E/DX2                !
 ! D66   D(10,5,6,34)         -140.496          estimate D2E/DX2                !
 ! D67   D(10,5,6,35)          -24.4052         estimate D2E/DX2                !
 ! D68   D(22,5,6,1)          -146.032          estimate D2E/DX2                !
 ! D69   D(22,5,6,34)          -24.1683         estimate D2E/DX2                !
 ! D70   D(22,5,6,35)           91.9224         estimate D2E/DX2                !
 ! D71   D(4,5,10,9)            12.6815         estimate D2E/DX2                !
 ! D72   D(4,5,10,16)         -166.9393         estimate D2E/DX2                !
 ! D73   D(6,5,10,9)          -116.9122         estimate D2E/DX2                !
 ! D74   D(6,5,10,16)           63.4671         estimate D2E/DX2                !
 ! D75   D(22,5,10,9)          125.5108         estimate D2E/DX2                !
 ! D76   D(22,5,10,16)         -54.11           estimate D2E/DX2                !
 ! D77   D(4,5,22,23)          -35.2427         estimate D2E/DX2                !
 ! D78   D(4,5,22,45)           83.2808         estimate D2E/DX2                !
 ! D79   D(4,5,22,46)         -156.5126         estimate D2E/DX2                !
 ! D80   D(6,5,22,23)           86.4561         estimate D2E/DX2                !
 ! D81   D(6,5,22,45)         -155.0205         estimate D2E/DX2                !
 ! D82   D(6,5,22,46)          -34.8139         estimate D2E/DX2                !
 ! D83   D(10,5,22,23)        -157.1299         estimate D2E/DX2                !
 ! D84   D(10,5,22,45)         -38.6064         estimate D2E/DX2                !
 ! D85   D(10,5,22,46)          81.6001         estimate D2E/DX2                !
 ! D86   D(4,7,8,9)             30.9937         estimate D2E/DX2                !
 ! D87   D(4,7,8,19)          -141.0904         estimate D2E/DX2                !
 ! D88   D(17,7,8,9)           146.0219         estimate D2E/DX2                !
 ! D89   D(17,7,8,19)          -26.0622         estimate D2E/DX2                !
 ! D90   D(21,7,8,9)           -95.8143         estimate D2E/DX2                !
 ! D91   D(21,7,8,19)           92.1015         estimate D2E/DX2                !
 ! D92   D(4,7,17,18)          154.4574         estimate D2E/DX2                !
 ! D93   D(4,7,17,20)           35.2244         estimate D2E/DX2                !
 ! D94   D(4,7,17,30)          -84.1164         estimate D2E/DX2                !
 ! D95   D(8,7,17,18)           33.5971         estimate D2E/DX2                !
 ! D96   D(8,7,17,20)          -85.6359         estimate D2E/DX2                !
 ! D97   D(8,7,17,30)          155.0232         estimate D2E/DX2                !
 ! D98   D(21,7,17,18)         -81.8286         estimate D2E/DX2                !
 ! D99   D(21,7,17,20)         158.9384         estimate D2E/DX2                !
 ! D100  D(21,7,17,30)          39.5976         estimate D2E/DX2                !
 ! D101  D(4,7,21,44)           42.4369         estimate D2E/DX2                !
 ! D102  D(8,7,21,44)          171.3104         estimate D2E/DX2                !
 ! D103  D(17,7,21,44)         -78.9391         estimate D2E/DX2                !
 ! D104  D(7,8,9,10)             2.766          estimate D2E/DX2                !
 ! D105  D(7,8,9,11)          -175.7621         estimate D2E/DX2                !
 ! D106  D(19,8,9,10)          174.0397         estimate D2E/DX2                !
 ! D107  D(19,8,9,11)           -4.4885         estimate D2E/DX2                !
 ! D108  D(7,8,19,18)            6.0373         estimate D2E/DX2                !
 ! D109  D(9,8,19,18)         -165.9947         estimate D2E/DX2                !
 ! D110  D(8,9,10,5)           -25.4118         estimate D2E/DX2                !
 ! D111  D(8,9,10,16)          154.2158         estimate D2E/DX2                !
 ! D112  D(11,9,10,5)          153.1096         estimate D2E/DX2                !
 ! D113  D(11,9,10,16)         -27.2628         estimate D2E/DX2                !
 ! D114  D(8,9,11,12)          109.2762         estimate D2E/DX2                !
 ! D115  D(8,9,11,13)          -67.7528         estimate D2E/DX2                !
 ! D116  D(10,9,11,12)         -69.2135         estimate D2E/DX2                !
 ! D117  D(10,9,11,13)         113.7576         estimate D2E/DX2                !
 ! D118  D(9,11,13,14)        -165.2607         estimate D2E/DX2                !
 ! D119  D(9,11,13,15)         -38.865          estimate D2E/DX2                !
 ! D120  D(9,11,13,36)          79.2641         estimate D2E/DX2                !
 ! D121  D(12,11,13,14)         17.8644         estimate D2E/DX2                !
 ! D122  D(12,11,13,15)        144.2601         estimate D2E/DX2                !
 ! D123  D(12,11,13,36)        -97.6109         estimate D2E/DX2                !
 ! D124  D(11,13,14,37)       -168.368          estimate D2E/DX2                !
 ! D125  D(11,13,14,38)        -52.5548         estimate D2E/DX2                !
 ! D126  D(11,13,14,62)         70.0126         estimate D2E/DX2                !
 ! D127  D(15,13,14,37)         64.4806         estimate D2E/DX2                !
 ! D128  D(15,13,14,38)       -179.7062         estimate D2E/DX2                !
 ! D129  D(15,13,14,62)        -57.1387         estimate D2E/DX2                !
 ! D130  D(36,13,14,37)        -53.1999         estimate D2E/DX2                !
 ! D131  D(36,13,14,38)         62.6133         estimate D2E/DX2                !
 ! D132  D(36,13,14,62)       -174.8193         estimate D2E/DX2                !
 ! D133  D(11,13,15,39)       -173.4162         estimate D2E/DX2                !
 ! D134  D(11,13,15,40)         67.4939         estimate D2E/DX2                !
 ! D135  D(11,13,15,41)        -52.3275         estimate D2E/DX2                !
 ! D136  D(14,13,15,39)        -47.119          estimate D2E/DX2                !
 ! D137  D(14,13,15,40)       -166.2089         estimate D2E/DX2                !
 ! D138  D(14,13,15,41)         73.9697         estimate D2E/DX2                !
 ! D139  D(36,13,15,39)         69.6413         estimate D2E/DX2                !
 ! D140  D(36,13,15,40)        -49.4486         estimate D2E/DX2                !
 ! D141  D(36,13,15,41)       -169.27           estimate D2E/DX2                !
 ! D142  D(13,14,62,63)       -176.3422         estimate D2E/DX2                !
 ! D143  D(13,14,62,64)        -56.7412         estimate D2E/DX2                !
 ! D144  D(13,14,62,65)         64.7057         estimate D2E/DX2                !
 ! D145  D(37,14,62,63)         61.7301         estimate D2E/DX2                !
 ! D146  D(37,14,62,64)       -178.6689         estimate D2E/DX2                !
 ! D147  D(37,14,62,65)        -57.2221         estimate D2E/DX2                !
 ! D148  D(38,14,62,63)        -53.2472         estimate D2E/DX2                !
 ! D149  D(38,14,62,64)         66.3538         estimate D2E/DX2                !
 ! D150  D(38,14,62,65)       -172.1994         estimate D2E/DX2                !
 ! D151  D(7,17,18,19)         -32.4769         estimate D2E/DX2                !
 ! D152  D(7,17,18,28)          85.3685         estimate D2E/DX2                !
 ! D153  D(7,17,18,29)        -151.0759         estimate D2E/DX2                !
 ! D154  D(20,17,18,19)         77.3303         estimate D2E/DX2                !
 ! D155  D(20,17,18,28)       -164.8242         estimate D2E/DX2                !
 ! D156  D(20,17,18,29)        -41.2686         estimate D2E/DX2                !
 ! D157  D(30,17,18,19)       -154.6229         estimate D2E/DX2                !
 ! D158  D(30,17,18,28)        -36.7774         estimate D2E/DX2                !
 ! D159  D(30,17,18,29)         86.7782         estimate D2E/DX2                !
 ! D160  D(7,17,20,3)          -36.7525         estimate D2E/DX2                !
 ! D161  D(7,17,20,42)          82.8371         estimate D2E/DX2                !
 ! D162  D(7,17,20,43)        -157.9257         estimate D2E/DX2                !
 ! D163  D(18,17,20,3)        -146.9634         estimate D2E/DX2                !
 ! D164  D(18,17,20,42)        -27.3737         estimate D2E/DX2                !
 ! D165  D(18,17,20,43)         91.8635         estimate D2E/DX2                !
 ! D166  D(30,17,20,3)          84.2975         estimate D2E/DX2                !
 ! D167  D(30,17,20,42)       -156.1128         estimate D2E/DX2                !
 ! D168  D(30,17,20,43)        -36.8757         estimate D2E/DX2                !
 ! D169  D(17,18,19,8)          16.6992         estimate D2E/DX2                !
 ! D170  D(28,18,19,8)        -104.2665         estimate D2E/DX2                !
 ! D171  D(29,18,19,8)         138.7284         estimate D2E/DX2                !
 ! D172  D(17,18,28,53)       -179.5666         estimate D2E/DX2                !
 ! D173  D(17,18,28,54)         60.0716         estimate D2E/DX2                !
 ! D174  D(17,18,28,55)        -62.095          estimate D2E/DX2                !
 ! D175  D(19,18,28,53)        -63.1825         estimate D2E/DX2                !
 ! D176  D(19,18,28,54)        176.4557         estimate D2E/DX2                !
 ! D177  D(19,18,28,55)         54.2891         estimate D2E/DX2                !
 ! D178  D(29,18,28,53)         53.9345         estimate D2E/DX2                !
 ! D179  D(29,18,28,54)        -66.4273         estimate D2E/DX2                !
 ! D180  D(29,18,28,55)        171.4062         estimate D2E/DX2                !
 ! D181  D(17,18,29,56)         64.8329         estimate D2E/DX2                !
 ! D182  D(17,18,29,57)       -177.9804         estimate D2E/DX2                !
 ! D183  D(17,18,29,58)        -57.4661         estimate D2E/DX2                !
 ! D184  D(19,18,29,56)        -52.1804         estimate D2E/DX2                !
 ! D185  D(19,18,29,57)         65.0063         estimate D2E/DX2                !
 ! D186  D(19,18,29,58)       -174.4795         estimate D2E/DX2                !
 ! D187  D(28,18,29,56)       -169.1251         estimate D2E/DX2                !
 ! D188  D(28,18,29,57)        -51.9384         estimate D2E/DX2                !
 ! D189  D(28,18,29,58)         68.5759         estimate D2E/DX2                !
 ! D190  D(5,22,23,24)          40.0285         estimate D2E/DX2                !
 ! D191  D(5,22,23,25)         162.3598         estimate D2E/DX2                !
 ! D192  D(5,22,23,47)         -73.701          estimate D2E/DX2                !
 ! D193  D(45,22,23,24)        -77.6856         estimate D2E/DX2                !
 ! D194  D(45,22,23,25)         44.6458         estimate D2E/DX2                !
 ! D195  D(45,22,23,47)        168.5849         estimate D2E/DX2                !
 ! D196  D(46,22,23,24)        162.2681         estimate D2E/DX2                !
 ! D197  D(46,22,23,25)        -75.4005         estimate D2E/DX2                !
 ! D198  D(46,22,23,47)         48.5387         estimate D2E/DX2                !
 ! D199  D(22,23,24,4)         -28.3907         estimate D2E/DX2                !
 ! D200  D(25,23,24,4)        -153.292          estimate D2E/DX2                !
 ! D201  D(47,23,24,4)          87.9276         estimate D2E/DX2                !
 ! D202  D(22,23,25,26)        -70.3111         estimate D2E/DX2                !
 ! D203  D(22,23,25,27)        109.8813         estimate D2E/DX2                !
 ! D204  D(24,23,25,26)         48.5783         estimate D2E/DX2                !
 ! D205  D(24,23,25,27)       -131.2293         estimate D2E/DX2                !
 ! D206  D(47,23,25,26)        165.4514         estimate D2E/DX2                !
 ! D207  D(47,23,25,27)        -14.3562         estimate D2E/DX2                !
 ! D208  D(23,25,26,48)         54.167          estimate D2E/DX2                !
 ! D209  D(23,25,26,49)        173.8171         estimate D2E/DX2                !
 ! D210  D(23,25,26,50)        -66.8388         estimate D2E/DX2                !
 ! D211  D(27,25,26,48)       -126.0243         estimate D2E/DX2                !
 ! D212  D(27,25,26,49)         -6.3742         estimate D2E/DX2                !
 ! D213  D(27,25,26,50)        112.9699         estimate D2E/DX2                !
 ! D214  D(23,25,27,51)        179.7925         estimate D2E/DX2                !
 ! D215  D(23,25,27,52)         -0.0762         estimate D2E/DX2                !
 ! D216  D(26,25,27,51)         -0.0124         estimate D2E/DX2                !
 ! D217  D(26,25,27,52)       -179.8811         estimate D2E/DX2                !
 --------------------------------------------------------------------------------
 Trust Radius=3.00D-01 FncErr=1.00D-07 GrdErr=1.00D-06
 Number of steps in this run=    390 maximum allowed number of steps=    390.
 GradGradGradGradGradGradGradGradGradGradGradGradGradGradGradGradGradGrad

 Stoichiometry    C26H34O5
 Framework group  C1[X(C26H34O5)]
 Deg. of freedom   189
 Full point group                 C1      NOp   1
 Largest Abelian subgroup         C1      NOp   1
 Largest concise Abelian subgroup C1      NOp   1
                         Standard orientation:                         
 ---------------------------------------------------------------------
 Center     Atomic      Atomic             Coordinates (Angstroms)
 Number     Number       Type             X           Y           Z
 ---------------------------------------------------------------------
      1          6           0       -1.314420   -0.075446    3.183670
      2          6           0       -1.459737    1.174370    2.723336
      3          6           0       -1.669556    1.469561    1.259714
      4          6           0       -1.475838    0.281116    0.273823
      5          6           0       -1.049608   -1.092847    0.840456
      6          6           0       -1.371981   -1.301872    2.336679
      7          6           0       -0.500910    0.815139   -0.796324
      8          6           0        0.943981    0.596927   -0.512175
      9          6           0        1.396477   -0.453106    0.178228
     10          6           0        0.424552   -1.471059    0.626827
     11          6           0        2.833654   -0.571972    0.511594
     12          8           0        3.170906   -0.422013    1.687167
     13          6           0        3.839677   -0.805791   -0.622712
     14          6           0        5.206698   -1.263194   -0.075398
     15          6           0        3.316078   -1.761619   -1.695641
     16          8           0        0.814181   -2.625089    0.818970
     17          6           0       -0.547370    2.326258   -0.746065
     18          6           0        0.836164    2.725904   -1.300674
     19          8           0        1.743634    1.674134   -0.881434
     20          6           0       -0.742317    2.589618    0.753470
     21          8           0       -0.799879    0.303257   -2.083273
     22          6           0       -1.898013   -2.056747   -0.001677
     23          6           0       -3.183879   -1.273675   -0.190143
     24          8           0       -2.760167    0.078701   -0.414279
     25          6           0       -4.069240   -1.757827   -1.310997
     26          6           0       -3.622636   -1.548008   -2.730191
     27          6           0       -5.241162   -2.364074   -1.050863
     28          6           0        0.864679    2.796820   -2.836074
     29          6           0        1.355504    4.058911   -0.750735
     30          1           0       -1.369775    2.755862   -1.329473
     31          1           0       -2.702116    1.835461    1.159645
     32          6           0       -1.498349    2.341983    3.675306
     33          1           0       -1.202554   -0.245834    4.253634
     34          1           0       -2.371807   -1.732335    2.474316
     35          1           0       -0.684830   -2.037130    2.775273
     36          1           0        4.002497    0.174125   -1.090303
     37          1           0        5.946875   -1.217516   -0.884138
     38          1           0        5.549693   -0.560128    0.693686
     39          1           0        4.097717   -1.996812   -2.425811
     40          1           0        2.481933   -1.316891   -2.248546
     41          1           0        2.955170   -2.699863   -1.261351
     42          1           0        0.210425    2.560479    1.296516
     43          1           0       -1.177881    3.581199    0.922061
     44          1           0       -1.774493    0.346925   -2.149218
     45          1           0       -1.406170   -2.254932   -0.962200
     46          1           0       -2.068997   -3.027096    0.478168
     47          1           0       -3.755963   -1.263886    0.746396
     48          1           0       -2.623030   -1.960414   -2.893546
     49          1           0       -4.292930   -2.035904   -3.446540
     50          1           0       -3.610881   -0.481279   -2.972896
     51          1           0       -5.889837   -2.714544   -1.848267
     52          1           0       -5.587582   -2.526022   -0.034513
     53          1           0        1.864388    3.075609   -3.189888
     54          1           0        0.148866    3.534401   -3.213038
     55          1           0        0.650911    1.832428   -3.304478
     56          1           0        1.543205    4.015384    0.326550
     57          1           0        2.322037    4.313570   -1.201792
     58          1           0        0.655072    4.874906   -0.955747
     59          1           0       -1.486330    2.020540    4.722333
     60          1           0       -0.635653    2.997535    3.523535
     61          1           0       -2.412568    2.924894    3.522268
     62          6           0        5.221489   -2.670671    0.509462
     63          1           0        6.208477   -2.887748    0.931054
     64          1           0        4.483648   -2.784395    1.308802
     65          1           0        5.019465   -3.424696   -0.257080
 ---------------------------------------------------------------------
 Rotational constants (GHZ):      0.1975519      0.1266411      0.1164982
 Standard basis: 6-31G(d) (6D, 7F)
 There are   533 symmetry adapted basis functions of A   symmetry.
 Integral buffers will be    131072 words long.
 Raffenetti 2 integral format.
 Two-electron integral symmetry is turned on.
   533 basis functions,  1004 primitive gaussians,   533 cartesian basis functions
   115 alpha electrons      115 beta electrons
       nuclear repulsion energy      3521.5592904819 Hartrees.
 NAtoms=   65 NActive=   65 NUniq=   65 SFac= 1.00D+00 NAtFMM=   50 NAOKFM=T Big=T
 One-electron integrals computed using PRISM.
 NBasis=   533 RedAO= T  NBF=   533
 NBsUse=   533 1.00D-06 NBFU=   533
 Harris functional with IExCor=  402 diagonalized for initial guess.
 ExpMin= 1.61D-01 ExpMax= 5.48D+03 ExpMxC= 8.25D+02 IAcc=1 IRadAn=         1 AccDes= 0.00D+00
 HarFok:  IExCor=  402 AccDes= 0.00D+00 IRadAn=         1 IDoV= 1
 ScaDFX=  1.000000  1.000000  1.000000  1.000000
 FoFCou: FMM=F IPFlag=           0 FMFlag=      100000 FMFlg1=        2001
         NFxFlg=           0 DoJE=T BraDBF=F KetDBF=T FulRan=T
         Omega=  0.000000  0.000000  1.000000  0.000000  0.000000 ICntrl=     500 IOpCl=  0
         NMat0=    1 NMatS0=    1 NMatT0=    0 NMatD0=    1 NMtDS0=    0 NMtDT0=    0
         I1Cent=           4 NGrid=           0.
 Petite list used in FoFCou.
 Initial guess orbital symmetries:
       Occupied  (A) (A) (A) (A) (A) (A) (A) (A) (A) (A) (A) (A)
                 (A) (A) (A) (A) (A) (A) (A) (A) (A) (A) (A) (A)
                 (A) (A) (A) (A) (A) (A) (A) (A) (A) (A) (A) (A)
                 (A) (A) (A) (A) (A) (A) (A) (A) (A) (A) (A) (A)
                 (A) (A) (A) (A) (A) (A) (A) (A) (A) (A) (A) (A)
                 (A) (A) (A) (A) (A) (A) (A) (A) (A) (A) (A) (A)
                 (A) (A) (A) (A) (A) (A) (A) (A) (A) (A) (A) (A)
                 (A) (A) (A) (A) (A) (A) (A) (A) (A) (A) (A) (A)
                 (A) (A) (A) (A) (A) (A) (A) (A) (A) (A) (A) (A)
                 (A) (A) (A) (A) (A) (A) (A)
       Virtual   (A) (A) (A) (A) (A) (A) (A) (A) (A) (A) (A) (A)
                 (A) (A) (A) (A) (A) (A) (A) (A) (A) (A) (A) (A)
                 (A) (A) (A) (A) (A) (A) (A) (A) (A) (A) (A) (A)
                 (A) (A) (A) (A) (A) (A) (A) (A) (A) (A) (A) (A)
                 (A) (A) (A) (A) (A) (A) (A) (A) (A) (A) (A) (A)
                 (A) (A) (A) (A) (A) (A) (A) (A) (A) (A) (A) (A)
                 (A) (A) (A) (A) (A) (A) (A) (A) (A) (A) (A) (A)
                 (A) (A) (A) (A) (A) (A) (A) (A) (A) (A) (A) (A)
                 (A) (A) (A) (A) (A) (A) (A) (A) (A) (A) (A) (A)
                 (A) (A) (A) (A) (A) (A) (A) (A) (A) (A) (A) (A)
                 (A) (A) (A) (A) (A) (A) (A) (A) (A) (A) (A) (A)
                 (A) (A) (A) (A) (A) (A) (A) (A) (A) (A) (A) (A)
                 (A) (A) (A) (A) (A) (A) (A) (A) (A) (A) (A) (A)
                 (A) (A) (A) (A) (A) (A) (A) (A) (A) (A) (A) (A)
                 (A) (A) (A) (A) (A) (A) (A) (A) (A) (A) (A) (A)
                 (A) (A) (A) (A) (A) (A) (A) (A) (A) (A) (A) (A)
                 (A) (A) (A) (A) (A) (A) (A) (A) (A) (A) (A) (A)
                 (A) (A) (A) (A) (A) (A) (A) (A) (A) (A) (A) (A)
                 (A) (A) (A) (A) (A) (A) (A) (A) (A) (A) (A) (A)
                 (A) (A) (A) (A) (A) (A) (A) (A) (A) (A) (A) (A)
                 (A) (A) (A) (A) (A) (A) (A) (A) (A) (A) (A) (A)
                 (A) (A) (A) (A) (A) (A) (A) (A) (A) (A) (A) (A)
                 (A) (A) (A) (A) (A) (A) (A) (A) (A) (A) (A) (A)
                 (A) (A) (A) (A) (A) (A) (A) (A) (A) (A) (A) (A)
                 (A) (A) (A) (A) (A) (A) (A) (A) (A) (A) (A) (A)
                 (A) (A) (A) (A) (A) (A) (A) (A) (A) (A) (A) (A)
                 (A) (A) (A) (A) (A) (A) (A) (A) (A) (A) (A) (A)
                 (A) (A) (A) (A) (A) (A) (A) (A) (A) (A) (A) (A)
                 (A) (A) (A) (A) (A) (A) (A) (A) (A) (A) (A) (A)
                 (A) (A) (A) (A) (A) (A) (A) (A) (A) (A) (A) (A)
                 (A) (A) (A) (A) (A) (A) (A) (A) (A) (A) (A) (A)
                 (A) (A) (A) (A) (A) (A) (A) (A) (A) (A) (A) (A)
                 (A) (A) (A) (A) (A) (A) (A) (A) (A) (A) (A) (A)
                 (A) (A) (A) (A) (A) (A) (A) (A) (A) (A) (A) (A)
                 (A) (A) (A) (A) (A) (A) (A) (A) (A) (A)
 The electronic state of the initial guess is 1-A.
 Requested convergence on RMS density matrix=1.00D-08 within 128 cycles.
 Requested convergence on MAX density matrix=1.00D-06.
 Requested convergence on             energy=1.00D-06.
 No special actions if energy rises.
 Integral accuracy reduced to 1.0D-05 until final iterations.
 EnCoef did     3 forward-backward iterations
 Initial convergence to 1.0D-05 achieved.  Increase integral accuracy.
 SCF Done:  E(RB3LYP) =  -1387.30016016     A.U. after   16 cycles
             Convg  =    0.3520D-08             -V/T =  2.0091

 **********************************************************************

            Population analysis using the SCF density.

 **********************************************************************

 Orbital symmetries:
       Occupied  (A) (A) (A) (A) (A) (A) (A) (A) (A) (A) (A) (A)
                 (A) (A) (A) (A) (A) (A) (A) (A) (A) (A) (A) (A)
                 (A) (A) (A) (A) (A) (A) (A) (A) (A) (A) (A) (A)
                 (A) (A) (A) (A) (A) (A) (A) (A) (A) (A) (A) (A)
                 (A) (A) (A) (A) (A) (A) (A) (A) (A) (A) (A) (A)
                 (A) (A) (A) (A) (A) (A) (A) (A) (A) (A) (A) (A)
                 (A) (A) (A) (A) (A) (A) (A) (A) (A) (A) (A) (A)
                 (A) (A) (A) (A) (A) (A) (A) (A) (A) (A) (A) (A)
                 (A) (A) (A) (A) (A) (A) (A) (A) (A) (A) (A) (A)
                 (A) (A) (A) (A) (A) (A) (A)
       Virtual   (A) (A) (A) (A) (A) (A) (A) (A) (A) (A) (A) (A)
                 (A) (A) (A) (A) (A) (A) (A) (A) (A) (A) (A) (A)
                 (A) (A) (A) (A) (A) (A) (A) (A) (A) (A) (A) (A)
                 (A) (A) (A) (A) (A) (A) (A) (A) (A) (A) (A) (A)
                 (A) (A) (A) (A) (A) (A) (A) (A) (A) (A) (A) (A)
                 (A) (A) (A) (A) (A) (A) (A) (A) (A) (A) (A) (A)
                 (A) (A) (A) (A) (A) (A) (A) (A) (A) (A) (A) (A)
                 (A) (A) (A) (A) (A) (A) (A) (A) (A) (A) (A) (A)
                 (A) (A) (A) (A) (A) (A) (A) (A) (A) (A) (A) (A)
                 (A) (A) (A) (A) (A) (A) (A) (A) (A) (A) (A) (A)
                 (A) (A) (A) (A) (A) (A) (A) (A) (A) (A) (A) (A)
                 (A) (A) (A) (A) (A) (A) (A) (A) (A) (A) (A) (A)
                 (A) (A) (A) (A) (A) (A) (A) (A) (A) (A) (A) (A)
                 (A) (A) (A) (A) (A) (A) (A) (A) (A) (A) (A) (A)
                 (A) (A) (A) (A) (A) (A) (A) (A) (A) (A) (A) (A)
                 (A) (A) (A) (A) (A) (A) (A) (A) (A) (A) (A) (A)
                 (A) (A) (A) (A) (A) (A) (A) (A) (A) (A) (A) (A)
                 (A) (A) (A) (A) (A) (A) (A) (A) (A) (A) (A) (A)
                 (A) (A) (A) (A) (A) (A) (A) (A) (A) (A) (A) (A)
                 (A) (A) (A) (A) (A) (A) (A) (A) (A) (A) (A) (A)
                 (A) (A) (A) (A) (A) (A) (A) (A) (A) (A) (A) (A)
                 (A) (A) (A) (A) (A) (A) (A) (A) (A) (A) (A) (A)
                 (A) (A) (A) (A) (A) (A) (A) (A) (A) (A) (A) (A)
                 (A) (A) (A) (A) (A) (A) (A) (A) (A) (A) (A) (A)
                 (A) (A) (A) (A) (A) (A) (A) (A) (A) (A) (A) (A)
                 (A) (A) (A) (A) (A) (A) (A) (A) (A) (A) (A) (A)
                 (A) (A) (A) (A) (A) (A) (A) (A) (A) (A) (A) (A)
                 (A) (A) (A) (A) (A) (A) (A) (A) (A) (A) (A) (A)
                 (A) (A) (A) (A) (A) (A) (A) (A) (A) (A) (A) (A)
                 (A) (A) (A) (A) (A) (A) (A) (A) (A) (A) (A) (A)
                 (A) (A) (A) (A) (A) (A) (A) (A) (A) (A) (A) (A)
                 (A) (A) (A) (A) (A) (A) (A) (A) (A) (A) (A) (A)
                 (A) (A) (A) (A) (A) (A) (A) (A) (A) (A) (A) (A)
                 (A) (A) (A) (A) (A) (A) (A) (A) (A) (A) (A) (A)
                 (A) (A) (A) (A) (A) (A) (A) (A) (A) (A)
 The electronic state is 1-A.
 Alpha  occ. eigenvalues --  -19.19743 -19.16690 -19.15510 -19.13420 -19.13299
 Alpha  occ. eigenvalues --  -10.27866 -10.27087 -10.26816 -10.26242 -10.25995
 Alpha  occ. eigenvalues --  -10.25626 -10.24726 -10.21666 -10.20490 -10.20184
 Alpha  occ. eigenvalues --  -10.20182 -10.19509 -10.19485 -10.19312 -10.19277
 Alpha  occ. eigenvalues --  -10.19183 -10.18943 -10.18765 -10.18643 -10.18520
 Alpha  occ. eigenvalues --  -10.18348 -10.18037 -10.17889 -10.16773 -10.16753
 Alpha  occ. eigenvalues --  -10.15468  -1.08605  -1.05929  -1.03290  -1.02503
 Alpha  occ. eigenvalues --   -1.02216  -0.87355  -0.84044  -0.82745  -0.81713
 Alpha  occ. eigenvalues --   -0.80415  -0.79671  -0.77032  -0.74332  -0.73719
 Alpha  occ. eigenvalues --   -0.72271  -0.71105  -0.69739  -0.69523  -0.67955
 Alpha  occ. eigenvalues --   -0.65062  -0.64537  -0.63306  -0.62365  -0.60894
 Alpha  occ. eigenvalues --   -0.59397  -0.58736  -0.57389  -0.55125  -0.53685
 Alpha  occ. eigenvalues --   -0.53192  -0.52180  -0.50636  -0.50465  -0.49274
 Alpha  occ. eigenvalues --   -0.48059  -0.47531  -0.46719  -0.46367  -0.45623
 Alpha  occ. eigenvalues --   -0.45211  -0.44971  -0.44479  -0.43902  -0.43630
 Alpha  occ. eigenvalues --   -0.43114  -0.42950  -0.42172  -0.41666  -0.41314
 Alpha  occ. eigenvalues --   -0.40858  -0.40757  -0.40329  -0.40048  -0.39409
 Alpha  occ. eigenvalues --   -0.39055  -0.38631  -0.38408  -0.38080  -0.37998
 Alpha  occ. eigenvalues --   -0.37387  -0.37113  -0.37092  -0.36853  -0.36709
 Alpha  occ. eigenvalues --   -0.36405  -0.36073  -0.35319  -0.34656  -0.34294
 Alpha  occ. eigenvalues --   -0.33800  -0.33577  -0.32724  -0.32378  -0.32254
 Alpha  occ. eigenvalues --   -0.31515  -0.31293  -0.30982  -0.28037  -0.27012
 Alpha  occ. eigenvalues --   -0.25545  -0.25009  -0.24579  -0.23439  -0.23273
 Alpha virt. eigenvalues --   -0.05155  -0.02032   0.00728   0.02403   0.03873
 Alpha virt. eigenvalues --    0.06876   0.07990   0.08710   0.09319   0.09878
 Alpha virt. eigenvalues --    0.10389   0.10582   0.11690   0.11725   0.12630
 Alpha virt. eigenvalues --    0.12785   0.13271   0.13518   0.14060   0.14170
 Alpha virt. eigenvalues --    0.14496   0.14812   0.14972   0.15349   0.15763
 Alpha virt. eigenvalues --    0.16383   0.16668   0.16880   0.17410   0.17709
 Alpha virt. eigenvalues --    0.18039   0.18272   0.18302   0.18799   0.19036
 Alpha virt. eigenvalues --    0.19058   0.19562   0.19763   0.19957   0.20309
 Alpha virt. eigenvalues --    0.20717   0.21304   0.21861   0.22110   0.22484
 Alpha virt. eigenvalues --    0.22732   0.23365   0.23400   0.23814   0.24705
 Alpha virt. eigenvalues --    0.24734   0.25633   0.25874   0.26393   0.26667
 Alpha virt. eigenvalues --    0.27415   0.28175   0.28728   0.29234   0.30168
 Alpha virt. eigenvalues --    0.30872   0.31927   0.32849   0.33227   0.34824
 Alpha virt. eigenvalues --    0.35237   0.35931   0.37532   0.38387   0.40682
 Alpha virt. eigenvalues --    0.42783   0.45411   0.46639   0.47738   0.48128
 Alpha virt. eigenvalues --    0.49542   0.50560   0.50949   0.51597   0.51961
 Alpha virt. eigenvalues --    0.52050   0.52204   0.52542   0.53145   0.53972
 Alpha virt. eigenvalues --    0.54082   0.54789   0.55305   0.55965   0.56197
 Alpha virt. eigenvalues --    0.57119   0.57501   0.57736   0.58524   0.58677
 Alpha virt. eigenvalues --    0.59475   0.60522   0.61234   0.61631   0.62480
 Alpha virt. eigenvalues --    0.62601   0.63107   0.63310   0.63781   0.63971
 Alpha virt. eigenvalues --    0.65776   0.66304   0.66493   0.67267   0.67643
 Alpha virt. eigenvalues --    0.68039   0.68186   0.68306   0.69111   0.69579
 Alpha virt. eigenvalues --    0.70538   0.71221   0.71949   0.72234   0.73142
 Alpha virt. eigenvalues --    0.73689   0.75033   0.75283   0.75734   0.76003
 Alpha virt. eigenvalues --    0.77609   0.78151   0.78586   0.79125   0.79931
 Alpha virt. eigenvalues --    0.80281   0.81085   0.81452   0.82061   0.82406
 Alpha virt. eigenvalues --    0.83119   0.83352   0.83933   0.84441   0.85185
 Alpha virt. eigenvalues --    0.85277   0.86165   0.86389   0.86800   0.87096
 Alpha virt. eigenvalues --    0.87351   0.87841   0.88499   0.88684   0.89147
 Alpha virt. eigenvalues --    0.89508   0.89758   0.90000   0.90540   0.90649
 Alpha virt. eigenvalues --    0.90714   0.91576   0.91754   0.92155   0.92342
 Alpha virt. eigenvalues --    0.92645   0.93434   0.93595   0.94363   0.95188
 Alpha virt. eigenvalues --    0.95542   0.95708   0.96161   0.96740   0.97270
 Alpha virt. eigenvalues --    0.97760   0.98227   0.98644   0.99123   0.99770
 Alpha virt. eigenvalues --    1.00272   1.01175   1.01761   1.02450   1.03993
 Alpha virt. eigenvalues --    1.04297   1.04756   1.05231   1.06710   1.08117
 Alpha virt. eigenvalues --    1.09280   1.09456   1.09775   1.12097   1.12268
 Alpha virt. eigenvalues --    1.13262   1.14601   1.15246   1.16563   1.17727
 Alpha virt. eigenvalues --    1.18234   1.18378   1.19585   1.19880   1.21213
 Alpha virt. eigenvalues --    1.22222   1.23553   1.24237   1.24630   1.26308
 Alpha virt. eigenvalues --    1.26887   1.28541   1.29838   1.30095   1.31755
 Alpha virt. eigenvalues --    1.33962   1.34679   1.38181   1.39092   1.40734
 Alpha virt. eigenvalues --    1.41830   1.41986   1.42786   1.43749   1.46943
 Alpha virt. eigenvalues --    1.48446   1.48997   1.49742   1.50693   1.51371
 Alpha virt. eigenvalues --    1.52064   1.54287   1.54765   1.55439   1.57590
 Alpha virt. eigenvalues --    1.58749   1.60797   1.62799   1.63273   1.64687
 Alpha virt. eigenvalues --    1.65796   1.66848   1.66926   1.69525   1.69972
 Alpha virt. eigenvalues --    1.70523   1.71676   1.72056   1.73001   1.73773
 Alpha virt. eigenvalues --    1.74105   1.74811   1.75857   1.76202   1.76975
 Alpha virt. eigenvalues --    1.78340   1.79208   1.79678   1.81258   1.81844
 Alpha virt. eigenvalues --    1.82278   1.83406   1.83615   1.85053   1.85405
 Alpha virt. eigenvalues --    1.85633   1.86129   1.87269   1.87836   1.88304
 Alpha virt. eigenvalues --    1.89475   1.89627   1.90663   1.91034   1.92008
 Alpha virt. eigenvalues --    1.92363   1.93065   1.93607   1.94795   1.95249
 Alpha virt. eigenvalues --    1.96177   1.96549   1.97222   1.97586   1.98544
 Alpha virt. eigenvalues --    1.99310   1.99432   1.99901   2.01104   2.02357
 Alpha virt. eigenvalues --    2.03020   2.04023   2.04144   2.05346   2.05969
 Alpha virt. eigenvalues --    2.06554   2.07667   2.07970   2.09249   2.09632
 Alpha virt. eigenvalues --    2.10362   2.11925   2.12748   2.13083   2.13597
 Alpha virt. eigenvalues --    2.14843   2.15486   2.15995   2.17385   2.19143
 Alpha virt. eigenvalues --    2.19715   2.20455   2.21580   2.22268   2.22726
 Alpha virt. eigenvalues --    2.23209   2.23466   2.25371   2.25801   2.26953
 Alpha virt. eigenvalues --    2.28282   2.28804   2.29599   2.31142   2.32586
 Alpha virt. eigenvalues --    2.33666   2.33832   2.34244   2.35328   2.35606
 Alpha virt. eigenvalues --    2.36074   2.37071   2.37362   2.38016   2.38879
 Alpha virt. eigenvalues --    2.39540   2.41829   2.42055   2.43010   2.43711
 Alpha virt. eigenvalues --    2.45034   2.45800   2.47120   2.48253   2.48875
 Alpha virt. eigenvalues --    2.50325   2.50954   2.51483   2.54687   2.55445
 Alpha virt. eigenvalues --    2.56066   2.57383   2.57853   2.58706   2.59816
 Alpha virt. eigenvalues --    2.60748   2.61182   2.62715   2.63271   2.65792
 Alpha virt. eigenvalues --    2.66012   2.66950   2.69204   2.69517   2.70893
 Alpha virt. eigenvalues --    2.72792   2.73437   2.74659   2.77110   2.78728
 Alpha virt. eigenvalues --    2.80680   2.81205   2.81965   2.84806   2.86016
 Alpha virt. eigenvalues --    2.88988   2.90562   2.92723   2.94788   2.95608
 Alpha virt. eigenvalues --    2.96719   2.99072   2.99937   3.02656   3.03338
 Alpha virt. eigenvalues --    3.04630   3.06998   3.13679   3.16968   3.19954
 Alpha virt. eigenvalues --    3.22377   3.28974   4.03060   4.09463   4.11976
 Alpha virt. eigenvalues --    4.13242   4.15174   4.15873   4.17331   4.18760
 Alpha virt. eigenvalues --    4.21089   4.23693   4.25294   4.26842   4.30551
 Alpha virt. eigenvalues --    4.32633   4.36303   4.37431   4.39702   4.43427
 Alpha virt. eigenvalues --    4.48329   4.50009   4.52075   4.54404   4.58833
 Alpha virt. eigenvalues --    4.60894   4.64731   4.70011   4.71953   4.79521
 Alpha virt. eigenvalues --    4.92647   4.98888   5.20870
          Condensed to atoms (all electrons):
 Mulliken atomic charges:
              1
     1  C   -0.187099
     2  C    0.191498
     3  C   -0.188636
     4  C    0.326631
     5  C   -0.037893
     6  C   -0.337020
     7  C    0.197203
     8  C    0.396457
     9  C   -0.078983
    10  C    0.413945
    11  C    0.429931
    12  O   -0.458738
    13  C   -0.171185
    14  C   -0.248564
    15  C   -0.470449
    16  O   -0.496583
    17  C   -0.160900
    18  C    0.311890
    19  O   -0.544148
    20  C   -0.318767
    21  O   -0.667452
    22  C   -0.311376
    23  C    0.086913
    24  O   -0.590444
    25  C    0.226781
    26  C   -0.531774
    27  C   -0.401531
    28  C   -0.461962
    29  C   -0.463902
    30  H    0.142821
    31  H    0.163021
    32  C   -0.517218
    33  H    0.123577
    34  H    0.152934
    35  H    0.183059
    36  H    0.168092
    37  H    0.122440
    38  H    0.149649
    39  H    0.146137
    40  H    0.152601
    41  H    0.173621
    42  H    0.169408
    43  H    0.148434
    44  H    0.423321
    45  H    0.167819
    46  H    0.169505
    47  H    0.133326
    48  H    0.172531
    49  H    0.158658
    50  H    0.159433
    51  H    0.141636
    52  H    0.138971
    53  H    0.148497
    54  H    0.140298
    55  H    0.183499
    56  H    0.160912
    57  H    0.157347
    58  H    0.150526
    59  H    0.158469
    60  H    0.159853
    61  H    0.148525
    62  C   -0.452227
    63  H    0.136959
    64  H    0.169679
    65  H    0.140050
 Sum of Mulliken atomic charges =   0.00000
 Mulliken charges with hydrogens summed into heavy atoms:
              1
     1  C   -0.063522
     2  C    0.191498
     3  C   -0.025614
     4  C    0.326631
     5  C   -0.037893
     6  C   -0.001028
     7  C    0.197203
     8  C    0.396457
     9  C   -0.078983
    10  C    0.413945
    11  C    0.429931
    12  O   -0.458738
    13  C   -0.003093
    14  C    0.023525
    15  C    0.001909
    16  O   -0.496583
    17  C   -0.018079
    18  C    0.311890
    19  O   -0.544148
    20  C   -0.000925
    21  O   -0.244132
    22  C    0.025948
    23  C    0.220239
    24  O   -0.590444
    25  C    0.226781
    26  C   -0.041152
    27  C   -0.120924
    28  C    0.010331
    29  C    0.004882
    32  C   -0.050371
    62  C   -0.005539
 Sum of Mulliken charges with hydrogens summed into heavy atoms =   0.00000
 Electronic spatial extent (au):  <R**2>=          11478.7651
 Charge=              0.0000 electrons
 Dipole moment (field-independent basis, Debye):
    X=             -3.8856    Y=              3.3184    Z=             -1.8162  Tot=              5.4229
 Quadrupole moment (field-independent basis, Debye-Ang):
   XX=           -185.0141   YY=           -180.0051   ZZ=           -182.7980
   XY=              5.7015   XZ=             -7.8748   YZ=              1.4650
 Traceless Quadrupole moment (field-independent basis, Debye-Ang):
   XX=             -2.4083   YY=              2.6006   ZZ=             -0.1923
   XY=              5.7015   XZ=             -7.8748   YZ=              1.4650
 Octapole moment (field-independent basis, Debye-Ang**2):
  XXX=             -9.6086  YYY=             58.7834  ZZZ=             -1.2948  XYY=            -16.0901
  XXY=            -17.3114  XXZ=            -39.0307  XZZ=            -29.2148  YZZ=              1.1575
  YYZ=            -14.8967  XYZ=              1.9474
 Hexadecapole moment (field-independent basis, Debye-Ang**3):
 XXXX=          -7970.4427 YYYY=          -4215.3738 ZZZZ=          -3168.4634 XXXY=             98.8273
 XXXZ=            -18.8334 YYYX=             26.8403 YYYZ=            -27.0694 ZZZX=             21.0168
 ZZZY=            -15.2306 XXYY=          -1991.1615 XXZZ=          -1850.5325 YYZZ=          -1205.5501
 XXYZ=             28.0958 YYXZ=             -3.7832 ZZXY=             30.5790
 N-N= 3.521559290482D+03 E-N=-1.026942351467D+04  KE= 1.374788567362D+03
 Calling FoFJK, ICntrl=      2127 FMM=T ISym2X=0 I1Cent= 0 IOpClX= 0 NMat=1 NMatS=1 NMatT=0.
 ***** Axes restored to original set *****
 -------------------------------------------------------------------
 Center     Atomic                   Forces (Hartrees/Bohr)
 Number     Number              X              Y              Z
 -------------------------------------------------------------------
      1        6           0.009547039   -0.000659148    0.000082286
      2        6          -0.012311643   -0.005882709    0.002825252
      3        6          -0.001160587   -0.008492994   -0.001156258
      4        6           0.004408753   -0.004598845    0.010908267
      5        6          -0.011402309    0.003226660    0.000051402
      6        6          -0.004520436   -0.011815144   -0.001823205
      7        6           0.012688691    0.018228523    0.008827573
      8        6           0.006971156   -0.012445286   -0.015765130
      9        6           0.001738024    0.005746184    0.008823906
     10        6          -0.010965656    0.004050297   -0.019204804
     11        6          -0.009577860   -0.022882345   -0.016691403
     12        8           0.002355215    0.020358134    0.000592691
     13        6          -0.005686081   -0.004376050   -0.008504613
     14        6           0.001549862   -0.005640548   -0.002871146
     15        6           0.001474559    0.005662300    0.007956824
     16        8           0.010745881   -0.005992199    0.009426307
     17        6           0.007091114   -0.010699762   -0.006509060
     18        6           0.032394667    0.006225795   -0.002293020
     19        8          -0.024077490    0.003625875    0.027179093
     20        6           0.011888209   -0.005178494   -0.000353677
     21        8          -0.005523947    0.007767792   -0.001786603
     22        6          -0.007604039    0.008284888    0.001088187
     23        6          -0.001867397    0.003850793    0.008025076
     24        8          -0.000908367   -0.004273877   -0.013786704
     25        6          -0.002148299    0.004436740    0.017388775
     26        6          -0.000581432    0.002148907   -0.001127479
     27        6           0.002849303   -0.004549435   -0.008670385
     28        6          -0.003329070    0.007784865   -0.004550589
     29        6          -0.004303688   -0.005953662   -0.008891967
     30        1          -0.001715677    0.001184924   -0.001530666
     31        1          -0.002863173    0.006024659   -0.000035998
     32        6          -0.001068389    0.001135569   -0.000964807
     33        1           0.001167035   -0.000508223   -0.000115273
     34        1          -0.000986425    0.005302446    0.001954672
     35        1          -0.000285391    0.007046249    0.000151750
     36        1           0.003081690   -0.000646433    0.002876451
     37        1           0.002515344    0.001490910    0.000725420
     38        1           0.001252382    0.000770621    0.002127792
     39        1          -0.000263960   -0.001115127   -0.001182618
     40        1          -0.000519766    0.000253878    0.000579624
     41        1           0.000069948    0.000049648   -0.000651468
     42        1           0.000027729    0.002667644   -0.000031018
     43        1          -0.001457994   -0.001889152   -0.001468996
     44        1          -0.003024053   -0.002210760   -0.002236208
     45        1           0.001599961   -0.000744419    0.002435385
     46        1           0.001784323   -0.002244018   -0.001717901
     47        1          -0.004265190    0.001557098    0.002736522
     48        1           0.002803276    0.000461917   -0.003382588
     49        1          -0.000444088   -0.002327999    0.001054880
     50        1           0.002169215    0.000957330   -0.002729696
     51        1          -0.001785575    0.000639201   -0.000715915
     52        1           0.000542063   -0.001197240    0.001225663
     53        1           0.002076416   -0.003862866    0.000150704
     54        1           0.000450844   -0.000803817    0.000161511
     55        1          -0.000898298   -0.002788939    0.005584754
     56        1          -0.000047725    0.000014288    0.003809726
     57        1           0.000759021    0.002787275    0.001503517
     58        1          -0.000741718    0.001217083    0.000637040
     59        1          -0.001156636    0.001800143   -0.000636570
     60        1           0.004220429   -0.001697060    0.000233700
     61        1           0.004080790   -0.001090561    0.000104297
     62        6          -0.003902264   -0.000350241   -0.000592818
     63        1          -0.001206053   -0.000211793   -0.000335359
     64        1          -0.000160440   -0.000139125    0.000405925
     65        1          -0.001541824    0.000509637    0.000678971
 -------------------------------------------------------------------
 Cartesian Forces:  Max     0.032394667 RMS     0.006686552

 GradGradGradGradGradGradGradGradGradGradGradGradGradGradGradGradGradGrad
 Berny optimization.
 Internal  Forces:  Max     0.020151364 RMS     0.003418222
 Search for a local minimum.
 Step number   1 out of a maximum of  390
 All quantities printed in internal units (Hartrees-Bohrs-Radians)
 Mixed Optimization -- RFO/linear search
 Second derivative matrix not updated -- first step.
 ITU=  0
     Eigenvalues ---    0.00230   0.00273   0.00315   0.00334   0.00378
     Eigenvalues ---    0.00438   0.00445   0.00510   0.00586   0.00591
     Eigenvalues ---    0.00658   0.00673   0.00717   0.00733   0.00828
     Eigenvalues ---    0.01029   0.01093   0.01240   0.01270   0.01436
     Eigenvalues ---    0.01468   0.01647   0.01721   0.01836   0.01940
     Eigenvalues ---    0.02536   0.02818   0.02818   0.03005   0.03140
     Eigenvalues ---    0.03312   0.03499   0.03586   0.03861   0.04045
     Eigenvalues ---    0.04085   0.04267   0.04361   0.04608   0.04762
     Eigenvalues ---    0.04802   0.04825   0.04935   0.05097   0.05244
     Eigenvalues ---    0.05305   0.05367   0.05421   0.05453   0.05456
     Eigenvalues ---    0.05496   0.05501   0.05537   0.05549   0.05643
     Eigenvalues ---    0.05694   0.05738   0.05945   0.06247   0.06548
     Eigenvalues ---    0.06710   0.06745   0.07098   0.07146   0.07197
     Eigenvalues ---    0.07227   0.07242   0.07338   0.07785   0.08375
     Eigenvalues ---    0.08625   0.08681   0.08988   0.09210   0.10029
     Eigenvalues ---    0.10115   0.10601   0.11131   0.11635   0.12454
     Eigenvalues ---    0.13171   0.14682   0.15259   0.15970   0.16000
     Eigenvalues ---    0.16000   0.16000   0.16000   0.16000   0.16000
     Eigenvalues ---    0.16000   0.16000   0.16000   0.16000   0.16000
     Eigenvalues ---    0.16000   0.16000   0.16000   0.16000   0.16000
     Eigenvalues ---    0.16000   0.16000   0.16000   0.16000   0.16000
     Eigenvalues ---    0.16036   0.17126   0.17205   0.18379   0.18560
     Eigenvalues ---    0.19885   0.21512   0.21942   0.22712   0.23376
     Eigenvalues ---    0.24383   0.24948   0.24971   0.24991   0.24999
     Eigenvalues ---    0.25000   0.25000   0.25000   0.25946   0.27283
     Eigenvalues ---    0.27348   0.27614   0.27756   0.27884   0.28317
     Eigenvalues ---    0.28350   0.28759   0.28822   0.29050   0.29179
     Eigenvalues ---    0.29483   0.29963   0.30561   0.30774   0.31535
     Eigenvalues ---    0.31654   0.32065   0.32113   0.33451   0.33678
     Eigenvalues ---    0.33915   0.33928   0.33961   0.33985   0.33991
     Eigenvalues ---    0.33997   0.34013   0.34015   0.34063   0.34071
     Eigenvalues ---    0.34120   0.34125   0.34136   0.34166   0.34204
     Eigenvalues ---    0.34221   0.34228   0.34234   0.34242   0.34242
     Eigenvalues ---    0.34267   0.34269   0.34279   0.34311   0.34345
     Eigenvalues ---    0.34348   0.34348   0.34383   0.34399   0.34442
     Eigenvalues ---    0.34556   0.34905   0.35275   0.35290   0.36349
     Eigenvalues ---    0.37582   0.42929   0.43695   0.51811   0.53705
     Eigenvalues ---    0.54691   0.56133   0.89810   0.90195
 RFO step:  Lambda=-2.17510906D-02 EMin= 2.30000000D-03
 Linear search not attempted -- first point.
 Iteration  1 RMS(Cart)=  0.04534277 RMS(Int)=  0.00066712
 Iteration  2 RMS(Cart)=  0.00111337 RMS(Int)=  0.00023458
 Iteration  3 RMS(Cart)=  0.00000062 RMS(Int)=  0.00023458
 Variable       Old X    -DE/DX   Delta X   Delta X   Delta X     New X
                                 (Linear)    (Quad)   (Total)
    R1        2.53186  -0.00200   0.00000  -0.00425  -0.00430   2.52756
    R2        2.81869   0.00869   0.00000   0.02562   0.02553   2.84421
    R3        2.05830  -0.00014   0.00000  -0.00038  -0.00038   2.05792
    R4        2.84926   0.00425   0.00000   0.00968   0.00973   2.85899
    R5        2.84782   0.00289   0.00000   0.00855   0.00855   2.85638
    R6        2.94088   0.00558   0.00000   0.01347   0.01345   2.95433
    R7        2.90955   0.01116   0.00000   0.03794   0.03789   2.94744
    R8        2.07876  -0.00096   0.00000  -0.00267  -0.00267   2.07609
    R9        2.92176   0.00890   0.00000   0.02840   0.02817   2.94994
   R10        2.91587   0.00749   0.00000   0.02492   0.02507   2.94093
   R11        2.77986  -0.00542   0.00000  -0.01483  -0.01481   2.76505
   R12        2.91918   0.00205   0.00000   0.00985   0.00978   2.92897
   R13        2.90418   0.00650   0.00000   0.01559   0.01549   2.91967
   R14        2.90187   0.01035   0.00000   0.03527   0.03521   2.93708
   R15        2.07345   0.00273   0.00000   0.00756   0.00756   2.08101
   R16        2.07452  -0.00122   0.00000  -0.00337  -0.00337   2.07116
   R17        2.81313   0.00940   0.00000   0.01998   0.01960   2.83274
   R18        2.85853   0.01615   0.00000   0.05678   0.05629   2.91482
   R19        2.67758   0.00506   0.00000   0.01123   0.01123   2.68881
   R20        2.52402   0.01195   0.00000   0.02071   0.02076   2.54478
   R21        2.62949  -0.01852   0.00000  -0.04387  -0.04365   2.58583
   R22        2.79150  -0.00006   0.00000  -0.00348  -0.00332   2.78818
   R23        2.79701   0.01822   0.00000   0.04960   0.04960   2.84661
   R24        2.33021  -0.01342   0.00000  -0.01459  -0.01459   2.31562
   R25        2.32843  -0.02015   0.00000  -0.02182  -0.02182   2.30661
   R26        2.89899  -0.00356   0.00000  -0.01139  -0.01139   2.88760
   R27        2.91381   0.00173   0.00000   0.00567   0.00567   2.91948
   R28        2.89007   0.00612   0.00000   0.01934   0.01934   2.90941
   R29        2.07473   0.00217   0.00000   0.00601   0.00601   2.08075
   R30        2.07355   0.00090   0.00000   0.00249   0.00249   2.07603
   R31        2.07306  -0.00086   0.00000  -0.00237  -0.00237   2.07069
   R32        2.88037   0.00680   0.00000   0.02116   0.02116   2.90153
   R33        2.06959   0.00023   0.00000   0.00064   0.00064   2.07023
   R34        2.06947   0.00016   0.00000   0.00043   0.00043   2.06990
   R35        2.06937  -0.00035   0.00000  -0.00096  -0.00096   2.06841
   R36        2.91623  -0.00052   0.00000   0.00956   0.00981   2.92604
   R37        2.90057   0.00491   0.00000   0.01730   0.01733   2.91790
[...]
     55          1           0        0.331528    1.836033   -3.331202
     56          1           0        1.509018    3.997653    0.226394
     57          1           0        2.397130    4.169171   -1.295527
     58          1           0        0.786517    4.891372   -1.128300
     59          1           0       -1.489243    2.173751    4.670205
     60          1           0       -0.728181    3.154626    3.408460
     61          1           0       -2.484508    3.043925    3.487316
     62          6           0        5.629340   -2.300968    0.538639
     63          1           0        6.688764   -2.276339    0.819178
     64          1           0        5.038865   -2.365537    1.456424
     65          1           0        5.466231   -3.216665   -0.041019
 ---------------------------------------------------------------------
 Rotational constants (GHZ):      0.1949491      0.1239766      0.1146995

 **********************************************************************

            Population analysis using the SCF density.

 **********************************************************************

 Orbital symmetries:
       Occupied  (A) (A) (A) (A) (A) (A) (A) (A) (A) (A) (A) (A)
                 (A) (A) (A) (A) (A) (A) (A) (A) (A) (A) (A) (A)
                 (A) (A) (A) (A) (A) (A) (A) (A) (A) (A) (A) (A)
                 (A) (A) (A) (A) (A) (A) (A) (A) (A) (A) (A) (A)
                 (A) (A) (A) (A) (A) (A) (A) (A) (A) (A) (A) (A)
                 (A) (A) (A) (A) (A) (A) (A) (A) (A) (A) (A) (A)
                 (A) (A) (A) (A) (A) (A) (A) (A) (A) (A) (A) (A)
                 (A) (A) (A) (A) (A) (A) (A) (A) (A) (A) (A) (A)
                 (A) (A) (A) (A) (A) (A) (A) (A) (A) (A) (A) (A)
                 (A) (A) (A) (A) (A) (A) (A)
       Virtual   (A) (A) (A) (A) (A) (A) (A) (A) (A) (A) (A) (A)
                 (A) (A) (A) (A) (A) (A) (A) (A) (A) (A) (A) (A)
                 (A) (A) (A) (A) (A) (A) (A) (A) (A) (A) (A) (A)
                 (A) (A) (A) (A) (A) (A) (A) (A) (A) (A) (A) (A)
                 (A) (A) (A) (A) (A) (A) (A) (A) (A) (A) (A) (A)
                 (A) (A) (A) (A) (A) (A) (A) (A) (A) (A) (A) (A)
                 (A) (A) (A) (A) (A) (A) (A) (A) (A) (A) (A) (A)
                 (A) (A) (A) (A) (A) (A) (A) (A) (A) (A) (A) (A)
                 (A) (A) (A) (A) (A) (A) (A) (A) (A) (A) (A) (A)
                 (A) (A) (A) (A) (A) (A) (A) (A) (A) (A) (A) (A)
                 (A) (A) (A) (A) (A) (A) (A) (A) (A) (A) (A) (A)
                 (A) (A) (A) (A) (A) (A) (A) (A) (A) (A) (A) (A)
                 (A) (A) (A) (A) (A) (A) (A) (A) (A) (A) (A) (A)
                 (A) (A) (A) (A) (A) (A) (A) (A) (A) (A) (A) (A)
                 (A) (A) (A) (A) (A) (A) (A) (A) (A) (A) (A) (A)
                 (A) (A) (A) (A) (A) (A) (A) (A) (A) (A) (A) (A)
                 (A) (A) (A) (A) (A) (A) (A) (A) (A) (A) (A) (A)
                 (A) (A) (A) (A) (A) (A) (A) (A) (A) (A) (A) (A)
                 (A) (A) (A) (A) (A) (A) (A) (A) (A) (A) (A) (A)
                 (A) (A) (A) (A) (A) (A) (A) (A) (A) (A) (A) (A)
                 (A) (A) (A) (A) (A) (A) (A) (A) (A) (A) (A) (A)
                 (A) (A) (A) (A) (A) (A) (A) (A) (A) (A) (A) (A)
                 (A) (A) (A) (A) (A) (A) (A) (A) (A) (A) (A) (A)
                 (A) (A) (A) (A) (A) (A) (A) (A) (A) (A) (A) (A)
                 (A) (A) (A) (A) (A) (A) (A) (A) (A) (A) (A) (A)
                 (A) (A) (A) (A) (A) (A) (A) (A) (A) (A) (A) (A)
                 (A) (A) (A) (A) (A) (A) (A) (A) (A) (A) (A) (A)
                 (A) (A) (A) (A) (A) (A) (A) (A) (A) (A) (A) (A)
                 (A) (A) (A) (A) (A) (A) (A) (A) (A) (A) (A) (A)
                 (A) (A) (A) (A) (A) (A) (A) (A) (A) (A) (A) (A)
                 (A) (A) (A) (A) (A) (A) (A) (A) (A) (A) (A) (A)
                 (A) (A) (A) (A) (A) (A) (A) (A) (A) (A) (A) (A)
                 (A) (A) (A) (A) (A) (A) (A) (A) (A) (A) (A) (A)
                 (A) (A) (A) (A) (A) (A) (A) (A) (A) (A) (A) (A)
                 (A) (A) (A) (A) (A) (A) (A) (A) (A) (A)
 The electronic state is 1-A.
 Alpha  occ. eigenvalues --  -19.19651 -19.16723 -19.15859 -19.12947 -19.12510
 Alpha  occ. eigenvalues --  -10.26991 -10.26933 -10.26836 -10.26682 -10.25854
 Alpha  occ. eigenvalues --  -10.25836 -10.24981 -10.21332 -10.20744 -10.20660
 Alpha  occ. eigenvalues --  -10.20296 -10.19870 -10.19459 -10.19353 -10.19245
 Alpha  occ. eigenvalues --  -10.19179 -10.19093 -10.18814 -10.18720 -10.18501
 Alpha  occ. eigenvalues --  -10.18417 -10.18380 -10.18045 -10.16953 -10.16848
 Alpha  occ. eigenvalues --  -10.15440  -1.09040  -1.05918  -1.03265  -1.02561
 Alpha  occ. eigenvalues --   -1.02252  -0.86591  -0.83681  -0.82446  -0.81372
 Alpha  occ. eigenvalues --   -0.80183  -0.79418  -0.76718  -0.74196  -0.73146
 Alpha  occ. eigenvalues --   -0.71883  -0.70991  -0.70078  -0.69982  -0.67764
 Alpha  occ. eigenvalues --   -0.64938  -0.64555  -0.63055  -0.62039  -0.60530
 Alpha  occ. eigenvalues --   -0.59190  -0.58590  -0.56884  -0.54985  -0.53660
 Alpha  occ. eigenvalues --   -0.52710  -0.52101  -0.50429  -0.50228  -0.49358
 Alpha  occ. eigenvalues --   -0.47830  -0.47349  -0.46834  -0.46347  -0.45573
 Alpha  occ. eigenvalues --   -0.44996  -0.44817  -0.44366  -0.43873  -0.43672
 Alpha  occ. eigenvalues --   -0.42838  -0.42496  -0.41981  -0.41468  -0.41352
 Alpha  occ. eigenvalues --   -0.40857  -0.40630  -0.40405  -0.40116  -0.39225
 Alpha  occ. eigenvalues --   -0.39113  -0.38535  -0.38440  -0.38200  -0.37758
 Alpha  occ. eigenvalues --   -0.37604  -0.37402  -0.37132  -0.36783  -0.36722
 Alpha  occ. eigenvalues --   -0.36652  -0.36172  -0.35205  -0.34918  -0.34404
 Alpha  occ. eigenvalues --   -0.33803  -0.33647  -0.32773  -0.32346  -0.31972
 Alpha  occ. eigenvalues --   -0.31469  -0.31215  -0.31006  -0.28317  -0.27112
 Alpha  occ. eigenvalues --   -0.25670  -0.24571  -0.24105  -0.23286  -0.22802
 Alpha virt. eigenvalues --   -0.04467  -0.01122   0.00603   0.02364   0.05014
 Alpha virt. eigenvalues --    0.07102   0.08277   0.08721   0.09196   0.09989
 Alpha virt. eigenvalues --    0.10294   0.10450   0.11219   0.12261   0.12443
 Alpha virt. eigenvalues --    0.12720   0.13340   0.13901   0.14088   0.14112
 Alpha virt. eigenvalues --    0.14545   0.15012   0.15406   0.15640   0.16135
 Alpha virt. eigenvalues --    0.16378   0.16819   0.17010   0.17351   0.17373
 Alpha virt. eigenvalues --    0.17781   0.17935   0.18257   0.18480   0.18860
 Alpha virt. eigenvalues --    0.19141   0.19304   0.19430   0.19722   0.20274
 Alpha virt. eigenvalues --    0.20479   0.21082   0.21624   0.21812   0.22147
 Alpha virt. eigenvalues --    0.22509   0.22908   0.23271   0.23775   0.24302
 Alpha virt. eigenvalues --    0.24725   0.24893   0.25780   0.26277   0.27000
 Alpha virt. eigenvalues --    0.27747   0.27850   0.28360   0.28938   0.29781
 Alpha virt. eigenvalues --    0.30206   0.31623   0.32568   0.32952   0.34108
 Alpha virt. eigenvalues --    0.35107   0.36009   0.37533   0.38375   0.39696
 Alpha virt. eigenvalues --    0.42197   0.45443   0.46374   0.47785   0.48356
 Alpha virt. eigenvalues --    0.49011   0.50248   0.50831   0.51384   0.51572
 Alpha virt. eigenvalues --    0.51954   0.52016   0.52274   0.52956   0.53525
 Alpha virt. eigenvalues --    0.54201   0.54546   0.54890   0.55787   0.56182
 Alpha virt. eigenvalues --    0.56788   0.57541   0.57786   0.58496   0.58930
 Alpha virt. eigenvalues --    0.59467   0.59785   0.60608   0.61346   0.61826
 Alpha virt. eigenvalues --    0.62139   0.62381   0.63068   0.63877   0.64458
 Alpha virt. eigenvalues --    0.65643   0.66177   0.66482   0.67161   0.67785
 Alpha virt. eigenvalues --    0.68067   0.68261   0.68565   0.68767   0.69574
 Alpha virt. eigenvalues --    0.70564   0.71528   0.71767   0.72360   0.72750
 Alpha virt. eigenvalues --    0.74177   0.74753   0.74992   0.75662   0.76049
 Alpha virt. eigenvalues --    0.77017   0.77927   0.78135   0.79124   0.79694
 Alpha virt. eigenvalues --    0.80227   0.80879   0.81735   0.81943   0.82613
 Alpha virt. eigenvalues --    0.82698   0.83323   0.83902   0.84734   0.85084
 Alpha virt. eigenvalues --    0.85482   0.86209   0.86350   0.86576   0.86639
 Alpha virt. eigenvalues --    0.87067   0.87682   0.88158   0.88711   0.88906
 Alpha virt. eigenvalues --    0.89164   0.89318   0.90071   0.90278   0.90409
 Alpha virt. eigenvalues --    0.90679   0.90920   0.91548   0.92048   0.92633
 Alpha virt. eigenvalues --    0.93260   0.93498   0.93962   0.94216   0.95254
 Alpha virt. eigenvalues --    0.95305   0.95599   0.96277   0.96848   0.97268
 Alpha virt. eigenvalues --    0.97856   0.98352   0.98637   0.99191   0.99512
 Alpha virt. eigenvalues --    1.00432   1.01739   1.01978   1.02385   1.03972
 Alpha virt. eigenvalues --    1.04171   1.05425   1.06007   1.07015   1.07813
 Alpha virt. eigenvalues --    1.08883   1.09579   1.10720   1.11726   1.12796
 Alpha virt. eigenvalues --    1.13747   1.15358   1.15589   1.16741   1.17053
 Alpha virt. eigenvalues --    1.17953   1.18717   1.19237   1.20619   1.20966
 Alpha virt. eigenvalues --    1.22496   1.23578   1.24948   1.25202   1.26682
 Alpha virt. eigenvalues --    1.28176   1.29387   1.29714   1.30956   1.33165
 Alpha virt. eigenvalues --    1.33450   1.35479   1.37314   1.39466   1.39510
 Alpha virt. eigenvalues --    1.41045   1.41572   1.42431   1.45578   1.46602
 Alpha virt. eigenvalues --    1.47671   1.49105   1.49851   1.51196   1.51856
 Alpha virt. eigenvalues --    1.52683   1.54047   1.54516   1.54722   1.58210
 Alpha virt. eigenvalues --    1.59451   1.60738   1.61011   1.62627   1.64423
 Alpha virt. eigenvalues --    1.65564   1.65926   1.67532   1.68696   1.70016
 Alpha virt. eigenvalues --    1.70503   1.71538   1.72208   1.72562   1.73437
 Alpha virt. eigenvalues --    1.73864   1.74833   1.75049   1.75779   1.76354
 Alpha virt. eigenvalues --    1.77390   1.79015   1.79606   1.80435   1.80459
 Alpha virt. eigenvalues --    1.81716   1.82121   1.82665   1.84697   1.85145
 Alpha virt. eigenvalues --    1.85967   1.86070   1.86431   1.87319   1.87347
 Alpha virt. eigenvalues --    1.88498   1.89193   1.89832   1.90431   1.91746
 Alpha virt. eigenvalues --    1.92102   1.92372   1.93814   1.93929   1.95073
 Alpha virt. eigenvalues --    1.95550   1.96723   1.97091   1.97643   1.98157
 Alpha virt. eigenvalues --    1.98533   1.99083   1.99922   2.00707   2.01123
 Alpha virt. eigenvalues --    2.02213   2.03115   2.03517   2.04419   2.05515
 Alpha virt. eigenvalues --    2.06129   2.06803   2.07196   2.08975   2.09812
 Alpha virt. eigenvalues --    2.10863   2.11494   2.12063   2.12303   2.13052
 Alpha virt. eigenvalues --    2.13795   2.15023   2.15040   2.17015   2.18339
 Alpha virt. eigenvalues --    2.18934   2.19229   2.20805   2.21393   2.22107
 Alpha virt. eigenvalues --    2.23233   2.24037   2.24645   2.25538   2.26454
 Alpha virt. eigenvalues --    2.27540   2.28797   2.29281   2.31379   2.32007
 Alpha virt. eigenvalues --    2.32742   2.33361   2.34343   2.34520   2.35505
 Alpha virt. eigenvalues --    2.35663   2.36784   2.37137   2.38032   2.38710
 Alpha virt. eigenvalues --    2.39145   2.39516   2.41500   2.42014   2.42628
 Alpha virt. eigenvalues --    2.43857   2.45899   2.46351   2.47698   2.48162
 Alpha virt. eigenvalues --    2.49734   2.50232   2.51485   2.53910   2.54159
 Alpha virt. eigenvalues --    2.55121   2.56182   2.58332   2.58559   2.59679
 Alpha virt. eigenvalues --    2.60267   2.61154   2.61875   2.63577   2.64466
 Alpha virt. eigenvalues --    2.65046   2.67276   2.67682   2.68866   2.71090
 Alpha virt. eigenvalues --    2.71729   2.72497   2.73125   2.76001   2.77215
 Alpha virt. eigenvalues --    2.79338   2.79492   2.81351   2.83489   2.83819
 Alpha virt. eigenvalues --    2.87897   2.90315   2.92479   2.94166   2.95690
 Alpha virt. eigenvalues --    2.97880   2.99261   3.00747   3.02092   3.03976
 Alpha virt. eigenvalues --    3.04010   3.05988   3.12481   3.17346   3.20901
 Alpha virt. eigenvalues --    3.23427   3.28271   4.06123   4.07456   4.11597
 Alpha virt. eigenvalues --    4.11995   4.13211   4.13974   4.16718   4.18469
 Alpha virt. eigenvalues --    4.22203   4.23715   4.25253   4.28617   4.30344
 Alpha virt. eigenvalues --    4.31472   4.34738   4.36914   4.38533   4.45042
 Alpha virt. eigenvalues --    4.48103   4.50065   4.52283   4.55280   4.59656
 Alpha virt. eigenvalues --    4.60860   4.66368   4.66666   4.72032   4.79577
 Alpha virt. eigenvalues --    4.89970   5.02032   5.19358
          Condensed to atoms (all electrons):
 Mulliken atomic charges:
              1
     1  C   -0.183878
     2  C    0.194783
     3  C   -0.190384
     4  C    0.327887
     5  C   -0.049292
     6  C   -0.339266
     7  C    0.190235
     8  C    0.395704
     9  C   -0.093836
    10  C    0.427943
    11  C    0.428937
    12  O   -0.442488
    13  C   -0.173899
    14  C   -0.246734
    15  C   -0.462122
    16  O   -0.501640
    17  C   -0.163844
    18  C    0.305452
    19  O   -0.540482
    20  C   -0.321994
    21  O   -0.673168
    22  C   -0.311209
    23  C    0.076913
    24  O   -0.597211
    25  C    0.240144
    26  C   -0.546589
    27  C   -0.403932
    28  C   -0.467754
    29  C   -0.459431
    30  H    0.143627
    31  H    0.163802
    32  C   -0.519291
    33  H    0.123472
    34  H    0.146047
    35  H    0.187839
    36  H    0.157775
    37  H    0.121562
    38  H    0.144978
    39  H    0.145897
    40  H    0.154328
    41  H    0.172280
    42  H    0.168728
    43  H    0.151441
    44  H    0.433385
    45  H    0.162953
    46  H    0.169748
    47  H    0.136480
    48  H    0.174098
    49  H    0.161525
    50  H    0.166233
    51  H    0.141849
    52  H    0.142208
    53  H    0.155290
    54  H    0.143875
    55  H    0.191403
    56  H    0.164080
    57  H    0.162725
    58  H    0.150986
    59  H    0.158619
    60  H    0.157548
    61  H    0.149613
    62  C   -0.452721
    63  H    0.135657
    64  H    0.175474
    65  H    0.137646
 Sum of Mulliken atomic charges =   0.00000
 Mulliken charges with hydrogens summed into heavy atoms:
              1
     1  C   -0.060406
     2  C    0.194783
     3  C   -0.026582
     4  C    0.327887
     5  C   -0.049292
     6  C   -0.005380
     7  C    0.190235
     8  C    0.395704
     9  C   -0.093836
    10  C    0.427943
    11  C    0.428937
    12  O   -0.442488
    13  C   -0.016124
    14  C    0.019806
    15  C    0.010383
    16  O   -0.501640
    17  C   -0.020218
    18  C    0.305452
    19  O   -0.540482
    20  C   -0.001825
    21  O   -0.239783
    22  C    0.021491
    23  C    0.213392
    24  O   -0.597211
    25  C    0.240144
    26  C   -0.044734
    27  C   -0.119876
    28  C    0.022814
    29  C    0.018359
    32  C   -0.053511
    62  C   -0.003943
 Sum of Mulliken charges with hydrogens summed into heavy atoms =   0.00000
 Electronic spatial extent (au):  <R**2>=          11663.7624
 Charge=              0.0000 electrons
 Dipole moment (field-independent basis, Debye):
    X=             -4.1151    Y=              3.5230    Z=             -2.6462  Tot=              6.0289
 Quadrupole moment (field-independent basis, Debye-Ang):
   XX=           -186.2426   YY=           -176.8483   ZZ=           -183.7169
   XY=              7.2618   XZ=             -8.3908   YZ=              2.9765
 Traceless Quadrupole moment (field-independent basis, Debye-Ang):
   XX=             -3.9733   YY=              5.4209   ZZ=             -1.4476
   XY=              7.2618   XZ=             -8.3908   YZ=              2.9765
 Octapole moment (field-independent basis, Debye-Ang**2):
  XXX=            -20.0869  YYY=             56.8261  ZZZ=             -5.1485  XYY=            -15.8953
  XXY=            -18.6193  XXZ=            -39.9426  XZZ=            -29.4234  YZZ=              7.3013
  YYZ=            -21.2820  XYZ=              1.8319
 Hexadecapole moment (field-independent basis, Debye-Ang**3):
 XXXX=          -8202.2681 YYYY=          -4189.1865 ZZZZ=          -3224.8505 XXXY=            131.3643
 XXXZ=            -21.5591 YYYX=             32.2357 YYYZ=            -31.7066 ZZZX=             22.3784
 ZZZY=            -11.0467 XXYY=          -2006.5345 XXZZ=          -1895.4903 YYZZ=          -1220.0465
 XXYZ=             35.3143 YYXZ=             -9.1305 ZZXY=             41.8449
 N-N= 3.501950897330D+03 E-N=-1.023009794455D+04  KE= 1.374458570939D+03
 1\1\GINC-B0805\FOpt\RB3LYP\6-31G(d)\C26H34O5\CAOFEI\24-Mar-2021\0\\# o
 pt rb3lyp/6-31g(d) geom=connectivity\\Title Card Required\\0,1\C,0.009
 407371,-0.0191269568,0.1151125702\C,1.3452204413,-0.044821663,0.065232
 6529\C,2.1627997988,1.2282771462,0.0276590996\C,1.3717161145,2.5588339
 491,-0.1901274902\C,-0.1661286695,2.4896123377,-0.446401502\C,-0.82165
 3009,1.2293566172,0.1817043091\C,2.1475007871,3.283476555,-1.327760285
 1\C,1.6475620568,2.9320859397,-2.7084568866\C,0.3631840531,2.655808786
 3,-3.0139869307\C,-0.6222003346,2.5624496573,-1.9299309394\C,-0.099671
 0827,2.324185905,-4.4204074128\O,-0.4678989422,1.1939717304,-4.6767242
 983\C,-0.0639156484,3.4501750446,-5.452126649\C,-0.5148298864,2.980674
 4616,-6.8488526703\C,-0.8328417668,4.6863835896,-4.9366302852\O,-1.823
 5436835,2.5240613004,-2.1681562106\C,3.5632031256,2.673412822,-1.41317
 11459\C,3.9721575954,2.950985837,-2.8812553843\O,2.6636805705,2.897089
 2069,-3.5899443918\C,3.2896604781,1.2022513606,-1.0474882974\O,2.09408
 77428,4.691299455,-1.1871642036\C,-0.6726111342,3.7533491751,0.2974700
 707\C,0.2480695843,3.7984116294,1.5194628943\O,1.5357025691,3.39439752
 63,0.9913361568\C,0.3428489944,5.124449506,2.2428376853\C,1.058852203,
 6.2713110731,1.573033527\C,-0.2319529911,5.2548494641,3.4427698708\C,4
 .5548408641,4.3520223832,-3.0806616516\C,4.8561402098,1.8961646141,-3.
 5406524269\H,4.2517601193,3.1466926201,-0.706235571\H,2.6462514731,1.3
 535487688,1.007089877\C,2.1159848118,-1.3419962732,0.1005279699\H,-0.5
 33935351,-0.9619813528,0.1648783889\H,-1.0628621184,1.4306505273,1.236
 5583266\H,-1.7861668037,1.0832667476,-0.3142681745\H,0.9979156707,3.73
 70255813,-5.5178348846\H,-0.2122689288,3.7489430453,-7.5738087589\H,0.
 043037868,2.0719342929,-7.1027716453\H,-0.8398866011,5.4684108695,-5.7
 04371228\H,-0.3630655519,5.0999706102,-4.0390031818\H,-1.8696128177,4.
 4402244965,-4.6878895448\H,2.9314824246,0.6576997368,-1.9281691628\H,4
 .1844838175,0.683710546,-0.6917565122\H,2.1250691715,4.820561092,-0.21
 91340763\H,-0.5367555569,4.6464841559,-0.3202013205\H,-1.7298161755,3.
 6754517165,0.5625952518\H,-0.0715902317,3.0408985186,2.247310329\H,0.7
 100488011,6.4390385315,0.5470971237\H,0.9153362962,7.2001177759,2.1325
 737911\H,2.1399976359,6.0840531472,1.5255066364\H,-0.2412067073,6.2041
 598275,3.9718155797\H,-0.7216034807,4.4199643358,3.9381991566\H,4.6536
 052238,4.5652421799,-4.1501273966\H,5.5514186317,4.4106029038,-2.62794
 79087\H,3.9163513707,5.1087708286,-2.6213155516\H,4.4066086351,0.90146
 7629,-3.5009864089\H,5.0242890369,2.1517233956,-4.5917367085\H,5.82979
 58088,1.8593554325,-3.039547005\H,1.4412892941,-2.1982655198,0.1952519
 874\H,2.7194902256,-1.4904434247,-0.804007316\H,2.8129900508,-1.364664
 3213,0.9505854953\C,-2.0159684578,2.7037644862,-7.0009028211\H,-2.2347
 774015,2.3434737125,-8.0128316569\H,-2.3457815891,1.9395204281,-6.2921
 625373\H,-2.6163960055,3.606124499,-6.838600317\\Version=EM64L-G09RevB
 .01\State=1-A\HF=-1387.3163106\RMSD=2.844e-09\RMSF=3.344e-06\Dipole=1.
 8712596,0.5577908,1.3466461\Quadrupole=-0.2116264,0.6244859,-0.4128595
 ,-4.4886293,-7.3494114,-3.4004501\PG=C01 [X(C26H34O5)]\\@


 ERROR IS THE FORCE THAT WELDS MEN TOGETHER....
 TRUTH IS COMMUNICATED TO MEN ONLY BY DEEDS OF TRUTH.
           TOLSTOI,MY RELIGION
 Job cpu time:  0 days  4 hours 29 minutes 27.1 seconds.
 File lengths (MBytes):  RWF=    186 Int=      0 D2E=      0 Chk=     20 Scr=      1
 Normal termination of Gaussian 09 at Wed Mar 24 17:41:58 2021.
