 Entering Gaussian System, Link 0=g09
 Initial command:
 /public/software/g09/g09/l1.exe /tmp/Gau-1301.inp -scrdir=/tmp/
 Entering Link 1 = /public/software/g09/g09/l1.exe PID=      1302.
  
 Copyright (c) 1988,1990,1992,1993,1995,1998,2003,2009,2010,
            Gaussian, Inc.  All Rights Reserved.
  
 This is part of the Gaussian(R) 09 program.  It is based on
 the Gaussian(R) 03 system (copyright 2003, Gaussian, Inc.),
 the Gaussian(R) 98 system (copyright 1998, Gaussian, Inc.),
 the Gaussian(R) 94 system (copyright 1995, Gaussian, Inc.),
 the Gaussian 92(TM) system (copyright 1992, Gaussian, Inc.),
 the Gaussian 90(TM) system (copyright 1990, Gaussian, Inc.),
 the Gaussian 88(TM) system (copyright 1988, Gaussian, Inc.),
 the Gaussian 86(TM) system (copyright 1986, Carnegie Mellon
 University), and the Gaussian 82(TM) system (copyright 1983,
 Carnegie Mellon University). Gaussian is a federally registered
 trademark of Gaussian, Inc.
  
 This software contains proprietary and confidential information,
 including trade secrets, belonging to Gaussian, Inc.
  
 This software is provided under written license and may be
 used, copied, transmitted, or stored only in accord with that
 written license.
  
 The following legend is applicable only to US Government
 contracts under FAR:
  
                    RESTRICTED RIGHTS LEGEND
  
 Use, reproduction and disclosure by the US Government is
 subject to restrictions as set forth in subparagraphs (a)
 and (c) of the Commercial Computer Software - Restricted
 Rights clause in FAR 52.227-19.
  
 Gaussian, Inc.
 340 Quinnipiac St., Bldg. 40, Wallingford CT 06492
  
  
 ---------------------------------------------------------------
 Warning -- This program may not be used in any manner that
 competes with the business of Gaussian, Inc. or will provide
 assistance to any competitor of Gaussian, Inc.  The licensee
 of this program is prohibited from giving any competitor of
 Gaussian, Inc. access to this program.  By using this program,
 the user acknowledges that Gaussian, Inc. is engaged in the
 business of creating and licensing software in the field of
 computational chemistry and represents and warrants to the
 licensee that it is not a competitor of Gaussian, Inc. and that
 it will not use this program in any manner prohibited above.
 ---------------------------------------------------------------
  

 Cite this work as:
 Gaussian 09, Revision B.01,
 M. J. Frisch, G. W. Trucks, H. B. Schlegel, G. E. Scuseria, 
 M. A. Robb, J. R. Cheeseman, G. Scalmani, V. Barone, B. Mennucci, 
 G. A. Petersson, H. Nakatsuji, M. Caricato, X. Li, H. P. Hratchian, 
 A. F. Izmaylov, J. Bloino, G. Zheng, J. L. Sonnenberg, M. Hada, 
 M. Ehara, K. Toyota, R. Fukuda, J. Hasegawa, M. Ishida, T. Nakajima, 
 Y. Honda, O. Kitao, H. Nakai, T. Vreven, J. A. Montgomery, Jr., 
 J. E. Peralta, F. Ogliaro, M. Bearpark, J. J. Heyd, E. Brothers, 
 K. N. Kudin, V. N. Staroverov, T. Keith, R. Kobayashi, J. Normand, 
 K. Raghavachari, A. Rendell, J. C. Burant, S. S. Iyengar, J. Tomasi, 
 M. Cossi, N. Rega, J. M. Millam, M. Klene, J. E. Knox, J. B. Cross, 
 V. Bakken, C. Adamo, J. Jaramillo, R. Gomperts, R. E. Stratmann, 
 O. Yazyev, A. J. Austin, R. Cammi, C. Pomelli, J. W. Ochterski, 
 R. L. Martin, K. Morokuma, V. G. Zakrzewski, G. A. Voth, 
 P. Salvador, J. J. Dannenberg, S. Dapprich, A. D. Daniels, 
 O. Farkas, J. B. Foresman, J. V. Ortiz, J. Cioslowski, 
 and D. J. Fox, Gaussian, Inc., Wallingford CT, 2010.
 
 ******************************************
 Gaussian 09:  EM64L-G09RevB.01 12-Aug-2010
                24-Mar-2021 
 ******************************************
 %mem=600MW
 %nprocshared=10
 Will use up to   10 processors via shared memory.
 ---------------------------------------
 # opt rb3lyp/6-31g(d) geom=connectivity
 ---------------------------------------
 1/14=-1,18=20,19=15,26=3,38=1,57=2/1,3;
 2/9=110,12=2,17=6,18=5,40=1/2;
 3/5=1,6=6,7=1,11=2,16=1,25=1,30=1,71=1,74=-5,116=1/1,2,3;
 4//1;
 5/5=2,38=5/2;
 6/7=2,8=2,9=2,10=2,28=1/1;
 7//1,2,3,16;
 1/14=-1,18=20,19=15/3(2);
 2/9=110/2;
 99//99;
 2/9=110/2;
 3/5=1,6=6,7=1,11=2,16=1,25=1,30=1,71=1,74=-5,116=1/1,2,3;
 4/5=5,16=3/1;
 5/5=2,38=5/2;
 7//1,2,3,16;
 1/14=-1,18=20,19=15/3(-5);
 2/9=110/2;
 6/7=2,8=2,9=2,10=2,19=2,28=1/1;
 99/9=1/99;
 -------------------
 Title Card Required
 -------------------
 Symbolic Z-matrix:
 Charge =  0 Multiplicity = 1
 C                     0.        0.        0. 
 C                     1.3415    0.        0. 
 C                     2.1326    1.2887    0. 
 C                     1.3355    2.5797   -0.3489 
 C                    -0.1567    2.445    -0.6856 
 C                    -0.8237    1.2467    0.0226 
 C                     2.1391    3.2475   -1.4812 
 C                     1.7822    2.8063   -2.8608 
 C                     0.559     2.3913   -3.2103 
 C                    -0.5057    2.371    -2.1799 
 C                     0.3032    1.9144   -4.5973 
 O                     0.606     2.6093   -5.5664 
 C                    -0.297     0.5178   -4.7544 
 C                    -1.6299    0.5588   -5.5195 
 C                     0.7454   -0.4109   -5.3715 
 O                    -1.6814    2.2803   -2.5418 
 C                     3.5547    2.7188   -1.4021 
 C                     4.0582    2.8902   -2.85 
 O                     2.8959    2.6728   -3.688 
 C                     3.3281    1.261    -0.9694 
 O                     2.0774    4.6608   -1.419 
 C                    -0.7212    3.7557   -0.1357 
 C                     0.1119    3.9902    1.1162 
 O                     1.4179    3.4658    0.8123 
 C                     0.1822    5.4319    1.5717 
 C                    -1.1425    6.117     1.7837 
 C                     1.3285    6.0853    1.8317 
 C                     4.6024    4.2993   -3.1346 
 C                     5.1355    1.874    -3.2462 
 H                     4.1789    3.2526   -0.6765 
 H                     2.5453    1.3989    1.0137 
 C                     2.1113   -1.29      0.1069 
 H                    -0.546    -0.9402    0.0566 
 H                    -1.7952    1.0199   -0.434 
 H                    -1.0448    1.4682    1.0737 
 H                    -0.5181    0.1273   -3.7528 
 H                    -2.2563    1.3656   -5.12 
 H                    -2.1688   -0.3775   -5.3267 
 H                     1.1029   -0.0412   -6.3383 
 H                     0.3377   -1.4169   -5.513 
 H                     1.6209   -0.4903   -4.7169 
 H                     3.0997    0.6166   -1.827 
 H                     4.2254    0.852    -0.4911 
 H                     2.1502    4.893    -0.4729 
 H                    -1.7937    3.7062    0.0849 
 H                    -0.5813    4.5713   -0.8577 
 H                    -0.2794    3.3941    1.9494 
 H                    -1.6733    6.2347    0.8339 
 H                    -1.7682    5.53      2.464 
 H                    -1.0265    7.1142    2.2219 
 H                     2.2988    5.61      1.7322 
 H                     1.3288    7.1163    2.1731 
 H                     4.9497    4.3751   -4.172 
 H                     5.4408    4.542    -2.4738 
 H                     3.8392    5.0746   -3.0294 
 H                     5.4828    2.0573   -4.27 
 H                     5.9992    1.9268   -2.5757 
 H                     4.7537    0.8484   -3.2517 
 H                     1.452    -2.15      0.2667 
 H                     2.6825   -1.4802   -0.8067 
 H                     2.8056   -1.248     0.9524 
 C                    -1.5252    0.7326   -7.0292 
 H                    -2.5281    0.7769   -7.4669 
 H                    -1.0069    1.6565   -7.2979 
 H                    -1.0031   -0.1085   -7.4948 
 

 GradGradGradGradGradGradGradGradGradGradGradGradGradGradGradGradGradGrad
 Berny optimization.
 Initialization pass.
                           ----------------------------
                           !    Initial Parameters    !
                           ! (Angstroms and Degrees)  !
 --------------------------                            --------------------------
 ! Name  Definition              Value          Derivative Info.                !
 --------------------------------------------------------------------------------
 ! R1    R(1,2)                  1.3415         estimate D2E/DX2                !
 ! R2    R(1,6)                  1.4944         estimate D2E/DX2                !
 ! R3    R(1,33)                 1.0887         estimate D2E/DX2                !
 ! R4    R(2,3)                  1.5121         estimate D2E/DX2                !
 ! R5    R(2,32)                 1.506          estimate D2E/DX2                !
 ! R6    R(3,4)                  1.5568         estimate D2E/DX2                !
 ! R7    R(3,20)                 1.5394         estimate D2E/DX2                !
 ! R8    R(3,31)                 1.1            estimate D2E/DX2                !
 ! R9    R(4,5)                  1.5356         estimate D2E/DX2                !
 ! R10   R(4,7)                  1.5407         estimate D2E/DX2                !
 ! R11   R(4,24)                 1.463          estimate D2E/DX2                !
 ! R12   R(5,6)                  1.5435         estimate D2E/DX2                !
 ! R13   R(5,10)                 1.5363         estimate D2E/DX2                !
 ! R14   R(5,22)                 1.5294         estimate D2E/DX2                !
 ! R15   R(6,34)                 1.0971         estimate D2E/DX2                !
 ! R16   R(6,35)                 1.0967         estimate D2E/DX2                !
 ! R17   R(7,8)                  1.4918         estimate D2E/DX2                !
 ! R18   R(7,17)                 1.5132         estimate D2E/DX2                !
 ! R19   R(7,21)                 1.416          estimate D2E/DX2                !
 ! R20   R(8,9)                  1.3381         estimate D2E/DX2                !
 ! R21   R(8,19)                 1.3937         estimate D2E/DX2                !
 ! R22   R(9,10)                 1.4818         estimate D2E/DX2                !
 ! R23   R(9,11)                 1.4888         estimate D2E/DX2                !
 ! R24   R(10,16)                1.2335         estimate D2E/DX2                !
 ! R25   R(11,12)                1.2303         estimate D2E/DX2                !
 ! R26   R(11,13)                1.5282         estimate D2E/DX2                !
 ! R27   R(13,14)                1.5374         estimate D2E/DX2                !
 ! R28   R(13,15)                1.5264         estimate D2E/DX2                !
 ! R29   R(13,36)                1.0975         estimate D2E/DX2                !
 ! R30   R(14,37)                1.0968         estimate D2E/DX2                !
 ! R31   R(14,38)                1.0974         estimate D2E/DX2                !
 ! R32   R(14,62)                1.5233         estimate D2E/DX2                !
 ! R33   R(15,39)                1.0951         estimate D2E/DX2                !
 ! R34   R(15,40)                1.0947         estimate D2E/DX2                !
 ! R35   R(15,41)                1.096          estimate D2E/DX2                !
 ! R36   R(17,18)                1.5425         estimate D2E/DX2                !
 ! R37   R(17,20)                1.5375         estimate D2E/DX2                !
 ! R38   R(17,30)                1.0959         estimate D2E/DX2                !
 ! R39   R(18,19)                1.4493         estimate D2E/DX2                !
 ! R40   R(18,28)                1.5371         estimate D2E/DX2                !
 ! R41   R(18,29)                1.533          estimate D2E/DX2                !
 ! R42   R(20,42)                1.0968         estimate D2E/DX2                !
 ! R43   R(20,43)                1.096          estimate D2E/DX2                !
 ! R44   R(21,44)                0.9769         estimate D2E/DX2                !
 ! R45   R(22,23)                1.5219         estimate D2E/DX2                !
 ! R46   R(22,45)                1.0961         estimate D2E/DX2                !
 ! R47   R(22,46)                1.0982         estimate D2E/DX2                !
 ! R48   R(23,24)                1.4398         estimate D2E/DX2                !
 ! R49   R(23,25)                1.5136         estimate D2E/DX2                !
 ! R50   R(23,47)                1.0967         estimate D2E/DX2                !
 ! R51   R(25,26)                1.5064         estimate D2E/DX2                !
 ! R52   R(25,27)                1.3448         estimate D2E/DX2                !
 ! R53   R(26,48)                1.0944         estimate D2E/DX2                !
 ! R54   R(26,49)                1.0949         estimate D2E/DX2                !
 ! R55   R(26,50)                1.0954         estimate D2E/DX2                !
 ! R56   R(27,51)                1.085          estimate D2E/DX2                !
 ! R57   R(27,52)                1.0861         estimate D2E/DX2                !
 ! R58   R(28,53)                1.0966         estimate D2E/DX2                !
 ! R59   R(28,54)                1.0947         estimate D2E/DX2                !
 ! R60   R(28,55)                1.093          estimate D2E/DX2                !
 ! R61   R(29,56)                1.0965         estimate D2E/DX2                !
 ! R62   R(29,57)                1.0947         estimate D2E/DX2                !
 ! R63   R(29,58)                1.0944         estimate D2E/DX2                !
 ! R64   R(32,59)                1.0954         estimate D2E/DX2                !
 ! R65   R(32,60)                1.0941         estimate D2E/DX2                !
 ! R66   R(32,61)                1.0948         estimate D2E/DX2                !
 ! R67   R(62,63)                1.0951         estimate D2E/DX2                !
 ! R68   R(62,64)                1.0929         estimate D2E/DX2                !
 ! R69   R(62,65)                1.094          estimate D2E/DX2                !
 ! A1    A(2,1,6)              123.4486         estimate D2E/DX2                !
 ! A2    A(2,1,33)             120.0999         estimate D2E/DX2                !
 ! A3    A(6,1,33)             116.3102         estimate D2E/DX2                !
 ! A4    A(1,2,3)              121.5447         estimate D2E/DX2                !
 ! A5    A(1,2,32)             120.7402         estimate D2E/DX2                !
 ! A6    A(3,2,32)             117.5533         estimate D2E/DX2                !
 ! A7    A(2,3,4)              116.0303         estimate D2E/DX2                !
 ! A8    A(2,3,20)             113.014          estimate D2E/DX2                !
 ! A9    A(2,3,31)             106.3589         estimate D2E/DX2                !
 ! A10   A(4,3,20)             105.7484         estimate D2E/DX2                !
 ! A11   A(4,3,31)             108.3931         estimate D2E/DX2                !
 ! A12   A(20,3,31)            106.903          estimate D2E/DX2                !
 ! A13   A(3,4,5)              118.2886         estimate D2E/DX2                !
 ! A14   A(3,4,7)              104.8966         estimate D2E/DX2                !
 ! A15   A(3,4,24)             107.1897         estimate D2E/DX2                !
 ! A16   A(5,4,7)              112.5633         estimate D2E/DX2                !
 ! A17   A(5,4,24)             106.3728         estimate D2E/DX2                !
 ! A18   A(7,4,24)             106.9428         estimate D2E/DX2                !
 ! A19   A(4,5,6)              112.7936         estimate D2E/DX2                !
 ! A20   A(4,5,10)             115.9912         estimate D2E/DX2                !
 ! A21   A(4,5,22)             101.8093         estimate D2E/DX2                !
 ! A22   A(6,5,10)             108.1028         estimate D2E/DX2                !
 ! A23   A(6,5,22)             109.93           estimate D2E/DX2                !
 ! A24   A(10,5,22)            107.8882         estimate D2E/DX2                !
 ! A25   A(1,6,5)              113.7373         estimate D2E/DX2                !
 ! A26   A(1,6,34)             108.0181         estimate D2E/DX2                !
 ! A27   A(1,6,35)             107.104          estimate D2E/DX2                !
 ! A28   A(5,6,34)             110.6209         estimate D2E/DX2                !
 ! A29   A(5,6,35)             111.7201         estimate D2E/DX2                !
 ! A30   A(34,6,35)            105.1947         estimate D2E/DX2                !
 ! A31   A(4,7,8)              115.2573         estimate D2E/DX2                !
 ! A32   A(4,7,17)             107.3424         estimate D2E/DX2                !
 ! A33   A(4,7,21)             112.1847         estimate D2E/DX2                !
 ! A34   A(8,7,17)              99.7196         estimate D2E/DX2                !
 ! A35   A(8,7,21)             108.9893         estimate D2E/DX2                !
 ! A36   A(17,7,21)            112.7801         estimate D2E/DX2                !
 ! A37   A(7,8,9)              123.5025         estimate D2E/DX2                !
 ! A38   A(7,8,19)             112.709          estimate D2E/DX2                !
 ! A39   A(9,8,19)             123.0748         estimate D2E/DX2                !
 ! A40   A(8,9,10)             118.6485         estimate D2E/DX2                !
 ! A41   A(8,9,11)             119.9812         estimate D2E/DX2                !
 ! A42   A(10,9,11)            121.3302         estimate D2E/DX2                !
 ! A43   A(5,10,9)             120.829          estimate D2E/DX2                !
 ! A44   A(5,10,16)            120.3611         estimate D2E/DX2                !
 ! A45   A(9,10,16)            118.8063         estimate D2E/DX2                !
 ! A46   A(9,11,12)            120.7033         estimate D2E/DX2                !
 ! A47   A(9,11,13)            117.128          estimate D2E/DX2                !
 ! A48   A(12,11,13)           122.1307         estimate D2E/DX2                !
 ! A49   A(11,13,14)           111.5484         estimate D2E/DX2                !
 ! A50   A(11,13,15)           109.2309         estimate D2E/DX2                !
 ! A51   A(11,13,36)           108.0871         estimate D2E/DX2                !
 ! A52   A(14,13,15)           114.0227         estimate D2E/DX2                !
 ! A53   A(14,13,36)           106.7973         estimate D2E/DX2                !
 ! A54   A(15,13,36)           106.8607         estimate D2E/DX2                !
 ! A55   A(13,14,37)           109.4814         estimate D2E/DX2                !
 ! A56   A(13,14,38)           108.3948         estimate D2E/DX2                !
 ! A57   A(13,14,62)           115.8915         estimate D2E/DX2                !
 ! A58   A(37,14,38)           106.4495         estimate D2E/DX2                !
 ! A59   A(37,14,62)           108.4412         estimate D2E/DX2                !
 ! A60   A(38,14,62)           107.7719         estimate D2E/DX2                !
 ! A61   A(13,15,39)           111.9914         estimate D2E/DX2                !
 ! A62   A(13,15,40)           110.9197         estimate D2E/DX2                !
 ! A63   A(13,15,41)           110.3725         estimate D2E/DX2                !
 ! A64   A(39,15,40)           108.5255         estimate D2E/DX2                !
 ! A65   A(39,15,41)           106.9158         estimate D2E/DX2                !
 ! A66   A(40,15,41)           107.9465         estimate D2E/DX2                !
 ! A67   A(7,17,18)            102.5609         estimate D2E/DX2                !
 ! A68   A(7,17,20)            102.0125         estimate D2E/DX2                !
 ! A69   A(7,17,30)            113.4071         estimate D2E/DX2                !
 ! A70   A(18,17,20)           114.6864         estimate D2E/DX2                !
 ! A71   A(18,17,30)           112.4231         estimate D2E/DX2                !
 ! A72   A(20,17,30)           111.0664         estimate D2E/DX2                !
 ! A73   A(17,18,19)           105.3256         estimate D2E/DX2                !
 ! A74   A(17,18,28)           113.0309         estimate D2E/DX2                !
 ! A75   A(17,18,29)           113.4729         estimate D2E/DX2                !
 ! A76   A(19,18,28)           108.3238         estimate D2E/DX2                !
 ! A77   A(19,18,29)           108.3427         estimate D2E/DX2                !
 ! A78   A(28,18,29)           108.1207         estimate D2E/DX2                !
 ! A79   A(8,19,18)            106.4574         estimate D2E/DX2                !
 ! A80   A(3,20,17)            105.94           estimate D2E/DX2                !
 ! A81   A(3,20,42)            109.9532         estimate D2E/DX2                !
 ! A82   A(3,20,43)            111.5745         estimate D2E/DX2                !
 ! A83   A(17,20,42)           111.5758         estimate D2E/DX2                !
 ! A84   A(17,20,43)           110.8547         estimate D2E/DX2                !
 ! A85   A(42,20,43)           107.0064         estimate D2E/DX2                !
 ! A86   A(7,21,44)            106.0533         estimate D2E/DX2                !
 ! A87   A(5,22,23)            103.0479         estimate D2E/DX2                !
 ! A88   A(5,22,45)            113.2554         estimate D2E/DX2                !
 ! A89   A(5,22,46)            110.6752         estimate D2E/DX2                !
 ! A90   A(23,22,45)           112.1496         estimate D2E/DX2                !
 ! A91   A(23,22,46)           110.893          estimate D2E/DX2                !
 ! A92   A(45,22,46)           106.8884         estimate D2E/DX2                !
 ! A93   A(22,23,24)           105.4732         estimate D2E/DX2                !
 ! A94   A(22,23,25)           114.8177         estimate D2E/DX2                !
 ! A95   A(22,23,47)           110.236          estimate D2E/DX2                !
 ! A96   A(24,23,25)           111.6117         estimate D2E/DX2                !
 ! A97   A(24,23,47)           106.6212         estimate D2E/DX2                !
 ! A98   A(25,23,47)           107.7987         estimate D2E/DX2                !
 ! A99   A(4,24,23)            109.6968         estimate D2E/DX2                !
 ! A100  A(23,25,26)           115.7671         estimate D2E/DX2                !
 ! A101  A(23,25,27)           124.0948         estimate D2E/DX2                !
 ! A102  A(26,25,27)           120.093          estimate D2E/DX2                !
 ! A103  A(25,26,48)           110.6889         estimate D2E/DX2                !
 ! A104  A(25,26,49)           110.2522         estimate D2E/DX2                !
 ! A105  A(25,26,50)           112.1608         estimate D2E/DX2                !
 ! A106  A(48,26,49)           108.6458         estimate D2E/DX2                !
 ! A107  A(48,26,50)           107.4959         estimate D2E/DX2                !
 ! A108  A(49,26,50)           107.4584         estimate D2E/DX2                !
 ! A109  A(25,27,51)           122.1196         estimate D2E/DX2                !
 ! A110  A(25,27,52)           121.483          estimate D2E/DX2                !
 ! A111  A(51,27,52)           116.3866         estimate D2E/DX2                !
 ! A112  A(18,28,53)           110.5268         estimate D2E/DX2                !
 ! A113  A(18,28,54)           111.2606         estimate D2E/DX2                !
 ! A114  A(18,28,55)           112.6579         estimate D2E/DX2                !
 ! A115  A(53,28,54)           108.2491         estimate D2E/DX2                !
 ! A116  A(53,28,55)           105.2579         estimate D2E/DX2                !
 ! A117  A(54,28,55)           108.627          estimate D2E/DX2                !
 ! A118  A(18,29,56)           110.6747         estimate D2E/DX2                !
 ! A119  A(18,29,57)           111.3568         estimate D2E/DX2                !
 ! A120  A(18,29,58)           112.1694         estimate D2E/DX2                !
 ! A121  A(56,29,57)           108.2956         estimate D2E/DX2                !
 ! A122  A(56,29,58)           105.2163         estimate D2E/DX2                !
 ! A123  A(57,29,58)           108.8772         estimate D2E/DX2                !
 ! A124  A(2,32,59)            112.037          estimate D2E/DX2                !
 ! A125  A(2,32,60)            110.8843         estimate D2E/DX2                !
 ! A126  A(2,32,61)            110.2491         estimate D2E/DX2                !
 ! A127  A(59,32,60)           107.4313         estimate D2E/DX2                !
 ! A128  A(59,32,61)           107.4068         estimate D2E/DX2                !
 ! A129  A(60,32,61)           108.6895         estimate D2E/DX2                !
 ! A130  A(14,62,63)           109.7418         estimate D2E/DX2                !
 ! A131  A(14,62,64)           111.8834         estimate D2E/DX2                !
 ! A132  A(14,62,65)           111.5237         estimate D2E/DX2                !
 ! A133  A(63,62,64)           107.568          estimate D2E/DX2                !
 ! A134  A(63,62,65)           107.3401         estimate D2E/DX2                !
 ! A135  A(64,62,65)           108.6013         estimate D2E/DX2                !
 ! D1    D(6,1,2,3)             -1.0385         estimate D2E/DX2                !
 ! D2    D(6,1,2,32)           174.2243         estimate D2E/DX2                !
 ! D3    D(33,1,2,3)          -176.555          estimate D2E/DX2                !
 ! D4    D(33,1,2,32)           -1.2921         estimate D2E/DX2                !
 ! D5    D(2,1,6,5)             31.0994         estimate D2E/DX2                !
 ! D6    D(2,1,6,34)           154.3025         estimate D2E/DX2                !
 ! D7    D(2,1,6,35)           -92.8388         estimate D2E/DX2                !
 ! D8    D(33,1,6,5)          -153.2276         estimate D2E/DX2                !
 ! D9    D(33,1,6,34)          -30.0245         estimate D2E/DX2                !
 ! D10   D(33,1,6,35)           82.8343         estimate D2E/DX2                !
 ! D11   D(1,2,3,4)            -14.4423         estimate D2E/DX2                !
 ! D12   D(1,2,3,20)          -136.8285         estimate D2E/DX2                !
 ! D13   D(1,2,3,31)           106.1769         estimate D2E/DX2                !
 ! D14   D(32,2,3,4)           170.1498         estimate D2E/DX2                !
 ! D15   D(32,2,3,20)           47.7636         estimate D2E/DX2                !
 ! D16   D(32,2,3,31)          -69.231          estimate D2E/DX2                !
 ! D17   D(1,2,32,59)           -4.9852         estimate D2E/DX2                !
 ! D18   D(1,2,32,60)          115.0372         estimate D2E/DX2                !
 ! D19   D(1,2,32,61)         -124.5439         estimate D2E/DX2                !
 ! D20   D(3,2,32,59)          170.4616         estimate D2E/DX2                !
 ! D21   D(3,2,32,60)          -69.516          estimate D2E/DX2                !
 ! D22   D(3,2,32,61)           50.9028         estimate D2E/DX2                !
 ! D23   D(2,3,4,5)             -1.1215         estimate D2E/DX2                !
 ! D24   D(2,3,4,7)           -127.5675         estimate D2E/DX2                !
 ! D25   D(2,3,4,24)           118.9829         estimate D2E/DX2                !
 ! D26   D(20,3,4,5)           125.0203         estimate D2E/DX2                !
 ! D27   D(20,3,4,7)            -1.4257         estimate D2E/DX2                !
 ! D28   D(20,3,4,24)         -114.8754         estimate D2E/DX2                !
 ! D29   D(31,3,4,5)          -120.6412         estimate D2E/DX2                !
 ! D30   D(31,3,4,7)           112.9128         estimate D2E/DX2                !
 ! D31   D(31,3,4,24)           -0.5369         estimate D2E/DX2                !
 ! D32   D(2,3,20,17)          151.5066         estimate D2E/DX2                !
 ! D33   D(2,3,20,42)           30.8062         estimate D2E/DX2                !
 ! D34   D(2,3,20,43)          -87.7587         estimate D2E/DX2                !
 ! D35   D(4,3,20,17)           23.5421         estimate D2E/DX2                !
 ! D36   D(4,3,20,42)          -97.1584         estimate D2E/DX2                !
 ! D37   D(4,3,20,43)          144.2768         estimate D2E/DX2                !
 ! D38   D(31,3,20,17)         -91.82           estimate D2E/DX2                !
 ! D39   D(31,3,20,42)         147.4795         estimate D2E/DX2                !
 ! D40   D(31,3,20,43)          28.9147         estimate D2E/DX2                !
 ! D41   D(3,4,5,6)             29.154          estimate D2E/DX2                !
 ! D42   D(3,4,5,10)           -96.2859         estimate D2E/DX2                !
 ! D43   D(3,4,5,22)           146.9032         estimate D2E/DX2                !
 ! D44   D(7,4,5,6)            151.8214         estimate D2E/DX2                !
 ! D45   D(7,4,5,10)            26.3815         estimate D2E/DX2                !
 ! D46   D(7,4,5,22)           -90.4294         estimate D2E/DX2                !
 ! D47   D(24,4,5,6)           -91.3717         estimate D2E/DX2                !
 ! D48   D(24,4,5,10)          143.1884         estimate D2E/DX2                !
 ! D49   D(24,4,5,22)           26.3775         estimate D2E/DX2                !
 ! D50   D(3,4,7,8)             88.3482         estimate D2E/DX2                !
 ! D51   D(3,4,7,17)           -21.7049         estimate D2E/DX2                !
 ! D52   D(3,4,7,21)          -146.1354         estimate D2E/DX2                !
 ! D53   D(5,4,7,8)            -41.5611         estimate D2E/DX2                !
 ! D54   D(5,4,7,17)          -151.6143         estimate D2E/DX2                !
 ! D55   D(5,4,7,21)            83.9553         estimate D2E/DX2                !
 ! D56   D(24,4,7,8)          -158.028          estimate D2E/DX2                !
 ! D57   D(24,4,7,17)           91.9188         estimate D2E/DX2                !
 ! D58   D(24,4,7,21)          -32.5116         estimate D2E/DX2                !
 ! D59   D(3,4,24,23)         -133.5356         estimate D2E/DX2                !
 ! D60   D(5,4,24,23)           -6.0958         estimate D2E/DX2                !
 ! D61   D(7,4,24,23)          114.4064         estimate D2E/DX2                !
 ! D62   D(4,5,6,1)            -43.213          estimate D2E/DX2                !
 ! D63   D(4,5,6,34)          -164.9828         estimate D2E/DX2                !
 ! D64   D(4,5,6,35)            78.1875         estimate D2E/DX2                !
 ! D65   D(10,5,6,1)            86.3917         estimate D2E/DX2                !
 ! D66   D(10,5,6,34)          -35.3782         estimate D2E/DX2                !
 ! D67   D(10,5,6,35)         -152.2079         estimate D2E/DX2                !
 ! D68   D(22,5,6,1)          -156.0743         estimate D2E/DX2                !
 ! D69   D(22,5,6,34)           82.1558         estimate D2E/DX2                !
 ! D70   D(22,5,6,35)          -34.6739         estimate D2E/DX2                !
 ! D71   D(4,5,10,9)             1.6896         estimate D2E/DX2                !
 ! D72   D(4,5,10,16)         -179.017          estimate D2E/DX2                !
 ! D73   D(6,5,10,9)          -126.1048         estimate D2E/DX2                !
 ! D74   D(6,5,10,16)           53.1886         estimate D2E/DX2                !
 ! D75   D(22,5,10,9)          115.056          estimate D2E/DX2                !
 ! D76   D(22,5,10,16)         -65.6506         estimate D2E/DX2                !
 ! D77   D(4,5,22,23)          -35.9451         estimate D2E/DX2                !
 ! D78   D(4,5,22,45)         -157.3334         estimate D2E/DX2                !
 ! D79   D(4,5,22,46)           82.6574         estimate D2E/DX2                !
 ! D80   D(6,5,22,23)           83.8443         estimate D2E/DX2                !
 ! D81   D(6,5,22,45)          -37.544          estimate D2E/DX2                !
 ! D82   D(6,5,22,46)         -157.5532         estimate D2E/DX2                !
 ! D83   D(10,5,22,23)        -158.4883         estimate D2E/DX2                !
 ! D84   D(10,5,22,45)          80.1233         estimate D2E/DX2                !
 ! D85   D(10,5,22,46)         -39.8858         estimate D2E/DX2                !
 ! D86   D(4,7,8,9)             29.7471         estimate D2E/DX2                !
 ! D87   D(4,7,8,19)          -140.8227         estimate D2E/DX2                !
 ! D88   D(17,7,8,9)           144.2791         estimate D2E/DX2                !
 ! D89   D(17,7,8,19)          -26.2907         estimate D2E/DX2                !
 ! D90   D(21,7,8,9)           -97.4016         estimate D2E/DX2                !
 ! D91   D(21,7,8,19)           92.0286         estimate D2E/DX2                !
 ! D92   D(4,7,17,18)          154.859          estimate D2E/DX2                !
 ! D93   D(4,7,17,20)           35.8542         estimate D2E/DX2                !
 ! D94   D(4,7,17,30)          -83.6549         estimate D2E/DX2                !
 ! D95   D(8,7,17,18)           34.3946         estimate D2E/DX2                !
 ! D96   D(8,7,17,20)          -84.6102         estimate D2E/DX2                !
 ! D97   D(8,7,17,30)          155.8806         estimate D2E/DX2                !
 ! D98   D(21,7,17,18)         -81.0725         estimate D2E/DX2                !
 ! D99   D(21,7,17,20)         159.9228         estimate D2E/DX2                !
 ! D100  D(21,7,17,30)          40.4136         estimate D2E/DX2                !
 ! D101  D(4,7,21,44)           40.7359         estimate D2E/DX2                !
 ! D102  D(8,7,21,44)          169.6122         estimate D2E/DX2                !
 ! D103  D(17,7,21,44)         -80.6229         estimate D2E/DX2                !
 ! D104  D(7,8,9,10)             0.2703         estimate D2E/DX2                !
 ! D105  D(7,8,9,11)          -177.4585         estimate D2E/DX2                !
 ! D106  D(19,8,9,10)          169.8789         estimate D2E/DX2                !
 ! D107  D(19,8,9,11)           -7.8499         estimate D2E/DX2                !
 ! D108  D(7,8,19,18)            5.6752         estimate D2E/DX2                !
 ! D109  D(9,8,19,18)         -164.9412         estimate D2E/DX2                !
 ! D110  D(8,9,10,5)           -16.5543         estimate D2E/DX2                !
 ! D111  D(8,9,10,16)          164.1415         estimate D2E/DX2                !
 ! D112  D(11,9,10,5)          161.1425         estimate D2E/DX2                !
 ! D113  D(11,9,10,16)         -18.1617         estimate D2E/DX2                !
 ! D114  D(8,9,11,12)          -52.87           estimate D2E/DX2                !
 ! D115  D(8,9,11,13)          124.933          estimate D2E/DX2                !
 ! D116  D(10,9,11,12)         129.4635         estimate D2E/DX2                !
 ! D117  D(10,9,11,13)         -52.7335         estimate D2E/DX2                !
 ! D118  D(9,11,13,14)         121.8278         estimate D2E/DX2                !
 ! D119  D(9,11,13,15)        -111.2085         estimate D2E/DX2                !
 ! D120  D(9,11,13,36)           4.7097         estimate D2E/DX2                !
 ! D121  D(12,11,13,14)        -60.4029         estimate D2E/DX2                !
 ! D122  D(12,11,13,15)         66.5608         estimate D2E/DX2                !
 ! D123  D(12,11,13,36)       -177.521          estimate D2E/DX2                !
 ! D124  D(11,13,14,37)        -46.1114         estimate D2E/DX2                !
 ! D125  D(11,13,14,38)       -161.8447         estimate D2E/DX2                !
 ! D126  D(11,13,14,62)         76.8919         estimate D2E/DX2                !
 ! D127  D(15,13,14,37)       -170.4242         estimate D2E/DX2                !
 ! D128  D(15,13,14,38)         73.8425         estimate D2E/DX2                !
 ! D129  D(15,13,14,62)        -47.4209         estimate D2E/DX2                !
 ! D130  D(36,13,14,37)         71.7849         estimate D2E/DX2                !
 ! D131  D(36,13,14,38)        -43.9484         estimate D2E/DX2                !
 ! D132  D(36,13,14,62)       -165.2118         estimate D2E/DX2                !
 ! D133  D(11,13,15,39)        -57.5835         estimate D2E/DX2                !
 ! D134  D(11,13,15,40)       -178.9973         estimate D2E/DX2                !
 ! D135  D(11,13,15,41)         61.4097         estimate D2E/DX2                !
 ! D136  D(14,13,15,39)         67.9629         estimate D2E/DX2                !
 ! D137  D(14,13,15,40)        -53.4509         estimate D2E/DX2                !
 ! D138  D(14,13,15,41)       -173.0439         estimate D2E/DX2                !
 ! D139  D(36,13,15,39)       -174.2826         estimate D2E/DX2                !
 ! D140  D(36,13,15,40)         64.3036         estimate D2E/DX2                !
 ! D141  D(36,13,15,41)        -55.2894         estimate D2E/DX2                !
 ! D142  D(13,14,62,63)       -178.3984         estimate D2E/DX2                !
 ! D143  D(13,14,62,64)        -59.0753         estimate D2E/DX2                !
 ! D144  D(13,14,62,65)         62.7903         estimate D2E/DX2                !
 ! D145  D(37,14,62,63)        -54.8505         estimate D2E/DX2                !
 ! D146  D(37,14,62,64)         64.4726         estimate D2E/DX2                !
 ! D147  D(37,14,62,65)       -173.6618         estimate D2E/DX2                !
 ! D148  D(38,14,62,63)         60.0054         estimate D2E/DX2                !
 ! D149  D(38,14,62,64)        179.3284         estimate D2E/DX2                !
 ! D150  D(38,14,62,65)        -58.806          estimate D2E/DX2                !
 ! D151  D(7,17,18,19)         -33.4367         estimate D2E/DX2                !
 ! D152  D(7,17,18,28)          84.6438         estimate D2E/DX2                !
 ! D153  D(7,17,18,29)        -151.7797         estimate D2E/DX2                !
 ! D154  D(20,17,18,19)         76.2631         estimate D2E/DX2                !
 ! D155  D(20,17,18,28)       -165.6563         estimate D2E/DX2                !
 ! D156  D(20,17,18,29)        -42.0798         estimate D2E/DX2                !
 ! D157  D(30,17,18,19)       -155.5931         estimate D2E/DX2                !
 ! D158  D(30,17,18,28)        -37.5126         estimate D2E/DX2                !
 ! D159  D(30,17,18,29)         86.0639         estimate D2E/DX2                !
 ! D160  D(7,17,20,3)          -36.3943         estimate D2E/DX2                !
 ! D161  D(7,17,20,42)          83.2479         estimate D2E/DX2                !
 ! D162  D(7,17,20,43)        -157.5946         estimate D2E/DX2                !
 ! D163  D(18,17,20,3)        -146.4248         estimate D2E/DX2                !
 ! D164  D(18,17,20,42)        -26.7826         estimate D2E/DX2                !
 ! D165  D(18,17,20,43)         92.375          estimate D2E/DX2                !
 ! D166  D(30,17,20,3)          84.7508         estimate D2E/DX2                !
 ! D167  D(30,17,20,42)       -155.607          estimate D2E/DX2                !
 ! D168  D(30,17,20,43)        -36.4495         estimate D2E/DX2                !
 ! D169  D(17,18,19,8)          17.4834         estimate D2E/DX2                !
 ! D170  D(28,18,19,8)        -103.72           estimate D2E/DX2                !
 ! D171  D(29,18,19,8)         139.2169         estimate D2E/DX2                !
 ! D172  D(17,18,28,53)        179.9101         estimate D2E/DX2                !
 ! D173  D(17,18,28,54)         59.6131         estimate D2E/DX2                !
 ! D174  D(17,18,28,55)        -62.6508         estimate D2E/DX2                !
 ! D175  D(19,18,28,53)        -63.7738         estimate D2E/DX2                !
 ! D176  D(19,18,28,54)        175.9292         estimate D2E/DX2                !
 ! D177  D(19,18,28,55)         53.6653         estimate D2E/DX2                !
 ! D178  D(29,18,28,53)         53.4319         estimate D2E/DX2                !
 ! D179  D(29,18,28,54)        -66.865          estimate D2E/DX2                !
 ! D180  D(29,18,28,55)        170.8711         estimate D2E/DX2                !
 ! D181  D(17,18,29,56)       -178.1701         estimate D2E/DX2                !
 ! D182  D(17,18,29,57)        -57.6509         estimate D2E/DX2                !
 ! D183  D(17,18,29,58)         64.6563         estimate D2E/DX2                !
 ! D184  D(19,18,29,56)         65.2435         estimate D2E/DX2                !
 ! D185  D(19,18,29,57)       -174.2373         estimate D2E/DX2                !
 ! D186  D(19,18,29,58)        -51.93           estimate D2E/DX2                !
 ! D187  D(28,18,29,56)        -51.95           estimate D2E/DX2                !
 ! D188  D(28,18,29,57)         68.5692         estimate D2E/DX2                !
 ! D189  D(28,18,29,58)       -169.1236         estimate D2E/DX2                !
 ! D190  D(5,22,23,24)          33.482          estimate D2E/DX2                !
 ! D191  D(5,22,23,25)         156.7848         estimate D2E/DX2                !
 ! D192  D(5,22,23,47)         -81.25           estimate D2E/DX2                !
 ! D193  D(45,22,23,24)        155.6176         estimate D2E/DX2                !
 ! D194  D(45,22,23,25)        -81.0796         estimate D2E/DX2                !
 ! D195  D(45,22,23,47)         40.8856         estimate D2E/DX2                !
 ! D196  D(46,22,23,24)        -84.9684         estimate D2E/DX2                !
 ! D197  D(46,22,23,25)         38.3344         estimate D2E/DX2                !
 ! D198  D(46,22,23,47)        160.2996         estimate D2E/DX2                !
 ! D199  D(22,23,24,4)         -17.1634         estimate D2E/DX2                !
 ! D200  D(25,23,24,4)        -142.4816         estimate D2E/DX2                !
 ! D201  D(47,23,24,4)         100.0419         estimate D2E/DX2                !
 ! D202  D(22,23,25,26)         54.2123         estimate D2E/DX2                !
 ! D203  D(22,23,25,27)       -128.2368         estimate D2E/DX2                !
 ! D204  D(24,23,25,26)        174.1701         estimate D2E/DX2                !
 ! D205  D(24,23,25,27)         -8.279          estimate D2E/DX2                !
 ! D206  D(47,23,25,26)        -69.0655         estimate D2E/DX2                !
 ! D207  D(47,23,25,27)        108.4854         estimate D2E/DX2                !
 ! D208  D(23,25,26,48)        -66.5813         estimate D2E/DX2                !
 ! D209  D(23,25,26,49)         53.6581         estimate D2E/DX2                !
 ! D210  D(23,25,26,50)        173.3653         estimate D2E/DX2                !
 ! D211  D(27,25,26,48)        115.7627         estimate D2E/DX2                !
 ! D212  D(27,25,26,49)       -123.9979         estimate D2E/DX2                !
 ! D213  D(27,25,26,50)         -4.2907         estimate D2E/DX2                !
 ! D214  D(23,25,27,51)         -0.1737         estimate D2E/DX2                !
 ! D215  D(23,25,27,52)       -178.935          estimate D2E/DX2                !
 ! D216  D(26,25,27,51)        177.2771         estimate D2E/DX2                !
 ! D217  D(26,25,27,52)         -1.4842         estimate D2E/DX2                !
 --------------------------------------------------------------------------------
 Trust Radius=3.00D-01 FncErr=1.00D-07 GrdErr=1.00D-06
 Number of steps in this run=    390 maximum allowed number of steps=    390.
 GradGradGradGradGradGradGradGradGradGradGradGradGradGradGradGradGradGrad

 Stoichiometry    C26H34O5
 Framework group  C1[X(C26H34O5)]
 Deg. of freedom   189
 Full point group                 C1      NOp   1
 Largest Abelian subgroup         C1      NOp   1
 Largest concise Abelian subgroup C1      NOp   1
                         Standard orientation:                         
 ---------------------------------------------------------------------
 Center     Atomic      Atomic             Coordinates (Angstroms)
 Number     Number       Type             X           Y           Z
 ---------------------------------------------------------------------
      1          6           0       -0.338687   -1.410977    2.858866
      2          6           0       -0.441026   -0.080077    2.992479
      3          6           0       -1.134151    0.768640    1.950440
      4          6           0       -1.404469    0.082031    0.579572
      5          6           0       -0.932304   -1.366248    0.385357
      6          6           0       -0.907613   -2.168988    1.703446
      7          6           0       -0.811060    1.042881   -0.468506
      8          6           0        0.630025    0.825941   -0.787163
      9          6           0        1.230408   -0.367880   -0.716985
     10          6           0        0.427414   -1.543932   -0.307322
     11          6           0        2.687732   -0.485435   -0.998099
     12          8           0        3.164412   -0.038895   -2.040743
     13          6           0        3.555605   -1.132000    0.080863
     14          6           0        4.301113   -2.364155   -0.457369
     15          6           0        4.467613   -0.072738    0.694133
     16          8           0        0.875698   -2.673127   -0.520463
     17          6           0       -0.728095    2.411977    0.170553
     18          6           0        0.405827    3.086871   -0.628224
     19          8           0        1.328461    2.019564   -0.959961
     20          6           0       -0.370502    2.065050    1.625037
     21          8           0       -1.554285    1.044542   -1.673789
     22          6           0       -2.010021   -1.924709   -0.545036
     23          6           0       -3.275122   -1.230858   -0.060899
     24          8           0       -2.853538    0.073861    0.378377
     25          6           0       -4.383669   -1.142162   -1.087631
     26          6           0       -4.802981   -2.446877   -1.712958
     27          6           0       -5.017576   -0.002504   -1.416075
     28          6           0       -0.080604    3.729407   -1.937135
     29          6           0        1.166438    4.150962    0.171398
     30          1           0       -1.667496    2.974071    0.119180
     31          1           0       -2.099437    1.066707    2.385678
     32          6           0        0.040892    0.607389    4.242786
     33          1           0        0.115502   -2.005782    3.649571
     34          1           0       -0.325899   -3.091427    1.583241
     35          1           0       -1.911654   -2.498508    1.996833
     36          1           0        2.895023   -1.486146    0.882605
     37          1           0        3.606059   -2.991666   -1.028363
     38          1           0        4.634651   -2.967421    0.396484
     39          1           0        5.097803    0.411688   -0.059112
     40          1           0        5.115472   -0.510765    1.460089
     41          1           0        3.871746    0.716463    1.166796
     42          1           0        0.707561    1.905361    1.748222
     43          1           0       -0.653199    2.879864    2.301321
     44          1           0       -2.494882    1.019231   -1.411187
     45          1           0       -2.095335   -3.016614   -0.502176
     46          1           0       -1.794613   -1.662280   -1.589445
     47          1           0       -3.675629   -1.744639    0.821312
     48          1           0       -3.996041   -2.858180   -2.327286
     49          1           0       -5.057388   -3.175132   -0.935913
     50          1           0       -5.681744   -2.332877   -2.356901
     51          1           0       -4.771870    0.948042   -0.954140
     52          1           0       -5.820105    0.009542   -2.147728
     53          1           0        0.755942    4.197285   -2.469904
     54          1           0       -0.837177    4.497050   -1.745314
     55          1           0       -0.494360    2.998536   -2.636609
     56          1           0        1.938397    4.622600   -0.448295
     57          1           0        0.492761    4.933176    0.535590
     58          1           0        1.703924    3.721984    1.022716
     59          1           0        0.374787   -0.107741    5.002335
     60          1           0        0.883533    1.269947    4.023507
     61          1           0       -0.766425    1.200837    4.684087
     62          6           0        5.517910   -2.077669   -1.327825
     63          1           0        5.952503   -3.020002   -1.677809
     64          1           0        5.257898   -1.486707   -2.209633
     65          1           0        6.295124   -1.547715   -0.769337
 ---------------------------------------------------------------------
 Rotational constants (GHZ):      0.2023217      0.1279364      0.1141465
 Standard basis: 6-31G(d) (6D, 7F)
 There are   533 symmetry adapted basis functions of A   symmetry.
 Integral buffers will be    131072 words long.
 Raffenetti 2 integral format.
 Two-electron integral symmetry is turned on.
   533 basis functions,  1004 primitive gaussians,   533 cartesian basis functions
   115 alpha electrons      115 beta electrons
       nuclear repulsion energy      3522.6192395671 Hartrees.
 NAtoms=   65 NActive=   65 NUniq=   65 SFac= 1.00D+00 NAtFMM=   50 NAOKFM=T Big=T
 One-electron integrals computed using PRISM.
 NBasis=   533 RedAO= T  NBF=   533
 NBsUse=   533 1.00D-06 NBFU=   533
 Harris functional with IExCor=  402 diagonalized for initial guess.
 ExpMin= 1.61D-01 ExpMax= 5.48D+03 ExpMxC= 8.25D+02 IAcc=1 IRadAn=         1 AccDes= 0.00D+00
 HarFok:  IExCor=  402 AccDes= 0.00D+00 IRadAn=         1 IDoV= 1
 ScaDFX=  1.000000  1.000000  1.000000  1.000000
 FoFCou: FMM=F IPFlag=           0 FMFlag=      100000 FMFlg1=        2001
         NFxFlg=           0 DoJE=T BraDBF=F KetDBF=T FulRan=T
         Omega=  0.000000  0.000000  1.000000  0.000000  0.000000 ICntrl=     500 IOpCl=  0
         NMat0=    1 NMatS0=    1 NMatT0=    0 NMatD0=    1 NMtDS0=    0 NMtDT0=    0
         I1Cent=           4 NGrid=           0.
 Petite list used in FoFCou.
 Initial guess orbital symmetries:
       Occupied  (A) (A) (A) (A) (A) (A) (A) (A) (A) (A) (A) (A)
                 (A) (A) (A) (A) (A) (A) (A) (A) (A) (A) (A) (A)
                 (A) (A) (A) (A) (A) (A) (A) (A) (A) (A) (A) (A)
                 (A) (A) (A) (A) (A) (A) (A) (A) (A) (A) (A) (A)
                 (A) (A) (A) (A) (A) (A) (A) (A) (A) (A) (A) (A)
                 (A) (A) (A) (A) (A) (A) (A) (A) (A) (A) (A) (A)
                 (A) (A) (A) (A) (A) (A) (A) (A) (A) (A) (A) (A)
                 (A) (A) (A) (A) (A) (A) (A) (A) (A) (A) (A) (A)
                 (A) (A) (A) (A) (A) (A) (A) (A) (A) (A) (A) (A)
                 (A) (A) (A) (A) (A) (A) (A)
       Virtual   (A) (A) (A) (A) (A) (A) (A) (A) (A) (A) (A) (A)
                 (A) (A) (A) (A) (A) (A) (A) (A) (A) (A) (A) (A)
                 (A) (A) (A) (A) (A) (A) (A) (A) (A) (A) (A) (A)
                 (A) (A) (A) (A) (A) (A) (A) (A) (A) (A) (A) (A)
                 (A) (A) (A) (A) (A) (A) (A) (A) (A) (A) (A) (A)
                 (A) (A) (A) (A) (A) (A) (A) (A) (A) (A) (A) (A)
                 (A) (A) (A) (A) (A) (A) (A) (A) (A) (A) (A) (A)
                 (A) (A) (A) (A) (A) (A) (A) (A) (A) (A) (A) (A)
                 (A) (A) (A) (A) (A) (A) (A) (A) (A) (A) (A) (A)
                 (A) (A) (A) (A) (A) (A) (A) (A) (A) (A) (A) (A)
                 (A) (A) (A) (A) (A) (A) (A) (A) (A) (A) (A) (A)
                 (A) (A) (A) (A) (A) (A) (A) (A) (A) (A) (A) (A)
                 (A) (A) (A) (A) (A) (A) (A) (A) (A) (A) (A) (A)
                 (A) (A) (A) (A) (A) (A) (A) (A) (A) (A) (A) (A)
                 (A) (A) (A) (A) (A) (A) (A) (A) (A) (A) (A) (A)
                 (A) (A) (A) (A) (A) (A) (A) (A) (A) (A) (A) (A)
                 (A) (A) (A) (A) (A) (A) (A) (A) (A) (A) (A) (A)
                 (A) (A) (A) (A) (A) (A) (A) (A) (A) (A) (A) (A)
                 (A) (A) (A) (A) (A) (A) (A) (A) (A) (A) (A) (A)
                 (A) (A) (A) (A) (A) (A) (A) (A) (A) (A) (A) (A)
                 (A) (A) (A) (A) (A) (A) (A) (A) (A) (A) (A) (A)
                 (A) (A) (A) (A) (A) (A) (A) (A) (A) (A) (A) (A)
                 (A) (A) (A) (A) (A) (A) (A) (A) (A) (A) (A) (A)
                 (A) (A) (A) (A) (A) (A) (A) (A) (A) (A) (A) (A)
                 (A) (A) (A) (A) (A) (A) (A) (A) (A) (A) (A) (A)
                 (A) (A) (A) (A) (A) (A) (A) (A) (A) (A) (A) (A)
                 (A) (A) (A) (A) (A) (A) (A) (A) (A) (A) (A) (A)
                 (A) (A) (A) (A) (A) (A) (A) (A) (A) (A) (A) (A)
                 (A) (A) (A) (A) (A) (A) (A) (A) (A) (A) (A) (A)
                 (A) (A) (A) (A) (A) (A) (A) (A) (A) (A) (A) (A)
                 (A) (A) (A) (A) (A) (A) (A) (A) (A) (A) (A) (A)
                 (A) (A) (A) (A) (A) (A) (A) (A) (A) (A) (A) (A)
                 (A) (A) (A) (A) (A) (A) (A) (A) (A) (A) (A) (A)
                 (A) (A) (A) (A) (A) (A) (A) (A) (A) (A) (A) (A)
                 (A) (A) (A) (A) (A) (A) (A) (A) (A) (A)
 The electronic state of the initial guess is 1-A.
 Requested convergence on RMS density matrix=1.00D-08 within 128 cycles.
 Requested convergence on MAX density matrix=1.00D-06.
 Requested convergence on             energy=1.00D-06.
 No special actions if energy rises.
 Integral accuracy reduced to 1.0D-05 until final iterations.
 Initial convergence to 1.0D-05 achieved.  Increase integral accuracy.
 SCF Done:  E(RB3LYP) =  -1387.30412548     A.U. after   16 cycles
             Convg  =    0.4033D-08             -V/T =  2.0091

 **********************************************************************

            Population analysis using the SCF density.

 **********************************************************************

 Orbital symmetries:
       Occupied  (A) (A) (A) (A) (A) (A) (A) (A) (A) (A) (A) (A)
                 (A) (A) (A) (A) (A) (A) (A) (A) (A) (A) (A) (A)
                 (A) (A) (A) (A) (A) (A) (A) (A) (A) (A) (A) (A)
                 (A) (A) (A) (A) (A) (A) (A) (A) (A) (A) (A) (A)
                 (A) (A) (A) (A) (A) (A) (A) (A) (A) (A) (A) (A)
                 (A) (A) (A) (A) (A) (A) (A) (A) (A) (A) (A) (A)
                 (A) (A) (A) (A) (A) (A) (A) (A) (A) (A) (A) (A)
                 (A) (A) (A) (A) (A) (A) (A) (A) (A) (A) (A) (A)
                 (A) (A) (A) (A) (A) (A) (A) (A) (A) (A) (A) (A)
                 (A) (A) (A) (A) (A) (A) (A)
       Virtual   (A) (A) (A) (A) (A) (A) (A) (A) (A) (A) (A) (A)
                 (A) (A) (A) (A) (A) (A) (A) (A) (A) (A) (A) (A)
                 (A) (A) (A) (A) (A) (A) (A) (A) (A) (A) (A) (A)
                 (A) (A) (A) (A) (A) (A) (A) (A) (A) (A) (A) (A)
                 (A) (A) (A) (A) (A) (A) (A) (A) (A) (A) (A) (A)
                 (A) (A) (A) (A) (A) (A) (A) (A) (A) (A) (A) (A)
                 (A) (A) (A) (A) (A) (A) (A) (A) (A) (A) (A) (A)
                 (A) (A) (A) (A) (A) (A) (A) (A) (A) (A) (A) (A)
                 (A) (A) (A) (A) (A) (A) (A) (A) (A) (A) (A) (A)
                 (A) (A) (A) (A) (A) (A) (A) (A) (A) (A) (A) (A)
                 (A) (A) (A) (A) (A) (A) (A) (A) (A) (A) (A) (A)
                 (A) (A) (A) (A) (A) (A) (A) (A) (A) (A) (A) (A)
                 (A) (A) (A) (A) (A) (A) (A) (A) (A) (A) (A) (A)
                 (A) (A) (A) (A) (A) (A) (A) (A) (A) (A) (A) (A)
                 (A) (A) (A) (A) (A) (A) (A) (A) (A) (A) (A) (A)
                 (A) (A) (A) (A) (A) (A) (A) (A) (A) (A) (A) (A)
                 (A) (A) (A) (A) (A) (A) (A) (A) (A) (A) (A) (A)
                 (A) (A) (A) (A) (A) (A) (A) (A) (A) (A) (A) (A)
                 (A) (A) (A) (A) (A) (A) (A) (A) (A) (A) (A) (A)
                 (A) (A) (A) (A) (A) (A) (A) (A) (A) (A) (A) (A)
                 (A) (A) (A) (A) (A) (A) (A) (A) (A) (A) (A) (A)
                 (A) (A) (A) (A) (A) (A) (A) (A) (A) (A) (A) (A)
                 (A) (A) (A) (A) (A) (A) (A) (A) (A) (A) (A) (A)
                 (A) (A) (A) (A) (A) (A) (A) (A) (A) (A) (A) (A)
                 (A) (A) (A) (A) (A) (A) (A) (A) (A) (A) (A) (A)
                 (A) (A) (A) (A) (A) (A) (A) (A) (A) (A) (A) (A)
                 (A) (A) (A) (A) (A) (A) (A) (A) (A) (A) (A) (A)
                 (A) (A) (A) (A) (A) (A) (A) (A) (A) (A) (A) (A)
                 (A) (A) (A) (A) (A) (A) (A) (A) (A) (A) (A) (A)
                 (A) (A) (A) (A) (A) (A) (A) (A) (A) (A) (A) (A)
                 (A) (A) (A) (A) (A) (A) (A) (A) (A) (A) (A) (A)
                 (A) (A) (A) (A) (A) (A) (A) (A) (A) (A) (A) (A)
                 (A) (A) (A) (A) (A) (A) (A) (A) (A) (A) (A) (A)
                 (A) (A) (A) (A) (A) (A) (A) (A) (A) (A) (A) (A)
                 (A) (A) (A) (A) (A) (A) (A) (A) (A) (A)
 The electronic state is 1-A.
 Alpha  occ. eigenvalues --  -19.19470 -19.16921 -19.15282 -19.13710 -19.12765
 Alpha  occ. eigenvalues --  -10.28055 -10.27212 -10.26570 -10.26101 -10.25935
 Alpha  occ. eigenvalues --  -10.25593 -10.25332 -10.21828 -10.20814 -10.20523
 Alpha  occ. eigenvalues --  -10.20117 -10.19849 -10.19764 -10.19718 -10.19552
 Alpha  occ. eigenvalues --  -10.19466 -10.19154 -10.18838 -10.18608 -10.18492
 Alpha  occ. eigenvalues --  -10.18373 -10.18270 -10.17410 -10.17115 -10.16767
 Alpha  occ. eigenvalues --  -10.15211  -1.08333  -1.06016  -1.03439  -1.02380
 Alpha  occ. eigenvalues --   -1.01972  -0.87582  -0.84104  -0.82741  -0.81922
 Alpha  occ. eigenvalues --   -0.80553  -0.79682  -0.76979  -0.74662  -0.73830
 Alpha  occ. eigenvalues --   -0.72340  -0.71359  -0.69430  -0.69329  -0.68317
 Alpha  occ. eigenvalues --   -0.65826  -0.64384  -0.63533  -0.62154  -0.61066
 Alpha  occ. eigenvalues --   -0.59484  -0.58546  -0.57424  -0.54757  -0.53885
 Alpha  occ. eigenvalues --   -0.52972  -0.52099  -0.51109  -0.50674  -0.49147
 Alpha  occ. eigenvalues --   -0.48350  -0.47929  -0.46869  -0.46237  -0.45901
 Alpha  occ. eigenvalues --   -0.45112  -0.44909  -0.44588  -0.43867  -0.43529
 Alpha  occ. eigenvalues --   -0.42961  -0.42491  -0.42259  -0.41973  -0.41930
 Alpha  occ. eigenvalues --   -0.41136  -0.41040  -0.40447  -0.39760  -0.39221
 Alpha  occ. eigenvalues --   -0.39058  -0.38694  -0.38601  -0.38305  -0.37885
 Alpha  occ. eigenvalues --   -0.37515  -0.37185  -0.37030  -0.36980  -0.36760
 Alpha  occ. eigenvalues --   -0.36534  -0.35976  -0.34926  -0.34586  -0.34465
 Alpha  occ. eigenvalues --   -0.34029  -0.33570  -0.32799  -0.32537  -0.32126
 Alpha  occ. eigenvalues --   -0.31687  -0.31202  -0.31042  -0.28178  -0.26599
 Alpha  occ. eigenvalues --   -0.25810  -0.25320  -0.24564  -0.23764  -0.22900
 Alpha virt. eigenvalues --   -0.05592  -0.02164   0.00945   0.01727   0.04890
 Alpha virt. eigenvalues --    0.06961   0.07762   0.08235   0.08966   0.09785
 Alpha virt. eigenvalues --    0.10329   0.10787   0.11335   0.11793   0.12597
 Alpha virt. eigenvalues --    0.12641   0.13026   0.13633   0.13694   0.14085
 Alpha virt. eigenvalues --    0.14209   0.14752   0.15463   0.15949   0.16085
 Alpha virt. eigenvalues --    0.16182   0.16361   0.16908   0.17219   0.17535
 Alpha virt. eigenvalues --    0.17774   0.18072   0.18443   0.18720   0.19047
 Alpha virt. eigenvalues --    0.19200   0.19545   0.19829   0.20031   0.20067
 Alpha virt. eigenvalues --    0.20696   0.20946   0.21397   0.21666   0.22251
 Alpha virt. eigenvalues --    0.22697   0.22810   0.23598   0.24003   0.24603
 Alpha virt. eigenvalues --    0.24835   0.25164   0.25366   0.26385   0.26785
 Alpha virt. eigenvalues --    0.27064   0.27703   0.28117   0.29479   0.30442
 Alpha virt. eigenvalues --    0.31066   0.31721   0.32269   0.33303   0.34116
 Alpha virt. eigenvalues --    0.34655   0.36155   0.36996   0.38732   0.39334
 Alpha virt. eigenvalues --    0.41954   0.44728   0.46761   0.48258   0.48730
 Alpha virt. eigenvalues --    0.49901   0.51198   0.51496   0.51577   0.52119
 Alpha virt. eigenvalues --    0.52427   0.53047   0.53294   0.53598   0.53904
 Alpha virt. eigenvalues --    0.54072   0.55003   0.55150   0.55884   0.56526
 Alpha virt. eigenvalues --    0.56947   0.57348   0.57822   0.58254   0.59078
 Alpha virt. eigenvalues --    0.59489   0.60272   0.60907   0.61508   0.61837
 Alpha virt. eigenvalues --    0.62253   0.62324   0.62740   0.63407   0.64404
 Alpha virt. eigenvalues --    0.64603   0.65198   0.66753   0.66981   0.67313
 Alpha virt. eigenvalues --    0.67882   0.68300   0.68455   0.68645   0.69501
 Alpha virt. eigenvalues --    0.69818   0.70125   0.71438   0.72148   0.73168
 Alpha virt. eigenvalues --    0.73758   0.75163   0.75380   0.75915   0.76138
 Alpha virt. eigenvalues --    0.76901   0.77538   0.78442   0.79215   0.79519
 Alpha virt. eigenvalues --    0.80417   0.80615   0.81201   0.81462   0.81576
 Alpha virt. eigenvalues --    0.82239   0.83434   0.83745   0.84150   0.85009
 Alpha virt. eigenvalues --    0.85458   0.85705   0.85931   0.86562   0.87036
 Alpha virt. eigenvalues --    0.87404   0.87685   0.88222   0.88439   0.88723
 Alpha virt. eigenvalues --    0.88974   0.89495   0.89637   0.90340   0.90767
 Alpha virt. eigenvalues --    0.91034   0.91313   0.91877   0.92157   0.92256
 Alpha virt. eigenvalues --    0.92609   0.92833   0.93512   0.93668   0.94544
 Alpha virt. eigenvalues --    0.95018   0.95616   0.96294   0.96893   0.97222
 Alpha virt. eigenvalues --    0.98047   0.98291   0.98557   0.99086   0.99427
 Alpha virt. eigenvalues --    1.00587   1.01696   1.02326   1.02921   1.04139
 Alpha virt. eigenvalues --    1.05094   1.06093   1.06865   1.07445   1.08152
 Alpha virt. eigenvalues --    1.08573   1.09900   1.11174   1.11822   1.12562
 Alpha virt. eigenvalues --    1.13152   1.14693   1.15742   1.16502   1.16942
 Alpha virt. eigenvalues --    1.17522   1.18464   1.19359   1.20656   1.21246
 Alpha virt. eigenvalues --    1.21885   1.23150   1.24111   1.24870   1.26074
 Alpha virt. eigenvalues --    1.28295   1.29171   1.30463   1.31381   1.32259
 Alpha virt. eigenvalues --    1.33207   1.36521   1.37338   1.38544   1.39836
 Alpha virt. eigenvalues --    1.40026   1.42320   1.42597   1.43313   1.46248
 Alpha virt. eigenvalues --    1.46856   1.47723   1.49683   1.51534   1.51727
 Alpha virt. eigenvalues --    1.53979   1.55459   1.56033   1.56230   1.57612
 Alpha virt. eigenvalues --    1.60498   1.60926   1.61862   1.62492   1.64388
 Alpha virt. eigenvalues --    1.65737   1.66366   1.67071   1.67357   1.69194
 Alpha virt. eigenvalues --    1.70383   1.70596   1.72957   1.73172   1.74010
 Alpha virt. eigenvalues --    1.74848   1.75055   1.76282   1.77675   1.77872
 Alpha virt. eigenvalues --    1.79148   1.80040   1.80598   1.81128   1.81795
 Alpha virt. eigenvalues --    1.82479   1.82698   1.83307   1.83722   1.84698
 Alpha virt. eigenvalues --    1.85605   1.86618   1.86944   1.87391   1.88110
 Alpha virt. eigenvalues --    1.88736   1.89454   1.89974   1.90814   1.91670
 Alpha virt. eigenvalues --    1.92216   1.92837   1.93778   1.94008   1.94903
 Alpha virt. eigenvalues --    1.95812   1.96909   1.97384   1.97985   1.98486
 Alpha virt. eigenvalues --    1.99283   1.99492   2.00348   2.01412   2.02260
 Alpha virt. eigenvalues --    2.02673   2.03467   2.03950   2.04782   2.06284
 Alpha virt. eigenvalues --    2.07521   2.07956   2.08936   2.09374   2.10034
 Alpha virt. eigenvalues --    2.11640   2.12248   2.12667   2.13542   2.13824
 Alpha virt. eigenvalues --    2.14487   2.15405   2.16610   2.17490   2.18640
 Alpha virt. eigenvalues --    2.19429   2.20800   2.21501   2.22387   2.23421
 Alpha virt. eigenvalues --    2.23502   2.24454   2.25880   2.26523   2.27152
 Alpha virt. eigenvalues --    2.27970   2.28561   2.29473   2.31401   2.31785
 Alpha virt. eigenvalues --    2.32487   2.33184   2.33306   2.35079   2.35524
 Alpha virt. eigenvalues --    2.35893   2.36655   2.36832   2.38219   2.38498
 Alpha virt. eigenvalues --    2.38954   2.41117   2.41187   2.42486   2.43637
 Alpha virt. eigenvalues --    2.44576   2.45036   2.46837   2.48402   2.49615
 Alpha virt. eigenvalues --    2.50226   2.50636   2.51726   2.53673   2.54240
 Alpha virt. eigenvalues --    2.56521   2.56828   2.57953   2.59282   2.59953
 Alpha virt. eigenvalues --    2.61616   2.62223   2.64242   2.65103   2.65864
 Alpha virt. eigenvalues --    2.67815   2.68511   2.69007   2.70048   2.70697
 Alpha virt. eigenvalues --    2.71189   2.74075   2.75278   2.77235   2.78310
 Alpha virt. eigenvalues --    2.79030   2.79729   2.80485   2.82249   2.84183
 Alpha virt. eigenvalues --    2.85602   2.90074   2.92097   2.94927   2.95882
 Alpha virt. eigenvalues --    2.97613   2.99566   3.01069   3.01580   3.02511
 Alpha virt. eigenvalues --    3.05355   3.06894   3.12217   3.18146   3.20669
 Alpha virt. eigenvalues --    3.24476   3.29431   4.02641   4.09397   4.11413
 Alpha virt. eigenvalues --    4.13360   4.14057   4.17179   4.18874   4.20774
 Alpha virt. eigenvalues --    4.23129   4.25219   4.25374   4.28261   4.30192
 Alpha virt. eigenvalues --    4.32031   4.35558   4.37440   4.38220   4.43502
 Alpha virt. eigenvalues --    4.46156   4.48534   4.52162   4.57234   4.58885
 Alpha virt. eigenvalues --    4.62744   4.65213   4.69642   4.72772   4.81523
 Alpha virt. eigenvalues --    4.91212   4.98993   5.17043
          Condensed to atoms (all electrons):
 Mulliken atomic charges:
              1
     1  C   -0.197481
     2  C    0.186300
     3  C   -0.185668
     4  C    0.319715
     5  C   -0.048676
     6  C   -0.331717
     7  C    0.207046
     8  C    0.401764
     9  C   -0.088083
    10  C    0.423872
    11  C    0.425006
    12  O   -0.457457
    13  C   -0.139454
    14  C   -0.259395
    15  C   -0.454779
    16  O   -0.505231
    17  C   -0.158827
    18  C    0.310414
    19  O   -0.522244
    20  C   -0.319041
    21  O   -0.659160
    22  C   -0.324020
    23  C    0.109754
    24  O   -0.590003
    25  C    0.189159
    26  C   -0.519283
    27  C   -0.404682
    28  C   -0.460989
    29  C   -0.464003
    30  H    0.143451
    31  H    0.166918
    32  C   -0.516771
    33  H    0.123741
    34  H    0.178113
    35  H    0.152292
    36  H    0.131191
    37  H    0.162044
    38  H    0.126570
    39  H    0.171467
    40  H    0.144519
    41  H    0.137856
    42  H    0.160563
    43  H    0.149028
    44  H    0.413976
    45  H    0.167747
    46  H    0.178451
    47  H    0.145122
    48  H    0.170357
    49  H    0.156041
    50  H    0.161812
    51  H    0.144893
    52  H    0.140982
    53  H    0.153199
    54  H    0.137158
    55  H    0.188836
    56  H    0.161744
    57  H    0.149792
    58  H    0.154216
    59  H    0.158441
    60  H    0.158188
    61  H    0.152052
    62  C   -0.451241
    63  H    0.133408
    64  H    0.175813
    65  H    0.135193
 Sum of Mulliken atomic charges =   0.00000
 Mulliken charges with hydrogens summed into heavy atoms:
              1
     1  C   -0.073739
     2  C    0.186300
     3  C   -0.018750
     4  C    0.319715
     5  C   -0.048676
     6  C   -0.001311
     7  C    0.207046
     8  C    0.401764
     9  C   -0.088083
    10  C    0.423872
    11  C    0.425006
    12  O   -0.457457
    13  C   -0.008263
    14  C    0.029218
    15  C   -0.000937
    16  O   -0.505231
    17  C   -0.015376
    18  C    0.310414
    19  O   -0.522244
    20  C   -0.009449
    21  O   -0.245184
    22  C    0.022178
    23  C    0.254876
    24  O   -0.590003
    25  C    0.189159
    26  C   -0.031074
    27  C   -0.118807
    28  C    0.018204
    29  C    0.001749
    32  C   -0.048090
    62  C   -0.006827
 Sum of Mulliken charges with hydrogens summed into heavy atoms =   0.00000
 Electronic spatial extent (au):  <R**2>=          11482.7309
 Charge=              0.0000 electrons
 Dipole moment (field-independent basis, Debye):
    X=             -4.1685    Y=              1.7313    Z=              4.3073  Tot=              6.2391
 Quadrupole moment (field-independent basis, Debye-Ang):
   XX=           -185.2030   YY=           -176.2937   ZZ=           -187.9230
   XY=              4.9637   XZ=             11.9191   YZ=              0.8275
 Traceless Quadrupole moment (field-independent basis, Debye-Ang):
   XX=             -2.0631   YY=              6.8462   ZZ=             -4.7831
   XY=              4.9637   XZ=             11.9191   YZ=              0.8275
 Octapole moment (field-independent basis, Debye-Ang**2):
  XXX=            -44.8944  YYY=             51.4436  ZZZ=             13.6507  XYY=            -25.4428
  XXY=            -20.5803  XXZ=              0.5279  XZZ=            -21.6201  YZZ=             -4.5503
  YYZ=              0.6153  XYZ=             -6.8973
 Hexadecapole moment (field-independent basis, Debye-Ang**3):
 XXXX=          -8204.5412 YYYY=          -4194.7308 ZZZZ=          -2953.4575 XXXY=             54.1991
 XXXZ=            223.7135 YYYX=             46.7008 YYYZ=            -43.7011 ZZZX=             32.0355
 ZZZY=             -3.6217 XXYY=          -2000.9389 XXZZ=          -1884.0855 YYZZ=          -1175.9111
 XXYZ=             16.9064 YYXZ=             -5.6321 ZZXY=             -0.0610
 N-N= 3.522619239567D+03 E-N=-1.027138734363D+04  KE= 1.374750358257D+03
 Calling FoFJK, ICntrl=      2127 FMM=T ISym2X=0 I1Cent= 0 IOpClX= 0 NMat=1 NMatS=1 NMatT=0.
 ***** Axes restored to original set *****
 -------------------------------------------------------------------
 Center     Atomic                   Forces (Hartrees/Bohr)
 Number     Number              X              Y              Z
 -------------------------------------------------------------------
      1        6           0.009033567   -0.000093051    0.000671369
      2        6          -0.011849779   -0.004765791    0.002638312
      3        6          -0.000954857   -0.007856405   -0.000507946
      4        6           0.002194910   -0.004301751    0.011093541
      5        6          -0.011740628   -0.002249014    0.000938133
      6        6          -0.005324325   -0.010249264   -0.000720927
      7        6           0.012158997    0.019947078    0.009624721
      8        6           0.018671410   -0.010588581   -0.020575418
      9        6          -0.006319194    0.001590388    0.005847296
     10        6          -0.005885692   -0.003218293   -0.021417762
     11        6          -0.005223501    0.007933111   -0.019356283
     12        8          -0.002415805   -0.011126912    0.013012535
     13        6          -0.002673002    0.000956953    0.006987882
     14        6          -0.006648841    0.001049769   -0.004682647
     15        6           0.007305372   -0.002015526   -0.003715127
     16        8           0.008530956   -0.001462503    0.009707242
     17        6           0.008412906   -0.010866717   -0.005106035
     18        6           0.030771794    0.006921843    0.000403722
     19        8          -0.030513648    0.005500020    0.028194016
     20        6           0.011677515   -0.004423299    0.000739039
     21        8          -0.006553710    0.006090942   -0.004383393
     22        6          -0.010088331    0.011642921    0.000152586
     23        6           0.007484574    0.008574260    0.003941198
     24        8          -0.003501245   -0.004065926   -0.009101525
     25        6           0.009643293    0.011730603    0.005684943
     26        6          -0.000210820   -0.000179948    0.000006789
     27        6          -0.003379516   -0.009285789   -0.003408516
     28        6          -0.003137576    0.007536972   -0.005611139
     29        6          -0.003370786   -0.006390097   -0.009060164
     30        1          -0.001909983    0.000943313   -0.001550237
     31        1          -0.003601034    0.005927957   -0.000151842
     32        6          -0.001224709    0.000687418   -0.001475734
     33        1           0.001482228   -0.000969607   -0.000156171
     34        1           0.000777197    0.007550817   -0.001860055
     35        1          -0.000227438    0.005548360    0.001736852
     36        1          -0.000017778    0.002292690    0.000248374
     37        1           0.001204211   -0.001398081    0.003329553
     38        1           0.000384819   -0.001061854    0.002796953
     39        1          -0.001482212    0.000137716    0.000354409
     40        1          -0.000604904   -0.000890960   -0.000009458
     41        1           0.000532128   -0.001143842    0.000373014
     42        1           0.000394611    0.002707921   -0.000285040
     43        1          -0.001259894   -0.002094766   -0.001609572
     44        1          -0.002165725   -0.002504494   -0.000708422
     45        1           0.001471529   -0.002868161   -0.001401435
     46        1           0.002220540   -0.000786165    0.002530316
     47        1          -0.003675917   -0.001069418    0.002451552
     48        1          -0.003965429   -0.000964153   -0.000248808
     49        1          -0.004226000   -0.000778810   -0.000523614
     50        1           0.001966212   -0.001480005   -0.000531843
     51        1           0.000473560   -0.000978053   -0.000145831
     52        1          -0.001140115    0.000001786   -0.000190574
     53        1           0.001924540   -0.003841818    0.000702461
     54        1           0.000515580   -0.000907277    0.000430545
     55        1          -0.001207144   -0.002542636    0.005526141
     56        1           0.000399673    0.002905951    0.001427090
     57        1          -0.000794225    0.001140344    0.000585014
     58        1          -0.000274957   -0.000006146    0.003779451
     59        1          -0.001136586    0.001749624   -0.000575444
     60        1           0.004477340   -0.001772273    0.000469256
     61        1           0.004023061   -0.001059653    0.000041731
     62        6          -0.000950566    0.002059822   -0.005295435
     63        1          -0.001038270   -0.000528343   -0.000738636
     64        1           0.001593392   -0.000232883    0.000286899
     65        1           0.000968226   -0.000110312   -0.001607903
 -------------------------------------------------------------------
 Cartesian Forces:  Max     0.030771794 RMS     0.006707045

 GradGradGradGradGradGradGradGradGradGradGradGradGradGradGradGradGradGrad
 Berny optimization.
 Internal  Forces:  Max     0.024184887 RMS     0.003387943
 Search for a local minimum.
 Step number   1 out of a maximum of  390
 All quantities printed in internal units (Hartrees-Bohrs-Radians)
 Mixed Optimization -- RFO/linear search
 Second derivative matrix not updated -- first step.
 ITU=  0
     Eigenvalues ---    0.00271   0.00275   0.00329   0.00393   0.00417
     Eigenvalues ---    0.00425   0.00458   0.00552   0.00586   0.00601
     Eigenvalues ---    0.00623   0.00682   0.00686   0.00699   0.00739
     Eigenvalues ---    0.00914   0.01080   0.01233   0.01238   0.01376
     Eigenvalues ---    0.01480   0.01607   0.01706   0.01789   0.01912
     Eigenvalues ---    0.02502   0.02819   0.02820   0.03036   0.03130
     Eigenvalues ---    0.03245   0.03603   0.03604   0.03828   0.04042
     Eigenvalues ---    0.04118   0.04332   0.04407   0.04652   0.04730
     Eigenvalues ---    0.04771   0.04833   0.04950   0.05090   0.05236
     Eigenvalues ---    0.05299   0.05385   0.05429   0.05436   0.05443
     Eigenvalues ---    0.05491   0.05504   0.05544   0.05634   0.05641
     Eigenvalues ---    0.05716   0.05920   0.05939   0.06287   0.06629
     Eigenvalues ---    0.06711   0.06870   0.07104   0.07113   0.07206
     Eigenvalues ---    0.07245   0.07257   0.07327   0.07642   0.08378
     Eigenvalues ---    0.08451   0.08868   0.08988   0.09148   0.09779
     Eigenvalues ---    0.10095   0.10646   0.10871   0.11613   0.12583
     Eigenvalues ---    0.13106   0.14627   0.15171   0.15956   0.16000
     Eigenvalues ---    0.16000   0.16000   0.16000   0.16000   0.16000
     Eigenvalues ---    0.16000   0.16000   0.16000   0.16000   0.16000
     Eigenvalues ---    0.16000   0.16000   0.16000   0.16000   0.16000
     Eigenvalues ---    0.16000   0.16000   0.16000   0.16000   0.16000
     Eigenvalues ---    0.16198   0.17274   0.17396   0.18140   0.18360
     Eigenvalues ---    0.19674   0.21509   0.21978   0.22799   0.23548
     Eigenvalues ---    0.24486   0.24908   0.24975   0.24979   0.24984
     Eigenvalues ---    0.24986   0.24998   0.25000   0.25947   0.27180
     Eigenvalues ---    0.27422   0.27724   0.27835   0.28233   0.28330
     Eigenvalues ---    0.28711   0.28748   0.28776   0.29144   0.29590
     Eigenvalues ---    0.29758   0.30053   0.30274   0.30467   0.30994
     Eigenvalues ---    0.31719   0.31753   0.31775   0.33059   0.33577
     Eigenvalues ---    0.33679   0.33881   0.33956   0.33974   0.33999
     Eigenvalues ---    0.34042   0.34042   0.34049   0.34054   0.34059
     Eigenvalues ---    0.34069   0.34120   0.34124   0.34129   0.34136
     Eigenvalues ---    0.34197   0.34201   0.34224   0.34233   0.34249
     Eigenvalues ---    0.34259   0.34270   0.34277   0.34280   0.34309
     Eigenvalues ---    0.34312   0.34340   0.34355   0.34469   0.34480
     Eigenvalues ---    0.34962   0.35184   0.35273   0.35393   0.36500
     Eigenvalues ---    0.37293   0.43067   0.43346   0.51993   0.53250
     Eigenvalues ---    0.54285   0.56139   0.89652   0.90946
 RFO step:  Lambda=-2.09368999D-02 EMin= 2.70861529D-03
 Linear search not attempted -- first point.
 Iteration  1 RMS(Cart)=  0.05458512 RMS(Int)=  0.00076337
 Iteration  2 RMS(Cart)=  0.00143116 RMS(Int)=  0.00022308
 Iteration  3 RMS(Cart)=  0.00000064 RMS(Int)=  0.00022308
 Variable       Old X    -DE/DX   Delta X   Delta X   Delta X     New X
                                 (Linear)    (Quad)   (Total)
    R1        2.53507  -0.00196   0.00000  -0.00374  -0.00379   2.53128
    R2        2.82402   0.00841   0.00000   0.02595   0.02587   2.84989
    R3        2.05737   0.00009   0.00000   0.00023   0.00023   2.05760
    R4        2.85754   0.00350   0.00000   0.00761   0.00764   2.86518
    R5        2.84598   0.00337   0.00000   0.00996   0.00996   2.85594
    R6        2.94202   0.00473   0.00000   0.00958   0.00962   2.95163
    R7        2.90903   0.01146   0.00000   0.03971   0.03970   2.94873
    R8        2.07874  -0.00090   0.00000  -0.00251  -0.00251   2.07623
    R9        2.90193   0.00862   0.00000   0.02748   0.02729   2.92921
   R10        2.91155   0.00732   0.00000   0.02367   0.02373   2.93528
   R11        2.76466  -0.00541   0.00000  -0.01446  -0.01447   2.75019
   R12        2.91677  -0.00077   0.00000  -0.00005  -0.00012   2.91666
   R13        2.90318   0.00613   0.00000   0.01379   0.01370   2.91689
   R14        2.89010   0.01159   0.00000   0.03934   0.03931   2.92941
   R15        2.07331  -0.00148   0.00000  -0.00409  -0.00409   2.06922
   R16        2.07247   0.00283   0.00000   0.00783   0.00783   2.08030
   R17        2.81901   0.01026   0.00000   0.02256   0.02217   2.84117
   R18        2.85949   0.01482   0.00000   0.05438   0.05387   2.91336
   R19        2.67588   0.00373   0.00000   0.00827   0.00827   2.68415
   R20        2.52870   0.01659   0.00000   0.02877   0.02885   2.55756
   R21        2.63372  -0.02418   0.00000  -0.05704  -0.05685   2.57687
   R22        2.80019  -0.00392   0.00000  -0.01441  -0.01434   2.78585
   R23        2.81349   0.01032   0.00000   0.02894   0.02894   2.84244
   R24        2.33094  -0.01087   0.00000  -0.01185  -0.01185   2.31909
   R25        2.32500  -0.01713   0.00000  -0.01841  -0.01841   2.30659
   R26        2.88789   0.00153   0.00000   0.00483   0.00483   2.89272
   R27        2.90532   0.00684   0.00000   0.02219   0.02219   2.92751
   R28        2.88448   0.00751   0.00000   0.02357   0.02357   2.90805
   R29        2.07404  -0.00059   0.00000  -0.00162  -0.00162   2.07241
   R30        2.07259  -0.00050   0.00000  -0.00138  -0.00138   2.07121
   R31        2.07375   0.00121   0.00000   0.00335   0.00335   2.07710
   R32        2.87857   0.00746   0.00000   0.02321   0.02321   2.90178
   R33        2.06939  -0.00075   0.00000  -0.00206  -0.00206   2.06733
   R34        2.06861   0.00105   0.00000   0.00287   0.00287   2.07148
   R35        2.07122   0.00073   0.00000   0.00201   0.00201   2.07323
   R36        2.91490  -0.00114   0.00000   0.00903   0.00930   2.92420
   R37        2.90536   0.00438   0.00000   0.01631   0.01631   2.92168
   R38        2.07101  -0.00166   0.00000  -0.00457  -0.00457   2.06644
[...]
     55          1           0       -0.646120    2.527633   -2.981191
     56          1           0        1.740648    4.591253   -1.017770
     57          1           0        0.188093    5.116084   -0.338574
     58          1           0        1.257523    4.049266    0.595956
     59          1           0       -0.313515    0.976542    5.065959
     60          1           0        0.086172    2.255718    3.908538
     61          1           0       -1.583119    2.035219    4.423689
     62          6           0        5.156337   -2.245246   -1.593752
     63          1           0        5.387114   -3.206291   -2.068827
     64          1           0        4.690786   -1.597836   -2.342685
     65          1           0        6.108171   -1.784358   -1.306959
 ---------------------------------------------------------------------
 Rotational constants (GHZ):      0.1898065      0.1284004      0.1143240

 **********************************************************************

            Population analysis using the SCF density.

 **********************************************************************

 Orbital symmetries:
       Occupied  (A) (A) (A) (A) (A) (A) (A) (A) (A) (A) (A) (A)
                 (A) (A) (A) (A) (A) (A) (A) (A) (A) (A) (A) (A)
                 (A) (A) (A) (A) (A) (A) (A) (A) (A) (A) (A) (A)
                 (A) (A) (A) (A) (A) (A) (A) (A) (A) (A) (A) (A)
                 (A) (A) (A) (A) (A) (A) (A) (A) (A) (A) (A) (A)
                 (A) (A) (A) (A) (A) (A) (A) (A) (A) (A) (A) (A)
                 (A) (A) (A) (A) (A) (A) (A) (A) (A) (A) (A) (A)
                 (A) (A) (A) (A) (A) (A) (A) (A) (A) (A) (A) (A)
                 (A) (A) (A) (A) (A) (A) (A) (A) (A) (A) (A) (A)
                 (A) (A) (A) (A) (A) (A) (A)
       Virtual   (A) (A) (A) (A) (A) (A) (A) (A) (A) (A) (A) (A)
                 (A) (A) (A) (A) (A) (A) (A) (A) (A) (A) (A) (A)
                 (A) (A) (A) (A) (A) (A) (A) (A) (A) (A) (A) (A)
                 (A) (A) (A) (A) (A) (A) (A) (A) (A) (A) (A) (A)
                 (A) (A) (A) (A) (A) (A) (A) (A) (A) (A) (A) (A)
                 (A) (A) (A) (A) (A) (A) (A) (A) (A) (A) (A) (A)
                 (A) (A) (A) (A) (A) (A) (A) (A) (A) (A) (A) (A)
                 (A) (A) (A) (A) (A) (A) (A) (A) (A) (A) (A) (A)
                 (A) (A) (A) (A) (A) (A) (A) (A) (A) (A) (A) (A)
                 (A) (A) (A) (A) (A) (A) (A) (A) (A) (A) (A) (A)
                 (A) (A) (A) (A) (A) (A) (A) (A) (A) (A) (A) (A)
                 (A) (A) (A) (A) (A) (A) (A) (A) (A) (A) (A) (A)
                 (A) (A) (A) (A) (A) (A) (A) (A) (A) (A) (A) (A)
                 (A) (A) (A) (A) (A) (A) (A) (A) (A) (A) (A) (A)
                 (A) (A) (A) (A) (A) (A) (A) (A) (A) (A) (A) (A)
                 (A) (A) (A) (A) (A) (A) (A) (A) (A) (A) (A) (A)
                 (A) (A) (A) (A) (A) (A) (A) (A) (A) (A) (A) (A)
                 (A) (A) (A) (A) (A) (A) (A) (A) (A) (A) (A) (A)
                 (A) (A) (A) (A) (A) (A) (A) (A) (A) (A) (A) (A)
                 (A) (A) (A) (A) (A) (A) (A) (A) (A) (A) (A) (A)
                 (A) (A) (A) (A) (A) (A) (A) (A) (A) (A) (A) (A)
                 (A) (A) (A) (A) (A) (A) (A) (A) (A) (A) (A) (A)
                 (A) (A) (A) (A) (A) (A) (A) (A) (A) (A) (A) (A)
                 (A) (A) (A) (A) (A) (A) (A) (A) (A) (A) (A) (A)
                 (A) (A) (A) (A) (A) (A) (A) (A) (A) (A) (A) (A)
                 (A) (A) (A) (A) (A) (A) (A) (A) (A) (A) (A) (A)
                 (A) (A) (A) (A) (A) (A) (A) (A) (A) (A) (A) (A)
                 (A) (A) (A) (A) (A) (A) (A) (A) (A) (A) (A) (A)
                 (A) (A) (A) (A) (A) (A) (A) (A) (A) (A) (A) (A)
                 (A) (A) (A) (A) (A) (A) (A) (A) (A) (A) (A) (A)
                 (A) (A) (A) (A) (A) (A) (A) (A) (A) (A) (A) (A)
                 (A) (A) (A) (A) (A) (A) (A) (A) (A) (A) (A) (A)
                 (A) (A) (A) (A) (A) (A) (A) (A) (A) (A) (A) (A)
                 (A) (A) (A) (A) (A) (A) (A) (A) (A) (A) (A) (A)
                 (A) (A) (A) (A) (A) (A) (A) (A) (A) (A)
 The electronic state is 1-A.
 Alpha  occ. eigenvalues --  -19.19884 -19.16790 -19.15918 -19.12770 -19.11624
 Alpha  occ. eigenvalues --  -10.27773 -10.27240 -10.26701 -10.25947 -10.25868
 Alpha  occ. eigenvalues --  -10.25751 -10.25371 -10.21416 -10.20958 -10.20721
 Alpha  occ. eigenvalues --  -10.20544 -10.20120 -10.19773 -10.19698 -10.19411
 Alpha  occ. eigenvalues --  -10.19276 -10.19083 -10.19055 -10.18815 -10.18478
 Alpha  occ. eigenvalues --  -10.18434 -10.18055 -10.17320 -10.16285 -10.15904
 Alpha  occ. eigenvalues --  -10.15034  -1.09606  -1.06191  -1.03017  -1.02724
 Alpha  occ. eigenvalues --   -1.01581  -0.86925  -0.83717  -0.82516  -0.81450
 Alpha  occ. eigenvalues --   -0.80395  -0.78435  -0.76688  -0.74417  -0.73333
 Alpha  occ. eigenvalues --   -0.71858  -0.70502  -0.69974  -0.69639  -0.68143
 Alpha  occ. eigenvalues --   -0.65446  -0.63972  -0.63346  -0.61528  -0.60788
 Alpha  occ. eigenvalues --   -0.59516  -0.58102  -0.57036  -0.54498  -0.53929
 Alpha  occ. eigenvalues --   -0.52822  -0.51797  -0.50837  -0.50447  -0.49268
 Alpha  occ. eigenvalues --   -0.48027  -0.47221  -0.46623  -0.46446  -0.45892
 Alpha  occ. eigenvalues --   -0.45062  -0.44549  -0.44156  -0.43725  -0.43317
 Alpha  occ. eigenvalues --   -0.42634  -0.42462  -0.41973  -0.41832  -0.41562
 Alpha  occ. eigenvalues --   -0.40884  -0.40781  -0.40285  -0.40011  -0.39296
 Alpha  occ. eigenvalues --   -0.39152  -0.38807  -0.38247  -0.37764  -0.37711
 Alpha  occ. eigenvalues --   -0.37466  -0.37194  -0.36910  -0.36704  -0.36475
 Alpha  occ. eigenvalues --   -0.36161  -0.35624  -0.35075  -0.34618  -0.34310
 Alpha  occ. eigenvalues --   -0.34063  -0.33773  -0.32744  -0.32490  -0.32103
 Alpha  occ. eigenvalues --   -0.31379  -0.30371  -0.30021  -0.28367  -0.26617
 Alpha  occ. eigenvalues --   -0.26004  -0.24544  -0.24345  -0.23530  -0.22123
 Alpha virt. eigenvalues --   -0.05199  -0.01331   0.00861   0.01869   0.06295
 Alpha virt. eigenvalues --    0.07723   0.08345   0.08649   0.09536   0.09857
 Alpha virt. eigenvalues --    0.10772   0.10973   0.11236   0.11852   0.12681
 Alpha virt. eigenvalues --    0.12816   0.12997   0.13961   0.14053   0.14175
 Alpha virt. eigenvalues --    0.14805   0.15059   0.15556   0.16094   0.16366
 Alpha virt. eigenvalues --    0.16459   0.16578   0.16946   0.17146   0.17261
 Alpha virt. eigenvalues --    0.17570   0.18181   0.18355   0.18830   0.19003
 Alpha virt. eigenvalues --    0.19177   0.19294   0.19910   0.20267   0.20471
 Alpha virt. eigenvalues --    0.20741   0.21195   0.21650   0.21869   0.22444
 Alpha virt. eigenvalues --    0.22822   0.22992   0.23484   0.23737   0.24642
 Alpha virt. eigenvalues --    0.24824   0.25130   0.25188   0.26308   0.26696
 Alpha virt. eigenvalues --    0.27486   0.27545   0.28021   0.29465   0.29849
 Alpha virt. eigenvalues --    0.30796   0.31406   0.32404   0.32689   0.33791
 Alpha virt. eigenvalues --    0.34449   0.35736   0.36674   0.39462   0.40217
 Alpha virt. eigenvalues --    0.42017   0.45027   0.46647   0.48264   0.48465
 Alpha virt. eigenvalues --    0.49244   0.50860   0.51233   0.51418   0.51958
 Alpha virt. eigenvalues --    0.52048   0.52686   0.53331   0.53643   0.53902
 Alpha virt. eigenvalues --    0.54074   0.54937   0.55363   0.55500   0.56320
 Alpha virt. eigenvalues --    0.56874   0.57430   0.57706   0.57925   0.59430
 Alpha virt. eigenvalues --    0.59856   0.60305   0.61078   0.61714   0.62067
 Alpha virt. eigenvalues --    0.62244   0.62676   0.63149   0.63475   0.64252
 Alpha virt. eigenvalues --    0.64691   0.65480   0.66443   0.66930   0.67547
 Alpha virt. eigenvalues --    0.67949   0.68479   0.68588   0.68909   0.69843
 Alpha virt. eigenvalues --    0.70331   0.70672   0.71280   0.72293   0.73110
 Alpha virt. eigenvalues --    0.73835   0.74600   0.75404   0.76260   0.76307
 Alpha virt. eigenvalues --    0.76770   0.77454   0.78353   0.79025   0.79820
 Alpha virt. eigenvalues --    0.80256   0.80812   0.81469   0.81605   0.82016
 Alpha virt. eigenvalues --    0.82455   0.83859   0.84132   0.84466   0.85082
 Alpha virt. eigenvalues --    0.85850   0.86043   0.86441   0.86987   0.87085
 Alpha virt. eigenvalues --    0.87507   0.87861   0.88236   0.88568   0.89045
 Alpha virt. eigenvalues --    0.89299   0.89545   0.89985   0.90409   0.90554
 Alpha virt. eigenvalues --    0.90611   0.91198   0.91505   0.92244   0.92567
 Alpha virt. eigenvalues --    0.93335   0.93510   0.94055   0.94452   0.94551
 Alpha virt. eigenvalues --    0.95440   0.95655   0.96289   0.96907   0.97251
 Alpha virt. eigenvalues --    0.97413   0.97776   0.98442   0.98874   1.00314
 Alpha virt. eigenvalues --    1.00851   1.01603   1.02490   1.03012   1.03908
 Alpha virt. eigenvalues --    1.04853   1.05671   1.06400   1.07851   1.08397
 Alpha virt. eigenvalues --    1.09724   1.10491   1.10823   1.11361   1.12541
 Alpha virt. eigenvalues --    1.14115   1.14999   1.15149   1.16840   1.17444
 Alpha virt. eigenvalues --    1.17877   1.19332   1.20310   1.20696   1.21441
 Alpha virt. eigenvalues --    1.22895   1.23775   1.24901   1.26374   1.27834
 Alpha virt. eigenvalues --    1.29520   1.30453   1.31501   1.32311   1.32504
 Alpha virt. eigenvalues --    1.33869   1.36172   1.37412   1.38214   1.39742
 Alpha virt. eigenvalues --    1.40653   1.41787   1.43170   1.44520   1.45612
 Alpha virt. eigenvalues --    1.46805   1.48756   1.49482   1.51021   1.52195
 Alpha virt. eigenvalues --    1.52925   1.55139   1.56204   1.56442   1.58499
 Alpha virt. eigenvalues --    1.59392   1.61086   1.61996   1.62325   1.62479
 Alpha virt. eigenvalues --    1.65039   1.65863   1.66756   1.67035   1.68369
 Alpha virt. eigenvalues --    1.71216   1.71451   1.72564   1.72983   1.73393
 Alpha virt. eigenvalues --    1.73966   1.75072   1.75905   1.76570   1.77777
 Alpha virt. eigenvalues --    1.78097   1.79096   1.80089   1.80520   1.81684
 Alpha virt. eigenvalues --    1.81860   1.82975   1.83787   1.84180   1.85166
 Alpha virt. eigenvalues --    1.85377   1.86109   1.86541   1.86992   1.87583
 Alpha virt. eigenvalues --    1.88653   1.88850   1.89478   1.90177   1.90954
 Alpha virt. eigenvalues --    1.92582   1.92643   1.94043   1.94716   1.95917
 Alpha virt. eigenvalues --    1.96130   1.96853   1.97315   1.97716   1.98116
 Alpha virt. eigenvalues --    1.98314   1.98410   1.99739   2.00956   2.01236
 Alpha virt. eigenvalues --    2.01669   2.02606   2.03773   2.04833   2.05938
 Alpha virt. eigenvalues --    2.06405   2.07651   2.08412   2.09601   2.10205
 Alpha virt. eigenvalues --    2.10978   2.11466   2.11955   2.12957   2.13810
 Alpha virt. eigenvalues --    2.13997   2.14727   2.15918   2.16823   2.18481
 Alpha virt. eigenvalues --    2.18831   2.19666   2.20935   2.21560   2.22345
 Alpha virt. eigenvalues --    2.23868   2.24326   2.25824   2.26029   2.26825
 Alpha virt. eigenvalues --    2.27624   2.28511   2.30079   2.31218   2.31607
 Alpha virt. eigenvalues --    2.32456   2.33369   2.33948   2.34455   2.35066
 Alpha virt. eigenvalues --    2.35181   2.36421   2.37324   2.38225   2.38808
 Alpha virt. eigenvalues --    2.39670   2.41246   2.41813   2.42296   2.43461
 Alpha virt. eigenvalues --    2.44038   2.45629   2.47000   2.48732   2.48873
 Alpha virt. eigenvalues --    2.49557   2.50667   2.51832   2.53396   2.54322
 Alpha virt. eigenvalues --    2.54940   2.56793   2.57359   2.58768   2.60104
 Alpha virt. eigenvalues --    2.60641   2.62897   2.64052   2.64796   2.66075
 Alpha virt. eigenvalues --    2.67228   2.67705   2.68387   2.69776   2.69878
 Alpha virt. eigenvalues --    2.70901   2.72542   2.74177   2.75787   2.76480
 Alpha virt. eigenvalues --    2.77212   2.79107   2.79963   2.82969   2.83842
 Alpha virt. eigenvalues --    2.84403   2.88418   2.91748   2.94610   2.96860
 Alpha virt. eigenvalues --    2.97858   2.99723   3.00451   3.01832   3.03480
 Alpha virt. eigenvalues --    3.06049   3.07569   3.11788   3.18461   3.20670
 Alpha virt. eigenvalues --    3.26292   3.29965   4.04627   4.05083   4.09253
 Alpha virt. eigenvalues --    4.12508   4.13257   4.13936   4.17240   4.19195
 Alpha virt. eigenvalues --    4.23266   4.24535   4.25533   4.28054   4.30664
 Alpha virt. eigenvalues --    4.32241   4.34615   4.37352   4.37719   4.44591
 Alpha virt. eigenvalues --    4.45289   4.49350   4.51867   4.56003   4.57839
 Alpha virt. eigenvalues --    4.64802   4.66472   4.70647   4.72518   4.81571
 Alpha virt. eigenvalues --    4.89609   5.02109   5.16520
          Condensed to atoms (all electrons):
 Mulliken atomic charges:
              1
     1  C   -0.191017
     2  C    0.191410
     3  C   -0.189514
     4  C    0.320745
     5  C   -0.049012
     6  C   -0.333439
     7  C    0.195549
     8  C    0.399170
     9  C   -0.072084
    10  C    0.408622
    11  C    0.416044
    12  O   -0.469894
    13  C   -0.137425
    14  C   -0.264307
    15  C   -0.451251
    16  O   -0.512479
    17  C   -0.163573
    18  C    0.299284
    19  O   -0.492322
    20  C   -0.322334
    21  O   -0.657197
    22  C   -0.324013
    23  C    0.104616
    24  O   -0.590092
    25  C    0.187028
    26  C   -0.519652
    27  C   -0.407552
    28  C   -0.468262
    29  C   -0.459429
    30  H    0.145222
    31  H    0.167799
    32  C   -0.519599
    33  H    0.122881
    34  H    0.182353
    35  H    0.146794
    36  H    0.137591
    37  H    0.161549
    38  H    0.127265
    39  H    0.171029
    40  H    0.135216
    41  H    0.133712
    42  H    0.162522
    43  H    0.152316
    44  H    0.416693
    45  H    0.166649
    46  H    0.174618
    47  H    0.144556
    48  H    0.170999
    49  H    0.158566
    50  H    0.162196
    51  H    0.152657
    52  H    0.140094
    53  H    0.164751
    54  H    0.141890
    55  H    0.194044
    56  H    0.170607
    57  H    0.150433
    58  H    0.159724
    59  H    0.158294
    60  H    0.156648
    61  H    0.152347
    62  C   -0.447708
    63  H    0.132087
    64  H    0.166786
    65  H    0.138801
 Sum of Mulliken atomic charges =   0.00000
 Mulliken charges with hydrogens summed into heavy atoms:
              1
     1  C   -0.068136
     2  C    0.191410
     3  C   -0.021715
     4  C    0.320745
     5  C   -0.049012
     6  C   -0.004292
     7  C    0.195549
     8  C    0.399170
     9  C   -0.072084
    10  C    0.408622
    11  C    0.416044
    12  O   -0.469894
    13  C    0.000166
    14  C    0.024506
    15  C   -0.011295
    16  O   -0.512479
    17  C   -0.018351
    18  C    0.299284
    19  O   -0.492322
    20  C   -0.007496
    21  O   -0.240504
    22  C    0.017254
    23  C    0.249172
    24  O   -0.590092
    25  C    0.187028
    26  C   -0.027891
    27  C   -0.114801
    28  C    0.032423
    29  C    0.021336
    32  C   -0.052310
    62  C   -0.010034
 Sum of Mulliken charges with hydrogens summed into heavy atoms =   0.00000
 Electronic spatial extent (au):  <R**2>=          11630.5890
 Charge=              0.0000 electrons
 Dipole moment (field-independent basis, Debye):
    X=             -5.2031    Y=              2.1798    Z=              2.3516  Tot=              6.1118
 Quadrupole moment (field-independent basis, Debye-Ang):
   XX=           -190.8799   YY=           -172.1200   ZZ=           -183.9913
   XY=              4.1829   XZ=              9.0599   YZ=              2.4164
 Traceless Quadrupole moment (field-independent basis, Debye-Ang):
   XX=             -8.5495   YY=             10.2104   ZZ=             -1.6609
   XY=              4.1829   XZ=              9.0599   YZ=              2.4164
 Octapole moment (field-independent basis, Debye-Ang**2):
  XXX=            -45.3985  YYY=             54.6153  ZZZ=              6.1063  XYY=            -33.9493
  XXY=            -24.0793  XXZ=             -0.8133  XZZ=            -17.7333  YZZ=              0.6092
  YYZ=            -17.1672  XYZ=             -2.3853
 Hexadecapole moment (field-independent basis, Debye-Ang**3):
 XXXX=          -8066.2052 YYYY=          -4388.5400 ZZZZ=          -3162.1639 XXXY=             33.7278
 XXXZ=            187.2041 YYYX=             85.4268 YYYZ=            -41.8510 ZZZX=             30.1618
 ZZZY=            -20.3769 XXYY=          -2001.5589 XXZZ=          -1851.8054 YYZZ=          -1242.8355
 XXYZ=             26.8403 YYXZ=              0.7441 ZZXY=             10.5696
 N-N= 3.504617085897D+03 E-N=-1.023555484262D+04  KE= 1.374451554979D+03
 1\1\GINC-B0803\FOpt\RB3LYP\6-31G(d)\C26H34O5\CAOFEI\24-Mar-2021\0\\# o
 pt rb3lyp/6-31g(d) geom=connectivity\\Title Card Required\\0,1\C,0.267
 1977247,-0.1187425569,0.2989236249\C,1.6019635251,-0.0236849491,0.3191
 875643\C,2.2957212321,1.3170591034,0.1926605689\C,1.4003799015,2.50300
 11826,-0.2832904659\C,-0.0730072483,2.2237769905,-0.6644647514\C,-0.66
 20014318,1.0560593275,0.1654174022\C,2.197432421,3.1553524411,-1.44116
 30677\C,1.9043764455,2.5406196461,-2.8004748922\C,0.6936676782,2.03132
 65584,-3.1823042639\C,-0.3649685405,1.9491458599,-2.1656333111\C,0.496
 7669285,1.5391469286,-4.5930294989\O,1.1832117309,2.006960164,-5.49125
 90232\C,-0.5067626039,0.4209144095,-4.8984192876\C,-1.7962857056,0.995
 7364658,-5.5499740092\C,0.1694569973,-0.6445574463,-5.7782323532\O,-1.
 5244788179,1.665262215,-2.4561065844\C,3.676056328,2.7387273838,-1.292
 0473803\C,4.2108457312,2.8646845353,-2.7364537685\O,3.0058545999,2.526
 6332909,-3.5449111967\C,3.5391620328,1.3037156207,-0.7438698487\O,1.94
 93008121,4.5434647278,-1.5545602929\C,-0.7604355475,3.5569557464,-0.27
 0877572\C,0.0090607523,3.9733423123,0.9911550009\O,1.3459515451,3.4781
 812573,0.7891897975\C,0.0090695078,5.4561825108,1.2960684045\C,-1.3572
 130123,6.0886925864,1.3975229767\C,1.1375499587,6.1416046306,1.5072661
 196\C,4.6310620983,4.2898073173,-3.1025362442\C,5.2856349422,1.8625315
 378,-3.1489478775\H,4.213812861,3.3919680176,-0.598222777\H,2.63897166
 85,1.6150138628,1.1934825624\C,2.4822330202,-1.2280960714,0.5458057107
 \H,-0.1948642723,-1.0961796048,0.4319036128\H,-1.6037260002,0.76072812
 17,-0.3060403175\H,-0.9257631211,1.4179785379,1.1708101584\H,-0.817858
 9097,-0.0404512736,-3.9575739704\H,-2.2319553106,1.7191869642,-4.85352
 39746\H,-2.515182547,0.1671645214,-5.6184301776\H,0.5850347822,-0.2012
 104831,-6.6863216656\H,-0.5560896677,-1.4157028523,-6.0632023165\H,0.9
 898807683,-1.1368760739,-5.2425466376\H,3.3585505949,0.6064692493,-1.5
 692111507\H,4.4408308063,0.9613068437,-0.2282474233\H,1.8632338212,4.8
 660367592,-0.6360116214\H,-1.8314501885,3.4219806661,-0.100414373\H,-0
 .6240526915,4.3048587009,-1.0579840371\H,-0.4134730117,3.4528008798,1.
 8665724343\H,-1.8939959091,6.0488632728,0.4411906383\H,-1.9825907977,5
 .5634209319,2.1324909518\H,-1.2854010212,7.1361399826,1.70334943\H,2.1
 10936342,5.6625184281,1.4832865722\H,1.115004658,7.2035549631,1.736514
 1582\H,4.8105856953,4.3568396024,-4.1801970498\H,5.5606142656,4.548455
 1297,-2.5823180913\H,3.8593329798,5.0093650292,-2.8244066156\H,5.52753
 09448,1.9908021674,-4.2084600027\H,6.1973688782,2.0350738737,-2.566345
 4262\H,4.9669980995,0.8286553602,-2.9974728728\H,1.8832226717,-2.13208
 16383,0.6923887996\H,3.1621309448,-1.4095440093,-0.296549051\H,3.11463
 28821,-1.0942465855,1.4351740179\C,-1.6268589397,1.6338388276,-6.93310
 24455\H,-2.583686878,2.0457085244,-7.2757488176\H,-0.892808672,2.44481
 91576,-6.9170842643\H,-1.2961187318,0.9059404191,-7.6823897374\\Versio
 n=EM64L-G09RevB.01\State=1-A\HF=-1387.3205107\RMSD=5.790e-09\RMSF=7.56
 9e-06\Dipole=1.0459763,0.0158484,2.1650837\Quadrupole=6.5510942,3.7787
 944,-10.3298886,-3.1977125,-3.2002661,2.372569\PG=C01 [X(C26H34O5)]\\@


 THE REAL VOYAGE OF DISCOVERY CONSISTS NOT IN SEEKING NEW LANDSCAPES 
 BUT IN HAVING NEW EYES.
                                                    -- MARCEL PROUST
 Job cpu time:  0 days  5 hours 16 minutes 26.3 seconds.
 File lengths (MBytes):  RWF=    186 Int=      0 D2E=      0 Chk=     20 Scr=      1
 Normal termination of Gaussian 09 at Wed Mar 24 17:40:38 2021.
