 Entering Gaussian System, Link 0=g09
 Initial command:
 /public/software/g09/g09/l1.exe /tmp/Gau-9932.inp -scrdir=/tmp/
 Entering Link 1 = /public/software/g09/g09/l1.exe PID=      9933.
  
 Copyright (c) 1988,1990,1992,1993,1995,1998,2003,2009,2010,
            Gaussian, Inc.  All Rights Reserved.
  
 This is part of the Gaussian(R) 09 program.  It is based on
 the Gaussian(R) 03 system (copyright 2003, Gaussian, Inc.),
 the Gaussian(R) 98 system (copyright 1998, Gaussian, Inc.),
 the Gaussian(R) 94 system (copyright 1995, Gaussian, Inc.),
 the Gaussian 92(TM) system (copyright 1992, Gaussian, Inc.),
 the Gaussian 90(TM) system (copyright 1990, Gaussian, Inc.),
 the Gaussian 88(TM) system (copyright 1988, Gaussian, Inc.),
 the Gaussian 86(TM) system (copyright 1986, Carnegie Mellon
 University), and the Gaussian 82(TM) system (copyright 1983,
 Carnegie Mellon University). Gaussian is a federally registered
 trademark of Gaussian, Inc.
  
 This software contains proprietary and confidential information,
 including trade secrets, belonging to Gaussian, Inc.
  
 This software is provided under written license and may be
 used, copied, transmitted, or stored only in accord with that
 written license.
  
 The following legend is applicable only to US Government
 contracts under FAR:
  
                    RESTRICTED RIGHTS LEGEND
  
 Use, reproduction and disclosure by the US Government is
 subject to restrictions as set forth in subparagraphs (a)
 and (c) of the Commercial Computer Software - Restricted
 Rights clause in FAR 52.227-19.
  
 Gaussian, Inc.
 340 Quinnipiac St., Bldg. 40, Wallingford CT 06492
  
  
 ---------------------------------------------------------------
 Warning -- This program may not be used in any manner that
 competes with the business of Gaussian, Inc. or will provide
 assistance to any competitor of Gaussian, Inc.  The licensee
 of this program is prohibited from giving any competitor of
 Gaussian, Inc. access to this program.  By using this program,
 the user acknowledges that Gaussian, Inc. is engaged in the
 business of creating and licensing software in the field of
 computational chemistry and represents and warrants to the
 licensee that it is not a competitor of Gaussian, Inc. and that
 it will not use this program in any manner prohibited above.
 ---------------------------------------------------------------
  

 Cite this work as:
 Gaussian 09, Revision B.01,
 M. J. Frisch, G. W. Trucks, H. B. Schlegel, G. E. Scuseria, 
 M. A. Robb, J. R. Cheeseman, G. Scalmani, V. Barone, B. Mennucci, 
 G. A. Petersson, H. Nakatsuji, M. Caricato, X. Li, H. P. Hratchian, 
 A. F. Izmaylov, J. Bloino, G. Zheng, J. L. Sonnenberg, M. Hada, 
 M. Ehara, K. Toyota, R. Fukuda, J. Hasegawa, M. Ishida, T. Nakajima, 
 Y. Honda, O. Kitao, H. Nakai, T. Vreven, J. A. Montgomery, Jr., 
 J. E. Peralta, F. Ogliaro, M. Bearpark, J. J. Heyd, E. Brothers, 
 K. N. Kudin, V. N. Staroverov, T. Keith, R. Kobayashi, J. Normand, 
 K. Raghavachari, A. Rendell, J. C. Burant, S. S. Iyengar, J. Tomasi, 
 M. Cossi, N. Rega, J. M. Millam, M. Klene, J. E. Knox, J. B. Cross, 
 V. Bakken, C. Adamo, J. Jaramillo, R. Gomperts, R. E. Stratmann, 
 O. Yazyev, A. J. Austin, R. Cammi, C. Pomelli, J. W. Ochterski, 
 R. L. Martin, K. Morokuma, V. G. Zakrzewski, G. A. Voth, 
 P. Salvador, J. J. Dannenberg, S. Dapprich, A. D. Daniels, 
 O. Farkas, J. B. Foresman, J. V. Ortiz, J. Cioslowski, 
 and D. J. Fox, Gaussian, Inc., Wallingford CT, 2010.
 
 ******************************************
 Gaussian 09:  EM64L-G09RevB.01 12-Aug-2010
                24-Mar-2021 
 ******************************************
 %mem=600MW
 %nprocshared=10
 Will use up to   10 processors via shared memory.
 ---------------------------------------
 # opt rb3lyp/6-31g(d) geom=connectivity
 ---------------------------------------
 1/14=-1,18=20,19=15,26=3,38=1,57=2/1,3;
 2/9=110,12=2,17=6,18=5,40=1/2;
 3/5=1,6=6,7=1,11=2,16=1,25=1,30=1,71=1,74=-5,116=1/1,2,3;
 4//1;
 5/5=2,38=5/2;
 6/7=2,8=2,9=2,10=2,28=1/1;
 7//1,2,3,16;
 1/14=-1,18=20,19=15/3(2);
 2/9=110/2;
 99//99;
 2/9=110/2;
 3/5=1,6=6,7=1,11=2,16=1,25=1,30=1,71=1,74=-5,116=1/1,2,3;
 4/5=5,16=3/1;
 5/5=2,38=5/2;
 7//1,2,3,16;
 1/14=-1,18=20,19=15/3(-5);
 2/9=110/2;
 6/7=2,8=2,9=2,10=2,19=2,28=1/1;
 99/9=1/99;
 -------------------
 Title Card Required
 -------------------
 Symbolic Z-matrix:
 Charge =  0 Multiplicity = 1
 C                     0.        0.        0. 
 C                     1.3402    0.        0. 
 C                     2.1229    1.2848    0. 
 C                     1.3745    2.5512    0.5127 
 C                    -0.17      2.483     0.6226 
 C                    -0.8115    1.2521   -0.0516 
 C                     1.9206    3.6983   -0.3666 
 C                     0.9999    4.1771   -1.4364 
 C                    -0.3269    4.2175   -1.2885 
 C                    -0.8721    3.6938   -0.017 
 C                    -1.2177    4.6289   -2.3942 
 O                    -2.0235    3.8136   -2.8439 
 C                    -1.1292    6.0705   -2.8874 
 C                    -1.3617    6.1638   -4.4032 
 C                    -2.1724    6.8951   -2.1342 
 O                    -1.9125    4.1674    0.4377 
 C                     3.0511    3.1404   -1.2115 
 C                     3.0149    4.0198   -2.475 
 O                     1.6365    4.4286   -2.6436 
 C                     2.637     1.6726   -1.3901 
 O                     2.3354    4.813     0.4088 
 C                    -0.4188    2.499     2.1449 
 C                     0.9255    2.1578    2.7622 
 O                     1.8558    2.7889    1.8713 
 C                     1.2109    2.6171    4.1727 
 C                     2.6293    2.4092    4.6383 
 C                     0.2988    3.1426    5.0087 
 C                     3.8651    5.2911   -2.3257 
 C                     3.4529    3.2864   -3.7456 
 H                     4.0242    3.197    -0.7081 
 H                     2.998     1.1296    0.6494 
 C                     2.1326   -1.2767   -0.0093 
 H                    -0.5482   -0.9397   -0.0262 
 H                    -1.7889    1.0535    0.4077 
 H                    -1.0283    1.446    -1.1107 
 H                    -0.1377    6.4782   -2.6589 
 H                    -2.3145    5.6948   -4.6775 
 H                    -1.4322    7.2186   -4.6959 
 H                    -2.1309    7.9469   -2.4356 
 H                    -2.0023    6.8486   -1.053 
 H                    -3.186     6.5247   -2.3239 
 H                     3.4863    1.055    -1.7014 
 H                     1.8445    1.5532   -2.1394 
 H                     2.4668    4.47      1.3188 
 H                    -1.1999    1.8058    2.4746 
 H                    -0.7252    3.5036    2.4611 
 H                     1.091     1.0737    2.721 
 H                     2.9158    1.3585    4.5241 
 H                     3.321     3.0252    4.0549 
 H                     2.7615    2.6736    5.693 
 H                    -0.7386    3.2883    4.727 
 H                     0.5656    3.4436    6.0179 
 H                     3.5252    5.9211   -1.4986 
 H                     3.7864    5.9152   -3.2238 
 H                     4.9205    5.0479   -2.1662 
 H                     4.4654    2.8826   -3.6459 
 H                     3.4345    3.9624   -4.6088 
 H                     2.7691    2.4703   -4.0006 
 H                     1.4874   -2.1616   -0.0118 
 H                     2.7679   -1.3261   -0.8992 
 H                     2.7706   -1.3335    0.8786 
 C                    -0.2422    5.52     -5.2107 
 H                    -0.1683    4.4469   -5.0103 
 H                     0.723     5.9822   -4.9804 
 H                    -0.4301    5.6478   -6.2815 
 

 GradGradGradGradGradGradGradGradGradGradGradGradGradGradGradGradGradGrad
 Berny optimization.
 Initialization pass.
                           ----------------------------
                           !    Initial Parameters    !
                           ! (Angstroms and Degrees)  !
 --------------------------                            --------------------------
 ! Name  Definition              Value          Derivative Info.                !
 --------------------------------------------------------------------------------
 ! R1    R(1,2)                  1.3402         estimate D2E/DX2                !
 ! R2    R(1,6)                  1.493          estimate D2E/DX2                !
 ! R3    R(1,33)                 1.0882         estimate D2E/DX2                !
 ! R4    R(2,3)                  1.5044         estimate D2E/DX2                !
 ! R5    R(2,32)                 1.5026         estimate D2E/DX2                !
 ! R6    R(3,4)                  1.5578         estimate D2E/DX2                !
 ! R7    R(3,20)                 1.532          estimate D2E/DX2                !
 ! R8    R(3,31)                 1.1007         estimate D2E/DX2                !
 ! R9    R(4,5)                  1.5499         estimate D2E/DX2                !
 ! R10   R(4,7)                  1.5451         estimate D2E/DX2                !
 ! R11   R(4,24)                 1.4608         estimate D2E/DX2                !
 ! R12   R(5,6)                  1.5431         estimate D2E/DX2                !
 ! R13   R(5,10)                 1.5389         estimate D2E/DX2                !
 ! R14   R(5,22)                 1.5426         estimate D2E/DX2                !
 ! R15   R(6,34)                 1.098          estimate D2E/DX2                !
 ! R16   R(6,35)                 1.0983         estimate D2E/DX2                !
 ! R17   R(7,8)                  1.4904         estimate D2E/DX2                !
 ! R18   R(7,17)                 1.5176         estimate D2E/DX2                !
 ! R19   R(7,21)                 1.4198         estimate D2E/DX2                !
 ! R20   R(8,9)                  1.3356         estimate D2E/DX2                !
 ! R21   R(8,19)                 1.3877         estimate D2E/DX2                !
 ! R22   R(9,10)                 1.4793         estimate D2E/DX2                !
 ! R23   R(9,11)                 1.4783         estimate D2E/DX2                !
 ! R24   R(10,16)                1.2302         estimate D2E/DX2                !
 ! R25   R(11,12)                1.2314         estimate D2E/DX2                !
 ! R26   R(11,13)                1.5262         estimate D2E/DX2                !
 ! R27   R(13,14)                1.5364         estimate D2E/DX2                !
 ! R28   R(13,15)                1.5282         estimate D2E/DX2                !
 ! R29   R(13,36)                1.0961         estimate D2E/DX2                !
 ! R30   R(14,37)                1.0968         estimate D2E/DX2                !
 ! R31   R(14,38)                1.0969         estimate D2E/DX2                !
 ! R32   R(14,62)                1.5231         estimate D2E/DX2                !
 ! R33   R(15,39)                1.0949         estimate D2E/DX2                !
 ! R34   R(15,40)                1.0955         estimate D2E/DX2                !
 ! R35   R(15,41)                1.0957         estimate D2E/DX2                !
 ! R36   R(17,18)                1.5398         estimate D2E/DX2                !
 ! R37   R(17,20)                1.5355         estimate D2E/DX2                !
 ! R38   R(17,30)                1.0971         estimate D2E/DX2                !
 ! R39   R(18,19)                1.4476         estimate D2E/DX2                !
 ! R40   R(18,28)                1.5367         estimate D2E/DX2                !
 ! R41   R(18,29)                1.5311         estimate D2E/DX2                !
 ! R42   R(20,42)                1.0953         estimate D2E/DX2                !
 ! R43   R(20,43)                1.0972         estimate D2E/DX2                !
 ! R44   R(21,44)                0.9813         estimate D2E/DX2                !
 ! R45   R(22,23)                1.5181         estimate D2E/DX2                !
 ! R46   R(22,45)                1.0951         estimate D2E/DX2                !
 ! R47   R(22,46)                1.0969         estimate D2E/DX2                !
 ! R48   R(23,24)                1.4344         estimate D2E/DX2                !
 ! R49   R(23,25)                1.5106         estimate D2E/DX2                !
 ! R50   R(23,47)                1.0974         estimate D2E/DX2                !
 ! R51   R(24,44)                1.8721         estimate D2E/DX2                !
 ! R52   R(25,26)                1.5073         estimate D2E/DX2                !
 ! R53   R(25,27)                1.3442         estimate D2E/DX2                !
 ! R54   R(26,48)                1.095          estimate D2E/DX2                !
 ! R55   R(26,49)                1.0947         estimate D2E/DX2                !
 ! R56   R(26,50)                1.0953         estimate D2E/DX2                !
 ! R57   R(27,51)                1.0848         estimate D2E/DX2                !
 ! R58   R(27,52)                1.0864         estimate D2E/DX2                !
 ! R59   R(28,53)                1.0939         estimate D2E/DX2                !
 ! R60   R(28,54)                1.0965         estimate D2E/DX2                !
 ! R61   R(28,55)                1.0947         estimate D2E/DX2                !
 ! R62   R(29,56)                1.0946         estimate D2E/DX2                !
 ! R63   R(29,57)                1.0966         estimate D2E/DX2                !
 ! R64   R(29,58)                1.0948         estimate D2E/DX2                !
 ! R65   R(32,59)                1.0951         estimate D2E/DX2                !
 ! R66   R(32,60)                1.0945         estimate D2E/DX2                !
 ! R67   R(32,61)                1.0948         estimate D2E/DX2                !
 ! R68   R(62,63)                1.0942         estimate D2E/DX2                !
 ! R69   R(62,64)                1.0947         estimate D2E/DX2                !
 ! R70   R(62,65)                1.0946         estimate D2E/DX2                !
 ! A1    A(2,1,6)              122.9255         estimate D2E/DX2                !
 ! A2    A(2,1,33)             120.2486         estimate D2E/DX2                !
 ! A3    A(6,1,33)             116.7149         estimate D2E/DX2                !
 ! A4    A(1,2,3)              121.3498         estimate D2E/DX2                !
 ! A5    A(1,2,32)             121.8256         estimate D2E/DX2                !
 ! A6    A(3,2,32)             116.8233         estimate D2E/DX2                !
 ! A7    A(2,3,4)              116.3795         estimate D2E/DX2                !
 ! A8    A(2,3,20)             113.0018         estimate D2E/DX2                !
 ! A9    A(2,3,31)             107.0499         estimate D2E/DX2                !
 ! A10   A(4,3,20)             104.7183         estimate D2E/DX2                !
 ! A11   A(4,3,31)             107.6016         estimate D2E/DX2                !
 ! A12   A(20,3,31)            107.7117         estimate D2E/DX2                !
 ! A13   A(3,4,5)              117.7951         estimate D2E/DX2                !
 ! A14   A(3,4,7)              104.2673         estimate D2E/DX2                !
 ! A15   A(3,4,24)             106.2653         estimate D2E/DX2                !
 ! A16   A(5,4,7)              115.1657         estimate D2E/DX2                !
 ! A17   A(5,4,24)             105.6369         estimate D2E/DX2                !
 ! A18   A(7,4,24)             106.9793         estimate D2E/DX2                !
 ! A19   A(4,5,6)              114.7329         estimate D2E/DX2                !
 ! A20   A(4,5,10)             112.9896         estimate D2E/DX2                !
 ! A21   A(4,5,22)             103.3115         estimate D2E/DX2                !
 ! A22   A(6,5,10)             104.8542         estimate D2E/DX2                !
 ! A23   A(6,5,22)             111.863          estimate D2E/DX2                !
 ! A24   A(10,5,22)            109.173          estimate D2E/DX2                !
 ! A25   A(1,6,5)              115.3356         estimate D2E/DX2                !
 ! A26   A(1,6,34)             108.5229         estimate D2E/DX2                !
 ! A27   A(1,6,35)             106.7791         estimate D2E/DX2                !
 ! A28   A(5,6,34)             109.3635         estimate D2E/DX2                !
 ! A29   A(5,6,35)             111.2567         estimate D2E/DX2                !
 ! A30   A(34,6,35)            105.0451         estimate D2E/DX2                !
 ! A31   A(4,7,8)              115.382          estimate D2E/DX2                !
 ! A32   A(4,7,17)             107.8904         estimate D2E/DX2                !
 ! A33   A(4,7,21)             112.0454         estimate D2E/DX2                !
 ! A34   A(8,7,17)             100.2914         estimate D2E/DX2                !
 ! A35   A(8,7,21)             108.6785         estimate D2E/DX2                !
 ! A36   A(17,7,21)            112.0265         estimate D2E/DX2                !
 ! A37   A(7,8,9)              122.9487         estimate D2E/DX2                !
 ! A38   A(7,8,19)             113.5305         estimate D2E/DX2                !
 ! A39   A(9,8,19)             123.1301         estimate D2E/DX2                !
 ! A40   A(8,9,10)             116.7821         estimate D2E/DX2                !
 ! A41   A(8,9,11)             121.6142         estimate D2E/DX2                !
 ! A42   A(10,9,11)            121.288          estimate D2E/DX2                !
 ! A43   A(5,10,9)             117.8824         estimate D2E/DX2                !
 ! A44   A(5,10,16)            122.3524         estimate D2E/DX2                !
 ! A45   A(9,10,16)            119.5441         estimate D2E/DX2                !
 ! A46   A(9,11,12)            118.8964         estimate D2E/DX2                !
 ! A47   A(9,11,13)            118.0104         estimate D2E/DX2                !
 ! A48   A(12,11,13)           123.0477         estimate D2E/DX2                !
 ! A49   A(11,13,14)           111.5564         estimate D2E/DX2                !
 ! A50   A(11,13,15)           108.1082         estimate D2E/DX2                !
 ! A51   A(11,13,36)           109.6585         estimate D2E/DX2                !
 ! A52   A(14,13,15)           110.4988         estimate D2E/DX2                !
 ! A53   A(14,13,36)           108.6611         estimate D2E/DX2                !
 ! A54   A(15,13,36)           108.3018         estimate D2E/DX2                !
 ! A55   A(13,14,37)           110.6238         estimate D2E/DX2                !
 ! A56   A(13,14,38)           109.353          estimate D2E/DX2                !
 ! A57   A(13,14,62)           112.7167         estimate D2E/DX2                !
 ! A58   A(37,14,38)           106.7749         estimate D2E/DX2                !
 ! A59   A(37,14,62)           108.9759         estimate D2E/DX2                !
 ! A60   A(38,14,62)           108.1937         estimate D2E/DX2                !
 ! A61   A(13,15,39)           110.9027         estimate D2E/DX2                !
 ! A62   A(13,15,40)           110.9486         estimate D2E/DX2                !
 ! A63   A(13,15,41)           111.3296         estimate D2E/DX2                !
 ! A64   A(39,15,40)           107.8528         estimate D2E/DX2                !
 ! A65   A(39,15,41)           108.1882         estimate D2E/DX2                !
 ! A66   A(40,15,41)           107.4674         estimate D2E/DX2                !
 ! A67   A(7,17,18)            103.2596         estimate D2E/DX2                !
 ! A68   A(7,17,20)            102.4313         estimate D2E/DX2                !
 ! A69   A(7,17,30)            112.7258         estimate D2E/DX2                !
 ! A70   A(18,17,20)           116.368          estimate D2E/DX2                !
 ! A71   A(18,17,30)           111.5865         estimate D2E/DX2                !
 ! A72   A(20,17,30)           109.9926         estimate D2E/DX2                !
 ! A73   A(17,18,19)           106.2144         estimate D2E/DX2                !
 ! A74   A(17,18,28)           112.3181         estimate D2E/DX2                !
 ! A75   A(17,18,29)           113.6197         estimate D2E/DX2                !
 ! A76   A(19,18,28)           107.7289         estimate D2E/DX2                !
 ! A77   A(19,18,29)           108.1207         estimate D2E/DX2                !
 ! A78   A(28,18,29)           108.581          estimate D2E/DX2                !
 ! A79   A(8,19,18)            106.5174         estimate D2E/DX2                !
 ! A80   A(3,20,17)            103.1162         estimate D2E/DX2                !
 ! A81   A(3,20,42)            112.0468         estimate D2E/DX2                !
 ! A82   A(3,20,43)            110.4717         estimate D2E/DX2                !
 ! A83   A(17,20,42)           111.2814         estimate D2E/DX2                !
 ! A84   A(17,20,43)           112.2258         estimate D2E/DX2                !
 ! A85   A(42,20,43)           107.7357         estimate D2E/DX2                !
 ! A86   A(7,21,44)            105.7319         estimate D2E/DX2                !
 ! A87   A(5,22,23)            104.8404         estimate D2E/DX2                !
 ! A88   A(5,22,45)            113.9268         estimate D2E/DX2                !
 ! A89   A(5,22,46)            109.8187         estimate D2E/DX2                !
 ! A90   A(23,22,45)           111.5247         estimate D2E/DX2                !
 ! A91   A(23,22,46)           109.633          estimate D2E/DX2                !
 ! A92   A(45,22,46)           107.0802         estimate D2E/DX2                !
 ! A93   A(22,23,24)           102.878          estimate D2E/DX2                !
 ! A94   A(22,23,25)           118.597          estimate D2E/DX2                !
 ! A95   A(22,23,47)           109.8952         estimate D2E/DX2                !
 ! A96   A(24,23,25)           108.8828         estimate D2E/DX2                !
 ! A97   A(24,23,47)           108.2708         estimate D2E/DX2                !
 ! A98   A(25,23,47)           107.8737         estimate D2E/DX2                !
 ! A99   A(4,24,23)            106.9997         estimate D2E/DX2                !
 ! A100  A(23,25,26)           115.1055         estimate D2E/DX2                !
 ! A101  A(23,25,27)           124.8458         estimate D2E/DX2                !
 ! A102  A(26,25,27)           120.0218         estimate D2E/DX2                !
 ! A103  A(25,26,48)           110.2637         estimate D2E/DX2                !
 ! A104  A(25,26,49)           110.6332         estimate D2E/DX2                !
 ! A105  A(25,26,50)           112.1927         estimate D2E/DX2                !
 ! A106  A(48,26,49)           108.6053         estimate D2E/DX2                !
 ! A107  A(48,26,50)           107.4849         estimate D2E/DX2                !
 ! A108  A(49,26,50)           107.5224         estimate D2E/DX2                !
 ! A109  A(25,27,51)           122.676          estimate D2E/DX2                !
 ! A110  A(25,27,52)           121.2919         estimate D2E/DX2                !
 ! A111  A(51,27,52)           116.0316         estimate D2E/DX2                !
 ! A112  A(18,28,53)           112.2115         estimate D2E/DX2                !
 ! A113  A(18,28,54)           110.5852         estimate D2E/DX2                !
 ! A114  A(18,28,55)           111.3313         estimate D2E/DX2                !
 ! A115  A(53,28,54)           105.617          estimate D2E/DX2                !
 ! A116  A(53,28,55)           108.5028         estimate D2E/DX2                !
 ! A117  A(54,28,55)           108.3595         estimate D2E/DX2                !
 ! A118  A(18,29,56)           111.4531         estimate D2E/DX2                !
 ! A119  A(18,29,57)           110.6817         estimate D2E/DX2                !
 ! A120  A(18,29,58)           111.8194         estimate D2E/DX2                !
 ! A121  A(56,29,57)           108.3391         estimate D2E/DX2                !
 ! A122  A(56,29,58)           108.9026         estimate D2E/DX2                !
 ! A123  A(57,29,58)           105.4088         estimate D2E/DX2                !
 ! A124  A(2,32,59)            112.0774         estimate D2E/DX2                !
 ! A125  A(2,32,60)            110.4546         estimate D2E/DX2                !
 ! A126  A(2,32,61)            110.2649         estimate D2E/DX2                !
 ! A127  A(59,32,60)           107.6763         estimate D2E/DX2                !
 ! A128  A(59,32,61)           107.653          estimate D2E/DX2                !
 ! A129  A(60,32,61)           108.5902         estimate D2E/DX2                !
 ! A130  A(14,62,63)           111.5369         estimate D2E/DX2                !
 ! A131  A(14,62,64)           110.9821         estimate D2E/DX2                !
 ! A132  A(14,62,65)           110.0661         estimate D2E/DX2                !
 ! A133  A(63,62,64)           108.4225         estimate D2E/DX2                !
 ! A134  A(63,62,65)           107.774          estimate D2E/DX2                !
 ! A135  A(64,62,65)           107.9303         estimate D2E/DX2                !
 ! D1    D(6,1,2,3)              2.3599         estimate D2E/DX2                !
 ! D2    D(6,1,2,32)          -177.2228         estimate D2E/DX2                !
 ! D3    D(33,1,2,3)           178.4029         estimate D2E/DX2                !
 ! D4    D(33,1,2,32)           -1.1797         estimate D2E/DX2                !
 ! D5    D(2,1,6,5)            -31.2877         estimate D2E/DX2                !
 ! D6    D(2,1,6,34)          -154.3475         estimate D2E/DX2                !
 ! D7    D(2,1,6,35)            92.8873         estimate D2E/DX2                !
 ! D8    D(33,1,6,5)           152.5387         estimate D2E/DX2                !
 ! D9    D(33,1,6,34)           29.479          estimate D2E/DX2                !
 ! D10   D(33,1,6,35)          -83.2862         estimate D2E/DX2                !
 ! D11   D(1,2,3,4)             21.5537         estimate D2E/DX2                !
 ! D12   D(1,2,3,20)           -99.6869         estimate D2E/DX2                !
 ! D13   D(1,2,3,31)           141.8958         estimate D2E/DX2                !
 ! D14   D(32,2,3,4)          -158.8437         estimate D2E/DX2                !
 ! D15   D(32,2,3,20)           79.9157         estimate D2E/DX2                !
 ! D16   D(32,2,3,31)          -38.5015         estimate D2E/DX2                !
 ! D17   D(1,2,32,59)           -0.2228         estimate D2E/DX2                !
 ! D18   D(1,2,32,60)          119.8431         estimate D2E/DX2                !
 ! D19   D(1,2,32,61)         -120.1297         estimate D2E/DX2                !
 ! D20   D(3,2,32,59)         -179.8234         estimate D2E/DX2                !
 ! D21   D(3,2,32,60)          -59.7575         estimate D2E/DX2                !
 ! D22   D(3,2,32,61)           60.2697         estimate D2E/DX2                !
 ! D23   D(2,3,4,5)            -15.6264         estimate D2E/DX2                !
 ! D24   D(2,3,4,7)           -144.6796         estimate D2E/DX2                !
 ! D25   D(2,3,4,24)           102.4856         estimate D2E/DX2                !
 ! D26   D(20,3,4,5)           109.9127         estimate D2E/DX2                !
 ! D27   D(20,3,4,7)           -19.1405         estimate D2E/DX2                !
 ! D28   D(20,3,4,24)         -131.9752         estimate D2E/DX2                !
 ! D29   D(31,3,4,5)          -135.6728         estimate D2E/DX2                !
 ! D30   D(31,3,4,7)            95.274          estimate D2E/DX2                !
 ! D31   D(31,3,4,24)          -17.5607         estimate D2E/DX2                !
 ! D32   D(2,3,20,17)          165.5133         estimate D2E/DX2                !
 ! D33   D(2,3,20,42)          -74.7224         estimate D2E/DX2                !
 ! D34   D(2,3,20,43)           45.4101         estimate D2E/DX2                !
 ! D35   D(4,3,20,17)           37.8817         estimate D2E/DX2                !
 ! D36   D(4,3,20,42)          157.646          estimate D2E/DX2                !
 ! D37   D(4,3,20,43)          -82.2214         estimate D2E/DX2                !
 ! D38   D(31,3,20,17)         -76.4554         estimate D2E/DX2                !
 ! D39   D(31,3,20,42)          43.3089         estimate D2E/DX2                !
 ! D40   D(31,3,20,43)         163.4414         estimate D2E/DX2                !
 ! D41   D(3,4,5,6)            -11.3936         estimate D2E/DX2                !
 ! D42   D(3,4,5,10)          -131.5284         estimate D2E/DX2                !
 ! D43   D(3,4,5,22)           110.6327         estimate D2E/DX2                !
 ! D44   D(7,4,5,6)            112.3494         estimate D2E/DX2                !
 ! D45   D(7,4,5,10)            -7.7855         estimate D2E/DX2                !
 ! D46   D(7,4,5,22)          -125.6243         estimate D2E/DX2                !
 ! D47   D(24,4,5,6)          -129.8395         estimate D2E/DX2                !
 ! D48   D(24,4,5,10)          110.0256         estimate D2E/DX2                !
 ! D49   D(24,4,5,22)           -7.8132         estimate D2E/DX2                !
 ! D50   D(3,4,7,8)            104.2855         estimate D2E/DX2                !
 ! D51   D(3,4,7,17)            -6.8729         estimate D2E/DX2                !
 ! D52   D(3,4,7,21)          -130.6454         estimate D2E/DX2                !
 ! D53   D(5,4,7,8)            -26.3379         estimate D2E/DX2                !
 ! D54   D(5,4,7,17)          -137.4962         estimate D2E/DX2                !
 ! D55   D(5,4,7,21)            98.7312         estimate D2E/DX2                !
 ! D56   D(24,4,7,8)          -143.3924         estimate D2E/DX2                !
 ! D57   D(24,4,7,17)          105.4493         estimate D2E/DX2                !
 ! D58   D(24,4,7,21)          -18.3232         estimate D2E/DX2                !
 ! D59   D(3,4,24,23)          -94.7762         estimate D2E/DX2                !
 ! D60   D(5,4,24,23)           31.1037         estimate D2E/DX2                !
 ! D61   D(7,4,24,23)          154.2767         estimate D2E/DX2                !
 ! D62   D(4,5,6,1)             33.9036         estimate D2E/DX2                !
 ! D63   D(4,5,6,34)           156.5163         estimate D2E/DX2                !
 ! D64   D(4,5,6,35)           -87.8928         estimate D2E/DX2                !
 ! D65   D(10,5,6,1)           158.4484         estimate D2E/DX2                !
 ! D66   D(10,5,6,34)          -78.9389         estimate D2E/DX2                !
 ! D67   D(10,5,6,35)           36.6521         estimate D2E/DX2                !
 ! D68   D(22,5,6,1)           -83.353          estimate D2E/DX2                !
 ! D69   D(22,5,6,34)           39.2596         estimate D2E/DX2                !
 ! D70   D(22,5,6,35)          154.8506         estimate D2E/DX2                !
 ! D71   D(4,5,10,9)            39.6571         estimate D2E/DX2                !
 ! D72   D(4,5,10,16)         -145.7747         estimate D2E/DX2                !
 ! D73   D(6,5,10,9)           -85.9852         estimate D2E/DX2                !
 ! D74   D(6,5,10,16)           88.5829         estimate D2E/DX2                !
 ! D75   D(22,5,10,9)          154.0075         estimate D2E/DX2                !
 ! D76   D(22,5,10,16)         -31.4243         estimate D2E/DX2                !
 ! D77   D(4,5,22,23)          -16.3402         estimate D2E/DX2                !
 ! D78   D(4,5,22,45)         -138.5359         estimate D2E/DX2                !
 ! D79   D(4,5,22,46)          101.3676         estimate D2E/DX2                !
 ! D80   D(6,5,22,23)          107.5909         estimate D2E/DX2                !
 ! D81   D(6,5,22,45)          -14.6048         estimate D2E/DX2                !
 ! D82   D(6,5,22,46)         -134.7013         estimate D2E/DX2                !
 ! D83   D(10,5,22,23)        -136.8167         estimate D2E/DX2                !
 ! D84   D(10,5,22,45)         100.9876         estimate D2E/DX2                !
 ! D85   D(10,5,22,46)         -19.1089         estimate D2E/DX2                !
 ! D86   D(4,7,8,9)             34.5002         estimate D2E/DX2                !
 ! D87   D(4,7,8,19)          -138.5229         estimate D2E/DX2                !
 ! D88   D(17,7,8,9)           150.0775         estimate D2E/DX2                !
 ! D89   D(17,7,8,19)          -22.9456         estimate D2E/DX2                !
 ! D90   D(21,7,8,9)           -92.2935         estimate D2E/DX2                !
 ! D91   D(21,7,8,19)           94.6833         estimate D2E/DX2                !
 ! D92   D(4,7,17,18)          151.2646         estimate D2E/DX2                !
 ! D93   D(4,7,17,20)           29.986          estimate D2E/DX2                !
 ! D94   D(4,7,17,30)          -88.1718         estimate D2E/DX2                !
 ! D95   D(8,7,17,18)           30.1728         estimate D2E/DX2                !
 ! D96   D(8,7,17,20)          -91.1058         estimate D2E/DX2                !
 ! D97   D(8,7,17,30)          150.7363         estimate D2E/DX2                !
 ! D98   D(21,7,17,18)         -84.9514         estimate D2E/DX2                !
 ! D99   D(21,7,17,20)         153.77           estimate D2E/DX2                !
 ! D100  D(21,7,17,30)          35.6121         estimate D2E/DX2                !
 ! D101  D(4,7,21,44)           19.3689         estimate D2E/DX2                !
 ! D102  D(8,7,21,44)          148.0566         estimate D2E/DX2                !
 ! D103  D(17,7,21,44)        -102.0541         estimate D2E/DX2                !
 ! D104  D(7,8,9,10)            -3.024          estimate D2E/DX2                !
 ! D105  D(7,8,9,11)          -176.6495         estimate D2E/DX2                !
 ! D106  D(19,8,9,10)          169.3338         estimate D2E/DX2                !
 ! D107  D(19,8,9,11)           -4.2917         estimate D2E/DX2                !
 ! D108  D(7,8,19,18)            4.7182         estimate D2E/DX2                !
 ! D109  D(9,8,19,18)         -168.2906         estimate D2E/DX2                !
 ! D110  D(8,9,10,5)           -35.5844         estimate D2E/DX2                !
 ! D111  D(8,9,10,16)          149.6896         estimate D2E/DX2                !
 ! D112  D(11,9,10,5)          138.0633         estimate D2E/DX2                !
 ! D113  D(11,9,10,16)         -36.6627         estimate D2E/DX2                !
 ! D114  D(8,9,11,12)          116.8117         estimate D2E/DX2                !
 ! D115  D(8,9,11,13)          -65.5659         estimate D2E/DX2                !
 ! D116  D(10,9,11,12)         -56.5279         estimate D2E/DX2                !
 ! D117  D(10,9,11,13)         121.0945         estimate D2E/DX2                !
 ! D118  D(9,11,13,14)         145.1062         estimate D2E/DX2                !
 ! D119  D(9,11,13,15)         -93.2035         estimate D2E/DX2                !
 ! D120  D(9,11,13,36)          24.6785         estimate D2E/DX2                !
 ! D121  D(12,11,13,14)        -37.3772         estimate D2E/DX2                !
 ! D122  D(12,11,13,15)         84.3131         estimate D2E/DX2                !
 ! D123  D(12,11,13,36)       -157.8049         estimate D2E/DX2                !
 ! D124  D(11,13,14,37)         54.7106         estimate D2E/DX2                !
 ! D125  D(11,13,14,38)        172.0352         estimate D2E/DX2                !
 ! D126  D(11,13,14,62)        -67.5801         estimate D2E/DX2                !
 ! D127  D(15,13,14,37)        -65.5856         estimate D2E/DX2                !
 ! D128  D(15,13,14,38)         51.739          estimate D2E/DX2                !
 ! D129  D(15,13,14,62)        172.1237         estimate D2E/DX2                !
 ! D130  D(36,13,14,37)        175.7215         estimate D2E/DX2                !
 ! D131  D(36,13,14,38)        -66.9539         estimate D2E/DX2                !
 ! D132  D(36,13,14,62)         53.4308         estimate D2E/DX2                !
 ! D133  D(11,13,15,39)        178.5414         estimate D2E/DX2                !
 ! D134  D(11,13,15,40)         58.6995         estimate D2E/DX2                !
 ! D135  D(11,13,15,41)        -60.9393         estimate D2E/DX2                !
 ! D136  D(14,13,15,39)        -59.1181         estimate D2E/DX2                !
 ! D137  D(14,13,15,40)       -178.96           estimate D2E/DX2                !
 ! D138  D(14,13,15,41)         61.4013         estimate D2E/DX2                !
 ! D139  D(36,13,15,39)         59.7932         estimate D2E/DX2                !
 ! D140  D(36,13,15,40)        -60.0487         estimate D2E/DX2                !
 ! D141  D(36,13,15,41)       -179.6874         estimate D2E/DX2                !
 ! D142  D(13,14,62,63)         62.7963         estimate D2E/DX2                !
 ! D143  D(13,14,62,64)        -58.216          estimate D2E/DX2                !
 ! D144  D(13,14,62,65)       -177.63           estimate D2E/DX2                !
 ! D145  D(37,14,62,63)        -60.4167         estimate D2E/DX2                !
 ! D146  D(37,14,62,64)        178.571          estimate D2E/DX2                !
 ! D147  D(37,14,62,65)         59.157          estimate D2E/DX2                !
 ! D148  D(38,14,62,63)       -176.1557         estimate D2E/DX2                !
 ! D149  D(38,14,62,64)         62.832          estimate D2E/DX2                !
 ! D150  D(38,14,62,65)        -56.582          estimate D2E/DX2                !
 ! D151  D(7,17,18,19)         -29.6395         estimate D2E/DX2                !
 ! D152  D(7,17,18,28)          87.8883         estimate D2E/DX2                !
 ! D153  D(7,17,18,29)        -148.3697         estimate D2E/DX2                !
 ! D154  D(20,17,18,19)         81.6855         estimate D2E/DX2                !
 ! D155  D(20,17,18,28)       -160.7866         estimate D2E/DX2                !
 ! D156  D(20,17,18,29)        -37.0447         estimate D2E/DX2                !
 ! D157  D(30,17,18,19)       -150.9768         estimate D2E/DX2                !
 ! D158  D(30,17,18,28)        -33.4489         estimate D2E/DX2                !
 ! D159  D(30,17,18,29)         90.2931         estimate D2E/DX2                !
 ! D160  D(7,17,20,3)          -41.6259         estimate D2E/DX2                !
 ! D161  D(7,17,20,42)        -161.9163         estimate D2E/DX2                !
 ! D162  D(7,17,20,43)          77.2652         estimate D2E/DX2                !
 ! D163  D(18,17,20,3)        -153.4288         estimate D2E/DX2                !
 ! D164  D(18,17,20,42)         86.2808         estimate D2E/DX2                !
 ! D165  D(18,17,20,43)        -34.5377         estimate D2E/DX2                !
 ! D166  D(30,17,20,3)          78.4512         estimate D2E/DX2                !
 ! D167  D(30,17,20,42)        -41.8391         estimate D2E/DX2                !
 ! D168  D(30,17,20,43)       -162.6576         estimate D2E/DX2                !
 ! D169  D(17,18,19,8)          15.7826         estimate D2E/DX2                !
 ! D170  D(28,18,19,8)        -104.7591         estimate D2E/DX2                !
 ! D171  D(29,18,19,8)         138.0722         estimate D2E/DX2                !
 ! D172  D(17,18,28,53)        -60.0351         estimate D2E/DX2                !
 ! D173  D(17,18,28,54)       -177.6791         estimate D2E/DX2                !
 ! D174  D(17,18,28,55)         61.7985         estimate D2E/DX2                !
 ! D175  D(19,18,28,53)         56.5885         estimate D2E/DX2                !
 ! D176  D(19,18,28,54)        -61.0555         estimate D2E/DX2                !
 ! D177  D(19,18,28,55)        178.4221         estimate D2E/DX2                !
 ! D178  D(29,18,28,53)        173.4577         estimate D2E/DX2                !
 ! D179  D(29,18,28,54)         55.8138         estimate D2E/DX2                !
 ! D180  D(29,18,28,55)        -64.7086         estimate D2E/DX2                !
 ! D181  D(17,18,29,56)        -57.856          estimate D2E/DX2                !
 ! D182  D(17,18,29,57)       -178.4996         estimate D2E/DX2                !
 ! D183  D(17,18,29,58)         64.3026         estimate D2E/DX2                !
 ! D184  D(19,18,29,56)       -175.4869         estimate D2E/DX2                !
 ! D185  D(19,18,29,57)         63.8695         estimate D2E/DX2                !
 ! D186  D(19,18,29,58)        -53.3282         estimate D2E/DX2                !
 ! D187  D(28,18,29,56)         67.8954         estimate D2E/DX2                !
 ! D188  D(28,18,29,57)        -52.7482         estimate D2E/DX2                !
 ! D189  D(28,18,29,58)       -169.946          estimate D2E/DX2                !
 ! D190  D(5,22,23,24)          35.195          estimate D2E/DX2                !
 ! D191  D(5,22,23,25)         155.3769         estimate D2E/DX2                !
 ! D192  D(5,22,23,47)         -79.9398         estimate D2E/DX2                !
 ! D193  D(45,22,23,24)        158.9418         estimate D2E/DX2                !
 ! D194  D(45,22,23,25)        -80.8763         estimate D2E/DX2                !
 ! D195  D(45,22,23,47)         43.807          estimate D2E/DX2                !
 ! D196  D(46,22,23,24)        -82.6392         estimate D2E/DX2                !
 ! D197  D(46,22,23,25)         37.5427         estimate D2E/DX2                !
 ! D198  D(46,22,23,47)        162.226          estimate D2E/DX2                !
 ! D199  D(22,23,24,4)         -41.4713         estimate D2E/DX2                !
 ! D200  D(25,23,24,4)        -168.1355         estimate D2E/DX2                !
 ! D201  D(47,23,24,4)          74.8302         estimate D2E/DX2                !
 ! D202  D(22,23,25,26)       -171.7492         estimate D2E/DX2                !
 ! D203  D(22,23,25,27)         10.1464         estimate D2E/DX2                !
 ! D204  D(24,23,25,26)        -54.7007         estimate D2E/DX2                !
 ! D205  D(24,23,25,27)        127.1949         estimate D2E/DX2                !
 ! D206  D(47,23,25,26)         62.5862         estimate D2E/DX2                !
 ! D207  D(47,23,25,27)       -115.5182         estimate D2E/DX2                !
 ! D208  D(23,25,26,48)        -55.05           estimate D2E/DX2                !
 ! D209  D(23,25,26,49)         65.1104         estimate D2E/DX2                !
 ! D210  D(23,25,26,50)       -174.8195         estimate D2E/DX2                !
 ! D211  D(27,25,26,48)        123.1533         estimate D2E/DX2                !
 ! D212  D(27,25,26,49)       -116.6864         estimate D2E/DX2                !
 ! D213  D(27,25,26,50)          3.3838         estimate D2E/DX2                !
 ! D214  D(23,25,27,51)         -0.4468         estimate D2E/DX2                !
 ! D215  D(23,25,27,52)        179.2679         estimate D2E/DX2                !
 ! D216  D(26,25,27,51)       -178.4642         estimate D2E/DX2                !
 ! D217  D(26,25,27,52)          1.2504         estimate D2E/DX2                !
 --------------------------------------------------------------------------------
 Trust Radius=3.00D-01 FncErr=1.00D-07 GrdErr=1.00D-06
 Number of steps in this run=    390 maximum allowed number of steps=    390.
 GradGradGradGradGradGradGradGradGradGradGradGradGradGradGradGradGradGrad

 Stoichiometry    C26H34O5
 Framework group  C1[X(C26H34O5)]
 Deg. of freedom   189
 Full point group                 C1      NOp   1
 Largest Abelian subgroup         C1      NOp   1
 Largest concise Abelian subgroup C1      NOp   1
                         Standard orientation:                         
 ---------------------------------------------------------------------
 Center     Atomic      Atomic             Coordinates (Angstroms)
 Number     Number       Type             X           Y           Z
 ---------------------------------------------------------------------
      1          6           0       -1.900355    0.350873    2.850046
      2          6           0       -2.181235    1.455212    2.144583
      3          6           0       -1.704453    1.621008    0.727360
      4          6           0       -1.347147    0.313347   -0.040159
      5          6           0       -1.149892   -0.980778    0.789625
      6          6           0       -1.062373   -0.762765    2.314746
      7          6           0       -0.149955    0.710577   -0.932445
      8          6           0        1.181533    0.229637   -0.466349
      9          6           0        1.355370   -0.941809    0.151225
     10          6           0        0.139078   -1.738072    0.424756
     11          6           0        2.677167   -1.357662    0.666264
     12          8           0        2.817603   -1.525784    1.877987
     13          6           0        3.792435   -1.612011   -0.344068
     14          6           0        5.162506   -1.191869    0.209824
     15          6           0        3.788906   -3.100403   -0.690793
     16          8           0        0.210936   -2.965937    0.450528
     17          6           0        0.045421    2.210553   -0.809817
     18          6           0        1.554248    2.391668   -1.058268
     19          8           0        2.188826    1.175304   -0.596425
     20          6           0       -0.449683    2.492912    0.616001
     21          8           0       -0.333031    0.305933   -2.281002
     22          6           0       -2.370043   -1.841052    0.401403
     23          6           0       -3.341121   -0.869377   -0.244722
     24          8           0       -2.472060    0.041823   -0.931668
     25          6           0       -4.358098   -1.407105   -1.223764
     26          6           0       -5.150638   -0.359382   -1.962697
     27          6           0       -4.607923   -2.711238   -1.433043
     28          6           0        1.884586    2.554440   -2.550151
     29          6           0        2.165244    3.568038   -0.292121
     30          1           0       -0.553657    2.776579   -1.533874
     31          1           0       -2.511421    2.122998    0.172007
     32          6           0       -2.976267    2.588260    2.729453
     33          1           0       -2.232124    0.260779    3.882547
     34          1           0       -1.342862   -1.689988    2.831750
     35          1           0       -0.029507   -0.561996    2.629662
     36          1           0        3.595813   -1.044513   -1.261014
     37          1           0        5.358961   -1.685081    1.169604
     38          1           0        5.949550   -1.518499   -0.480915
     39          1           0        4.558297   -3.329914   -1.435246
     40          1           0        2.820760   -3.404052   -1.103807
     41          1           0        3.976132   -3.716572    0.195688
     42          1           0       -0.673913    3.555850    0.755759
     43          1           0        0.287028    2.204005    1.375971
     44          1           0       -1.296970    0.153993   -2.384684
     45          1           0       -2.829369   -2.366787    1.245184
     46          1           0       -2.070690   -2.603052   -0.328547
     47          1           0       -3.881874   -0.311124    0.530068
     48          1           0       -5.638698    0.317257   -1.253435
     49          1           0       -4.497715    0.229686   -2.614579
     50          1           0       -5.933486   -0.798905   -2.590187
     51          1           0       -4.080919   -3.500254   -0.907206
     52          1           0       -5.362459   -3.034093   -2.144877
     53          1           0        1.574447    1.686629   -3.139426
     54          1           0        2.967678    2.639895   -2.698101
     55          1           0        1.407952    3.446770   -2.968507
     56          1           0        1.667790    4.510419   -0.542340
     57          1           0        3.232232    3.668940   -0.524035
     58          1           0        2.115966    3.417701    0.791205
     59          1           0       -3.280305    2.387692    3.762251
     60          1           0       -2.385635    3.509739    2.729877
     61          1           0       -3.885045    2.756454    2.142538
     62          6           0        5.285890    0.315127    0.393002
     63          1           0        4.566631    0.690752    1.126990
     64          1           0        5.120449    0.839861   -0.553339
     65          1           0        6.289570    0.569352    0.748316
 ---------------------------------------------------------------------
 Rotational constants (GHZ):      0.2258124      0.1220854      0.1073543
 Standard basis: 6-31G(d) (6D, 7F)
 There are   533 symmetry adapted basis functions of A   symmetry.
 Integral buffers will be    131072 words long.
 Raffenetti 2 integral format.
 Two-electron integral symmetry is turned on.
   533 basis functions,  1004 primitive gaussians,   533 cartesian basis functions
   115 alpha electrons      115 beta electrons
       nuclear repulsion energy      3511.7615366625 Hartrees.
 NAtoms=   65 NActive=   65 NUniq=   65 SFac= 1.00D+00 NAtFMM=   50 NAOKFM=T Big=T
 One-electron integrals computed using PRISM.
 NBasis=   533 RedAO= T  NBF=   533
 NBsUse=   533 1.00D-06 NBFU=   533
 Harris functional with IExCor=  402 diagonalized for initial guess.
 ExpMin= 1.61D-01 ExpMax= 5.48D+03 ExpMxC= 8.25D+02 IAcc=1 IRadAn=         1 AccDes= 0.00D+00
 HarFok:  IExCor=  402 AccDes= 0.00D+00 IRadAn=         1 IDoV= 1
 ScaDFX=  1.000000  1.000000  1.000000  1.000000
 FoFCou: FMM=F IPFlag=           0 FMFlag=      100000 FMFlg1=        2001
         NFxFlg=           0 DoJE=T BraDBF=F KetDBF=T FulRan=T
         Omega=  0.000000  0.000000  1.000000  0.000000  0.000000 ICntrl=     500 IOpCl=  0
         NMat0=    1 NMatS0=    1 NMatT0=    0 NMatD0=    1 NMtDS0=    0 NMtDT0=    0
         I1Cent=           4 NGrid=           0.
 Petite list used in FoFCou.
 Initial guess orbital symmetries:
       Occupied  (A) (A) (A) (A) (A) (A) (A) (A) (A) (A) (A) (A)
                 (A) (A) (A) (A) (A) (A) (A) (A) (A) (A) (A) (A)
                 (A) (A) (A) (A) (A) (A) (A) (A) (A) (A) (A) (A)
                 (A) (A) (A) (A) (A) (A) (A) (A) (A) (A) (A) (A)
                 (A) (A) (A) (A) (A) (A) (A) (A) (A) (A) (A) (A)
                 (A) (A) (A) (A) (A) (A) (A) (A) (A) (A) (A) (A)
                 (A) (A) (A) (A) (A) (A) (A) (A) (A) (A) (A) (A)
                 (A) (A) (A) (A) (A) (A) (A) (A) (A) (A) (A) (A)
                 (A) (A) (A) (A) (A) (A) (A) (A) (A) (A) (A) (A)
                 (A) (A) (A) (A) (A) (A) (A)
       Virtual   (A) (A) (A) (A) (A) (A) (A) (A) (A) (A) (A) (A)
                 (A) (A) (A) (A) (A) (A) (A) (A) (A) (A) (A) (A)
                 (A) (A) (A) (A) (A) (A) (A) (A) (A) (A) (A) (A)
                 (A) (A) (A) (A) (A) (A) (A) (A) (A) (A) (A) (A)
                 (A) (A) (A) (A) (A) (A) (A) (A) (A) (A) (A) (A)
                 (A) (A) (A) (A) (A) (A) (A) (A) (A) (A) (A) (A)
                 (A) (A) (A) (A) (A) (A) (A) (A) (A) (A) (A) (A)
                 (A) (A) (A) (A) (A) (A) (A) (A) (A) (A) (A) (A)
                 (A) (A) (A) (A) (A) (A) (A) (A) (A) (A) (A) (A)
                 (A) (A) (A) (A) (A) (A) (A) (A) (A) (A) (A) (A)
                 (A) (A) (A) (A) (A) (A) (A) (A) (A) (A) (A) (A)
                 (A) (A) (A) (A) (A) (A) (A) (A) (A) (A) (A) (A)
                 (A) (A) (A) (A) (A) (A) (A) (A) (A) (A) (A) (A)
                 (A) (A) (A) (A) (A) (A) (A) (A) (A) (A) (A) (A)
                 (A) (A) (A) (A) (A) (A) (A) (A) (A) (A) (A) (A)
                 (A) (A) (A) (A) (A) (A) (A) (A) (A) (A) (A) (A)
                 (A) (A) (A) (A) (A) (A) (A) (A) (A) (A) (A) (A)
                 (A) (A) (A) (A) (A) (A) (A) (A) (A) (A) (A) (A)
                 (A) (A) (A) (A) (A) (A) (A) (A) (A) (A) (A) (A)
                 (A) (A) (A) (A) (A) (A) (A) (A) (A) (A) (A) (A)
                 (A) (A) (A) (A) (A) (A) (A) (A) (A) (A) (A) (A)
                 (A) (A) (A) (A) (A) (A) (A) (A) (A) (A) (A) (A)
                 (A) (A) (A) (A) (A) (A) (A) (A) (A) (A) (A) (A)
                 (A) (A) (A) (A) (A) (A) (A) (A) (A) (A) (A) (A)
                 (A) (A) (A) (A) (A) (A) (A) (A) (A) (A) (A) (A)
                 (A) (A) (A) (A) (A) (A) (A) (A) (A) (A) (A) (A)
                 (A) (A) (A) (A) (A) (A) (A) (A) (A) (A) (A) (A)
                 (A) (A) (A) (A) (A) (A) (A) (A) (A) (A) (A) (A)
                 (A) (A) (A) (A) (A) (A) (A) (A) (A) (A) (A) (A)
                 (A) (A) (A) (A) (A) (A) (A) (A) (A) (A) (A) (A)
                 (A) (A) (A) (A) (A) (A) (A) (A) (A) (A) (A) (A)
                 (A) (A) (A) (A) (A) (A) (A) (A) (A) (A) (A) (A)
                 (A) (A) (A) (A) (A) (A) (A) (A) (A) (A) (A) (A)
                 (A) (A) (A) (A) (A) (A) (A) (A) (A) (A) (A) (A)
                 (A) (A) (A) (A) (A) (A) (A) (A) (A) (A)
 The electronic state of the initial guess is 1-A.
 Requested convergence on RMS density matrix=1.00D-08 within 128 cycles.
 Requested convergence on MAX density matrix=1.00D-06.
 Requested convergence on             energy=1.00D-06.
 No special actions if energy rises.
 Integral accuracy reduced to 1.0D-05 until final iterations.
 Initial convergence to 1.0D-05 achieved.  Increase integral accuracy.
 SCF Done:  E(RB3LYP) =  -1387.30340408     A.U. after   16 cycles
             Convg  =    0.4121D-08             -V/T =  2.0091

 **********************************************************************

            Population analysis using the SCF density.

 **********************************************************************

 Orbital symmetries:
       Occupied  (A) (A) (A) (A) (A) (A) (A) (A) (A) (A) (A) (A)
                 (A) (A) (A) (A) (A) (A) (A) (A) (A) (A) (A) (A)
                 (A) (A) (A) (A) (A) (A) (A) (A) (A) (A) (A) (A)
                 (A) (A) (A) (A) (A) (A) (A) (A) (A) (A) (A) (A)
                 (A) (A) (A) (A) (A) (A) (A) (A) (A) (A) (A) (A)
                 (A) (A) (A) (A) (A) (A) (A) (A) (A) (A) (A) (A)
                 (A) (A) (A) (A) (A) (A) (A) (A) (A) (A) (A) (A)
                 (A) (A) (A) (A) (A) (A) (A) (A) (A) (A) (A) (A)
                 (A) (A) (A) (A) (A) (A) (A) (A) (A) (A) (A) (A)
                 (A) (A) (A) (A) (A) (A) (A)
       Virtual   (A) (A) (A) (A) (A) (A) (A) (A) (A) (A) (A) (A)
                 (A) (A) (A) (A) (A) (A) (A) (A) (A) (A) (A) (A)
                 (A) (A) (A) (A) (A) (A) (A) (A) (A) (A) (A) (A)
                 (A) (A) (A) (A) (A) (A) (A) (A) (A) (A) (A) (A)
                 (A) (A) (A) (A) (A) (A) (A) (A) (A) (A) (A) (A)
                 (A) (A) (A) (A) (A) (A) (A) (A) (A) (A) (A) (A)
                 (A) (A) (A) (A) (A) (A) (A) (A) (A) (A) (A) (A)
                 (A) (A) (A) (A) (A) (A) (A) (A) (A) (A) (A) (A)
                 (A) (A) (A) (A) (A) (A) (A) (A) (A) (A) (A) (A)
                 (A) (A) (A) (A) (A) (A) (A) (A) (A) (A) (A) (A)
                 (A) (A) (A) (A) (A) (A) (A) (A) (A) (A) (A) (A)
                 (A) (A) (A) (A) (A) (A) (A) (A) (A) (A) (A) (A)
                 (A) (A) (A) (A) (A) (A) (A) (A) (A) (A) (A) (A)
                 (A) (A) (A) (A) (A) (A) (A) (A) (A) (A) (A) (A)
                 (A) (A) (A) (A) (A) (A) (A) (A) (A) (A) (A) (A)
                 (A) (A) (A) (A) (A) (A) (A) (A) (A) (A) (A) (A)
                 (A) (A) (A) (A) (A) (A) (A) (A) (A) (A) (A) (A)
                 (A) (A) (A) (A) (A) (A) (A) (A) (A) (A) (A) (A)
                 (A) (A) (A) (A) (A) (A) (A) (A) (A) (A) (A) (A)
                 (A) (A) (A) (A) (A) (A) (A) (A) (A) (A) (A) (A)
                 (A) (A) (A) (A) (A) (A) (A) (A) (A) (A) (A) (A)
                 (A) (A) (A) (A) (A) (A) (A) (A) (A) (A) (A) (A)
                 (A) (A) (A) (A) (A) (A) (A) (A) (A) (A) (A) (A)
                 (A) (A) (A) (A) (A) (A) (A) (A) (A) (A) (A) (A)
                 (A) (A) (A) (A) (A) (A) (A) (A) (A) (A) (A) (A)
                 (A) (A) (A) (A) (A) (A) (A) (A) (A) (A) (A) (A)
                 (A) (A) (A) (A) (A) (A) (A) (A) (A) (A) (A) (A)
                 (A) (A) (A) (A) (A) (A) (A) (A) (A) (A) (A) (A)
                 (A) (A) (A) (A) (A) (A) (A) (A) (A) (A) (A) (A)
                 (A) (A) (A) (A) (A) (A) (A) (A) (A) (A) (A) (A)
                 (A) (A) (A) (A) (A) (A) (A) (A) (A) (A) (A) (A)
                 (A) (A) (A) (A) (A) (A) (A) (A) (A) (A) (A) (A)
                 (A) (A) (A) (A) (A) (A) (A) (A) (A) (A) (A) (A)
                 (A) (A) (A) (A) (A) (A) (A) (A) (A) (A) (A) (A)
                 (A) (A) (A) (A) (A) (A) (A) (A) (A) (A)
 The electronic state is 1-A.
 Alpha  occ. eigenvalues --  -19.19716 -19.16991 -19.14706 -19.13510 -19.13300
 Alpha  occ. eigenvalues --  -10.27603 -10.26954 -10.26656 -10.26353 -10.26114
 Alpha  occ. eigenvalues --  -10.25737 -10.24715 -10.21726 -10.20417 -10.20349
 Alpha  occ. eigenvalues --  -10.20046 -10.19919 -10.19644 -10.19592 -10.19154
 Alpha  occ. eigenvalues --  -10.18912 -10.18760 -10.18704 -10.18664 -10.18454
 Alpha  occ. eigenvalues --  -10.18450 -10.18362 -10.17851 -10.16906 -10.16893
 Alpha  occ. eigenvalues --  -10.15922  -1.08658  -1.06302  -1.03321  -1.02269
 Alpha  occ. eigenvalues --   -1.01988  -0.87650  -0.84052  -0.82658  -0.81568
 Alpha  occ. eigenvalues --   -0.80450  -0.79812  -0.77134  -0.74325  -0.73602
 Alpha  occ. eigenvalues --   -0.72644  -0.71878  -0.69770  -0.69060  -0.68243
 Alpha  occ. eigenvalues --   -0.65168  -0.64089  -0.63524  -0.61967  -0.61188
 Alpha  occ. eigenvalues --   -0.59414  -0.59005  -0.57241  -0.55135  -0.53718
 Alpha  occ. eigenvalues --   -0.52962  -0.51756  -0.51038  -0.50474  -0.49695
 Alpha  occ. eigenvalues --   -0.48717  -0.47991  -0.46698  -0.46488  -0.45784
 Alpha  occ. eigenvalues --   -0.45071  -0.44346  -0.44112  -0.43641  -0.43207
 Alpha  occ. eigenvalues --   -0.42864  -0.42511  -0.42359  -0.41874  -0.41565
 Alpha  occ. eigenvalues --   -0.40997  -0.40719  -0.40495  -0.40249  -0.39740
 Alpha  occ. eigenvalues --   -0.39612  -0.39097  -0.38799  -0.38617  -0.38221
 Alpha  occ. eigenvalues --   -0.37776  -0.37481  -0.36978  -0.36648  -0.35998
 Alpha  occ. eigenvalues --   -0.35776  -0.35468  -0.35124  -0.34736  -0.34135
 Alpha  occ. eigenvalues --   -0.33835  -0.33049  -0.32930  -0.32798  -0.32450
 Alpha  occ. eigenvalues --   -0.31974  -0.31709  -0.30945  -0.27924  -0.27094
 Alpha  occ. eigenvalues --   -0.25735  -0.24922  -0.24361  -0.23662  -0.23368
 Alpha virt. eigenvalues --   -0.04771  -0.02319   0.00799   0.01584   0.03868
 Alpha virt. eigenvalues --    0.06487   0.07960   0.08879   0.09430   0.10212
 Alpha virt. eigenvalues --    0.10777   0.10974   0.11597   0.11852   0.12231
 Alpha virt. eigenvalues --    0.12882   0.13034   0.13418   0.13706   0.13859
 Alpha virt. eigenvalues --    0.14264   0.14419   0.14929   0.15400   0.15500
 Alpha virt. eigenvalues --    0.15859   0.16305   0.16525   0.16709   0.17745
 Alpha virt. eigenvalues --    0.17855   0.18291   0.18371   0.18835   0.19114
 Alpha virt. eigenvalues --    0.19255   0.19562   0.19996   0.20090   0.20477
 Alpha virt. eigenvalues --    0.20658   0.20992   0.21342   0.21396   0.21709
 Alpha virt. eigenvalues --    0.22541   0.23660   0.24033   0.24116   0.25031
 Alpha virt. eigenvalues --    0.25249   0.25509   0.25613   0.26146   0.26556
 Alpha virt. eigenvalues --    0.27212   0.27517   0.27835   0.28421   0.30255
 Alpha virt. eigenvalues --    0.30949   0.31625   0.32543   0.33875   0.34481
 Alpha virt. eigenvalues --    0.34919   0.35711   0.37350   0.38346   0.40380
 Alpha virt. eigenvalues --    0.42196   0.44748   0.45879   0.47844   0.48530
 Alpha virt. eigenvalues --    0.49601   0.50072   0.50726   0.51413   0.51761
 Alpha virt. eigenvalues --    0.52007   0.52417   0.52496   0.53058   0.53916
 Alpha virt. eigenvalues --    0.54188   0.54513   0.54824   0.55284   0.56078
 Alpha virt. eigenvalues --    0.57126   0.57261   0.57730   0.58505   0.58731
 Alpha virt. eigenvalues --    0.59326   0.59912   0.60849   0.60933   0.61402
 Alpha virt. eigenvalues --    0.62452   0.63036   0.64061   0.64609   0.64737
 Alpha virt. eigenvalues --    0.65358   0.66099   0.66158   0.66402   0.66664
 Alpha virt. eigenvalues --    0.67749   0.67986   0.68586   0.69211   0.69455
 Alpha virt. eigenvalues --    0.69855   0.71077   0.71711   0.72585   0.72710
 Alpha virt. eigenvalues --    0.73798   0.74816   0.75100   0.76078   0.76436
 Alpha virt. eigenvalues --    0.77030   0.77558   0.77927   0.78894   0.79164
 Alpha virt. eigenvalues --    0.79591   0.79929   0.80864   0.82201   0.82760
 Alpha virt. eigenvalues --    0.83197   0.83420   0.83823   0.84037   0.84670
 Alpha virt. eigenvalues --    0.85239   0.85689   0.85893   0.86481   0.86943
 Alpha virt. eigenvalues --    0.87375   0.88001   0.88333   0.88826   0.89705
 Alpha virt. eigenvalues --    0.89910   0.89991   0.90245   0.90470   0.90750
 Alpha virt. eigenvalues --    0.91109   0.91251   0.91627   0.92010   0.92274
 Alpha virt. eigenvalues --    0.92516   0.92827   0.93785   0.93990   0.94520
 Alpha virt. eigenvalues --    0.94601   0.95631   0.96112   0.96242   0.96713
 Alpha virt. eigenvalues --    0.97654   0.97870   0.98049   0.99006   0.99420
 Alpha virt. eigenvalues --    0.99878   1.01104   1.01589   1.02410   1.02786
 Alpha virt. eigenvalues --    1.04813   1.04994   1.05420   1.05715   1.07261
 Alpha virt. eigenvalues --    1.08462   1.09329   1.10353   1.11860   1.12400
 Alpha virt. eigenvalues --    1.14028   1.14319   1.15861   1.16237   1.16357
 Alpha virt. eigenvalues --    1.16768   1.17418   1.19092   1.19783   1.20320
 Alpha virt. eigenvalues --    1.20626   1.22338   1.23571   1.25602   1.26702
 Alpha virt. eigenvalues --    1.28629   1.28986   1.30773   1.31698   1.33065
 Alpha virt. eigenvalues --    1.33901   1.35969   1.38119   1.39921   1.40728
 Alpha virt. eigenvalues --    1.41347   1.41843   1.44634   1.45258   1.47155
 Alpha virt. eigenvalues --    1.47634   1.49321   1.50128   1.50957   1.51659
 Alpha virt. eigenvalues --    1.52886   1.54815   1.55348   1.56530   1.58199
 Alpha virt. eigenvalues --    1.59619   1.61726   1.62211   1.63146   1.64916
 Alpha virt. eigenvalues --    1.65565   1.66814   1.67683   1.68590   1.68736
 Alpha virt. eigenvalues --    1.70837   1.71957   1.72728   1.73358   1.74123
 Alpha virt. eigenvalues --    1.75312   1.76186   1.76378   1.77598   1.79376
 Alpha virt. eigenvalues --    1.79942   1.79993   1.80634   1.81497   1.81962
 Alpha virt. eigenvalues --    1.82898   1.83791   1.84252   1.85348   1.86146
 Alpha virt. eigenvalues --    1.86760   1.87549   1.87863   1.88142   1.88917
 Alpha virt. eigenvalues --    1.89175   1.89840   1.90002   1.91052   1.91588
 Alpha virt. eigenvalues --    1.92280   1.93010   1.93790   1.94425   1.95625
 Alpha virt. eigenvalues --    1.96167   1.96230   1.96795   1.97195   1.98688
 Alpha virt. eigenvalues --    1.99415   1.99687   2.00115   2.00309   2.00803
 Alpha virt. eigenvalues --    2.02399   2.03522   2.03751   2.04546   2.05849
 Alpha virt. eigenvalues --    2.06237   2.07274   2.08287   2.09395   2.09785
 Alpha virt. eigenvalues --    2.10404   2.11079   2.11816   2.12947   2.14012
 Alpha virt. eigenvalues --    2.14541   2.15263   2.16344   2.17452   2.17881
 Alpha virt. eigenvalues --    2.18592   2.19518   2.20286   2.21838   2.22504
 Alpha virt. eigenvalues --    2.23581   2.24553   2.25690   2.25976   2.27972
 Alpha virt. eigenvalues --    2.28394   2.28606   2.28835   2.30995   2.31132
 Alpha virt. eigenvalues --    2.32782   2.33088   2.33733   2.34191   2.34847
 Alpha virt. eigenvalues --    2.35978   2.36602   2.37665   2.38798   2.40217
 Alpha virt. eigenvalues --    2.40885   2.41508   2.42157   2.42695   2.43604
 Alpha virt. eigenvalues --    2.45545   2.45643   2.46664   2.47683   2.48299
 Alpha virt. eigenvalues --    2.49207   2.50792   2.52352   2.53209   2.55315
 Alpha virt. eigenvalues --    2.55990   2.57147   2.59481   2.60025   2.60819
 Alpha virt. eigenvalues --    2.62149   2.63135   2.64412   2.65390   2.66673
 Alpha virt. eigenvalues --    2.67161   2.69286   2.69853   2.69981   2.72143
 Alpha virt. eigenvalues --    2.72917   2.73968   2.76091   2.76895   2.78716
 Alpha virt. eigenvalues --    2.79165   2.80614   2.81390   2.81730   2.87015
 Alpha virt. eigenvalues --    2.89205   2.91152   2.92509   2.93413   2.95555
 Alpha virt. eigenvalues --    2.97159   2.99466   3.00092   3.01007   3.03175
 Alpha virt. eigenvalues --    3.04409   3.07889   3.12142   3.16477   3.22775
 Alpha virt. eigenvalues --    3.23983   3.28177   3.99597   4.10333   4.13140
 Alpha virt. eigenvalues --    4.14679   4.15364   4.17409   4.19031   4.20569
 Alpha virt. eigenvalues --    4.21982   4.22680   4.24941   4.25481   4.29719
 Alpha virt. eigenvalues --    4.32642   4.33614   4.36587   4.39922   4.43029
 Alpha virt. eigenvalues --    4.45723   4.47278   4.51917   4.56448   4.61755
 Alpha virt. eigenvalues --    4.65512   4.65906   4.69370   4.72245   4.77440
 Alpha virt. eigenvalues --    4.88528   4.95206   5.26412
          Condensed to atoms (all electrons):
 Mulliken atomic charges:
              1
     1  C   -0.194995
     2  C    0.194082
     3  C   -0.190833
     4  C    0.317070
     5  C   -0.034131
     6  C   -0.330997
     7  C    0.204109
     8  C    0.407833
     9  C   -0.092837
    10  C    0.402012
    11  C    0.426959
    12  O   -0.469874
    13  C   -0.150127
    14  C   -0.248216
    15  C   -0.455918
    16  O   -0.481692
    17  C   -0.153051
    18  C    0.305637
    19  O   -0.536617
    20  C   -0.307208
    21  O   -0.672172
    22  C   -0.312156
    23  C    0.098514
    24  O   -0.584596
    25  C    0.188657
    26  C   -0.504600
    27  C   -0.395072
    28  C   -0.460765
    29  C   -0.464363
    30  H    0.146196
    31  H    0.149055
    32  C   -0.519294
    33  H    0.126172
    34  H    0.164289
    35  H    0.182935
    36  H    0.142817
    37  H    0.154024
    38  H    0.124962
    39  H    0.146506
    40  H    0.164579
    41  H    0.162633
    42  H    0.149420
    43  H    0.163373
    44  H    0.419134
    45  H    0.151617
    46  H    0.177499
    47  H    0.136947
    48  H    0.149964
    49  H    0.166369
    50  H    0.153259
    51  H    0.149675
    52  H    0.141132
    53  H    0.184653
    54  H    0.149577
    55  H    0.141276
    56  H    0.149877
    57  H    0.159915
    58  H    0.158566
    59  H    0.158416
    60  H    0.156527
    61  H    0.153097
    62  C   -0.447603
    63  H    0.155384
    64  H    0.138248
    65  H    0.134150
 Sum of Mulliken atomic charges =   0.00000
 Mulliken charges with hydrogens summed into heavy atoms:
              1
     1  C   -0.068822
     2  C    0.194082
     3  C   -0.041778
     4  C    0.317070
     5  C   -0.034131
     6  C    0.016227
     7  C    0.204109
     8  C    0.407833
     9  C   -0.092837
    10  C    0.402012
    11  C    0.426959
    12  O   -0.469874
    13  C   -0.007311
    14  C    0.030770
    15  C    0.017800
    16  O   -0.481692
    17  C   -0.006855
    18  C    0.305637
    19  O   -0.536617
    20  C    0.005584
    21  O   -0.253038
    22  C    0.016959
    23  C    0.235461
    24  O   -0.584596
    25  C    0.188657
    26  C   -0.035008
    27  C   -0.104265
    28  C    0.014742
    29  C    0.003996
    32  C   -0.051254
    62  C   -0.019821
 Sum of Mulliken charges with hydrogens summed into heavy atoms =   0.00000
 Electronic spatial extent (au):  <R**2>=          11679.9628
 Charge=              0.0000 electrons
 Dipole moment (field-independent basis, Debye):
    X=             -3.3054    Y=              4.6523    Z=             -0.8654  Tot=              5.7722
 Quadrupole moment (field-independent basis, Debye-Ang):
   XX=           -177.7429   YY=           -183.5282   ZZ=           -186.8704
   XY=              3.4499   XZ=             -7.4931   YZ=              3.2641
 Traceless Quadrupole moment (field-independent basis, Debye-Ang):
   XX=              4.9710   YY=             -0.8144   ZZ=             -4.1565
   XY=              3.4499   XZ=             -7.4931   YZ=              3.2641
 Octapole moment (field-independent basis, Debye-Ang**2):
  XXX=            -16.4549  YYY=             48.1416  ZZZ=             -1.1045  XYY=             -5.3595
  XXY=            -10.3196  XXZ=            -36.0838  XZZ=            -26.5329  YZZ=              5.6044
  YYZ=            -18.4513  XYZ=              4.2347
 Hexadecapole moment (field-independent basis, Debye-Ang**3):
 XXXX=          -9119.3038 YYYY=          -4029.0949 ZZZZ=          -2422.7452 XXXY=            -19.0712
 XXXZ=             49.0431 YYYX=             31.6574 YYYZ=            -13.6126 ZZZX=            -22.6691
 ZZZY=            -14.2172 XXYY=          -2155.2151 XXZZ=          -1919.8197 YYZZ=          -1071.2633
 XXYZ=             60.6199 YYXZ=            -11.5183 ZZXY=             32.7409
 N-N= 3.511761536663D+03 E-N=-1.024979672744D+04  KE= 1.374836325342D+03
 Calling FoFJK, ICntrl=      2127 FMM=T ISym2X=0 I1Cent= 0 IOpClX= 0 NMat=1 NMatS=1 NMatT=0.
 ***** Axes restored to original set *****
 -------------------------------------------------------------------
 Center     Atomic                   Forces (Hartrees/Bohr)
 Number     Number              X              Y              Z
 -------------------------------------------------------------------
      1        6           0.009802222    0.000041549    0.000898203
      2        6          -0.009592168   -0.006396495    0.003471209
      3        6          -0.006643703   -0.009710794   -0.003321106
      4        6           0.010612641   -0.008310135    0.012791636
      5        6          -0.008465498    0.005725497    0.006601553
      6        6          -0.008709034   -0.008570514   -0.005947016
      7        6           0.021343859    0.013820972    0.010817860
      8        6          -0.003494880   -0.002336183   -0.024433633
      9        6           0.004075502   -0.002491678    0.005974038
     10        6          -0.018687125    0.015799025   -0.001935248
     11        6          -0.018590075   -0.007572101   -0.008529074
     12        8           0.008672130    0.012963371    0.004192589
     13        6          -0.004058937   -0.000035022   -0.011982799
     14        6           0.001937873   -0.001184380   -0.003547547
     15        6          -0.004780884    0.002473675    0.010613187
     16        8           0.011010480   -0.010970512    0.000208605
     17        6           0.003447714   -0.006736683   -0.011561866
     18        6           0.030928090    0.004697674   -0.012593598
     19        8          -0.012384053   -0.008005882    0.033508794
     20        6           0.009653942   -0.001419849   -0.005445310
     21        8          -0.003888671    0.004780475    0.005352621
     22        6          -0.005709693    0.000216537    0.011598533
     23        6          -0.004700696    0.003546836    0.007532844
     24        8           0.000507920    0.002843906   -0.011940027
     25        6          -0.002358860    0.006466923    0.013120473
     26        6           0.001141687    0.001442707    0.001193303
     27        6           0.001161128   -0.004167829   -0.010560511
     28        6          -0.001977906    0.008506121    0.001592049
     29        6          -0.008166182   -0.000646296   -0.007827669
     30        1          -0.003010886    0.001819137    0.000050161
     31        1          -0.001682694    0.005990009    0.000537331
     32        6          -0.002420486   -0.000313272    0.000042147
     33        1           0.000624059   -0.000740571    0.000007900
     34        1           0.000456074    0.005168670   -0.000552770
     35        1          -0.001676560    0.005181491   -0.001294860
     36        1           0.000842350   -0.002186690    0.001425038
     37        1          -0.000601828    0.000247836    0.003753294
     38        1          -0.001347560    0.001615878    0.002536652
     39        1           0.001088919    0.000129462   -0.001065586
     40        1          -0.001356202    0.000175283    0.000873987
     41        1           0.000627114   -0.000624124   -0.000895395
     42        1          -0.002070704   -0.001512092   -0.001484021
     43        1           0.000448029    0.000988062    0.000817404
     44        1          -0.003048966    0.000762970   -0.003883401
     45        1          -0.000122434    0.000517096   -0.003087626
     46        1           0.000291755   -0.002116507   -0.001914434
     47        1           0.001358021   -0.003314424   -0.000523286
     48        1           0.003370255   -0.001227940   -0.001955130
     49        1           0.002329149   -0.002359936   -0.001774631
     50        1          -0.002080952    0.000228283   -0.000645427
     51        1          -0.000862536    0.000825630   -0.000761685
     52        1           0.000618107   -0.001308630    0.000092890
     53        1           0.000230836   -0.004557654    0.003504507
     54        1           0.000660402   -0.003367554   -0.002167891
     55        1           0.000183953   -0.000780456   -0.000349261
     56        1          -0.000074314    0.000762757    0.001307780
     57        1           0.001881945    0.001491861    0.001903296
     58        1           0.001268166   -0.001746704    0.002715146
     59        1          -0.000650532    0.000960704   -0.000342313
     60        1           0.004045306   -0.001615034   -0.000059181
     61        1           0.004278499   -0.001206597    0.000108195
     62        6           0.001034615   -0.001039771   -0.005239319
     63        1           0.000948148   -0.000123091    0.000311777
     64        1           0.001441862   -0.000911675   -0.000112172
     65        1           0.000892267   -0.000583320   -0.001721205
 -------------------------------------------------------------------
 Cartesian Forces:  Max     0.033508794 RMS     0.006661075

 GradGradGradGradGradGradGradGradGradGradGradGradGradGradGradGradGradGrad
 Berny optimization.
 Internal  Forces:  Max     0.018115404 RMS     0.003457277
 Search for a local minimum.
 Step number   1 out of a maximum of  390
 All quantities printed in internal units (Hartrees-Bohrs-Radians)
 Mixed Optimization -- RFO/linear search
 Second derivative matrix not updated -- first step.
 ITU=  0
     Eigenvalues ---    0.00281   0.00285   0.00355   0.00392   0.00419
     Eigenvalues ---    0.00460   0.00475   0.00564   0.00588   0.00626
     Eigenvalues ---    0.00664   0.00670   0.00731   0.00733   0.00890
     Eigenvalues ---    0.01053   0.01168   0.01253   0.01304   0.01454
     Eigenvalues ---    0.01524   0.01717   0.01739   0.01835   0.02089
     Eigenvalues ---    0.02622   0.02826   0.02826   0.03102   0.03203
     Eigenvalues ---    0.03534   0.03704   0.03788   0.04071   0.04152
     Eigenvalues ---    0.04248   0.04297   0.04374   0.04490   0.04659
     Eigenvalues ---    0.04716   0.04838   0.04974   0.05145   0.05284
     Eigenvalues ---    0.05318   0.05337   0.05407   0.05464   0.05503
     Eigenvalues ---    0.05505   0.05525   0.05556   0.05572   0.05642
     Eigenvalues ---    0.05643   0.05696   0.05863   0.05942   0.06145
     Eigenvalues ---    0.06553   0.06789   0.07094   0.07104   0.07147
     Eigenvalues ---    0.07179   0.07255   0.07310   0.07424   0.08040
     Eigenvalues ---    0.08341   0.08350   0.08948   0.09426   0.09442
     Eigenvalues ---    0.09986   0.10246   0.11427   0.11916   0.12211
     Eigenvalues ---    0.12561   0.13300   0.14560   0.15404   0.15898
     Eigenvalues ---    0.15967   0.16000   0.16000   0.16000   0.16000
     Eigenvalues ---    0.16000   0.16000   0.16000   0.16000   0.16000
     Eigenvalues ---    0.16000   0.16000   0.16000   0.16000   0.16000
     Eigenvalues ---    0.16000   0.16000   0.16000   0.16000   0.16000
     Eigenvalues ---    0.16000   0.16355   0.16587   0.17709   0.18112
     Eigenvalues ---    0.19787   0.20987   0.21917   0.22353   0.22498
     Eigenvalues ---    0.23399   0.24788   0.24895   0.24981   0.24984
     Eigenvalues ---    0.24992   0.24999   0.25000   0.26107   0.26651
     Eigenvalues ---    0.26954   0.27118   0.27396   0.27732   0.28384
     Eigenvalues ---    0.28817   0.28844   0.28905   0.29326   0.29586
     Eigenvalues ---    0.29777   0.30071   0.30233   0.30865   0.31290
     Eigenvalues ---    0.31626   0.31874   0.32101   0.33255   0.33601
     Eigenvalues ---    0.33869   0.33899   0.33968   0.33998   0.34009
     Eigenvalues ---    0.34024   0.34033   0.34035   0.34066   0.34074
     Eigenvalues ---    0.34114   0.34162   0.34186   0.34202   0.34209
     Eigenvalues ---    0.34225   0.34225   0.34238   0.34250   0.34261
     Eigenvalues ---    0.34262   0.34271   0.34280   0.34281   0.34281
     Eigenvalues ---    0.34286   0.34296   0.34337   0.34371   0.34766
     Eigenvalues ---    0.34986   0.35018   0.35232   0.35421   0.36663
     Eigenvalues ---    0.37129   0.41149   0.44341   0.50111   0.53542
     Eigenvalues ---    0.54464   0.56266   0.90520   0.90988
 RFO step:  Lambda=-2.22048307D-02 EMin= 2.80961738D-03
 Linear search not attempted -- first point.
 Iteration  1 RMS(Cart)=  0.09183986 RMS(Int)=  0.00204237
 Iteration  2 RMS(Cart)=  0.00407477 RMS(Int)=  0.00024553
 Iteration  3 RMS(Cart)=  0.00000886 RMS(Int)=  0.00024549
 Iteration  4 RMS(Cart)=  0.00000000 RMS(Int)=  0.00024549
 Variable       Old X    -DE/DX   Delta X   Delta X   Delta X     New X
                                 (Linear)    (Quad)   (Total)
    R1        2.53261  -0.00158   0.00000  -0.00349  -0.00359   2.52902
    R2        2.82130   0.00890   0.00000   0.02585   0.02572   2.84701
    R3        2.05646   0.00032   0.00000   0.00087   0.00087   2.05733
    R4        2.84297   0.00523   0.00000   0.01308   0.01311   2.85608
    R5        2.83959   0.00462   0.00000   0.01346   0.01346   2.85305
    R6        2.94381   0.00643   0.00000   0.01629   0.01625   2.96006
    R7        2.89509   0.01048   0.00000   0.03541   0.03538   2.93047
    R8        2.08008  -0.00186   0.00000  -0.00521  -0.00521   2.07487
    R9        2.92890   0.01319   0.00000   0.04110   0.04107   2.96997
   R10        2.91975   0.00823   0.00000   0.03171   0.03190   2.95166
   R11        2.76052  -0.00634   0.00000  -0.01766  -0.01769   2.74283
   R12        2.91605   0.00560   0.00000   0.02070   0.02066   2.93671
   R13        2.90801   0.00455   0.00000   0.00801   0.00769   2.91570
   R14        2.91505   0.00647   0.00000   0.02160   0.02158   2.93664
   R15        2.07501  -0.00157   0.00000  -0.00435  -0.00435   2.07066
   R16        2.07551   0.00249   0.00000   0.00691   0.00691   2.08242
   R17        2.81652   0.01195   0.00000   0.02740   0.02713   2.84366
   R18        2.86787   0.01495   0.00000   0.05231   0.05175   2.91962
   R19        2.68305   0.00270   0.00000   0.00686   0.00687   2.68992
   R20        2.52397   0.01436   0.00000   0.02516   0.02529   2.54927
   R21        2.62246  -0.01812   0.00000  -0.04198  -0.04166   2.58080
   R22        2.79540   0.00323   0.00000   0.00534   0.00551   2.80091
   R23        2.79357   0.01594   0.00000   0.04311   0.04311   2.83668
   R24        2.32481  -0.01346   0.00000  -0.01444  -0.01444   2.31037
   R25        2.32694  -0.01579   0.00000  -0.01702  -0.01702   2.30992
   R26        2.88410  -0.00051   0.00000  -0.00160  -0.00160   2.88250
   R27        2.90331   0.00319   0.00000   0.01028   0.01028   2.91359
   R28        2.88797   0.00888   0.00000   0.02791   0.02791   2.91588
   R29        2.07139   0.00024   0.00000   0.00067   0.00067   2.07206
   R30        2.07270  -0.00052   0.00000  -0.00143  -0.00143   2.07127
   R31        2.07289   0.00096   0.00000   0.00265   0.00265   2.07554
   R32        2.87823   0.00787   0.00000   0.02439   0.02439   2.90262
   R33        2.06910   0.00046   0.00000   0.00126   0.00126   2.07035
   R34        2.07017   0.00065   0.00000   0.00177   0.00177   2.07194
   R35        2.07058  -0.00021   0.00000  -0.00058  -0.00058   2.07000
   R36        2.90986  -0.00025   0.00000   0.01079   0.01097   2.92083
[...]
     56          1           0        1.719366    4.607643   -0.769488
     57          1           0        3.212423    3.656759   -0.670257
     58          1           0        2.023756    3.569332    0.639922
     59          1           0       -3.309963    2.357004    3.820786
     60          1           0       -2.570954    3.545175    2.733202
     61          1           0       -3.996531    2.654547    2.210296
     62          6           0        5.440226   -0.047541    1.184396
     63          1           0        4.686958    0.050145    1.973255
     64          1           0        5.384418    0.847075    0.551417
     65          1           0        6.425300   -0.055911    1.664897
 ---------------------------------------------------------------------
 Rotational constants (GHZ):      0.2186035      0.1211823      0.1074310

 **********************************************************************

            Population analysis using the SCF density.

 **********************************************************************

 Orbital symmetries:
       Occupied  (A) (A) (A) (A) (A) (A) (A) (A) (A) (A) (A) (A)
                 (A) (A) (A) (A) (A) (A) (A) (A) (A) (A) (A) (A)
                 (A) (A) (A) (A) (A) (A) (A) (A) (A) (A) (A) (A)
                 (A) (A) (A) (A) (A) (A) (A) (A) (A) (A) (A) (A)
                 (A) (A) (A) (A) (A) (A) (A) (A) (A) (A) (A) (A)
                 (A) (A) (A) (A) (A) (A) (A) (A) (A) (A) (A) (A)
                 (A) (A) (A) (A) (A) (A) (A) (A) (A) (A) (A) (A)
                 (A) (A) (A) (A) (A) (A) (A) (A) (A) (A) (A) (A)
                 (A) (A) (A) (A) (A) (A) (A) (A) (A) (A) (A) (A)
                 (A) (A) (A) (A) (A) (A) (A)
       Virtual   (A) (A) (A) (A) (A) (A) (A) (A) (A) (A) (A) (A)
                 (A) (A) (A) (A) (A) (A) (A) (A) (A) (A) (A) (A)
                 (A) (A) (A) (A) (A) (A) (A) (A) (A) (A) (A) (A)
                 (A) (A) (A) (A) (A) (A) (A) (A) (A) (A) (A) (A)
                 (A) (A) (A) (A) (A) (A) (A) (A) (A) (A) (A) (A)
                 (A) (A) (A) (A) (A) (A) (A) (A) (A) (A) (A) (A)
                 (A) (A) (A) (A) (A) (A) (A) (A) (A) (A) (A) (A)
                 (A) (A) (A) (A) (A) (A) (A) (A) (A) (A) (A) (A)
                 (A) (A) (A) (A) (A) (A) (A) (A) (A) (A) (A) (A)
                 (A) (A) (A) (A) (A) (A) (A) (A) (A) (A) (A) (A)
                 (A) (A) (A) (A) (A) (A) (A) (A) (A) (A) (A) (A)
                 (A) (A) (A) (A) (A) (A) (A) (A) (A) (A) (A) (A)
                 (A) (A) (A) (A) (A) (A) (A) (A) (A) (A) (A) (A)
                 (A) (A) (A) (A) (A) (A) (A) (A) (A) (A) (A) (A)
                 (A) (A) (A) (A) (A) (A) (A) (A) (A) (A) (A) (A)
                 (A) (A) (A) (A) (A) (A) (A) (A) (A) (A) (A) (A)
                 (A) (A) (A) (A) (A) (A) (A) (A) (A) (A) (A) (A)
                 (A) (A) (A) (A) (A) (A) (A) (A) (A) (A) (A) (A)
                 (A) (A) (A) (A) (A) (A) (A) (A) (A) (A) (A) (A)
                 (A) (A) (A) (A) (A) (A) (A) (A) (A) (A) (A) (A)
                 (A) (A) (A) (A) (A) (A) (A) (A) (A) (A) (A) (A)
                 (A) (A) (A) (A) (A) (A) (A) (A) (A) (A) (A) (A)
                 (A) (A) (A) (A) (A) (A) (A) (A) (A) (A) (A) (A)
                 (A) (A) (A) (A) (A) (A) (A) (A) (A) (A) (A) (A)
                 (A) (A) (A) (A) (A) (A) (A) (A) (A) (A) (A) (A)
                 (A) (A) (A) (A) (A) (A) (A) (A) (A) (A) (A) (A)
                 (A) (A) (A) (A) (A) (A) (A) (A) (A) (A) (A) (A)
                 (A) (A) (A) (A) (A) (A) (A) (A) (A) (A) (A) (A)
                 (A) (A) (A) (A) (A) (A) (A) (A) (A) (A) (A) (A)
                 (A) (A) (A) (A) (A) (A) (A) (A) (A) (A) (A) (A)
                 (A) (A) (A) (A) (A) (A) (A) (A) (A) (A) (A) (A)
                 (A) (A) (A) (A) (A) (A) (A) (A) (A) (A) (A) (A)
                 (A) (A) (A) (A) (A) (A) (A) (A) (A) (A) (A) (A)
                 (A) (A) (A) (A) (A) (A) (A) (A) (A) (A) (A) (A)
                 (A) (A) (A) (A) (A) (A) (A) (A) (A) (A)
 The electronic state is 1-A.
 Alpha  occ. eigenvalues --  -19.19779 -19.17033 -19.15078 -19.12967 -19.12488
 Alpha  occ. eigenvalues --  -10.26892 -10.26858 -10.26845 -10.26333 -10.26163
 Alpha  occ. eigenvalues --  -10.26016 -10.24839 -10.21256 -10.20639 -10.20528
 Alpha  occ. eigenvalues --  -10.20353 -10.20259 -10.19866 -10.19465 -10.19330
 Alpha  occ. eigenvalues --  -10.19108 -10.18820 -10.18771 -10.18553 -10.18434
 Alpha  occ. eigenvalues --  -10.18419 -10.18198 -10.18097 -10.16954 -10.16818
 Alpha  occ. eigenvalues --  -10.16149  -1.09107  -1.06427  -1.03300  -1.02250
 Alpha  occ. eigenvalues --   -1.02094  -0.86911  -0.83805  -0.82119  -0.81312
 Alpha  occ. eigenvalues --   -0.80088  -0.79367  -0.76807  -0.74004  -0.73075
 Alpha  occ. eigenvalues --   -0.72284  -0.71542  -0.70287  -0.69110  -0.68200
 Alpha  occ. eigenvalues --   -0.64788  -0.64029  -0.63409  -0.61838  -0.60742
 Alpha  occ. eigenvalues --   -0.59157  -0.58789  -0.56766  -0.55005  -0.53303
 Alpha  occ. eigenvalues --   -0.52879  -0.51604  -0.51088  -0.49780  -0.49472
 Alpha  occ. eigenvalues --   -0.48431  -0.47600  -0.47009  -0.46539  -0.45941
 Alpha  occ. eigenvalues --   -0.45016  -0.44227  -0.44081  -0.43323  -0.42833
 Alpha  occ. eigenvalues --   -0.42706  -0.42247  -0.42143  -0.41746  -0.41336
 Alpha  occ. eigenvalues --   -0.40948  -0.40725  -0.40470  -0.40088  -0.39822
 Alpha  occ. eigenvalues --   -0.39457  -0.39139  -0.38898  -0.38525  -0.38125
 Alpha  occ. eigenvalues --   -0.37677  -0.37469  -0.37225  -0.36958  -0.35998
 Alpha  occ. eigenvalues --   -0.35773  -0.35588  -0.35295  -0.34582  -0.34306
 Alpha  occ. eigenvalues --   -0.33813  -0.33096  -0.32932  -0.32694  -0.32349
 Alpha  occ. eigenvalues --   -0.31632  -0.31344  -0.30913  -0.28072  -0.27351
 Alpha  occ. eigenvalues --   -0.25788  -0.24457  -0.24295  -0.23371  -0.22682
 Alpha virt. eigenvalues --   -0.04141  -0.01588   0.01045   0.01219   0.05147
 Alpha virt. eigenvalues --    0.07079   0.07980   0.08731   0.09417   0.10281
 Alpha virt. eigenvalues --    0.10593   0.10988   0.11572   0.11929   0.12390
 Alpha virt. eigenvalues --    0.12892   0.12926   0.13331   0.13606   0.13889
 Alpha virt. eigenvalues --    0.14224   0.14462   0.15171   0.15299   0.15445
 Alpha virt. eigenvalues --    0.15946   0.16314   0.16349   0.16664   0.17366
 Alpha virt. eigenvalues --    0.17901   0.18175   0.18449   0.18567   0.19224
 Alpha virt. eigenvalues --    0.19417   0.19640   0.19755   0.19863   0.20364
 Alpha virt. eigenvalues --    0.20493   0.20986   0.21064   0.21428   0.22014
 Alpha virt. eigenvalues --    0.22391   0.23568   0.23660   0.24202   0.24712
 Alpha virt. eigenvalues --    0.24815   0.25142   0.25399   0.26073   0.26292
 Alpha virt. eigenvalues --    0.26762   0.27766   0.28085   0.28270   0.29985
 Alpha virt. eigenvalues --    0.30390   0.31560   0.32232   0.33834   0.34117
 Alpha virt. eigenvalues --    0.34778   0.35584   0.37665   0.38753   0.39554
 Alpha virt. eigenvalues --    0.42518   0.44828   0.45710   0.47555   0.48075
 Alpha virt. eigenvalues --    0.49590   0.49917   0.50253   0.50833   0.50927
 Alpha virt. eigenvalues --    0.51555   0.51853   0.52330   0.52649   0.53406
 Alpha virt. eigenvalues --    0.53725   0.53816   0.54495   0.55126   0.55492
 Alpha virt. eigenvalues --    0.56900   0.57335   0.57889   0.58101   0.59032
 Alpha virt. eigenvalues --    0.59238   0.59591   0.60151   0.60679   0.61297
 Alpha virt. eigenvalues --    0.62091   0.62985   0.63715   0.64166   0.64718
 Alpha virt. eigenvalues --    0.65371   0.65750   0.66130   0.66745   0.67096
 Alpha virt. eigenvalues --    0.67548   0.68017   0.69057   0.69464   0.69941
 Alpha virt. eigenvalues --    0.70233   0.71101   0.71648   0.71700   0.72901
 Alpha virt. eigenvalues --    0.73621   0.74313   0.75249   0.75658   0.75912
 Alpha virt. eigenvalues --    0.76469   0.76983   0.77334   0.78456   0.78831
 Alpha virt. eigenvalues --    0.79035   0.80090   0.80894   0.81939   0.82473
 Alpha virt. eigenvalues --    0.83527   0.83769   0.84261   0.84448   0.84838
 Alpha virt. eigenvalues --    0.85267   0.85812   0.86271   0.86575   0.86882
 Alpha virt. eigenvalues --    0.87508   0.87730   0.88165   0.88412   0.88882
 Alpha virt. eigenvalues --    0.89524   0.89585   0.90444   0.90718   0.90766
 Alpha virt. eigenvalues --    0.91183   0.91250   0.91565   0.91808   0.92354
 Alpha virt. eigenvalues --    0.92553   0.92933   0.93531   0.94150   0.94494
 Alpha virt. eigenvalues --    0.94931   0.95052   0.95843   0.96142   0.96392
 Alpha virt. eigenvalues --    0.96859   0.97396   0.97813   0.98758   0.99083
 Alpha virt. eigenvalues --    0.99723   1.01117   1.01390   1.02263   1.02804
 Alpha virt. eigenvalues --    1.03491   1.04882   1.05137   1.07547   1.08486
 Alpha virt. eigenvalues --    1.09118   1.10132   1.11259   1.11875   1.12228
 Alpha virt. eigenvalues --    1.13419   1.13754   1.14411   1.15969   1.16114
 Alpha virt. eigenvalues --    1.16450   1.17248   1.18600   1.19202   1.20203
 Alpha virt. eigenvalues --    1.21767   1.23213   1.24022   1.25433   1.25768
 Alpha virt. eigenvalues --    1.28013   1.29765   1.31336   1.31798   1.33256
 Alpha virt. eigenvalues --    1.34927   1.36517   1.38281   1.38915   1.40627
 Alpha virt. eigenvalues --    1.41125   1.43381   1.44465   1.45503   1.46354
 Alpha virt. eigenvalues --    1.46683   1.48512   1.49389   1.50868   1.52516
 Alpha virt. eigenvalues --    1.53350   1.54448   1.55209   1.56881   1.57688
 Alpha virt. eigenvalues --    1.60531   1.60852   1.61441   1.62434   1.64262
 Alpha virt. eigenvalues --    1.64407   1.66128   1.66450   1.67665   1.68135
 Alpha virt. eigenvalues --    1.71053   1.71237   1.72581   1.73438   1.73581
 Alpha virt. eigenvalues --    1.74872   1.75264   1.76039   1.77140   1.78167
 Alpha virt. eigenvalues --    1.78757   1.79216   1.80851   1.81020   1.81846
 Alpha virt. eigenvalues --    1.81920   1.82772   1.83727   1.84129   1.85775
 Alpha virt. eigenvalues --    1.86210   1.86666   1.86988   1.87446   1.87909
 Alpha virt. eigenvalues --    1.88588   1.89422   1.89798   1.90411   1.90809
 Alpha virt. eigenvalues --    1.92360   1.92862   1.93173   1.93968   1.94525
 Alpha virt. eigenvalues --    1.94922   1.95642   1.96328   1.97487   1.98170
 Alpha virt. eigenvalues --    1.98275   1.98546   1.98837   1.99934   2.00392
 Alpha virt. eigenvalues --    2.01519   2.02567   2.02980   2.03643   2.05138
 Alpha virt. eigenvalues --    2.05547   2.06659   2.07306   2.07941   2.09237
 Alpha virt. eigenvalues --    2.09771   2.11079   2.11591   2.12042   2.12220
 Alpha virt. eigenvalues --    2.14031   2.14707   2.16031   2.16611   2.17134
 Alpha virt. eigenvalues --    2.18450   2.18715   2.19826   2.20138   2.22021
 Alpha virt. eigenvalues --    2.23344   2.24119   2.25091   2.25836   2.27194
 Alpha virt. eigenvalues --    2.27637   2.28531   2.29350   2.29989   2.31781
 Alpha virt. eigenvalues --    2.32436   2.32852   2.33077   2.34097   2.34367
 Alpha virt. eigenvalues --    2.36196   2.36330   2.37724   2.38949   2.40259
 Alpha virt. eigenvalues --    2.40406   2.41205   2.41488   2.42358   2.43383
 Alpha virt. eigenvalues --    2.44949   2.45377   2.46268   2.47367   2.48461
 Alpha virt. eigenvalues --    2.49593   2.50321   2.51289   2.53121   2.54591
 Alpha virt. eigenvalues --    2.55360   2.56161   2.58301   2.59165   2.59959
 Alpha virt. eigenvalues --    2.62475   2.62682   2.63519   2.65625   2.65920
 Alpha virt. eigenvalues --    2.66288   2.68449   2.69148   2.69968   2.70711
 Alpha virt. eigenvalues --    2.72413   2.73357   2.75969   2.76345   2.76817
 Alpha virt. eigenvalues --    2.78122   2.78429   2.79809   2.81279   2.86658
 Alpha virt. eigenvalues --    2.88695   2.89187   2.92113   2.94577   2.96474
 Alpha virt. eigenvalues --    2.97217   2.99203   2.99598   3.00795   3.02107
 Alpha virt. eigenvalues --    3.04976   3.06445   3.11031   3.13420   3.21970
 Alpha virt. eigenvalues --    3.25092   3.26673   4.00259   4.08879   4.11076
 Alpha virt. eigenvalues --    4.11962   4.14429   4.16318   4.18842   4.19736
 Alpha virt. eigenvalues --    4.22211   4.23370   4.24755   4.26197   4.30019
 Alpha virt. eigenvalues --    4.31733   4.32786   4.35632   4.38749   4.42206
 Alpha virt. eigenvalues --    4.46033   4.48369   4.51830   4.55912   4.60551
 Alpha virt. eigenvalues --    4.65242   4.67196   4.68327   4.72536   4.76347
 Alpha virt. eigenvalues --    4.88315   4.94623   5.23669
          Condensed to atoms (all electrons):
 Mulliken atomic charges:
              1
     1  C   -0.193225
     2  C    0.197297
     3  C   -0.196727
     4  C    0.313560
     5  C   -0.031513
     6  C   -0.329219
     7  C    0.200642
     8  C    0.402530
     9  C   -0.097758
    10  C    0.402059
    11  C    0.429170
    12  O   -0.465093
    13  C   -0.165707
    14  C   -0.243472
    15  C   -0.455810
    16  O   -0.468617
    17  C   -0.154963
    18  C    0.298346
    19  O   -0.535790
    20  C   -0.308894
    21  O   -0.670075
    22  C   -0.332270
    23  C    0.102965
    24  O   -0.585271
    25  C    0.188150
    26  C   -0.506148
    27  C   -0.393943
    28  C   -0.467231
    29  C   -0.461620
    30  H    0.147483
    31  H    0.146833
    32  C   -0.520963
    33  H    0.125676
    34  H    0.166684
    35  H    0.174179
    36  H    0.147398
    37  H    0.154502
    38  H    0.122720
    39  H    0.145995
    40  H    0.161459
    41  H    0.162554
    42  H    0.151040
    43  H    0.161854
    44  H    0.422280
    45  H    0.150247
    46  H    0.186847
    47  H    0.136112
    48  H    0.151139
    49  H    0.168285
    50  H    0.153906
    51  H    0.153479
    52  H    0.139064
    53  H    0.195996
    54  H    0.155663
    55  H    0.145091
    56  H    0.151690
    57  H    0.163526
    58  H    0.161919
    59  H    0.158698
    60  H    0.155191
    61  H    0.153966
    62  C   -0.452331
    63  H    0.157058
    64  H    0.134483
    65  H    0.138905
 Sum of Mulliken atomic charges =   0.00000
 Mulliken charges with hydrogens summed into heavy atoms:
              1
     1  C   -0.067549
     2  C    0.197297
     3  C   -0.049894
     4  C    0.313560
     5  C   -0.031513
     6  C    0.011644
     7  C    0.200642
     8  C    0.402530
     9  C   -0.097758
    10  C    0.402059
    11  C    0.429170
    12  O   -0.465093
    13  C   -0.018308
    14  C    0.033751
    15  C    0.014199
    16  O   -0.468617
    17  C   -0.007479
    18  C    0.298346
    19  O   -0.535790
    20  C    0.004000
    21  O   -0.247795
    22  C    0.004824
    23  C    0.239076
    24  O   -0.585271
    25  C    0.188150
    26  C   -0.032819
    27  C   -0.101401
    28  C    0.029519
    29  C    0.015515
    32  C   -0.053108
    62  C   -0.021886
 Sum of Mulliken charges with hydrogens summed into heavy atoms =   0.00000
 Electronic spatial extent (au):  <R**2>=          11779.2763
 Charge=              0.0000 electrons
 Dipole moment (field-independent basis, Debye):
    X=             -3.1587    Y=              5.7268    Z=             -0.8977  Tot=              6.6015
 Quadrupole moment (field-independent basis, Debye-Ang):
   XX=           -177.4064   YY=           -184.5334   ZZ=           -185.3507
   XY=              6.4631   XZ=             -7.4288   YZ=              3.2867
 Traceless Quadrupole moment (field-independent basis, Debye-Ang):
   XX=              5.0237   YY=             -2.1032   ZZ=             -2.9205
   XY=              6.4631   XZ=             -7.4288   YZ=              3.2867
 Octapole moment (field-independent basis, Debye-Ang**2):
  XXX=            -17.1598  YYY=             57.9560  ZZZ=             -0.2559  XYY=            -11.9860
  XXY=             -2.4042  XXZ=            -34.8501  XZZ=            -21.3938  YZZ=              6.6882
  YYZ=            -24.5378  XYZ=              2.6389
 Hexadecapole moment (field-independent basis, Debye-Ang**3):
 XXXX=          -9085.1099 YYYY=          -4024.9946 ZZZZ=          -2585.9509 XXXY=              5.4128
 XXXZ=             36.2133 YYYX=             60.5038 YYYZ=            -18.6318 ZZZX=            -18.5023
 ZZZY=            -18.0844 XXYY=          -2160.2743 XXZZ=          -1935.7788 YYZZ=          -1104.8740
 XXYZ=             61.3502 YYXZ=            -29.9196 ZZXY=             38.2313
 N-N= 3.495229299209D+03 E-N=-1.021664690702D+04  KE= 1.374466012094D+03
 1\1\GINC-B0803\FOpt\RB3LYP\6-31G(d)\C26H34O5\CAOFEI\24-Mar-2021\0\\# o
 pt rb3lyp/6-31g(d) geom=connectivity\\Title Card Required\\0,1\C,0.054
 0383036,-0.0117977548,-0.1735801438\C,1.3863166282,-0.0432108924,-0.04
 83470107\C,2.1773299431,1.2437182923,-0.0065323868\C,1.422628957,2.502
 8865125,0.5312345079\C,-0.1438625902,2.4272354787,0.5792707663\C,-0.72
 93353194,1.2681410853,-0.2831492532\C,1.9948816646,3.6904271962,-0.311
 5295629\C,1.0533172998,4.13982092,-1.4167282609\C,-0.2858434603,4.2403
 764462,-1.2567003344\C,-0.8297548633,3.7046125483,0.0187689559\C,-1.25
 64346215,4.7300236561,-2.2913905764\O,-2.2863226972,4.1051370926,-2.49
 02797263\C,-0.961752522,6.0507586463,-3.0035834595\C,-1.6258607974,6.1
 231665033,-4.3869301575\C,-1.4528731878,7.184557589,-2.073710696\O,-1.
 8313396272,4.1568231325,0.5449015482\C,3.172015662,3.1523107713,-1.156
 2316266\C,3.1697358173,4.0745562301,-2.3958279899\O,1.7313442187,4.420
 8920808,-2.5419730569\C,2.772061231,1.6795052298,-1.3714363396\O,2.292
 0505084,4.8155245842,0.4900898033\C,-0.4633218087,2.2546585098,2.08736
 31772\C,0.8932066608,2.090902083,2.7753144178\O,1.8251814873,2.7543442
 113,1.8858805717\C,1.0870021682,2.6370956095,4.1728758479\C,2.50866685
 26,2.6084068888,4.6799632694\C,0.068227477,3.0523490481,4.9306010742\C
 ,3.9361915356,5.3771705933,-2.1520706872\C,3.5844589553,3.4285329505,-
 3.7139472276\H,4.1144743988,3.2276527399,-0.6056701869\H,3.0229718895,
 1.1174729176,0.6837155215\C,2.1715111712,-1.3274405417,0.0238901911\H,
 -0.5032599498,-0.945779203,-0.2317676584\H,-1.7690602071,1.1151551276,
 0.0251977137\H,-0.786726742,1.5817372251,-1.3356186892\H,0.1245138713,
 6.1490188876,-3.1133056943\H,-2.7003215942,5.9421067778,-4.2689106901\
 H,-1.514376258,7.1476816512,-4.7670711743\H,-1.1990173868,8.1599388732
 ,-2.5036908604\H,-0.9960665614,7.1192618863,-1.0804703747\H,-2.5401488
 435,7.1346384388,-1.9488130927\H,3.6124225249,1.04892462,-1.6775745729
 \H,2.0034329159,1.5938064394,-2.1488305341\H,2.2350407183,4.489084913,
 1.4115736562\H,-1.111490663,1.3945647602,2.2744334291\H,-0.9882501885,
 3.1477658443,2.4335858136\H,1.1709632823,1.0237412651,2.7909861039\H,2
 .9179204649,1.5891765621,4.6461159056\H,3.1633381706,3.2281679631,4.05
 68841502\H,2.5703056469,2.9666838275,5.71172914\H,-0.9588152664,3.0635
 651571,4.5806602795\H,0.2325552598,3.3935900216,5.9495590593\H,3.63292
 23059,5.8378747255,-1.2091331812\H,3.7497145012,6.0794870697,-2.971138
 8161\H,5.0129673429,5.1767156505,-2.1111055626\H,4.637410576,3.1293876
 947,-3.6689570627\H,3.4690205377,4.1433723356,-4.5349497984\H,2.981504
 8877,2.5465513907,-3.9436523951\H,1.516486859,-2.202818157,-0.02786338
 04\H,2.8972201266,-1.4019806111,-0.7979004655\H,2.7501162657,-1.388423
 9577,0.9562649689\C,-1.0463245921,5.1339929614,-5.4038647007\H,-1.2074
 043372,4.0997362833,-5.0819640253\H,0.032956743,5.2828359423,-5.534680
 6514\H,-1.5214617457,5.2546272756,-6.3841778087\\Version=EM64L-G09RevB
 .01\State=1-A\HF=-1387.3191481\RMSD=8.759e-09\RMSF=3.926e-06\Dipole=2.
 3195145,-1.1554031,0.1747119\Quadrupole=-6.5955877,3.4150167,3.180571,
 0.8817666,-4.8989363,-3.5642469\PG=C01 [X(C26H34O5)]\\@


 THIS CURIOUS WORLD WHICH WE INHABIT IS MORE WONDERFUL THAN IT IS CONVENIENT;
 MORE BEAUTIFUL THAN IT IS USEFUL;
 IT IS MORE TO BE ADMIRED THAN IT IS TO BE USED.

                                                                 -- THOREAU
 Job cpu time:  0 days  4 hours 41 minutes 49.9 seconds.
 File lengths (MBytes):  RWF=    186 Int=      0 D2E=      0 Chk=     20 Scr=      1
 Normal termination of Gaussian 09 at Wed Mar 24 17:58:42 2021.
