 Entering Gaussian System, Link 0=g09
 Initial command:
 /public/software/g09/g09/l1.exe /tmp/Gau-14627.inp -scrdir=/tmp/
 Entering Link 1 = /public/software/g09/g09/l1.exe PID=     14628.
  
 Copyright (c) 1988,1990,1992,1993,1995,1998,2003,2009,2010,
            Gaussian, Inc.  All Rights Reserved.
  
 This is part of the Gaussian(R) 09 program.  It is based on
 the Gaussian(R) 03 system (copyright 2003, Gaussian, Inc.),
 the Gaussian(R) 98 system (copyright 1998, Gaussian, Inc.),
 the Gaussian(R) 94 system (copyright 1995, Gaussian, Inc.),
 the Gaussian 92(TM) system (copyright 1992, Gaussian, Inc.),
 the Gaussian 90(TM) system (copyright 1990, Gaussian, Inc.),
 the Gaussian 88(TM) system (copyright 1988, Gaussian, Inc.),
 the Gaussian 86(TM) system (copyright 1986, Carnegie Mellon
 University), and the Gaussian 82(TM) system (copyright 1983,
 Carnegie Mellon University). Gaussian is a federally registered
 trademark of Gaussian, Inc.
  
 This software contains proprietary and confidential information,
 including trade secrets, belonging to Gaussian, Inc.
  
 This software is provided under written license and may be
 used, copied, transmitted, or stored only in accord with that
 written license.
  
 The following legend is applicable only to US Government
 contracts under FAR:
  
                    RESTRICTED RIGHTS LEGEND
  
 Use, reproduction and disclosure by the US Government is
 subject to restrictions as set forth in subparagraphs (a)
 and (c) of the Commercial Computer Software - Restricted
 Rights clause in FAR 52.227-19.
  
 Gaussian, Inc.
 340 Quinnipiac St., Bldg. 40, Wallingford CT 06492
  
  
 ---------------------------------------------------------------
 Warning -- This program may not be used in any manner that
 competes with the business of Gaussian, Inc. or will provide
 assistance to any competitor of Gaussian, Inc.  The licensee
 of this program is prohibited from giving any competitor of
 Gaussian, Inc. access to this program.  By using this program,
 the user acknowledges that Gaussian, Inc. is engaged in the
 business of creating and licensing software in the field of
 computational chemistry and represents and warrants to the
 licensee that it is not a competitor of Gaussian, Inc. and that
 it will not use this program in any manner prohibited above.
 ---------------------------------------------------------------
  

 Cite this work as:
 Gaussian 09, Revision B.01,
 M. J. Frisch, G. W. Trucks, H. B. Schlegel, G. E. Scuseria, 
 M. A. Robb, J. R. Cheeseman, G. Scalmani, V. Barone, B. Mennucci, 
 G. A. Petersson, H. Nakatsuji, M. Caricato, X. Li, H. P. Hratchian, 
 A. F. Izmaylov, J. Bloino, G. Zheng, J. L. Sonnenberg, M. Hada, 
 M. Ehara, K. Toyota, R. Fukuda, J. Hasegawa, M. Ishida, T. Nakajima, 
 Y. Honda, O. Kitao, H. Nakai, T. Vreven, J. A. Montgomery, Jr., 
 J. E. Peralta, F. Ogliaro, M. Bearpark, J. J. Heyd, E. Brothers, 
 K. N. Kudin, V. N. Staroverov, T. Keith, R. Kobayashi, J. Normand, 
 K. Raghavachari, A. Rendell, J. C. Burant, S. S. Iyengar, J. Tomasi, 
 M. Cossi, N. Rega, J. M. Millam, M. Klene, J. E. Knox, J. B. Cross, 
 V. Bakken, C. Adamo, J. Jaramillo, R. Gomperts, R. E. Stratmann, 
 O. Yazyev, A. J. Austin, R. Cammi, C. Pomelli, J. W. Ochterski, 
 R. L. Martin, K. Morokuma, V. G. Zakrzewski, G. A. Voth, 
 P. Salvador, J. J. Dannenberg, S. Dapprich, A. D. Daniels, 
 O. Farkas, J. B. Foresman, J. V. Ortiz, J. Cioslowski, 
 and D. J. Fox, Gaussian, Inc., Wallingford CT, 2010.
 
 ******************************************
 Gaussian 09:  EM64L-G09RevB.01 12-Aug-2010
                24-Mar-2021 
 ******************************************
 %mem=600MW
 %nprocshared=10
 Will use up to   10 processors via shared memory.
 ---------------------------------------
 # opt rb3lyp/6-31g(d) geom=connectivity
 ---------------------------------------
 1/14=-1,18=20,19=15,26=3,38=1,57=2/1,3;
 2/9=110,12=2,17=6,18=5,40=1/2;
 3/5=1,6=6,7=1,11=2,16=1,25=1,30=1,71=1,74=-5,116=1/1,2,3;
 4//1;
 5/5=2,38=5/2;
 6/7=2,8=2,9=2,10=2,28=1/1;
 7//1,2,3,16;
 1/14=-1,18=20,19=15/3(2);
 2/9=110/2;
 99//99;
 2/9=110/2;
 3/5=1,6=6,7=1,11=2,16=1,25=1,30=1,71=1,74=-5,116=1/1,2,3;
 4/5=5,16=3/1;
 5/5=2,38=5/2;
 7//1,2,3,16;
 1/14=-1,18=20,19=15/3(-5);
 2/9=110/2;
 6/7=2,8=2,9=2,10=2,19=2,28=1/1;
 99/9=1/99;
 -------------------
 Title Card Required
 -------------------
 Symbolic Z-matrix:
 Charge =  0 Multiplicity = 1
 C                     0.        0.        0. 
 C                     1.3413    0.        0. 
 C                     2.1357    1.2848    0. 
 C                     1.3375    2.5824   -0.3171 
 C                    -0.1611    2.4617   -0.6424 
 C                    -0.8316    1.2406    0.0206 
 C                     2.1345    3.2697   -1.4433 
 C                     1.7635    2.8607   -2.8262 
 C                     0.5377    2.4494   -3.1629 
 C                    -0.525     2.4565   -2.1358 
 C                     0.2722    1.9835   -4.5429 
 O                     0.6484    0.8622   -4.8844 
 C                    -0.4641    2.9402   -5.478 
 C                     0.5022    3.9515   -6.1149 
 C                    -1.2782    2.1629   -6.5111 
 O                    -1.7041    2.4631   -2.497 
 C                     3.5469    2.7308   -1.3958 
 C                     4.0349    2.9365   -2.8463 
 O                     2.8582    2.7878   -3.6816 
 C                     3.314     1.2656   -0.9918 
 O                     2.0763    4.6828   -1.3564 
 C                    -0.7166    3.7526   -0.0359 
 C                     0.1346    3.9415    1.2104 
 O                     1.4394    3.4494    0.8578 
 C                     0.1961    5.3648    1.7217 
 C                    -1.1324    6.0134    2.0106 
 C                     1.339     6.0304    1.9649 
 C                     4.6132    4.3405   -3.0853 
 C                     5.078     1.9072   -3.295 
 H                     4.1833    3.2428   -0.665 
 H                     2.5678    1.3816    1.007 
 C                     2.1102   -1.2917    0.0934 
 H                    -0.543    -0.9425    0.0478 
 H                    -1.0863    1.4388    1.0688 
 H                    -1.7869    1.0144   -0.4699 
 H                    -1.1825    3.5078   -4.873 
 H                    -0.0797    4.6969   -6.6712 
 H                     1.0308    4.5007   -5.3265 
 H                    -2.0175    1.5257   -6.013 
 H                    -1.8156    2.8454   -7.1775 
 H                    -0.6507    1.5078   -7.124 
 H                     3.0632    0.6419   -1.8584 
 H                     4.2156    0.8378   -0.5387 
 H                     2.1512    4.8932   -0.4047 
 H                    -1.786     3.696     0.1976 
 H                    -0.5851    4.5942   -0.7293 
 H                    -0.2331    3.3049    2.0242 
 H                    -1.0188    6.9951    2.4831 
 H                    -1.7015    6.1566    1.0868 
 H                    -1.7199    5.3876    2.6903 
 H                     2.3136    5.5793    1.81 
 H                     1.333     7.0464    2.3487 
 H                     4.9384    4.4505   -4.1268 
 H                     5.4728    4.5322   -2.4349 
 H                     3.8744    5.1307   -2.9284 
 H                     5.4183    2.1205   -4.3153 
 H                     5.9507    1.9095   -2.6341 
 H                     4.6665    0.894    -3.3351 
 H                     1.4508   -2.153     0.2453 
 H                     2.6808   -1.473    -0.8224 
 H                     2.8053   -1.2583    0.9387 
 C                     1.537     3.3489   -7.0565 
 H                     1.0651    2.8819   -7.9257 
 H                     2.2038    4.1345   -7.4271 
 H                     2.1543    2.6004   -6.5518 
 

 GradGradGradGradGradGradGradGradGradGradGradGradGradGradGradGradGradGrad
 Berny optimization.
 Initialization pass.
                           ----------------------------
                           !    Initial Parameters    !
                           ! (Angstroms and Degrees)  !
 --------------------------                            --------------------------
 ! Name  Definition              Value          Derivative Info.                !
 --------------------------------------------------------------------------------
 ! R1    R(1,2)                  1.3413         estimate D2E/DX2                !
 ! R2    R(1,6)                  1.4937         estimate D2E/DX2                !
 ! R3    R(1,33)                 1.0888         estimate D2E/DX2                !
 ! R4    R(2,3)                  1.5106         estimate D2E/DX2                !
 ! R5    R(2,32)                 1.5061         estimate D2E/DX2                !
 ! R6    R(3,4)                  1.5561         estimate D2E/DX2                !
 ! R7    R(3,20)                 1.5403         estimate D2E/DX2                !
 ! R8    R(3,31)                 1.1001         estimate D2E/DX2                !
 ! R9    R(4,5)                  1.5382         estimate D2E/DX2                !
 ! R10   R(4,7)                  1.5414         estimate D2E/DX2                !
 ! R11   R(4,24)                 1.4637         estimate D2E/DX2                !
 ! R12   R(5,6)                  1.5428         estimate D2E/DX2                !
 ! R13   R(5,10)                 1.5371         estimate D2E/DX2                !
 ! R14   R(5,22)                 1.5306         estimate D2E/DX2                !
 ! R15   R(6,34)                 1.0968         estimate D2E/DX2                !
 ! R16   R(6,35)                 1.0974         estimate D2E/DX2                !
 ! R17   R(7,8)                  1.4891         estimate D2E/DX2                !
 ! R18   R(7,17)                 1.5125         estimate D2E/DX2                !
 ! R19   R(7,21)                 1.417          estimate D2E/DX2                !
 ! R20   R(8,9)                  1.3361         estimate D2E/DX2                !
 ! R21   R(8,19)                 1.3912         estimate D2E/DX2                !
 ! R22   R(9,10)                 1.4779         estimate D2E/DX2                !
 ! R23   R(9,11)                 1.4805         estimate D2E/DX2                !
 ! R24   R(10,16)                1.2332         estimate D2E/DX2                !
 ! R25   R(11,12)                1.231          estimate D2E/DX2                !
 ! R26   R(11,13)                1.527          estimate D2E/DX2                !
 ! R27   R(13,14)                1.5369         estimate D2E/DX2                !
 ! R28   R(13,15)                1.5278         estimate D2E/DX2                !
 ! R29   R(13,36)                1.0974         estimate D2E/DX2                !
 ! R30   R(14,37)                1.0971         estimate D2E/DX2                !
 ! R31   R(14,38)                1.0966         estimate D2E/DX2                !
 ! R32   R(14,62)                1.5233         estimate D2E/DX2                !
 ! R33   R(15,39)                1.0958         estimate D2E/DX2                !
 ! R34   R(15,40)                1.0948         estimate D2E/DX2                !
 ! R35   R(15,41)                1.0948         estimate D2E/DX2                !
 ! R36   R(17,18)                1.5442         estimate D2E/DX2                !
 ! R37   R(17,20)                1.5376         estimate D2E/DX2                !
 ! R38   R(17,30)                1.096          estimate D2E/DX2                !
 ! R39   R(18,19)                1.4507         estimate D2E/DX2                !
 ! R40   R(18,28)                1.5371         estimate D2E/DX2                !
 ! R41   R(18,29)                1.5326         estimate D2E/DX2                !
 ! R42   R(20,42)                1.0968         estimate D2E/DX2                !
 ! R43   R(20,43)                1.096          estimate D2E/DX2                !
 ! R44   R(21,44)                0.9776         estimate D2E/DX2                !
 ! R45   R(22,23)                1.521          estimate D2E/DX2                !
 ! R46   R(22,45)                1.0961         estimate D2E/DX2                !
 ! R47   R(22,46)                1.0984         estimate D2E/DX2                !
 ! R48   R(23,24)                1.4384         estimate D2E/DX2                !
 ! R49   R(23,25)                1.5136         estimate D2E/DX2                !
 ! R50   R(23,47)                1.0967         estimate D2E/DX2                !
 ! R51   R(25,26)                1.5063         estimate D2E/DX2                !
 ! R52   R(25,27)                1.3448         estimate D2E/DX2                !
 ! R53   R(26,48)                1.0954         estimate D2E/DX2                !
 ! R54   R(26,49)                1.0944         estimate D2E/DX2                !
 ! R55   R(26,50)                1.0949         estimate D2E/DX2                !
 ! R56   R(27,51)                1.085          estimate D2E/DX2                !
 ! R57   R(27,52)                1.0861         estimate D2E/DX2                !
 ! R58   R(28,53)                1.0966         estimate D2E/DX2                !
 ! R59   R(28,54)                1.0948         estimate D2E/DX2                !
 ! R60   R(28,55)                1.0931         estimate D2E/DX2                !
 ! R61   R(29,56)                1.0965         estimate D2E/DX2                !
 ! R62   R(29,57)                1.0947         estimate D2E/DX2                !
 ! R63   R(29,58)                1.0943         estimate D2E/DX2                !
 ! R64   R(32,59)                1.0953         estimate D2E/DX2                !
 ! R65   R(32,60)                1.0941         estimate D2E/DX2                !
 ! R66   R(32,61)                1.0949         estimate D2E/DX2                !
 ! R67   R(62,63)                1.0937         estimate D2E/DX2                !
 ! R68   R(62,64)                1.095          estimate D2E/DX2                !
 ! R69   R(62,65)                1.0936         estimate D2E/DX2                !
 ! A1    A(2,1,6)              123.8311         estimate D2E/DX2                !
 ! A2    A(2,1,33)             119.9156         estimate D2E/DX2                !
 ! A3    A(6,1,33)             116.1493         estimate D2E/DX2                !
 ! A4    A(1,2,3)              121.7288         estimate D2E/DX2                !
 ! A5    A(1,2,32)             120.6981         estimate D2E/DX2                !
 ! A6    A(3,2,32)             117.4501         estimate D2E/DX2                !
 ! A7    A(2,3,4)              116.0717         estimate D2E/DX2                !
 ! A8    A(2,3,20)             113.0608         estimate D2E/DX2                !
 ! A9    A(2,3,31)             106.3447         estimate D2E/DX2                !
 ! A10   A(4,3,20)             105.7585         estimate D2E/DX2                !
 ! A11   A(4,3,31)             108.3396         estimate D2E/DX2                !
 ! A12   A(20,3,31)            106.861          estimate D2E/DX2                !
 ! A13   A(3,4,5)              118.5153         estimate D2E/DX2                !
 ! A14   A(3,4,7)              104.8022         estimate D2E/DX2                !
 ! A15   A(3,4,24)             107.1366         estimate D2E/DX2                !
 ! A16   A(5,4,7)              112.5949         estimate D2E/DX2                !
 ! A17   A(5,4,24)             106.502          estimate D2E/DX2                !
 ! A18   A(7,4,24)             106.6399         estimate D2E/DX2                !
 ! A19   A(4,5,6)              113.2426         estimate D2E/DX2                !
 ! A20   A(4,5,10)             115.8725         estimate D2E/DX2                !
 ! A21   A(4,5,22)             101.7474         estimate D2E/DX2                !
 ! A22   A(6,5,10)             108.177          estimate D2E/DX2                !
 ! A23   A(6,5,22)             109.8472         estimate D2E/DX2                !
 ! A24   A(10,5,22)            107.5722         estimate D2E/DX2                !
 ! A25   A(1,6,5)              114.1729         estimate D2E/DX2                !
 ! A26   A(1,6,34)             107.0119         estimate D2E/DX2                !
 ! A27   A(1,6,35)             107.8955         estimate D2E/DX2                !
 ! A28   A(5,6,34)             111.6297         estimate D2E/DX2                !
 ! A29   A(5,6,35)             110.4494         estimate D2E/DX2                !
 ! A30   A(34,6,35)            105.2042         estimate D2E/DX2                !
 ! A31   A(4,7,8)              115.2926         estimate D2E/DX2                !
 ! A32   A(4,7,17)             107.5197         estimate D2E/DX2                !
 ! A33   A(4,7,21)             112.2489         estimate D2E/DX2                !
 ! A34   A(8,7,17)              99.4372         estimate D2E/DX2                !
 ! A35   A(8,7,21)             108.7017         estimate D2E/DX2                !
 ! A36   A(17,7,21)            113.0643         estimate D2E/DX2                !
 ! A37   A(7,8,9)              123.1733         estimate D2E/DX2                !
 ! A38   A(7,8,19)             112.9155         estimate D2E/DX2                !
 ! A39   A(9,8,19)             123.4254         estimate D2E/DX2                !
 ! A40   A(8,9,10)             118.8866         estimate D2E/DX2                !
 ! A41   A(8,9,11)             119.7551         estimate D2E/DX2                !
 ! A42   A(10,9,11)            121.3547         estimate D2E/DX2                !
 ! A43   A(5,10,9)             120.33           estimate D2E/DX2                !
 ! A44   A(5,10,16)            120.7243         estimate D2E/DX2                !
 ! A45   A(9,10,16)            118.9451         estimate D2E/DX2                !
 ! A46   A(9,11,12)            119.3671         estimate D2E/DX2                !
 ! A47   A(9,11,13)            117.3936         estimate D2E/DX2                !
 ! A48   A(12,11,13)           123.2392         estimate D2E/DX2                !
 ! A49   A(11,13,14)           111.2756         estimate D2E/DX2                !
 ! A50   A(11,13,15)           110.6255         estimate D2E/DX2                !
 ! A51   A(11,13,36)           107.5836         estimate D2E/DX2                !
 ! A52   A(14,13,15)           112.9278         estimate D2E/DX2                !
 ! A53   A(14,13,36)           107.4404         estimate D2E/DX2                !
 ! A54   A(15,13,36)           106.6847         estimate D2E/DX2                !
 ! A55   A(13,14,37)           108.8875         estimate D2E/DX2                !
 ! A56   A(13,14,38)           109.5523         estimate D2E/DX2                !
 ! A57   A(13,14,62)           115.0209         estimate D2E/DX2                !
 ! A58   A(37,14,38)           106.2563         estimate D2E/DX2                !
 ! A59   A(37,14,62)           108.399          estimate D2E/DX2                !
 ! A60   A(38,14,62)           108.364          estimate D2E/DX2                !
 ! A61   A(13,15,39)           110.3641         estimate D2E/DX2                !
 ! A62   A(13,15,40)           110.853          estimate D2E/DX2                !
 ! A63   A(13,15,41)           112.1836         estimate D2E/DX2                !
 ! A64   A(39,15,40)           107.9396         estimate D2E/DX2                !
 ! A65   A(39,15,41)           107.0515         estimate D2E/DX2                !
 ! A66   A(40,15,41)           108.2762         estimate D2E/DX2                !
 ! A67   A(7,17,18)            102.6008         estimate D2E/DX2                !
 ! A68   A(7,17,20)            101.9074         estimate D2E/DX2                !
 ! A69   A(7,17,30)            113.3741         estimate D2E/DX2                !
 ! A70   A(18,17,20)           114.9366         estimate D2E/DX2                !
 ! A71   A(18,17,30)           112.3716         estimate D2E/DX2                !
 ! A72   A(20,17,30)           110.9717         estimate D2E/DX2                !
 ! A73   A(17,18,19)           105.7166         estimate D2E/DX2                !
 ! A74   A(17,18,28)           112.7448         estimate D2E/DX2                !
 ! A75   A(17,18,29)           113.6184         estimate D2E/DX2                !
 ! A76   A(19,18,28)           108.015          estimate D2E/DX2                !
 ! A77   A(19,18,29)           108.3397         estimate D2E/DX2                !
 ! A78   A(28,18,29)           108.1712         estimate D2E/DX2                !
 ! A79   A(8,19,18)            106.192          estimate D2E/DX2                !
 ! A80   A(3,20,17)            105.8535         estimate D2E/DX2                !
 ! A81   A(3,20,42)            109.934          estimate D2E/DX2                !
 ! A82   A(3,20,43)            111.5907         estimate D2E/DX2                !
 ! A83   A(17,20,42)           111.649          estimate D2E/DX2                !
 ! A84   A(17,20,43)           110.8528         estimate D2E/DX2                !
 ! A85   A(42,20,43)           107.0257         estimate D2E/DX2                !
 ! A86   A(7,21,44)            105.7359         estimate D2E/DX2                !
 ! A87   A(5,22,23)            103.0803         estimate D2E/DX2                !
 ! A88   A(5,22,45)            113.2633         estimate D2E/DX2                !
 ! A89   A(5,22,46)            110.6479         estimate D2E/DX2                !
 ! A90   A(23,22,45)           112.2018         estimate D2E/DX2                !
 ! A91   A(23,22,46)           110.8009         estimate D2E/DX2                !
 ! A92   A(45,22,46)           106.9102         estimate D2E/DX2                !
 ! A93   A(22,23,24)           105.3254         estimate D2E/DX2                !
 ! A94   A(22,23,25)           114.6021         estimate D2E/DX2                !
 ! A95   A(22,23,47)           110.3835         estimate D2E/DX2                !
 ! A96   A(24,23,25)           111.5711         estimate D2E/DX2                !
 ! A97   A(24,23,47)           106.7055         estimate D2E/DX2                !
 ! A98   A(25,23,47)           107.9868         estimate D2E/DX2                !
 ! A99   A(4,24,23)            109.6491         estimate D2E/DX2                !
 ! A100  A(23,25,26)           115.7118         estimate D2E/DX2                !
 ! A101  A(23,25,27)           124.1285         estimate D2E/DX2                !
 ! A102  A(26,25,27)           120.1156         estimate D2E/DX2                !
 ! A103  A(25,26,48)           112.1575         estimate D2E/DX2                !
 ! A104  A(25,26,49)           110.6743         estimate D2E/DX2                !
 ! A105  A(25,26,50)           110.2546         estimate D2E/DX2                !
 ! A106  A(48,26,49)           107.5034         estimate D2E/DX2                !
 ! A107  A(48,26,50)           107.4641         estimate D2E/DX2                !
 ! A108  A(49,26,50)           108.6491         estimate D2E/DX2                !
 ! A109  A(25,27,51)           122.1262         estimate D2E/DX2                !
 ! A110  A(25,27,52)           121.4818         estimate D2E/DX2                !
 ! A111  A(51,27,52)           116.3799         estimate D2E/DX2                !
 ! A112  A(18,28,53)           110.5397         estimate D2E/DX2                !
 ! A113  A(18,28,54)           111.2812         estimate D2E/DX2                !
 ! A114  A(18,28,55)           112.5627         estimate D2E/DX2                !
 ! A115  A(53,28,54)           108.2887         estimate D2E/DX2                !
 ! A116  A(53,28,55)           105.3218         estimate D2E/DX2                !
 ! A117  A(54,28,55)           108.5911         estimate D2E/DX2                !
 ! A118  A(18,29,56)           110.6714         estimate D2E/DX2                !
 ! A119  A(18,29,57)           111.3716         estimate D2E/DX2                !
 ! A120  A(18,29,58)           112.1245         estimate D2E/DX2                !
 ! A121  A(56,29,57)           108.2972         estimate D2E/DX2                !
 ! A122  A(56,29,58)           105.2312         estimate D2E/DX2                !
 ! A123  A(57,29,58)           108.8954         estimate D2E/DX2                !
 ! A124  A(2,32,59)            112.0649         estimate D2E/DX2                !
 ! A125  A(2,32,60)            110.8818         estimate D2E/DX2                !
 ! A126  A(2,32,61)            110.2316         estimate D2E/DX2                !
 ! A127  A(59,32,60)           107.4416         estimate D2E/DX2                !
 ! A128  A(59,32,61)           107.4043         estimate D2E/DX2                !
 ! A129  A(60,32,61)           108.6732         estimate D2E/DX2                !
 ! A130  A(14,62,63)           111.5328         estimate D2E/DX2                !
 ! A131  A(14,62,64)           109.8183         estimate D2E/DX2                !
 ! A132  A(14,62,65)           111.6488         estimate D2E/DX2                !
 ! A133  A(63,62,64)           107.4626         estimate D2E/DX2                !
 ! A134  A(63,62,65)           108.5451         estimate D2E/DX2                !
 ! A135  A(64,62,65)           107.667          estimate D2E/DX2                !
 ! D1    D(6,1,2,3)             -0.9513         estimate D2E/DX2                !
 ! D2    D(6,1,2,32)           174.913          estimate D2E/DX2                !
 ! D3    D(33,1,2,3)          -177.0967         estimate D2E/DX2                !
 ! D4    D(33,1,2,32)           -1.2324         estimate D2E/DX2                !
 ! D5    D(2,1,6,5)             29.0375         estimate D2E/DX2                !
 ! D6    D(2,1,6,34)           -95.0081         estimate D2E/DX2                !
 ! D7    D(2,1,6,35)           152.224          estimate D2E/DX2                !
 ! D8    D(33,1,6,5)          -154.6843         estimate D2E/DX2                !
 ! D9    D(33,1,6,34)           81.2701         estimate D2E/DX2                !
 ! D10   D(33,1,6,35)          -31.4978         estimate D2E/DX2                !
 ! D11   D(1,2,3,4)            -13.1125         estimate D2E/DX2                !
 ! D12   D(1,2,3,20)          -135.586          estimate D2E/DX2                !
 ! D13   D(1,2,3,31)           107.4539         estimate D2E/DX2                !
 ! D14   D(32,2,3,4)           170.8947         estimate D2E/DX2                !
 ! D15   D(32,2,3,20)           48.4212         estimate D2E/DX2                !
 ! D16   D(32,2,3,31)          -68.539          estimate D2E/DX2                !
 ! D17   D(1,2,32,59)           -5.0519         estimate D2E/DX2                !
 ! D18   D(1,2,32,60)          115.0007         estimate D2E/DX2                !
 ! D19   D(1,2,32,61)         -124.6139         estimate D2E/DX2                !
 ! D20   D(3,2,32,59)          170.9844         estimate D2E/DX2                !
 ! D21   D(3,2,32,60)          -68.9629         estimate D2E/DX2                !
 ! D22   D(3,2,32,61)           51.4225         estimate D2E/DX2                !
 ! D23   D(2,3,4,5)             -1.7829         estimate D2E/DX2                !
 ! D24   D(2,3,4,7)           -128.355          estimate D2E/DX2                !
 ! D25   D(2,3,4,24)           118.6018         estimate D2E/DX2                !
 ! D26   D(20,3,4,5)           124.4581         estimate D2E/DX2                !
 ! D27   D(20,3,4,7)            -2.114          estimate D2E/DX2                !
 ! D28   D(20,3,4,24)         -115.1572         estimate D2E/DX2                !
 ! D29   D(31,3,4,5)          -121.2713         estimate D2E/DX2                !
 ! D30   D(31,3,4,7)           112.1565         estimate D2E/DX2                !
 ! D31   D(31,3,4,24)           -0.8867         estimate D2E/DX2                !
 ! D32   D(2,3,20,17)          152.2282         estimate D2E/DX2                !
 ! D33   D(2,3,20,42)           31.5018         estimate D2E/DX2                !
 ! D34   D(2,3,20,43)          -87.0847         estimate D2E/DX2                !
 ! D35   D(4,3,20,17)           24.1704         estimate D2E/DX2                !
 ! D36   D(4,3,20,42)          -96.556          estimate D2E/DX2                !
 ! D37   D(4,3,20,43)          144.8575         estimate D2E/DX2                !
 ! D38   D(31,3,20,17)         -91.1163         estimate D2E/DX2                !
 ! D39   D(31,3,20,42)         148.1573         estimate D2E/DX2                !
 ! D40   D(31,3,20,43)          29.5708         estimate D2E/DX2                !
 ! D41   D(3,4,5,6)             27.9748         estimate D2E/DX2                !
 ! D42   D(3,4,5,10)           -97.8719         estimate D2E/DX2                !
 ! D43   D(3,4,5,22)           145.7962         estimate D2E/DX2                !
 ! D44   D(7,4,5,6)            150.7282         estimate D2E/DX2                !
 ! D45   D(7,4,5,10)            24.8815         estimate D2E/DX2                !
 ! D46   D(7,4,5,22)           -91.4504         estimate D2E/DX2                !
 ! D47   D(24,4,5,6)           -92.7349         estimate D2E/DX2                !
 ! D48   D(24,4,5,10)          141.4184         estimate D2E/DX2                !
 ! D49   D(24,4,5,22)           25.0865         estimate D2E/DX2                !
 ! D50   D(3,4,7,8)             88.614          estimate D2E/DX2                !
 ! D51   D(3,4,7,17)           -21.2227         estimate D2E/DX2                !
 ! D52   D(3,4,7,21)          -146.183          estimate D2E/DX2                !
 ! D53   D(5,4,7,8)            -41.5367         estimate D2E/DX2                !
 ! D54   D(5,4,7,17)          -151.3735         estimate D2E/DX2                !
 ! D55   D(5,4,7,21)            83.6663         estimate D2E/DX2                !
 ! D56   D(24,4,7,8)          -157.9913         estimate D2E/DX2                !
 ! D57   D(24,4,7,17)           92.1719         estimate D2E/DX2                !
 ! D58   D(24,4,7,21)          -32.7883         estimate D2E/DX2                !
 ! D59   D(3,4,24,23)         -131.9459         estimate D2E/DX2                !
 ! D60   D(5,4,24,23)           -4.1842         estimate D2E/DX2                !
 ! D61   D(7,4,24,23)          116.265          estimate D2E/DX2                !
 ! D62   D(4,5,6,1)            -40.6597         estimate D2E/DX2                !
 ! D63   D(4,5,6,34)            80.8715         estimate D2E/DX2                !
 ! D64   D(4,5,6,35)          -162.4517         estimate D2E/DX2                !
 ! D65   D(10,5,6,1)            89.1972         estimate D2E/DX2                !
 ! D66   D(10,5,6,34)         -149.2716         estimate D2E/DX2                !
 ! D67   D(10,5,6,35)          -32.5948         estimate D2E/DX2                !
 ! D68   D(22,5,6,1)          -153.6512         estimate D2E/DX2                !
 ! D69   D(22,5,6,34)          -32.12           estimate D2E/DX2                !
 ! D70   D(22,5,6,35)           84.5568         estimate D2E/DX2                !
 ! D71   D(4,5,10,9)             5.1141         estimate D2E/DX2                !
 ! D72   D(4,5,10,16)         -174.6195         estimate D2E/DX2                !
 ! D73   D(6,5,10,9)          -123.2648         estimate D2E/DX2                !
 ! D74   D(6,5,10,16)           57.0016         estimate D2E/DX2                !
 ! D75   D(22,5,10,9)          118.1271         estimate D2E/DX2                !
 ! D76   D(22,5,10,16)         -61.6065         estimate D2E/DX2                !
 ! D77   D(4,5,22,23)          -35.7144         estimate D2E/DX2                !
 ! D78   D(4,5,22,45)         -157.1911         estimate D2E/DX2                !
 ! D79   D(4,5,22,46)           82.7859         estimate D2E/DX2                !
 ! D80   D(6,5,22,23)           84.5229         estimate D2E/DX2                !
 ! D81   D(6,5,22,45)          -36.9538         estimate D2E/DX2                !
 ! D82   D(6,5,22,46)         -156.9768         estimate D2E/DX2                !
 ! D83   D(10,5,22,23)        -157.9483         estimate D2E/DX2                !
 ! D84   D(10,5,22,45)          80.5751         estimate D2E/DX2                !
 ! D85   D(10,5,22,46)         -39.448          estimate D2E/DX2                !
 ! D86   D(4,7,8,9)             29.0931         estimate D2E/DX2                !
 ! D87   D(4,7,8,19)          -143.1492         estimate D2E/DX2                !
 ! D88   D(17,7,8,9)           143.6793         estimate D2E/DX2                !
 ! D89   D(17,7,8,19)          -28.5629         estimate D2E/DX2                !
 ! D90   D(21,7,8,9)           -97.926          estimate D2E/DX2                !
 ! D91   D(21,7,8,19)           89.8318         estimate D2E/DX2                !
 ! D92   D(4,7,17,18)          155.0006         estimate D2E/DX2                !
 ! D93   D(4,7,17,20)           35.7481         estimate D2E/DX2                !
 ! D94   D(4,7,17,30)          -83.5673         estimate D2E/DX2                !
 ! D95   D(8,7,17,18)           34.5603         estimate D2E/DX2                !
 ! D96   D(8,7,17,20)          -84.6922         estimate D2E/DX2                !
 ! D97   D(8,7,17,30)          155.9924         estimate D2E/DX2                !
 ! D98   D(21,7,17,18)         -80.5305         estimate D2E/DX2                !
 ! D99   D(21,7,17,20)         160.217          estimate D2E/DX2                !
 ! D100  D(21,7,17,30)          40.9016         estimate D2E/DX2                !
 ! D101  D(4,7,21,44)           40.4015         estimate D2E/DX2                !
 ! D102  D(8,7,21,44)          169.1441         estimate D2E/DX2                !
 ! D103  D(17,7,21,44)         -81.4484         estimate D2E/DX2                !
 ! D104  D(7,8,9,10)             2.9537         estimate D2E/DX2                !
 ! D105  D(7,8,9,11)          -176.3614         estimate D2E/DX2                !
 ! D106  D(19,8,9,10)          174.3863         estimate D2E/DX2                !
 ! D107  D(19,8,9,11)           -4.9288         estimate D2E/DX2                !
 ! D108  D(7,8,19,18)            9.0327         estimate D2E/DX2                !
 ! D109  D(9,8,19,18)         -163.187          estimate D2E/DX2                !
 ! D110  D(8,9,10,5)           -20.6833         estimate D2E/DX2                !
 ! D111  D(8,9,10,16)          159.055          estimate D2E/DX2                !
 ! D112  D(11,9,10,5)          158.6204         estimate D2E/DX2                !
 ! D113  D(11,9,10,16)         -21.6413         estimate D2E/DX2                !
 ! D114  D(8,9,11,12)           76.7471         estimate D2E/DX2                !
 ! D115  D(8,9,11,13)         -103.1597         estimate D2E/DX2                !
 ! D116  D(10,9,11,12)        -102.5507         estimate D2E/DX2                !
 ! D117  D(10,9,11,13)          77.5425         estimate D2E/DX2                !
 ! D118  D(9,11,13,14)          83.023          estimate D2E/DX2                !
 ! D119  D(9,11,13,15)        -150.5885         estimate D2E/DX2                !
 ! D120  D(9,11,13,36)         -34.4156         estimate D2E/DX2                !
 ! D121  D(12,11,13,14)        -96.8799         estimate D2E/DX2                !
 ! D122  D(12,11,13,15)         29.5086         estimate D2E/DX2                !
 ! D123  D(12,11,13,36)        145.6815         estimate D2E/DX2                !
 ! D124  D(11,13,14,37)       -172.6532         estimate D2E/DX2                !
 ! D125  D(11,13,14,38)        -56.8376         estimate D2E/DX2                !
 ! D126  D(11,13,14,62)         65.4875         estimate D2E/DX2                !
 ! D127  D(15,13,14,37)         62.2361         estimate D2E/DX2                !
 ! D128  D(15,13,14,38)        178.0517         estimate D2E/DX2                !
 ! D129  D(15,13,14,62)        -59.6232         estimate D2E/DX2                !
 ! D130  D(36,13,14,37)        -55.1277         estimate D2E/DX2                !
 ! D131  D(36,13,14,38)         60.688          estimate D2E/DX2                !
 ! D132  D(36,13,14,62)       -176.987          estimate D2E/DX2                !
 ! D133  D(11,13,15,39)         59.9063         estimate D2E/DX2                !
 ! D134  D(11,13,15,40)        179.4424         estimate D2E/DX2                !
 ! D135  D(11,13,15,41)        -59.3774         estimate D2E/DX2                !
 ! D136  D(14,13,15,39)       -174.6313         estimate D2E/DX2                !
 ! D137  D(14,13,15,40)        -55.0952         estimate D2E/DX2                !
 ! D138  D(14,13,15,41)         66.085          estimate D2E/DX2                !
 ! D139  D(36,13,15,39)        -56.8236         estimate D2E/DX2                !
 ! D140  D(36,13,15,40)         62.7125         estimate D2E/DX2                !
 ! D141  D(36,13,15,41)       -176.1073         estimate D2E/DX2                !
 ! D142  D(13,14,62,63)         63.3462         estimate D2E/DX2                !
 ! D143  D(13,14,62,64)       -177.6345         estimate D2E/DX2                !
 ! D144  D(13,14,62,65)        -58.2864         estimate D2E/DX2                !
 ! D145  D(37,14,62,63)        -58.7769         estimate D2E/DX2                !
 ! D146  D(37,14,62,64)         60.2424         estimate D2E/DX2                !
 ! D147  D(37,14,62,65)        179.5904         estimate D2E/DX2                !
 ! D148  D(38,14,62,63)       -173.6915         estimate D2E/DX2                !
 ! D149  D(38,14,62,64)        -54.6722         estimate D2E/DX2                !
 ! D150  D(38,14,62,65)         64.6758         estimate D2E/DX2                !
 ! D151  D(7,17,18,19)         -31.8327         estimate D2E/DX2                !
 ! D152  D(7,17,18,28)          85.9641         estimate D2E/DX2                !
 ! D153  D(7,17,18,29)        -150.5051         estimate D2E/DX2                !
 ! D154  D(20,17,18,19)         77.8674         estimate D2E/DX2                !
 ! D155  D(20,17,18,28)       -164.3358         estimate D2E/DX2                !
 ! D156  D(20,17,18,29)        -40.805          estimate D2E/DX2                !
 ! D157  D(30,17,18,19)       -153.9476         estimate D2E/DX2                !
 ! D158  D(30,17,18,28)        -36.1508         estimate D2E/DX2                !
 ! D159  D(30,17,18,29)         87.38           estimate D2E/DX2                !
 ! D160  D(7,17,20,3)          -36.6708         estimate D2E/DX2                !
 ! D161  D(7,17,20,42)          82.9352         estimate D2E/DX2                !
 ! D162  D(7,17,20,43)        -157.8362         estimate D2E/DX2                !
 ! D163  D(18,17,20,3)        -146.7868         estimate D2E/DX2                !
 ! D164  D(18,17,20,42)        -27.1808         estimate D2E/DX2                !
 ! D165  D(18,17,20,43)         92.0478         estimate D2E/DX2                !
 ! D166  D(30,17,20,3)          84.3297         estimate D2E/DX2                !
 ! D167  D(30,17,20,42)       -156.0643         estimate D2E/DX2                !
 ! D168  D(30,17,20,43)        -36.8357         estimate D2E/DX2                !
 ! D169  D(17,18,19,8)          14.5415         estimate D2E/DX2                !
 ! D170  D(28,18,19,8)        -106.3799         estimate D2E/DX2                !
 ! D171  D(29,18,19,8)         136.6655         estimate D2E/DX2                !
 ! D172  D(17,18,28,53)       -179.4175         estimate D2E/DX2                !
 ! D173  D(17,18,28,54)         60.2133         estimate D2E/DX2                !
 ! D174  D(17,18,28,55)        -61.9503         estimate D2E/DX2                !
 ! D175  D(19,18,28,53)        -62.9816         estimate D2E/DX2                !
 ! D176  D(19,18,28,54)        176.6492         estimate D2E/DX2                !
 ! D177  D(19,18,28,55)         54.4857         estimate D2E/DX2                !
 ! D178  D(29,18,28,53)         54.082          estimate D2E/DX2                !
 ! D179  D(29,18,28,54)        -66.2872         estimate D2E/DX2                !
 ! D180  D(29,18,28,55)        171.5493         estimate D2E/DX2                !
 ! D181  D(17,18,29,56)       -177.8338         estimate D2E/DX2                !
 ! D182  D(17,18,29,57)        -57.3051         estimate D2E/DX2                !
 ! D183  D(17,18,29,58)         65.0044         estimate D2E/DX2                !
 ! D184  D(19,18,29,56)         65.0103         estimate D2E/DX2                !
 ! D185  D(19,18,29,57)       -174.4609         estimate D2E/DX2                !
 ! D186  D(19,18,29,58)        -52.1514         estimate D2E/DX2                !
 ! D187  D(28,18,29,56)        -51.8437         estimate D2E/DX2                !
 ! D188  D(28,18,29,57)         68.6851         estimate D2E/DX2                !
 ! D189  D(28,18,29,58)       -169.0054         estimate D2E/DX2                !
 ! D190  D(5,22,23,24)          34.4467         estimate D2E/DX2                !
 ! D191  D(5,22,23,25)         157.4544         estimate D2E/DX2                !
 ! D192  D(5,22,23,47)         -80.3744         estimate D2E/DX2                !
 ! D193  D(45,22,23,24)        156.6398         estimate D2E/DX2                !
 ! D194  D(45,22,23,25)        -80.3526         estimate D2E/DX2                !
 ! D195  D(45,22,23,47)         41.8186         estimate D2E/DX2                !
 ! D196  D(46,22,23,24)        -83.9466         estimate D2E/DX2                !
 ! D197  D(46,22,23,25)         39.061          estimate D2E/DX2                !
 ! D198  D(46,22,23,47)        161.2322         estimate D2E/DX2                !
 ! D199  D(22,23,24,4)         -18.9403         estimate D2E/DX2                !
 ! D200  D(25,23,24,4)        -143.8661         estimate D2E/DX2                !
 ! D201  D(47,23,24,4)          98.402          estimate D2E/DX2                !
 ! D202  D(22,23,25,26)         55.5383         estimate D2E/DX2                !
 ! D203  D(22,23,25,27)       -126.8814         estimate D2E/DX2                !
 ! D204  D(24,23,25,26)        175.1158         estimate D2E/DX2                !
 ! D205  D(24,23,25,27)         -7.3039         estimate D2E/DX2                !
 ! D206  D(47,23,25,26)        -67.9261         estimate D2E/DX2                !
 ! D207  D(47,23,25,27)        109.6541         estimate D2E/DX2                !
 ! D208  D(23,25,26,48)        173.469          estimate D2E/DX2                !
 ! D209  D(23,25,26,49)        -66.4803         estimate D2E/DX2                !
 ! D210  D(23,25,26,50)         53.7553         estimate D2E/DX2                !
 ! D211  D(27,25,26,48)         -4.2155         estimate D2E/DX2                !
 ! D212  D(27,25,26,49)        115.8352         estimate D2E/DX2                !
 ! D213  D(27,25,26,50)       -123.9292         estimate D2E/DX2                !
 ! D214  D(23,25,27,51)         -0.2054         estimate D2E/DX2                !
 ! D215  D(23,25,27,52)       -178.8938         estimate D2E/DX2                !
 ! D216  D(26,25,27,51)        177.2742         estimate D2E/DX2                !
 ! D217  D(26,25,27,52)         -1.4142         estimate D2E/DX2                !
 --------------------------------------------------------------------------------
 Trust Radius=3.00D-01 FncErr=1.00D-07 GrdErr=1.00D-06
 Number of steps in this run=    390 maximum allowed number of steps=    390.
 GradGradGradGradGradGradGradGradGradGradGradGradGradGradGradGradGradGrad

 Stoichiometry    C26H34O5
 Framework group  C1[X(C26H34O5)]
 Deg. of freedom   189
 Full point group                 C1      NOp   1
 Largest Abelian subgroup         C1      NOp   1
 Largest concise Abelian subgroup C1      NOp   1
                         Standard orientation:                         
 ---------------------------------------------------------------------
 Center     Atomic      Atomic             Coordinates (Angstroms)
 Number     Number       Type             X           Y           Z
 ---------------------------------------------------------------------
      1          6           0       -1.493100    0.062180    3.198251
      2          6           0       -1.362959    1.313682    2.733609
      3          6           0       -1.499984    1.633597    1.263690
      4          6           0       -1.482516    0.416423    0.294349
      5          6           0       -1.288610   -0.990397    0.885490
      6          6           0       -1.800735   -1.117505    2.335247
      7          6           0       -0.414656    0.768070   -0.760135
      8          6           0        0.974450    0.351423   -0.422313
      9          6           0        1.254437   -0.707257    0.343145
     10          6           0        0.142321   -1.549179    0.831696
     11          6           0        2.660416   -1.006379    0.697691
     12          8           0        3.218863   -0.338203    1.567829
     13          6           0        3.347100   -2.145446   -0.052520
     14          6           0        3.897277   -1.669685   -1.406426
     15          6           0        4.411353   -2.803005    0.824538
     16          8           0        0.381240   -2.704943    1.189344
     17          6           0       -0.234422    2.269650   -0.742413
     18          6           0        1.201925    2.442926   -1.282124
     19          8           0        1.932158    1.270182   -0.839528
     20          6           0       -0.409273    2.592570    0.750711
     21          8           0       -0.741054    0.263251   -2.043262
     22          6           0       -2.152743   -1.842276   -0.047474
     23          6           0       -3.324543   -0.925615   -0.363867
     24          8           0       -2.769957    0.401028   -0.401870
     25          6           0       -4.057462   -1.259302   -1.645458
     26          6           0       -4.577922   -2.668801   -1.752652
     27          6           0       -4.296124   -0.375193   -2.630234
     28          6           0        1.258584    2.486762   -2.817584
     29          6           0        1.914936    3.687326   -0.741817
     30          1           0       -0.975080    2.803676   -1.348598
     31          1           0       -2.462291    2.154013    1.148527
     32          6           0       -1.164752    2.468486    3.679948
     33          1           0       -1.435627   -0.128339    4.268690
     34          1           0       -2.887004   -1.265063    2.368804
     35          1           0       -1.374435   -2.007245    2.815856
     36          1           0        2.589165   -2.912363   -0.256646
     37          1           0        4.262462   -2.539357   -1.966790
     38          1           0        3.083441   -1.239919   -2.002736
     39          1           0        3.957054   -3.210171    1.734769
     40          1           0        4.899371   -3.626821    0.293633
     41          1           0        5.182801   -2.093379    1.140541
     42          1           0        0.520663    2.434866    1.310394
     43          1           0       -0.695102    3.641126    0.892230
     44          1           0       -1.702687    0.404949   -2.147161
     45          1           0       -2.476188   -2.786975    0.404488
     46          1           0       -1.599844   -2.098139   -0.961379
     47          1           0       -4.052662   -0.939548    0.456122
     48          1           0       -5.194125   -2.814810   -2.646448
     49          1           0       -3.750540   -3.383434   -1.802916
     50          1           0       -5.197583   -2.911200   -0.883148
     51          1           0       -3.974398    0.659162   -2.567528
     52          1           0       -4.842611   -0.657166   -3.525464
     53          1           0        2.293759    2.600030   -3.161328
     54          1           0        0.671849    3.322179   -3.213186
     55          1           0        0.901266    1.561522   -3.277054
     56          1           0        2.913560    3.783946   -1.184227
     57          1           0        1.350731    4.598626   -0.964536
     58          1           0        2.083199    3.629682    0.337942
     59          1           0       -1.234251    2.158136    4.728076
     60          1           0       -0.180564    2.924843    3.537619
     61          1           0       -1.932311    3.231161    3.512637
     62          6           0        5.022026   -0.645874   -1.320986
     63          1           0        5.906948   -1.061645   -0.830747
     64          1           0        5.319453   -0.336153   -2.328331
     65          1           0        4.711423    0.250211   -0.776383
 ---------------------------------------------------------------------
 Rotational constants (GHZ):      0.1999524      0.1272151      0.1204685
 Standard basis: 6-31G(d) (6D, 7F)
 There are   533 symmetry adapted basis functions of A   symmetry.
 Integral buffers will be    131072 words long.
 Raffenetti 2 integral format.
 Two-electron integral symmetry is turned on.
   533 basis functions,  1004 primitive gaussians,   533 cartesian basis functions
   115 alpha electrons      115 beta electrons
       nuclear repulsion energy      3531.0294591461 Hartrees.
 NAtoms=   65 NActive=   65 NUniq=   65 SFac= 1.00D+00 NAtFMM=   50 NAOKFM=T Big=T
 One-electron integrals computed using PRISM.
 NBasis=   533 RedAO= T  NBF=   533
 NBsUse=   533 1.00D-06 NBFU=   533
 Harris functional with IExCor=  402 diagonalized for initial guess.
 ExpMin= 1.61D-01 ExpMax= 5.48D+03 ExpMxC= 8.25D+02 IAcc=1 IRadAn=         1 AccDes= 0.00D+00
 HarFok:  IExCor=  402 AccDes= 0.00D+00 IRadAn=         1 IDoV= 1
 ScaDFX=  1.000000  1.000000  1.000000  1.000000
 FoFCou: FMM=F IPFlag=           0 FMFlag=      100000 FMFlg1=        2001
         NFxFlg=           0 DoJE=T BraDBF=F KetDBF=T FulRan=T
         Omega=  0.000000  0.000000  1.000000  0.000000  0.000000 ICntrl=     500 IOpCl=  0
         NMat0=    1 NMatS0=    1 NMatT0=    0 NMatD0=    1 NMtDS0=    0 NMtDT0=    0
         I1Cent=           4 NGrid=           0.
 Petite list used in FoFCou.
 Initial guess orbital symmetries:
       Occupied  (A) (A) (A) (A) (A) (A) (A) (A) (A) (A) (A) (A)
                 (A) (A) (A) (A) (A) (A) (A) (A) (A) (A) (A) (A)
                 (A) (A) (A) (A) (A) (A) (A) (A) (A) (A) (A) (A)
                 (A) (A) (A) (A) (A) (A) (A) (A) (A) (A) (A) (A)
                 (A) (A) (A) (A) (A) (A) (A) (A) (A) (A) (A) (A)
                 (A) (A) (A) (A) (A) (A) (A) (A) (A) (A) (A) (A)
                 (A) (A) (A) (A) (A) (A) (A) (A) (A) (A) (A) (A)
                 (A) (A) (A) (A) (A) (A) (A) (A) (A) (A) (A) (A)
                 (A) (A) (A) (A) (A) (A) (A) (A) (A) (A) (A) (A)
                 (A) (A) (A) (A) (A) (A) (A)
       Virtual   (A) (A) (A) (A) (A) (A) (A) (A) (A) (A) (A) (A)
                 (A) (A) (A) (A) (A) (A) (A) (A) (A) (A) (A) (A)
                 (A) (A) (A) (A) (A) (A) (A) (A) (A) (A) (A) (A)
                 (A) (A) (A) (A) (A) (A) (A) (A) (A) (A) (A) (A)
                 (A) (A) (A) (A) (A) (A) (A) (A) (A) (A) (A) (A)
                 (A) (A) (A) (A) (A) (A) (A) (A) (A) (A) (A) (A)
                 (A) (A) (A) (A) (A) (A) (A) (A) (A) (A) (A) (A)
                 (A) (A) (A) (A) (A) (A) (A) (A) (A) (A) (A) (A)
                 (A) (A) (A) (A) (A) (A) (A) (A) (A) (A) (A) (A)
                 (A) (A) (A) (A) (A) (A) (A) (A) (A) (A) (A) (A)
                 (A) (A) (A) (A) (A) (A) (A) (A) (A) (A) (A) (A)
                 (A) (A) (A) (A) (A) (A) (A) (A) (A) (A) (A) (A)
                 (A) (A) (A) (A) (A) (A) (A) (A) (A) (A) (A) (A)
                 (A) (A) (A) (A) (A) (A) (A) (A) (A) (A) (A) (A)
                 (A) (A) (A) (A) (A) (A) (A) (A) (A) (A) (A) (A)
                 (A) (A) (A) (A) (A) (A) (A) (A) (A) (A) (A) (A)
                 (A) (A) (A) (A) (A) (A) (A) (A) (A) (A) (A) (A)
                 (A) (A) (A) (A) (A) (A) (A) (A) (A) (A) (A) (A)
                 (A) (A) (A) (A) (A) (A) (A) (A) (A) (A) (A) (A)
                 (A) (A) (A) (A) (A) (A) (A) (A) (A) (A) (A) (A)
                 (A) (A) (A) (A) (A) (A) (A) (A) (A) (A) (A) (A)
                 (A) (A) (A) (A) (A) (A) (A) (A) (A) (A) (A) (A)
                 (A) (A) (A) (A) (A) (A) (A) (A) (A) (A) (A) (A)
                 (A) (A) (A) (A) (A) (A) (A) (A) (A) (A) (A) (A)
                 (A) (A) (A) (A) (A) (A) (A) (A) (A) (A) (A) (A)
                 (A) (A) (A) (A) (A) (A) (A) (A) (A) (A) (A) (A)
                 (A) (A) (A) (A) (A) (A) (A) (A) (A) (A) (A) (A)
                 (A) (A) (A) (A) (A) (A) (A) (A) (A) (A) (A) (A)
                 (A) (A) (A) (A) (A) (A) (A) (A) (A) (A) (A) (A)
                 (A) (A) (A) (A) (A) (A) (A) (A) (A) (A) (A) (A)
                 (A) (A) (A) (A) (A) (A) (A) (A) (A) (A) (A) (A)
                 (A) (A) (A) (A) (A) (A) (A) (A) (A) (A) (A) (A)
                 (A) (A) (A) (A) (A) (A) (A) (A) (A) (A) (A) (A)
                 (A) (A) (A) (A) (A) (A) (A) (A) (A) (A) (A) (A)
                 (A) (A) (A) (A) (A) (A) (A) (A) (A) (A)
 The electronic state of the initial guess is 1-A.
 Requested convergence on RMS density matrix=1.00D-08 within 128 cycles.
 Requested convergence on MAX density matrix=1.00D-06.
 Requested convergence on             energy=1.00D-06.
 No special actions if energy rises.
 Integral accuracy reduced to 1.0D-05 until final iterations.
 Initial convergence to 1.0D-05 achieved.  Increase integral accuracy.
 SCF Done:  E(RB3LYP) =  -1387.30467939     A.U. after   16 cycles
             Convg  =    0.4640D-08             -V/T =  2.0091

 **********************************************************************

            Population analysis using the SCF density.

 **********************************************************************

 Orbital symmetries:
       Occupied  (A) (A) (A) (A) (A) (A) (A) (A) (A) (A) (A) (A)
                 (A) (A) (A) (A) (A) (A) (A) (A) (A) (A) (A) (A)
                 (A) (A) (A) (A) (A) (A) (A) (A) (A) (A) (A) (A)
                 (A) (A) (A) (A) (A) (A) (A) (A) (A) (A) (A) (A)
                 (A) (A) (A) (A) (A) (A) (A) (A) (A) (A) (A) (A)
                 (A) (A) (A) (A) (A) (A) (A) (A) (A) (A) (A) (A)
                 (A) (A) (A) (A) (A) (A) (A) (A) (A) (A) (A) (A)
                 (A) (A) (A) (A) (A) (A) (A) (A) (A) (A) (A) (A)
                 (A) (A) (A) (A) (A) (A) (A) (A) (A) (A) (A) (A)
                 (A) (A) (A) (A) (A) (A) (A)
       Virtual   (A) (A) (A) (A) (A) (A) (A) (A) (A) (A) (A) (A)
                 (A) (A) (A) (A) (A) (A) (A) (A) (A) (A) (A) (A)
                 (A) (A) (A) (A) (A) (A) (A) (A) (A) (A) (A) (A)
                 (A) (A) (A) (A) (A) (A) (A) (A) (A) (A) (A) (A)
                 (A) (A) (A) (A) (A) (A) (A) (A) (A) (A) (A) (A)
                 (A) (A) (A) (A) (A) (A) (A) (A) (A) (A) (A) (A)
                 (A) (A) (A) (A) (A) (A) (A) (A) (A) (A) (A) (A)
                 (A) (A) (A) (A) (A) (A) (A) (A) (A) (A) (A) (A)
                 (A) (A) (A) (A) (A) (A) (A) (A) (A) (A) (A) (A)
                 (A) (A) (A) (A) (A) (A) (A) (A) (A) (A) (A) (A)
                 (A) (A) (A) (A) (A) (A) (A) (A) (A) (A) (A) (A)
                 (A) (A) (A) (A) (A) (A) (A) (A) (A) (A) (A) (A)
                 (A) (A) (A) (A) (A) (A) (A) (A) (A) (A) (A) (A)
                 (A) (A) (A) (A) (A) (A) (A) (A) (A) (A) (A) (A)
                 (A) (A) (A) (A) (A) (A) (A) (A) (A) (A) (A) (A)
                 (A) (A) (A) (A) (A) (A) (A) (A) (A) (A) (A) (A)
                 (A) (A) (A) (A) (A) (A) (A) (A) (A) (A) (A) (A)
                 (A) (A) (A) (A) (A) (A) (A) (A) (A) (A) (A) (A)
                 (A) (A) (A) (A) (A) (A) (A) (A) (A) (A) (A) (A)
                 (A) (A) (A) (A) (A) (A) (A) (A) (A) (A) (A) (A)
                 (A) (A) (A) (A) (A) (A) (A) (A) (A) (A) (A) (A)
                 (A) (A) (A) (A) (A) (A) (A) (A) (A) (A) (A) (A)
                 (A) (A) (A) (A) (A) (A) (A) (A) (A) (A) (A) (A)
                 (A) (A) (A) (A) (A) (A) (A) (A) (A) (A) (A) (A)
                 (A) (A) (A) (A) (A) (A) (A) (A) (A) (A) (A) (A)
                 (A) (A) (A) (A) (A) (A) (A) (A) (A) (A) (A) (A)
                 (A) (A) (A) (A) (A) (A) (A) (A) (A) (A) (A) (A)
                 (A) (A) (A) (A) (A) (A) (A) (A) (A) (A) (A) (A)
                 (A) (A) (A) (A) (A) (A) (A) (A) (A) (A) (A) (A)
                 (A) (A) (A) (A) (A) (A) (A) (A) (A) (A) (A) (A)
                 (A) (A) (A) (A) (A) (A) (A) (A) (A) (A) (A) (A)
                 (A) (A) (A) (A) (A) (A) (A) (A) (A) (A) (A) (A)
                 (A) (A) (A) (A) (A) (A) (A) (A) (A) (A) (A) (A)
                 (A) (A) (A) (A) (A) (A) (A) (A) (A) (A) (A) (A)
                 (A) (A) (A) (A) (A) (A) (A) (A) (A) (A)
 The electronic state is 1-A.
 Alpha  occ. eigenvalues --  -19.19435 -19.16782 -19.15204 -19.13546 -19.13266
 Alpha  occ. eigenvalues --  -10.28053 -10.26846 -10.26798 -10.25945 -10.25924
 Alpha  occ. eigenvalues --  -10.25392 -10.25226 -10.21739 -10.20763 -10.20169
 Alpha  occ. eigenvalues --  -10.20009 -10.19757 -10.19442 -10.19326 -10.19261
 Alpha  occ. eigenvalues --  -10.19260 -10.19147 -10.18402 -10.18335 -10.18296
 Alpha  occ. eigenvalues --  -10.18161 -10.18022 -10.17718 -10.17570 -10.15996
 Alpha  occ. eigenvalues --  -10.15995  -1.08343  -1.05909  -1.03379  -1.02320
 Alpha  occ. eigenvalues --   -1.02233  -0.87340  -0.83991  -0.82687  -0.81781
 Alpha  occ. eigenvalues --   -0.80398  -0.79814  -0.76901  -0.74463  -0.73646
 Alpha  occ. eigenvalues --   -0.72057  -0.71444  -0.69395  -0.69296  -0.68080
 Alpha  occ. eigenvalues --   -0.65613  -0.64372  -0.63290  -0.62058  -0.60842
 Alpha  occ. eigenvalues --   -0.59397  -0.58859  -0.57296  -0.54809  -0.53721
 Alpha  occ. eigenvalues --   -0.52996  -0.52205  -0.50959  -0.50475  -0.49105
 Alpha  occ. eigenvalues --   -0.48013  -0.47570  -0.46756  -0.46187  -0.45769
 Alpha  occ. eigenvalues --   -0.45042  -0.44876  -0.44596  -0.43944  -0.43350
 Alpha  occ. eigenvalues --   -0.43121  -0.42731  -0.42175  -0.42012  -0.41465
 Alpha  occ. eigenvalues --   -0.41358  -0.40888  -0.40324  -0.39728  -0.39140
 Alpha  occ. eigenvalues --   -0.38871  -0.38622  -0.38244  -0.38063  -0.37869
 Alpha  occ. eigenvalues --   -0.37193  -0.37021  -0.36925  -0.36877  -0.36616
 Alpha  occ. eigenvalues --   -0.35984  -0.35898  -0.34975  -0.34464  -0.34364
 Alpha  occ. eigenvalues --   -0.33855  -0.33633  -0.33338  -0.32471  -0.32156
 Alpha  occ. eigenvalues --   -0.31489  -0.31342  -0.31227  -0.28073  -0.26577
 Alpha  occ. eigenvalues --   -0.25680  -0.25162  -0.24470  -0.23364  -0.23254
 Alpha virt. eigenvalues --   -0.05117  -0.01610   0.01066   0.02242   0.03732
 Alpha virt. eigenvalues --    0.07049   0.08037   0.08956   0.09170   0.10157
 Alpha virt. eigenvalues --    0.10286   0.10848   0.11532   0.12035   0.12705
 Alpha virt. eigenvalues --    0.12846   0.13131   0.13630   0.13801   0.14314
 Alpha virt. eigenvalues --    0.14324   0.14936   0.15073   0.15562   0.15730
 Alpha virt. eigenvalues --    0.16286   0.16508   0.16817   0.17239   0.17327
 Alpha virt. eigenvalues --    0.17646   0.18049   0.18533   0.18802   0.19233
 Alpha virt. eigenvalues --    0.19282   0.19480   0.19787   0.20188   0.20452
 Alpha virt. eigenvalues --    0.20811   0.21291   0.21566   0.22116   0.22433
 Alpha virt. eigenvalues --    0.22889   0.23586   0.23816   0.23975   0.24473
 Alpha virt. eigenvalues --    0.24955   0.25234   0.25486   0.26106   0.26517
 Alpha virt. eigenvalues --    0.27132   0.27876   0.28543   0.29116   0.30241
 Alpha virt. eigenvalues --    0.31436   0.32042   0.32645   0.33571   0.34455
 Alpha virt. eigenvalues --    0.35304   0.35970   0.36941   0.38619   0.39588
 Alpha virt. eigenvalues --    0.42282   0.45330   0.46898   0.47823   0.48336
 Alpha virt. eigenvalues --    0.49879   0.50259   0.51551   0.51857   0.52050
 Alpha virt. eigenvalues --    0.52397   0.52893   0.53086   0.53754   0.53915
 Alpha virt. eigenvalues --    0.54283   0.55038   0.55194   0.55720   0.57130
 Alpha virt. eigenvalues --    0.57448   0.57583   0.57789   0.58543   0.59339
 Alpha virt. eigenvalues --    0.59800   0.60645   0.61613   0.61809   0.61917
 Alpha virt. eigenvalues --    0.62125   0.62702   0.63087   0.63324   0.64218
 Alpha virt. eigenvalues --    0.64881   0.65213   0.66321   0.67009   0.67439
 Alpha virt. eigenvalues --    0.68113   0.68326   0.69005   0.69144   0.69994
 Alpha virt. eigenvalues --    0.70318   0.70462   0.71926   0.72302   0.73435
 Alpha virt. eigenvalues --    0.73951   0.74614   0.75214   0.75590   0.76394
 Alpha virt. eigenvalues --    0.77067   0.77298   0.78108   0.79509   0.80282
 Alpha virt. eigenvalues --    0.80502   0.80797   0.81184   0.81848   0.82369
 Alpha virt. eigenvalues --    0.82678   0.83255   0.83895   0.84135   0.85499
 Alpha virt. eigenvalues --    0.85773   0.85921   0.86230   0.86688   0.87288
 Alpha virt. eigenvalues --    0.87405   0.87885   0.88378   0.88697   0.88945
 Alpha virt. eigenvalues --    0.89075   0.89431   0.90129   0.90276   0.90604
 Alpha virt. eigenvalues --    0.90788   0.90995   0.91122   0.91622   0.92545
 Alpha virt. eigenvalues --    0.92759   0.93055   0.93426   0.94353   0.94711
 Alpha virt. eigenvalues --    0.95175   0.95730   0.96013   0.96801   0.96958
 Alpha virt. eigenvalues --    0.97471   0.97922   0.98396   0.99015   0.99863
 Alpha virt. eigenvalues --    1.00843   1.01999   1.02533   1.02705   1.03257
 Alpha virt. eigenvalues --    1.04451   1.05235   1.05707   1.06339   1.06984
 Alpha virt. eigenvalues --    1.08551   1.09569   1.10228   1.11004   1.12475
 Alpha virt. eigenvalues --    1.12758   1.13137   1.15275   1.15417   1.16297
 Alpha virt. eigenvalues --    1.17700   1.18286   1.19144   1.19413   1.21390
 Alpha virt. eigenvalues --    1.22307   1.22773   1.24015   1.25299   1.25935
 Alpha virt. eigenvalues --    1.27872   1.29334   1.30426   1.31796   1.32355
 Alpha virt. eigenvalues --    1.33234   1.36234   1.36867   1.38673   1.39924
 Alpha virt. eigenvalues --    1.40914   1.42321   1.43122   1.44426   1.45655
 Alpha virt. eigenvalues --    1.46885   1.48747   1.50282   1.51196   1.53729
 Alpha virt. eigenvalues --    1.54523   1.54819   1.56063   1.58103   1.58486
 Alpha virt. eigenvalues --    1.60059   1.60994   1.62136   1.62705   1.63389
 Alpha virt. eigenvalues --    1.64836   1.66706   1.66950   1.67508   1.68993
 Alpha virt. eigenvalues --    1.70193   1.71963   1.73301   1.73563   1.74310
 Alpha virt. eigenvalues --    1.75106   1.75490   1.76337   1.78139   1.78804
 Alpha virt. eigenvalues --    1.79860   1.80084   1.80516   1.81804   1.82513
 Alpha virt. eigenvalues --    1.82801   1.83134   1.83694   1.84104   1.85751
 Alpha virt. eigenvalues --    1.86094   1.86917   1.87178   1.87816   1.88175
 Alpha virt. eigenvalues --    1.89080   1.89176   1.89540   1.91201   1.91787
 Alpha virt. eigenvalues --    1.92409   1.92602   1.93802   1.94772   1.95465
 Alpha virt. eigenvalues --    1.95861   1.96714   1.97539   1.97945   1.98751
 Alpha virt. eigenvalues --    1.99366   1.99882   2.00281   2.01490   2.02544
 Alpha virt. eigenvalues --    2.02998   2.04495   2.04806   2.05595   2.05862
 Alpha virt. eigenvalues --    2.07190   2.08292   2.08622   2.09911   2.10447
 Alpha virt. eigenvalues --    2.10574   2.11934   2.12826   2.13505   2.14117
 Alpha virt. eigenvalues --    2.14748   2.15768   2.16503   2.17050   2.17425
 Alpha virt. eigenvalues --    2.19604   2.20371   2.21555   2.22322   2.23048
 Alpha virt. eigenvalues --    2.23414   2.24339   2.25702   2.26316   2.26986
 Alpha virt. eigenvalues --    2.28178   2.28933   2.29570   2.30590   2.31755
 Alpha virt. eigenvalues --    2.32349   2.33258   2.33693   2.33984   2.35652
 Alpha virt. eigenvalues --    2.35814   2.36000   2.37547   2.38137   2.38655
 Alpha virt. eigenvalues --    2.40941   2.41316   2.42020   2.43272   2.43752
 Alpha virt. eigenvalues --    2.44887   2.45212   2.46503   2.48401   2.49642
 Alpha virt. eigenvalues --    2.50404   2.50877   2.51925   2.53653   2.54806
 Alpha virt. eigenvalues --    2.56732   2.57630   2.57859   2.59464   2.60870
 Alpha virt. eigenvalues --    2.61730   2.62864   2.64035   2.64551   2.65953
 Alpha virt. eigenvalues --    2.66856   2.68091   2.68834   2.70167   2.70552
 Alpha virt. eigenvalues --    2.72116   2.73825   2.75124   2.77227   2.79033
 Alpha virt. eigenvalues --    2.79431   2.80771   2.81283   2.82316   2.84623
 Alpha virt. eigenvalues --    2.85669   2.91972   2.92308   2.95142   2.96969
 Alpha virt. eigenvalues --    2.98114   3.00017   3.00899   3.01694   3.02715
 Alpha virt. eigenvalues --    3.06057   3.07398   3.12898   3.17738   3.20627
 Alpha virt. eigenvalues --    3.22313   3.29629   4.01735   4.08338   4.09851
 Alpha virt. eigenvalues --    4.12933   4.14657   4.15946   4.17584   4.19000
 Alpha virt. eigenvalues --    4.23138   4.25343   4.27409   4.29820   4.31833
 Alpha virt. eigenvalues --    4.32151   4.36028   4.37771   4.42110   4.44000
 Alpha virt. eigenvalues --    4.46705   4.50912   4.53158   4.55794   4.60007
 Alpha virt. eigenvalues --    4.63023   4.65796   4.70884   4.73410   4.82415
 Alpha virt. eigenvalues --    4.91837   5.03075   5.19996
          Condensed to atoms (all electrons):
 Mulliken atomic charges:
              1
     1  C   -0.192588
     2  C    0.192064
     3  C   -0.187368
     4  C    0.320749
     5  C   -0.042295
     6  C   -0.332888
     7  C    0.208415
     8  C    0.405632
     9  C   -0.089302
    10  C    0.422988
    11  C    0.420521
    12  O   -0.457036
    13  C   -0.154646
    14  C   -0.265242
    15  C   -0.451754
    16  O   -0.505772
    17  C   -0.162995
    18  C    0.312555
    19  O   -0.537719
    20  C   -0.322016
    21  O   -0.663500
    22  C   -0.322054
    23  C    0.109671
    24  O   -0.589537
    25  C    0.189136
    26  C   -0.519048
    27  C   -0.404303
    28  C   -0.462869
    29  C   -0.463073
    30  H    0.143130
    31  H    0.164675
    32  C   -0.517651
    33  H    0.123801
    34  H    0.150960
    35  H    0.178596
    36  H    0.158431
    37  H    0.138193
    38  H    0.145119
    39  H    0.155202
    40  H    0.134426
    41  H    0.164560
    42  H    0.174471
    43  H    0.147509
    44  H    0.413300
    45  H    0.167621
    46  H    0.173745
    47  H    0.144846
    48  H    0.161286
    49  H    0.168849
    50  H    0.156488
    51  H    0.144851
    52  H    0.140079
    53  H    0.149294
    54  H    0.139013
    55  H    0.184100
    56  H    0.158305
    57  H    0.148452
    58  H    0.163712
    59  H    0.158076
    60  H    0.162717
    61  H    0.148740
    62  C   -0.450187
    63  H    0.145926
    64  H    0.135828
    65  H    0.167807
 Sum of Mulliken atomic charges =   0.00000
 Mulliken charges with hydrogens summed into heavy atoms:
              1
     1  C   -0.068787
     2  C    0.192064
     3  C   -0.022692
     4  C    0.320749
     5  C   -0.042295
     6  C   -0.003331
     7  C    0.208415
     8  C    0.405632
     9  C   -0.089302
    10  C    0.422988
    11  C    0.420521
    12  O   -0.457036
    13  C    0.003785
    14  C    0.018069
    15  C    0.002434
    16  O   -0.505772
    17  C   -0.019866
    18  C    0.312555
    19  O   -0.537719
    20  C   -0.000035
    21  O   -0.250200
    22  C    0.019311
    23  C    0.254517
    24  O   -0.589537
    25  C    0.189136
    26  C   -0.032425
    27  C   -0.119372
    28  C    0.009539
    29  C    0.007397
    32  C   -0.048118
    62  C   -0.000625
 Sum of Mulliken charges with hydrogens summed into heavy atoms =   0.00000
 Electronic spatial extent (au):  <R**2>=          11299.3093
 Charge=              0.0000 electrons
 Dipole moment (field-independent basis, Debye):
    X=             -4.0162    Y=              2.2538    Z=             -1.5338  Tot=              4.8541
 Quadrupole moment (field-independent basis, Debye-Ang):
   XX=           -185.0255   YY=           -177.0254   ZZ=           -184.2910
   XY=              4.7330   XZ=             -6.8963   YZ=              2.3710
 Traceless Quadrupole moment (field-independent basis, Debye-Ang):
   XX=             -2.9115   YY=              5.0885   ZZ=             -2.1770
   XY=              4.7330   XZ=             -6.8963   YZ=              2.3710
 Octapole moment (field-independent basis, Debye-Ang**2):
  XXX=            -29.8250  YYY=             43.7911  ZZZ=              3.8436  XYY=             -6.6839
  XXY=            -38.1462  XXZ=            -35.7994  XZZ=            -24.8824  YZZ=              7.0698
  YYZ=            -20.3149  XYZ=             -1.7837
 Hexadecapole moment (field-independent basis, Debye-Ang**3):
 XXXX=          -7915.1762 YYYY=          -3979.7247 ZZZZ=          -3274.8091 XXXY=             80.1840
 XXXZ=             -4.6675 YYYX=             23.1210 YYYZ=             10.1412 ZZZX=             23.1868
 ZZZY=            -22.5433 XXYY=          -1874.6301 XXZZ=          -1840.7114 YYZZ=          -1204.0680
 XXYZ=             21.2715 YYXZ=              3.5804 ZZXY=             21.6057
 N-N= 3.531029459146D+03 E-N=-1.028841684691D+04  KE= 1.374770132379D+03
 Calling FoFJK, ICntrl=      2127 FMM=T ISym2X=0 I1Cent= 0 IOpClX= 0 NMat=1 NMatS=1 NMatT=0.
 ***** Axes restored to original set *****
 -------------------------------------------------------------------
 Center     Atomic                   Forces (Hartrees/Bohr)
 Number     Number              X              Y              Z
 -------------------------------------------------------------------
      1        6           0.009859790   -0.000477404    0.000304382
      2        6          -0.012465565   -0.005378260    0.002034226
      3        6          -0.000849675   -0.007829867   -0.000486793
      4        6           0.003593767   -0.004083241    0.010369605
      5        6          -0.011397568   -0.001565141    0.000283380
      6        6          -0.004818590   -0.010748801   -0.000820413
      7        6           0.010773460    0.020390836    0.008472972
      8        6           0.011151476   -0.013799486   -0.015338365
      9        6           0.001529047    0.005741772    0.011249164
     10        6          -0.007263640    0.002248721   -0.021479834
     11        6          -0.005624784   -0.020723138   -0.017918082
     12        8          -0.005550031    0.018419238    0.003364017
     13        6          -0.009557319   -0.004253265   -0.000524658
     14        6           0.006540765    0.004973558    0.000044179
     15        6          -0.001405550   -0.006110531   -0.004122519
     16        8           0.007505166   -0.004062489    0.010437137
     17        6           0.007963157   -0.011107611   -0.005637727
     18        6           0.032179641    0.007944124   -0.000398474
     19        8          -0.027678157    0.002477865    0.026711914
     20        6           0.011426493   -0.005068822   -0.000133074
     21        8          -0.005664346    0.006466446   -0.002157584
     22        6          -0.010271844    0.011091114    0.000403998
     23        6           0.007806457    0.008881191    0.003825738
     24        8          -0.003900943   -0.003667208   -0.008884084
     25        6           0.009595000    0.011304061    0.006255397
     26        6          -0.000168989   -0.000099285   -0.000004586
     27        6          -0.003385824   -0.009215658   -0.003644224
     28        6          -0.003025347    0.007713878   -0.004820725
     29        6          -0.003719364   -0.006484024   -0.008832160
     30        1          -0.001673044    0.001120843   -0.001703079
     31        1          -0.003362155    0.006056878   -0.000050368
     32        6          -0.001136541    0.000917311   -0.001138980
     33        1           0.001369075   -0.000758095   -0.000082536
     34        1          -0.000618833    0.005597683    0.001916407
     35        1           0.000371041    0.007395548   -0.001231824
     36        1           0.002885341   -0.000080433    0.003737716
     37        1          -0.002855456    0.000055948    0.001736431
     38        1          -0.000985905    0.000987449    0.001516695
     39        1           0.000019969    0.000528017   -0.000138185
     40        1          -0.000167538    0.001352178   -0.000235365
     41        1           0.000003264    0.000740946    0.001083478
     42        1           0.000065490    0.002846938   -0.000292291
     43        1          -0.001278721   -0.001994798   -0.001370043
     44        1          -0.002005725   -0.002035560   -0.001225664
     45        1           0.001468139   -0.002788445   -0.001614701
     46        1           0.002231568   -0.000921448    0.002586375
     47        1          -0.003878785   -0.001126888    0.002471999
     48        1           0.001960933   -0.001380447   -0.000679279
     49        1          -0.003978391   -0.001033980   -0.000122780
     50        1          -0.004203548   -0.000882778   -0.000442928
     51        1           0.000465665   -0.000946744   -0.000195295
     52        1          -0.001152527    0.000025258   -0.000235170
     53        1           0.002081752   -0.003887350    0.000454681
     54        1           0.000490554   -0.000866066    0.000140239
     55        1          -0.001215741   -0.002601830    0.005541915
     56        1           0.000597839    0.002776180    0.001403266
     57        1          -0.000714691    0.001280197    0.000661414
     58        1          -0.000324194    0.000117257    0.003660383
     59        1          -0.001130171    0.001773909   -0.000622891
     60        1           0.004199315   -0.001614263    0.000324935
     61        1           0.004082177   -0.001102091    0.000149281
     62        6           0.003779130   -0.000562894   -0.002812507
     63        1           0.000605808   -0.001269143   -0.000651202
     64        1           0.000769882    0.000337119   -0.000769753
     65        1           0.000058342   -0.001034978   -0.000323177
 -------------------------------------------------------------------
 Cartesian Forces:  Max     0.032179641 RMS     0.006703056

 GradGradGradGradGradGradGradGradGradGradGradGradGradGradGradGradGradGrad
 Berny optimization.
 Internal  Forces:  Max     0.020320864 RMS     0.003416621
 Search for a local minimum.
 Step number   1 out of a maximum of  390
 All quantities printed in internal units (Hartrees-Bohrs-Radians)
 Mixed Optimization -- RFO/linear search
 Second derivative matrix not updated -- first step.
 ITU=  0
     Eigenvalues ---    0.00275   0.00278   0.00335   0.00398   0.00408
     Eigenvalues ---    0.00425   0.00457   0.00554   0.00586   0.00607
     Eigenvalues ---    0.00642   0.00682   0.00685   0.00695   0.00752
     Eigenvalues ---    0.01024   0.01083   0.01234   0.01250   0.01420
     Eigenvalues ---    0.01467   0.01623   0.01712   0.01820   0.01928
     Eigenvalues ---    0.02515   0.02819   0.02821   0.03030   0.03124
     Eigenvalues ---    0.03316   0.03599   0.03624   0.03844   0.04034
     Eigenvalues ---    0.04107   0.04325   0.04394   0.04631   0.04780
     Eigenvalues ---    0.04780   0.04842   0.04954   0.05090   0.05245
     Eigenvalues ---    0.05305   0.05384   0.05421   0.05436   0.05455
     Eigenvalues ---    0.05486   0.05502   0.05550   0.05617   0.05630
     Eigenvalues ---    0.05709   0.05838   0.05913   0.06268   0.06616
     Eigenvalues ---    0.06697   0.06874   0.07105   0.07108   0.07188
     Eigenvalues ---    0.07246   0.07258   0.07350   0.07679   0.08380
     Eigenvalues ---    0.08454   0.08736   0.09012   0.09184   0.09840
     Eigenvalues ---    0.10097   0.10657   0.10930   0.11628   0.12489
     Eigenvalues ---    0.13170   0.14641   0.15200   0.15968   0.16000
     Eigenvalues ---    0.16000   0.16000   0.16000   0.16000   0.16000
     Eigenvalues ---    0.16000   0.16000   0.16000   0.16000   0.16000
     Eigenvalues ---    0.16000   0.16000   0.16000   0.16000   0.16000
     Eigenvalues ---    0.16000   0.16000   0.16000   0.16000   0.16000
     Eigenvalues ---    0.16144   0.17248   0.17293   0.18228   0.18370
     Eigenvalues ---    0.19733   0.21536   0.21950   0.22726   0.23516
     Eigenvalues ---    0.24494   0.24930   0.24975   0.24987   0.24998
     Eigenvalues ---    0.25000   0.25000   0.25000   0.25881   0.27250
     Eigenvalues ---    0.27372   0.27722   0.27797   0.28118   0.28286
     Eigenvalues ---    0.28724   0.28775   0.28794   0.29185   0.29625
     Eigenvalues ---    0.29699   0.30048   0.30444   0.30569   0.30991
     Eigenvalues ---    0.31721   0.31743   0.31854   0.33393   0.33676
     Eigenvalues ---    0.33865   0.33968   0.33971   0.34001   0.34042
     Eigenvalues ---    0.34043   0.34051   0.34057   0.34059   0.34072
     Eigenvalues ---    0.34122   0.34128   0.34129   0.34155   0.34196
     Eigenvalues ---    0.34205   0.34236   0.34252   0.34254   0.34258
     Eigenvalues ---    0.34259   0.34265   0.34273   0.34305   0.34319
     Eigenvalues ---    0.34338   0.34383   0.34396   0.34457   0.34510
     Eigenvalues ---    0.34954   0.35104   0.35268   0.35391   0.36404
     Eigenvalues ---    0.37412   0.42921   0.43714   0.51863   0.53358
     Eigenvalues ---    0.54618   0.56151   0.89765   0.90654
 RFO step:  Lambda=-2.14088789D-02 EMin= 2.74791933D-03
 Linear search not attempted -- first point.
 Iteration  1 RMS(Cart)=  0.04283700 RMS(Int)=  0.00068284
 Iteration  2 RMS(Cart)=  0.00108760 RMS(Int)=  0.00024317
 Iteration  3 RMS(Cart)=  0.00000048 RMS(Int)=  0.00024317
 Variable       Old X    -DE/DX   Delta X   Delta X   Delta X     New X
                                 (Linear)    (Quad)   (Total)
    R1        2.53469  -0.00271   0.00000  -0.00532  -0.00536   2.52933
    R2        2.82264   0.00853   0.00000   0.02550   0.02543   2.84807
    R3        2.05749  -0.00003   0.00000  -0.00008  -0.00008   2.05742
    R4        2.85454   0.00375   0.00000   0.00844   0.00848   2.86302
    R5        2.84617   0.00301   0.00000   0.00887   0.00887   2.85504
    R6        2.94060   0.00508   0.00000   0.01145   0.01138   2.95198
    R7        2.91069   0.01114   0.00000   0.03805   0.03802   2.94871
    R8        2.07881  -0.00083   0.00000  -0.00233  -0.00233   2.07648
    R9        2.90686   0.00878   0.00000   0.02885   0.02863   2.93549
   R10        2.91283   0.00626   0.00000   0.02109   0.02122   2.93405
   R11        2.76602  -0.00505   0.00000  -0.01335  -0.01337   2.75265
   R12        2.91546   0.00013   0.00000   0.00308   0.00301   2.91847
   R13        2.90471   0.00607   0.00000   0.01353   0.01346   2.91817
   R14        2.89248   0.01112   0.00000   0.03772   0.03772   2.93021
   R15        2.07257   0.00299   0.00000   0.00825   0.00825   2.08083
   R16        2.07384  -0.00129   0.00000  -0.00358  -0.00358   2.07026
   R17        2.81394   0.00955   0.00000   0.02101   0.02065   2.83458
   R18        2.85814   0.01568   0.00000   0.05621   0.05570   2.91384
   R19        2.67768   0.00452   0.00000   0.01004   0.01004   2.68772
   R20        2.52483   0.01290   0.00000   0.02231   0.02234   2.54718
   R21        2.62896  -0.02032   0.00000  -0.04789  -0.04769   2.58126
   R22        2.79291  -0.00174   0.00000  -0.00859  -0.00842   2.78448
   R23        2.79779   0.01907   0.00000   0.05203   0.05203   2.84982
   R24        2.33041  -0.01025   0.00000  -0.01116  -0.01116   2.31926
   R25        2.32633  -0.01941   0.00000  -0.02091  -0.02091   2.30542
   R26        2.88567  -0.00167   0.00000  -0.00526  -0.00526   2.88041
   R27        2.90435   0.00781   0.00000   0.02526   0.02526   2.92960
   R28        2.88717   0.00490   0.00000   0.01543   0.01543   2.90260
   R29        2.07379   0.00013   0.00000   0.00036   0.00036   2.07415
   R30        2.07328   0.00067   0.00000   0.00186   0.00186   2.07514
   R31        2.07234   0.00111   0.00000   0.00307   0.00307   2.07542
   R32        2.87869   0.00737   0.00000   0.02289   0.02289   2.90157
   R33        2.07069  -0.00039   0.00000  -0.00107  -0.00107   2.06962
   R34        2.06896   0.00107   0.00000   0.00294   0.00294   2.07190
   R35        2.06885  -0.00105   0.00000  -0.00288  -0.00288   2.06597
   R36        2.91803  -0.00112   0.00000   0.00848   0.00875   2.92677
   R37        2.90568   0.00441   0.00000   0.01562   0.01569   2.92136
   R38        2.07114  -0.00158   0.00000  -0.00437  -0.00437   2.06678
[...]
     58          1           0        1.704845    3.892966   -0.384009
     59          1           0       -1.388012    2.966682    4.277850
     60          1           0       -0.518602    3.649045    2.894997
     61          1           0       -2.277827    3.724419    2.943517
     62          6           0        4.163205   -1.656228   -1.801613
     63          1           0        5.238280   -1.604324   -1.597931
     64          1           0        4.036355   -2.109808   -2.791403
     65          1           0        3.785851   -0.628516   -1.855117
 ---------------------------------------------------------------------
 Rotational constants (GHZ):      0.1877065      0.1327792      0.1236451

 **********************************************************************

            Population analysis using the SCF density.

 **********************************************************************

 Orbital symmetries:
       Occupied  (A) (A) (A) (A) (A) (A) (A) (A) (A) (A) (A) (A)
                 (A) (A) (A) (A) (A) (A) (A) (A) (A) (A) (A) (A)
                 (A) (A) (A) (A) (A) (A) (A) (A) (A) (A) (A) (A)
                 (A) (A) (A) (A) (A) (A) (A) (A) (A) (A) (A) (A)
                 (A) (A) (A) (A) (A) (A) (A) (A) (A) (A) (A) (A)
                 (A) (A) (A) (A) (A) (A) (A) (A) (A) (A) (A) (A)
                 (A) (A) (A) (A) (A) (A) (A) (A) (A) (A) (A) (A)
                 (A) (A) (A) (A) (A) (A) (A) (A) (A) (A) (A) (A)
                 (A) (A) (A) (A) (A) (A) (A) (A) (A) (A) (A) (A)
                 (A) (A) (A) (A) (A) (A) (A)
       Virtual   (A) (A) (A) (A) (A) (A) (A) (A) (A) (A) (A) (A)
                 (A) (A) (A) (A) (A) (A) (A) (A) (A) (A) (A) (A)
                 (A) (A) (A) (A) (A) (A) (A) (A) (A) (A) (A) (A)
                 (A) (A) (A) (A) (A) (A) (A) (A) (A) (A) (A) (A)
                 (A) (A) (A) (A) (A) (A) (A) (A) (A) (A) (A) (A)
                 (A) (A) (A) (A) (A) (A) (A) (A) (A) (A) (A) (A)
                 (A) (A) (A) (A) (A) (A) (A) (A) (A) (A) (A) (A)
                 (A) (A) (A) (A) (A) (A) (A) (A) (A) (A) (A) (A)
                 (A) (A) (A) (A) (A) (A) (A) (A) (A) (A) (A) (A)
                 (A) (A) (A) (A) (A) (A) (A) (A) (A) (A) (A) (A)
                 (A) (A) (A) (A) (A) (A) (A) (A) (A) (A) (A) (A)
                 (A) (A) (A) (A) (A) (A) (A) (A) (A) (A) (A) (A)
                 (A) (A) (A) (A) (A) (A) (A) (A) (A) (A) (A) (A)
                 (A) (A) (A) (A) (A) (A) (A) (A) (A) (A) (A) (A)
                 (A) (A) (A) (A) (A) (A) (A) (A) (A) (A) (A) (A)
                 (A) (A) (A) (A) (A) (A) (A) (A) (A) (A) (A) (A)
                 (A) (A) (A) (A) (A) (A) (A) (A) (A) (A) (A) (A)
                 (A) (A) (A) (A) (A) (A) (A) (A) (A) (A) (A) (A)
                 (A) (A) (A) (A) (A) (A) (A) (A) (A) (A) (A) (A)
                 (A) (A) (A) (A) (A) (A) (A) (A) (A) (A) (A) (A)
                 (A) (A) (A) (A) (A) (A) (A) (A) (A) (A) (A) (A)
                 (A) (A) (A) (A) (A) (A) (A) (A) (A) (A) (A) (A)
                 (A) (A) (A) (A) (A) (A) (A) (A) (A) (A) (A) (A)
                 (A) (A) (A) (A) (A) (A) (A) (A) (A) (A) (A) (A)
                 (A) (A) (A) (A) (A) (A) (A) (A) (A) (A) (A) (A)
                 (A) (A) (A) (A) (A) (A) (A) (A) (A) (A) (A) (A)
                 (A) (A) (A) (A) (A) (A) (A) (A) (A) (A) (A) (A)
                 (A) (A) (A) (A) (A) (A) (A) (A) (A) (A) (A) (A)
                 (A) (A) (A) (A) (A) (A) (A) (A) (A) (A) (A) (A)
                 (A) (A) (A) (A) (A) (A) (A) (A) (A) (A) (A) (A)
                 (A) (A) (A) (A) (A) (A) (A) (A) (A) (A) (A) (A)
                 (A) (A) (A) (A) (A) (A) (A) (A) (A) (A) (A) (A)
                 (A) (A) (A) (A) (A) (A) (A) (A) (A) (A) (A) (A)
                 (A) (A) (A) (A) (A) (A) (A) (A) (A) (A) (A) (A)
                 (A) (A) (A) (A) (A) (A) (A) (A) (A) (A)
 The electronic state is 1-A.
 Alpha  occ. eigenvalues --  -19.19520 -19.16637 -19.15818 -19.12708 -19.12406
 Alpha  occ. eigenvalues --  -10.27258 -10.27229 -10.26589 -10.26194 -10.25743
 Alpha  occ. eigenvalues --  -10.25704 -10.25311 -10.21329 -10.20948 -10.20577
 Alpha  occ. eigenvalues --  -10.20277 -10.19794 -10.19770 -10.19432 -10.19336
 Alpha  occ. eigenvalues --  -10.19129 -10.18790 -10.18759 -10.18468 -10.18417
 Alpha  occ. eigenvalues --  -10.18104 -10.18070 -10.17557 -10.17477 -10.16241
 Alpha  occ. eigenvalues --  -10.15682  -1.09156  -1.06006  -1.02972  -1.02580
 Alpha  occ. eigenvalues --   -1.02180  -0.86712  -0.83579  -0.82446  -0.81363
 Alpha  occ. eigenvalues --   -0.80218  -0.79237  -0.76553  -0.74277  -0.73119
 Alpha  occ. eigenvalues --   -0.71624  -0.71124  -0.69867  -0.69633  -0.67942
 Alpha  occ. eigenvalues --   -0.65448  -0.64149  -0.63193  -0.61542  -0.60580
 Alpha  occ. eigenvalues --   -0.59351  -0.58638  -0.56887  -0.54525  -0.53849
 Alpha  occ. eigenvalues --   -0.52632  -0.52030  -0.50728  -0.50241  -0.49168
 Alpha  occ. eigenvalues --   -0.47827  -0.47047  -0.46572  -0.46257  -0.45779
 Alpha  occ. eigenvalues --   -0.44988  -0.44737  -0.44315  -0.43723  -0.43156
 Alpha  occ. eigenvalues --   -0.43147  -0.42739  -0.42037  -0.41835  -0.41260
 Alpha  occ. eigenvalues --   -0.40808  -0.40605  -0.40507  -0.39918  -0.39181
 Alpha  occ. eigenvalues --   -0.38983  -0.38718  -0.38123  -0.37627  -0.37529
 Alpha  occ. eigenvalues --   -0.37316  -0.37204  -0.37037  -0.36995  -0.36597
 Alpha  occ. eigenvalues --   -0.36163  -0.35617  -0.35178  -0.34769  -0.34457
 Alpha  occ. eigenvalues --   -0.33870  -0.33490  -0.33336  -0.32722  -0.31916
 Alpha  occ. eigenvalues --   -0.31394  -0.31124  -0.30831  -0.28290  -0.26459
 Alpha  occ. eigenvalues --   -0.25998  -0.24488  -0.24058  -0.23362  -0.22551
 Alpha virt. eigenvalues --   -0.04692  -0.00791   0.00886   0.02234   0.05565
 Alpha virt. eigenvalues --    0.07221   0.08290   0.08881   0.09398   0.10038
 Alpha virt. eigenvalues --    0.10363   0.10938   0.11259   0.11939   0.12404
 Alpha virt. eigenvalues --    0.12736   0.12910   0.13967   0.14044   0.14427
 Alpha virt. eigenvalues --    0.14592   0.14908   0.15367   0.15735   0.16146
 Alpha virt. eigenvalues --    0.16390   0.16587   0.16875   0.17012   0.17223
 Alpha virt. eigenvalues --    0.17625   0.17991   0.18362   0.18663   0.19000
 Alpha virt. eigenvalues --    0.19207   0.19298   0.19506   0.20295   0.20560
 Alpha virt. eigenvalues --    0.20875   0.21219   0.21733   0.21914   0.22530
 Alpha virt. eigenvalues --    0.22820   0.23662   0.23900   0.24120   0.24526
 Alpha virt. eigenvalues --    0.24627   0.25348   0.25659   0.26237   0.26629
 Alpha virt. eigenvalues --    0.27314   0.27733   0.28007   0.29019   0.29906
 Alpha virt. eigenvalues --    0.31003   0.31770   0.32742   0.33300   0.33881
 Alpha virt. eigenvalues --    0.34963   0.36139   0.37371   0.37496   0.39033
 Alpha virt. eigenvalues --    0.41605   0.45341   0.46810   0.48040   0.48918
 Alpha virt. eigenvalues --    0.49372   0.50248   0.51107   0.51273   0.51817
 Alpha virt. eigenvalues --    0.52065   0.52481   0.52795   0.53397   0.53880
 Alpha virt. eigenvalues --    0.53988   0.54323   0.55053   0.55904   0.56564
 Alpha virt. eigenvalues --    0.57245   0.57285   0.57818   0.58330   0.59802
 Alpha virt. eigenvalues --    0.60242   0.60580   0.61382   0.61835   0.62322
 Alpha virt. eigenvalues --    0.62487   0.62822   0.63410   0.64512   0.64719
 Alpha virt. eigenvalues --    0.65007   0.65350   0.66095   0.66990   0.67538
 Alpha virt. eigenvalues --    0.68030   0.68422   0.68672   0.68897   0.69307
 Alpha virt. eigenvalues --    0.70294   0.70451   0.71306   0.72399   0.73175
 Alpha virt. eigenvalues --    0.73811   0.74503   0.75002   0.76063   0.76282
 Alpha virt. eigenvalues --    0.76817   0.77513   0.78146   0.79379   0.79866
 Alpha virt. eigenvalues --    0.80233   0.80782   0.81416   0.81597   0.82008
 Alpha virt. eigenvalues --    0.83024   0.83492   0.83910   0.84601   0.85556
 Alpha virt. eigenvalues --    0.85857   0.86062   0.86257   0.86717   0.87077
 Alpha virt. eigenvalues --    0.87292   0.87999   0.88063   0.88380   0.88853
 Alpha virt. eigenvalues --    0.89305   0.89588   0.90040   0.90420   0.90548
 Alpha virt. eigenvalues --    0.90697   0.91198   0.91777   0.91838   0.92175
 Alpha virt. eigenvalues --    0.92546   0.93585   0.94105   0.94601   0.95180
 Alpha virt. eigenvalues --    0.95374   0.96126   0.96645   0.96847   0.97202
 Alpha virt. eigenvalues --    0.97721   0.98263   0.98968   0.99468   0.99967
 Alpha virt. eigenvalues --    1.00882   1.01195   1.01939   1.02614   1.03525
 Alpha virt. eigenvalues --    1.04983   1.06059   1.06146   1.06387   1.07356
 Alpha virt. eigenvalues --    1.08828   1.09175   1.10254   1.11853   1.12269
 Alpha virt. eigenvalues --    1.13667   1.14267   1.15268   1.16571   1.17158
 Alpha virt. eigenvalues --    1.17632   1.18081   1.19277   1.19695   1.21956
 Alpha virt. eigenvalues --    1.22959   1.23488   1.25451   1.25674   1.26014
 Alpha virt. eigenvalues --    1.28499   1.29710   1.30892   1.31953   1.33119
 Alpha virt. eigenvalues --    1.34182   1.36144   1.37815   1.38811   1.39806
 Alpha virt. eigenvalues --    1.41285   1.41821   1.42698   1.44987   1.46424
 Alpha virt. eigenvalues --    1.47248   1.48325   1.49914   1.51834   1.52499
 Alpha virt. eigenvalues --    1.53270   1.55531   1.56064   1.57390   1.58809
 Alpha virt. eigenvalues --    1.60154   1.61027   1.61757   1.63112   1.63861
 Alpha virt. eigenvalues --    1.64773   1.66653   1.67036   1.67366   1.69077
 Alpha virt. eigenvalues --    1.69234   1.72129   1.72751   1.73029   1.73428
 Alpha virt. eigenvalues --    1.73817   1.75045   1.75946   1.76851   1.77994
 Alpha virt. eigenvalues --    1.78407   1.79683   1.79975   1.80853   1.81329
 Alpha virt. eigenvalues --    1.82034   1.82600   1.83800   1.84314   1.84633
 Alpha virt. eigenvalues --    1.85628   1.85910   1.86547   1.87081   1.87188
 Alpha virt. eigenvalues --    1.88347   1.88861   1.89717   1.90356   1.91147
 Alpha virt. eigenvalues --    1.92573   1.93147   1.94575   1.95148   1.95715
 Alpha virt. eigenvalues --    1.96074   1.96803   1.96994   1.98081   1.98557
 Alpha virt. eigenvalues --    1.99005   2.00046   2.00167   2.00792   2.01545
 Alpha virt. eigenvalues --    2.02603   2.03107   2.04307   2.05272   2.06236
 Alpha virt. eigenvalues --    2.06476   2.07170   2.07816   2.09127   2.09917
 Alpha virt. eigenvalues --    2.10332   2.11499   2.11588   2.12518   2.12876
 Alpha virt. eigenvalues --    2.14019   2.14765   2.16123   2.16396   2.17202
 Alpha virt. eigenvalues --    2.18970   2.19617   2.20737   2.21691   2.22470
 Alpha virt. eigenvalues --    2.23828   2.24305   2.25359   2.25998   2.26504
 Alpha virt. eigenvalues --    2.27540   2.28940   2.29661   2.31150   2.31256
 Alpha virt. eigenvalues --    2.32657   2.32902   2.33931   2.34395   2.34901
 Alpha virt. eigenvalues --    2.35604   2.35979   2.36255   2.38616   2.38686
 Alpha virt. eigenvalues --    2.39527   2.41117   2.41392   2.42444   2.42834
 Alpha virt. eigenvalues --    2.44496   2.45292   2.46308   2.47184   2.49090
 Alpha virt. eigenvalues --    2.49232   2.50648   2.52181   2.52907   2.53506
 Alpha virt. eigenvalues --    2.55928   2.56280   2.57566   2.58995   2.59597
 Alpha virt. eigenvalues --    2.60556   2.61235   2.63780   2.64356   2.64882
 Alpha virt. eigenvalues --    2.65999   2.67181   2.69099   2.69558   2.70367
 Alpha virt. eigenvalues --    2.71033   2.73012   2.73881   2.75875   2.76686
 Alpha virt. eigenvalues --    2.78174   2.79913   2.80596   2.82627   2.83813
 Alpha virt. eigenvalues --    2.84755   2.89971   2.92363   2.94549   2.98090
 Alpha virt. eigenvalues --    2.98530   2.99867   3.01446   3.01826   3.02603
 Alpha virt. eigenvalues --    3.05186   3.07214   3.12109   3.18254   3.21162
 Alpha virt. eigenvalues --    3.25556   3.28783   4.03298   4.06383   4.08979
 Alpha virt. eigenvalues --    4.13041   4.13936   4.15181   4.16759   4.19183
 Alpha virt. eigenvalues --    4.23336   4.25164   4.26082   4.29501   4.31122
 Alpha virt. eigenvalues --    4.31835   4.35709   4.37572   4.40739   4.45465
 Alpha virt. eigenvalues --    4.45875   4.51459   4.52312   4.55273   4.58880
 Alpha virt. eigenvalues --    4.62278   4.66568   4.68076   4.74179   4.82651
 Alpha virt. eigenvalues --    4.90231   5.03023   5.17000
          Condensed to atoms (all electrons):
 Mulliken atomic charges:
              1
     1  C   -0.188363
     2  C    0.193885
     3  C   -0.189511
     4  C    0.322423
     5  C   -0.050121
     6  C   -0.332658
     7  C    0.198261
     8  C    0.408487
     9  C   -0.095850
    10  C    0.421117
    11  C    0.422623
    12  O   -0.454087
    13  C   -0.174889
    14  C   -0.265756
    15  C   -0.444155
    16  O   -0.512296
    17  C   -0.165950
    18  C    0.302940
    19  O   -0.518868
    20  C   -0.325596
    21  O   -0.661178
    22  C   -0.324960
    23  C    0.106363
    24  O   -0.590118
    25  C    0.186973
    26  C   -0.519516
    27  C   -0.408577
    28  C   -0.469403
    29  C   -0.457282
    30  H    0.142951
    31  H    0.166361
    32  C   -0.520004
    33  H    0.122939
    34  H    0.145370
    35  H    0.183518
    36  H    0.181396
    37  H    0.136606
    38  H    0.141626
    39  H    0.151748
    40  H    0.131380
    41  H    0.157823
    42  H    0.174212
    43  H    0.151031
    44  H    0.415843
    45  H    0.165633
    46  H    0.171636
    47  H    0.145346
    48  H    0.161858
    49  H    0.169601
    50  H    0.159086
    51  H    0.153263
    52  H    0.139605
    53  H    0.158572
    54  H    0.142969
    55  H    0.191582
    56  H    0.166299
    57  H    0.148012
    58  H    0.168201
    59  H    0.158084
    60  H    0.159878
    61  H    0.150168
    62  C   -0.454166
    63  H    0.148077
    64  H    0.139043
    65  H    0.160509
 Sum of Mulliken atomic charges =   0.00000
 Mulliken charges with hydrogens summed into heavy atoms:
              1
     1  C   -0.065424
     2  C    0.193885
     3  C   -0.023150
     4  C    0.322423
     5  C   -0.050121
     6  C   -0.003769
     7  C    0.198261
     8  C    0.408487
     9  C   -0.095850
    10  C    0.421117
    11  C    0.422623
    12  O   -0.454087
    13  C    0.006507
    14  C    0.012476
    15  C   -0.003203
    16  O   -0.512296
    17  C   -0.022999
    18  C    0.302940
    19  O   -0.518868
    20  C   -0.000353
    21  O   -0.245335
    22  C    0.012309
    23  C    0.251709
    24  O   -0.590118
    25  C    0.186973
    26  C   -0.028971
    27  C   -0.115708
    28  C    0.023721
    29  C    0.025231
    32  C   -0.051874
    62  C   -0.006536
 Sum of Mulliken charges with hydrogens summed into heavy atoms =   0.00000
 Electronic spatial extent (au):  <R**2>=          11175.5648
 Charge=              0.0000 electrons
 Dipole moment (field-independent basis, Debye):
    X=             -4.5871    Y=              1.4988    Z=             -2.1479  Tot=              5.2821
 Quadrupole moment (field-independent basis, Debye-Ang):
   XX=           -190.1709   YY=           -171.9905   ZZ=           -183.7570
   XY=              2.3297   XZ=             -5.3097   YZ=             -0.0174
 Traceless Quadrupole moment (field-independent basis, Debye-Ang):
   XX=             -8.1981   YY=              9.9822   ZZ=             -1.7842
   XY=              2.3297   XZ=             -5.3097   YZ=             -0.0174
 Octapole moment (field-independent basis, Debye-Ang**2):
  XXX=            -30.9572  YYY=             28.0244  ZZZ=             -7.3838  XYY=            -18.0984
  XXY=            -42.6198  XXZ=            -24.7142  XZZ=            -16.7480  YZZ=             20.9303
  YYZ=            -26.1552  XYZ=             -7.9293
 Hexadecapole moment (field-independent basis, Debye-Ang**3):
 XXXX=          -7390.4276 YYYY=          -4231.4027 ZZZZ=          -3406.4310 XXXY=             34.5524
 XXXZ=            -14.8796 YYYX=             63.4275 YYYZ=             -8.8174 ZZZX=             28.4782
 ZZZY=             -4.5621 XXYY=          -1823.1820 XXZZ=          -1749.5428 YYZZ=          -1282.9018
 XXYZ=            -13.2656 YYXZ=             -1.1897 ZZXY=             38.1021
 N-N= 3.529206032053D+03 E-N=-1.028474395962D+04  KE= 1.374453395017D+03
 1\1\GINC-B0600\FOpt\RB3LYP\6-31G(d)\C26H34O5\CAOFEI\24-Mar-2021\0\\# o
 pt rb3lyp/6-31g(d) geom=connectivity\\Title Card Required\\0,1\C,-0.04
 24804772,0.0065683083,0.074725043\C,1.2942409308,-0.0492870678,0.09722
 62862\C,2.1339145209,1.2108910529,0.0566427805\C,1.3763530658,2.518573
 6678,-0.3328627209\C,-0.1162019629,2.4255044539,-0.7393312314\C,-0.836
 0274529,1.2824750129,0.0168383282\C,2.2566299892,3.1621165637,-1.43388
 33308\C,1.9107693745,2.6719471632,-2.8252224359\C,0.6643497485,2.33726
 23952,-3.2452627379\C,-0.4176339945,2.2720456818,-2.2565462801\C,0.428
 913122,1.8882755813,-4.6752401371\O,1.1385686967,1.0210195609,-5.15412
 44403\C,-0.6707899055,2.5812062837,-5.4739399455\C,-0.3521823539,4.094
 4841032,-5.624930077\C,-0.9134440358,1.8758847155,-6.8116401719\O,-1.5
 847090882,2.0647580829,-2.581229128\C,3.6780573979,2.5697128937,-1.321
 0250021\C,4.2365541736,2.7466441028,-2.753932808\O,3.0080856483,2.6196
 300388,-3.5865388753\C,3.3701850813,1.1219483697,-0.8860855866\O,2.168
 3984004,4.5751430572,-1.4458859161\C,-0.6559386297,3.8012803764,-0.270
 2011718\C,0.1365083759,4.0514629514,1.0221944227\O,1.4079999544,3.4112
 066278,0.8100137367\C,0.3052030788,5.5040814191,1.4148872257\C,-0.9773
 590513,6.2912950273,1.5253533828\C,1.5007164582,6.0330974473,1.6958091
 036\C,4.8280245745,4.1367052672,-2.9987293021\C,5.1891759588,1.6588130
 26,-3.2436385583\H,4.2845657029,3.0996261148,-0.5799890092\H,2.5062331
 758,1.4026235599,1.0730967124\C,2.0341821772,-1.3564131677,0.238257540
 9\H,-0.6108251705,-0.9200871042,0.1424445338\H,-1.067247713,1.60851393
 42,1.0421525438\H,-1.7991666446,1.1207281702,-0.4755468204\H,-1.574290
 0181,2.5127497016,-4.8562872542\H,-1.2090280239,4.5646784124,-6.125153
 7671\H,-0.2960084736,4.5458846349,-4.6264205399\H,-1.2233569582,0.8383
 192615,-6.6525571325\H,-1.7044970595,2.3880339599,-7.3719336916\H,-0.0
 105099871,1.8505878229,-7.4279832349\H,3.1106339254,0.5190022728,-1.76
 26495935\H,4.2230497779,0.6370478689,-0.4027733064\H,2.1226431744,4.83
 96764365,-0.5064474452\H,-1.7377200222,3.777485841,-0.1149708771\H,-0.
 4262475278,4.5760762326,-1.0085590407\H,-0.3618060266,3.5378561349,1.8
 609947851\H,-0.7888937901,7.3031760832,1.8947978544\H,-1.4885751458,6.
 3714204176,0.5576529458\H,-1.6814042331,5.8049210904,2.2145064195\H,2.
 4092097385,5.4402653431,1.6671600527\H,1.5990924803,7.0744100408,1.990
 5221857\H,5.0313509979,4.2704146181,-4.0661887138\H,5.7745403868,4.240
 1086034,-2.4555829121\H,4.1435945584,4.91844035,-2.664777655\H,5.46637
 88189,1.8474356837,-4.2853614316\H,6.1035282405,1.6650733598,-2.639731
 0946\H,4.740017962,0.6647528864,-3.1899296097\H,1.3376482555,-2.195199
 2983,0.3316103597\H,2.6867529103,-1.5577134488,-0.6209149965\H,2.67942
 57833,-1.3520267508,1.1285264734\C,0.9335722722,4.4157313211,-6.397393
 471\H,0.892379541,4.0442633733,-7.4270940205\H,1.0923371638,5.49932360
 86,-6.4435645984\H,1.813358153,3.9700664669,-5.9190526435\\Version=EM6
 4L-G09RevB.01\State=1-A\HF=-1387.3215796\RMSD=3.978e-09\RMSF=5.006e-06
 \Dipole=0.9106781,0.6770785,1.7409572\Quadrupole=4.9870659,0.292269,-5
 .2793349,-4.4316417,-2.6474527,-3.5378429\PG=C01 [X(C26H34O5)]\\@


 AND HERE I AM, FOR ALL MY LORE,
 THE WRETCHED FOOL I WAS BEFORE.
 CALLED MASTER OF ARTS, AND DOCTOR TO BOOT,
 FOR TEN YEARS ALMOST I CONFUTE
 AND UP AND DOWN, WHEREVER IT GOES
 I DRAG MY STUDENTS BY THE NOSE --
 AND SEE THAT FOR ALL OUR SCIENCE AND ART
 WE CAN KNOW NOTHING.  IT BURNS MY HEART.

                                       -- FAUST
 Job cpu time:  0 days  5 hours  7 minutes 48.9 seconds.
 File lengths (MBytes):  RWF=    186 Int=      0 D2E=      0 Chk=     20 Scr=      1
 Normal termination of Gaussian 09 at Wed Mar 24 14:37:45 2021.
