 Entering Gaussian System, Link 0=g09
 Initial command:
 /public/software/g09/g09/l1.exe /tmp/Gau-3931.inp -scrdir=/tmp/
 Entering Link 1 = /public/software/g09/g09/l1.exe PID=      3932.
  
 Copyright (c) 1988,1990,1992,1993,1995,1998,2003,2009,2010,
            Gaussian, Inc.  All Rights Reserved.
  
 This is part of the Gaussian(R) 09 program.  It is based on
 the Gaussian(R) 03 system (copyright 2003, Gaussian, Inc.),
 the Gaussian(R) 98 system (copyright 1998, Gaussian, Inc.),
 the Gaussian(R) 94 system (copyright 1995, Gaussian, Inc.),
 the Gaussian 92(TM) system (copyright 1992, Gaussian, Inc.),
 the Gaussian 90(TM) system (copyright 1990, Gaussian, Inc.),
 the Gaussian 88(TM) system (copyright 1988, Gaussian, Inc.),
 the Gaussian 86(TM) system (copyright 1986, Carnegie Mellon
 University), and the Gaussian 82(TM) system (copyright 1983,
 Carnegie Mellon University). Gaussian is a federally registered
 trademark of Gaussian, Inc.
  
 This software contains proprietary and confidential information,
 including trade secrets, belonging to Gaussian, Inc.
  
 This software is provided under written license and may be
 used, copied, transmitted, or stored only in accord with that
 written license.
  
 The following legend is applicable only to US Government
 contracts under FAR:
  
                    RESTRICTED RIGHTS LEGEND
  
 Use, reproduction and disclosure by the US Government is
 subject to restrictions as set forth in subparagraphs (a)
 and (c) of the Commercial Computer Software - Restricted
 Rights clause in FAR 52.227-19.
  
 Gaussian, Inc.
 340 Quinnipiac St., Bldg. 40, Wallingford CT 06492
  
  
 ---------------------------------------------------------------
 Warning -- This program may not be used in any manner that
 competes with the business of Gaussian, Inc. or will provide
 assistance to any competitor of Gaussian, Inc.  The licensee
 of this program is prohibited from giving any competitor of
 Gaussian, Inc. access to this program.  By using this program,
 the user acknowledges that Gaussian, Inc. is engaged in the
 business of creating and licensing software in the field of
 computational chemistry and represents and warrants to the
 licensee that it is not a competitor of Gaussian, Inc. and that
 it will not use this program in any manner prohibited above.
 ---------------------------------------------------------------
  

 Cite this work as:
 Gaussian 09, Revision B.01,
 M. J. Frisch, G. W. Trucks, H. B. Schlegel, G. E. Scuseria, 
 M. A. Robb, J. R. Cheeseman, G. Scalmani, V. Barone, B. Mennucci, 
 G. A. Petersson, H. Nakatsuji, M. Caricato, X. Li, H. P. Hratchian, 
 A. F. Izmaylov, J. Bloino, G. Zheng, J. L. Sonnenberg, M. Hada, 
 M. Ehara, K. Toyota, R. Fukuda, J. Hasegawa, M. Ishida, T. Nakajima, 
 Y. Honda, O. Kitao, H. Nakai, T. Vreven, J. A. Montgomery, Jr., 
 J. E. Peralta, F. Ogliaro, M. Bearpark, J. J. Heyd, E. Brothers, 
 K. N. Kudin, V. N. Staroverov, T. Keith, R. Kobayashi, J. Normand, 
 K. Raghavachari, A. Rendell, J. C. Burant, S. S. Iyengar, J. Tomasi, 
 M. Cossi, N. Rega, J. M. Millam, M. Klene, J. E. Knox, J. B. Cross, 
 V. Bakken, C. Adamo, J. Jaramillo, R. Gomperts, R. E. Stratmann, 
 O. Yazyev, A. J. Austin, R. Cammi, C. Pomelli, J. W. Ochterski, 
 R. L. Martin, K. Morokuma, V. G. Zakrzewski, G. A. Voth, 
 P. Salvador, J. J. Dannenberg, S. Dapprich, A. D. Daniels, 
 O. Farkas, J. B. Foresman, J. V. Ortiz, J. Cioslowski, 
 and D. J. Fox, Gaussian, Inc., Wallingford CT, 2010.
 
 ******************************************
 Gaussian 09:  EM64L-G09RevB.01 12-Aug-2010
                24-Mar-2021 
 ******************************************
 %mem=600MW
 %nprocshared=10
 Will use up to   10 processors via shared memory.
 ---------------------------------------
 # opt rb3lyp/6-31g(d) geom=connectivity
 ---------------------------------------
 1/14=-1,18=20,19=15,26=3,38=1,57=2/1,3;
 2/9=110,12=2,17=6,18=5,40=1/2;
 3/5=1,6=6,7=1,11=2,16=1,25=1,30=1,71=1,74=-5,116=1/1,2,3;
 4//1;
 5/5=2,38=5/2;
 6/7=2,8=2,9=2,10=2,28=1/1;
 7//1,2,3,16;
 1/14=-1,18=20,19=15/3(2);
 2/9=110/2;
 99//99;
 2/9=110/2;
 3/5=1,6=6,7=1,11=2,16=1,25=1,30=1,71=1,74=-5,116=1/1,2,3;
 4/5=5,16=3/1;
 5/5=2,38=5/2;
 7//1,2,3,16;
 1/14=-1,18=20,19=15/3(-5);
 2/9=110/2;
 6/7=2,8=2,9=2,10=2,19=2,28=1/1;
 99/9=1/99;
 -------------------
 Title Card Required
 -------------------
 Symbolic Z-matrix:
 Charge =  0 Multiplicity = 1
 C                     0.        0.        0. 
 C                     1.34      0.        0. 
 C                     2.1229    1.2842    0. 
 C                     1.3732    2.5514    0.5082 
 C                    -0.1726    2.4895    0.6082 
 C                    -0.8122    1.2511   -0.0552 
 C                     1.929     3.6959   -0.3668 
 C                     1.0196    4.1758   -1.4435 
 C                    -0.3074    4.2218   -1.3044 
 C                    -0.8754    3.6911   -0.049 
 C                    -1.1698    4.6605   -2.4183 
 O                    -1.5448    3.8152   -3.235 
 C                    -1.6274    6.1178   -2.5038 
 C                    -3.141     6.1753   -2.235 
 C                    -0.8427    7.0782   -1.6096 
 O                    -1.945     4.1342    0.3671 
 C                     3.0643    3.1378   -1.2034 
 C                     3.0423    4.0238   -2.4637 
 O                     1.6702    4.4539   -2.6368 
 C                     2.6464    1.6714   -1.3874 
 O                     2.3365    4.8104    0.4135 
 C                    -0.4319    2.5269    2.1276 
 C                     0.9027    2.1712    2.7567 
 O                     1.8469    2.7873    1.8703 
 C                     1.182     2.6344    4.167 
 C                     2.5934    2.4102    4.6459 
 C                     0.2698    3.1768    4.9921 
 C                     3.9082    5.2831   -2.3026 
 C                     3.4778    3.2905   -3.7351 
 H                     4.0332    3.1895   -0.6912 
 H                     2.9945    1.1293    0.6543 
 C                     2.1324   -1.2769   -0.0087 
 H                    -0.5475   -0.9402   -0.0259 
 H                    -1.788     1.0531    0.408 
 H                    -1.033     1.4385   -1.1148 
 H                    -1.4359    6.4195   -3.5427 
 H                    -3.3462    5.9403   -1.1837 
 H                    -3.6496    5.4026   -2.8251 
 H                    -1.0267    6.8832   -0.5477 
 H                     0.2345    6.9937   -1.7875 
 H                    -1.116     8.1185   -1.8117 
 H                     1.8579    1.5554   -2.1412 
 H                     3.4957    1.0516   -1.6943 
 H                     2.4761    4.4629    1.3203 
 H                    -0.724     3.5408    2.4281 
 H                    -1.2269    1.8507    2.4596 
 H                     1.0553    1.085     2.7214 
 H                     3.2983    3.0134    4.0648 
 H                     2.7203    2.6791    5.7001 
 H                     2.8667    1.3551    4.5403 
 H                     0.532     3.4797    6.002 
 H                    -0.7631    3.3347    4.7007 
 H                     3.8418    5.914    -3.197 
 H                     4.9597    5.0253   -2.1399 
 H                     3.5724    5.9116   -1.4727 
 H                     2.785     2.4844   -3.9971 
 H                     3.4736    3.9703   -4.5953 
 H                     4.4845    2.873    -3.6314 
 H                     1.4871   -2.1616   -0.0107 
 H                     2.7675   -1.3268   -0.8987 
 H                     2.7706   -1.3332    0.879 
 C                    -3.7687    7.5189   -2.5773 
 H                    -3.5552    7.8002   -3.6132 
 H                    -4.8558    7.4655   -2.4585 
 H                    -3.4046    8.3128   -1.9188 
 

 GradGradGradGradGradGradGradGradGradGradGradGradGradGradGradGradGradGrad
 Berny optimization.
 Initialization pass.
                           ----------------------------
                           !    Initial Parameters    !
                           ! (Angstroms and Degrees)  !
 --------------------------                            --------------------------
 ! Name  Definition              Value          Derivative Info.                !
 --------------------------------------------------------------------------------
 ! R1    R(1,2)                  1.34           estimate D2E/DX2                !
 ! R2    R(1,6)                  1.4926         estimate D2E/DX2                !
 ! R3    R(1,33)                 1.0883         estimate D2E/DX2                !
 ! R4    R(2,3)                  1.504          estimate D2E/DX2                !
 ! R5    R(2,32)                 1.5028         estimate D2E/DX2                !
 ! R6    R(3,4)                  1.5576         estimate D2E/DX2                !
 ! R7    R(3,20)                 1.5326         estimate D2E/DX2                !
 ! R8    R(3,31)                 1.1008         estimate D2E/DX2                !
 ! R9    R(4,5)                  1.5503         estimate D2E/DX2                !
 ! R10   R(4,7)                  1.5442         estimate D2E/DX2                !
 ! R11   R(4,24)                 1.4613         estimate D2E/DX2                !
 ! R12   R(5,6)                  1.5436         estimate D2E/DX2                !
 ! R13   R(5,10)                 1.5394         estimate D2E/DX2                !
 ! R14   R(5,22)                 1.5418         estimate D2E/DX2                !
 ! R15   R(6,34)                 1.0982         estimate D2E/DX2                !
 ! R16   R(6,35)                 1.0985         estimate D2E/DX2                !
 ! R17   R(7,8)                  1.4888         estimate D2E/DX2                !
 ! R18   R(7,17)                 1.5167         estimate D2E/DX2                !
 ! R19   R(7,21)                 1.4202         estimate D2E/DX2                !
 ! R20   R(8,9)                  1.3351         estimate D2E/DX2                !
 ! R21   R(8,19)                 1.3873         estimate D2E/DX2                !
 ! R22   R(9,10)                 1.4766         estimate D2E/DX2                !
 ! R23   R(9,11)                 1.4755         estimate D2E/DX2                !
 ! R24   R(10,16)                1.2303         estimate D2E/DX2                !
 ! R25   R(11,12)                1.2338         estimate D2E/DX2                !
 ! R26   R(11,13)                1.5298         estimate D2E/DX2                !
 ! R27   R(13,14)                1.5384         estimate D2E/DX2                !
 ! R28   R(13,15)                1.529          estimate D2E/DX2                !
 ! R29   R(13,36)                1.0986         estimate D2E/DX2                !
 ! R30   R(14,37)                1.0966         estimate D2E/DX2                !
 ! R31   R(14,38)                1.0972         estimate D2E/DX2                !
 ! R32   R(14,62)                1.522          estimate D2E/DX2                !
 ! R33   R(15,39)                1.0952         estimate D2E/DX2                !
 ! R34   R(15,40)                1.0951         estimate D2E/DX2                !
 ! R35   R(15,41)                1.0944         estimate D2E/DX2                !
 ! R36   R(17,18)                1.5407         estimate D2E/DX2                !
 ! R37   R(17,20)                1.5358         estimate D2E/DX2                !
 ! R38   R(17,30)                1.0972         estimate D2E/DX2                !
 ! R39   R(18,19)                1.4483         estimate D2E/DX2                !
 ! R40   R(18,28)                1.5367         estimate D2E/DX2                !
 ! R41   R(18,29)                1.531          estimate D2E/DX2                !
 ! R42   R(20,42)                1.097          estimate D2E/DX2                !
 ! R43   R(20,43)                1.0953         estimate D2E/DX2                !
 ! R44   R(21,44)                0.9811         estimate D2E/DX2                !
 ! R45   R(22,23)                1.5177         estimate D2E/DX2                !
 ! R46   R(22,45)                1.0971         estimate D2E/DX2                !
 ! R47   R(22,46)                1.0952         estimate D2E/DX2                !
 ! R48   R(23,24)                1.4342         estimate D2E/DX2                !
 ! R49   R(23,25)                1.5105         estimate D2E/DX2                !
 ! R50   R(23,47)                1.0974         estimate D2E/DX2                !
 ! R51   R(24,44)                1.8724         estimate D2E/DX2                !
 ! R52   R(25,26)                1.5072         estimate D2E/DX2                !
 ! R53   R(25,27)                1.3443         estimate D2E/DX2                !
 ! R54   R(26,48)                1.0947         estimate D2E/DX2                !
 ! R55   R(26,49)                1.0953         estimate D2E/DX2                !
 ! R56   R(26,50)                1.095          estimate D2E/DX2                !
 ! R57   R(27,51)                1.0865         estimate D2E/DX2                !
 ! R58   R(27,52)                1.0848         estimate D2E/DX2                !
 ! R59   R(28,53)                1.0965         estimate D2E/DX2                !
 ! R60   R(28,54)                1.0948         estimate D2E/DX2                !
 ! R61   R(28,55)                1.0939         estimate D2E/DX2                !
 ! R62   R(29,56)                1.0947         estimate D2E/DX2                !
 ! R63   R(29,57)                1.0964         estimate D2E/DX2                !
 ! R64   R(29,58)                1.0948         estimate D2E/DX2                !
 ! R65   R(32,59)                1.095          estimate D2E/DX2                !
 ! R66   R(32,60)                1.0945         estimate D2E/DX2                !
 ! R67   R(32,61)                1.0948         estimate D2E/DX2                !
 ! R68   R(62,63)                1.0944         estimate D2E/DX2                !
 ! R69   R(62,64)                1.0949         estimate D2E/DX2                !
 ! R70   R(62,65)                1.0938         estimate D2E/DX2                !
 ! A1    A(2,1,6)              122.9657         estimate D2E/DX2                !
 ! A2    A(2,1,33)             120.2038         estimate D2E/DX2                !
 ! A3    A(6,1,33)             116.7112         estimate D2E/DX2                !
 ! A4    A(1,2,3)              121.3682         estimate D2E/DX2                !
 ! A5    A(1,2,32)             121.8217         estimate D2E/DX2                !
 ! A6    A(3,2,32)             116.809          estimate D2E/DX2                !
 ! A7    A(2,3,4)              116.3662         estimate D2E/DX2                !
 ! A8    A(2,3,20)             113.1737         estimate D2E/DX2                !
 ! A9    A(2,3,31)             106.9778         estimate D2E/DX2                !
 ! A10   A(4,3,20)             104.7278         estimate D2E/DX2                !
 ! A11   A(4,3,31)             107.5566         estimate D2E/DX2                !
 ! A12   A(20,3,31)            107.6478         estimate D2E/DX2                !
 ! A13   A(3,4,5)              117.9365         estimate D2E/DX2                !
 ! A14   A(3,4,7)              104.1741         estimate D2E/DX2                !
 ! A15   A(3,4,24)             106.2264         estimate D2E/DX2                !
 ! A16   A(5,4,7)              115.1536         estimate D2E/DX2                !
 ! A17   A(5,4,24)             105.6376         estimate D2E/DX2                !
 ! A18   A(7,4,24)             106.9693         estimate D2E/DX2                !
 ! A19   A(4,5,6)              114.6745         estimate D2E/DX2                !
 ! A20   A(4,5,10)             113.3612         estimate D2E/DX2                !
 ! A21   A(4,5,22)             103.3142         estimate D2E/DX2                !
 ! A22   A(6,5,10)             104.6894         estimate D2E/DX2                !
 ! A23   A(6,5,22)             111.9187         estimate D2E/DX2                !
 ! A24   A(10,5,22)            108.9657         estimate D2E/DX2                !
 ! A25   A(1,6,5)              115.5364         estimate D2E/DX2                !
 ! A26   A(1,6,34)             108.4686         estimate D2E/DX2                !
 ! A27   A(1,6,35)             106.7409         estimate D2E/DX2                !
 ! A28   A(5,6,34)             109.3632         estimate D2E/DX2                !
 ! A29   A(5,6,35)             111.1603         estimate D2E/DX2                !
 ! A30   A(34,6,35)            105.0121         estimate D2E/DX2                !
 ! A31   A(4,7,8)              115.3945         estimate D2E/DX2                !
 ! A32   A(4,7,17)             108.0147         estimate D2E/DX2                !
 ! A33   A(4,7,21)             111.9364         estimate D2E/DX2                !
 ! A34   A(8,7,17)             100.1907         estimate D2E/DX2                !
 ! A35   A(8,7,21)             108.6416         estimate D2E/DX2                !
 ! A36   A(17,7,21)            112.151          estimate D2E/DX2                !
 ! A37   A(7,8,9)              122.8803         estimate D2E/DX2                !
 ! A38   A(7,8,19)             113.592          estimate D2E/DX2                !
 ! A39   A(9,8,19)             123.2883         estimate D2E/DX2                !
 ! A40   A(8,9,10)             117.2935         estimate D2E/DX2                !
 ! A41   A(8,9,11)             120.8341         estimate D2E/DX2                !
 ! A42   A(10,9,11)            121.5936         estimate D2E/DX2                !
 ! A43   A(5,10,9)             117.8981         estimate D2E/DX2                !
 ! A44   A(5,10,16)            122.254          estimate D2E/DX2                !
 ! A45   A(9,10,16)            119.5083         estimate D2E/DX2                !
 ! A46   A(9,11,12)            118.2743         estimate D2E/DX2                !
 ! A47   A(9,11,13)            120.017          estimate D2E/DX2                !
 ! A48   A(12,11,13)           121.6508         estimate D2E/DX2                !
 ! A49   A(11,13,14)           108.6714         estimate D2E/DX2                !
 ! A50   A(11,13,15)           114.3402         estimate D2E/DX2                !
 ! A51   A(11,13,36)           105.2067         estimate D2E/DX2                !
 ! A52   A(14,13,15)           112.2901         estimate D2E/DX2                !
 ! A53   A(14,13,36)           109.0545         estimate D2E/DX2                !
 ! A54   A(15,13,36)           106.9231         estimate D2E/DX2                !
 ! A55   A(13,14,37)           110.0971         estimate D2E/DX2                !
 ! A56   A(13,14,38)           109.6194         estimate D2E/DX2                !
 ! A57   A(13,14,62)           113.5459         estimate D2E/DX2                !
 ! A58   A(37,14,38)           106.1367         estimate D2E/DX2                !
 ! A59   A(37,14,62)           109.1242         estimate D2E/DX2                !
 ! A60   A(38,14,62)           108.0326         estimate D2E/DX2                !
 ! A61   A(13,15,39)           111.6532         estimate D2E/DX2                !
 ! A62   A(13,15,40)           111.1846         estimate D2E/DX2                !
 ! A63   A(13,15,41)           111.1564         estimate D2E/DX2                !
 ! A64   A(39,15,40)           108.0013         estimate D2E/DX2                !
 ! A65   A(39,15,41)           107.8383         estimate D2E/DX2                !
 ! A66   A(40,15,41)           106.798          estimate D2E/DX2                !
 ! A67   A(7,17,18)            103.233          estimate D2E/DX2                !
 ! A68   A(7,17,20)            102.3419         estimate D2E/DX2                !
 ! A69   A(7,17,30)            112.7174         estimate D2E/DX2                !
 ! A70   A(18,17,20)           116.5621         estimate D2E/DX2                !
 ! A71   A(18,17,30)           111.5541         estimate D2E/DX2                !
 ! A72   A(20,17,30)           109.9503         estimate D2E/DX2                !
 ! A73   A(17,18,19)           106.3834         estimate D2E/DX2                !
 ! A74   A(17,18,28)           112.175          estimate D2E/DX2                !
 ! A75   A(17,18,29)           113.5661         estimate D2E/DX2                !
 ! A76   A(19,18,28)           107.6374         estimate D2E/DX2                !
 ! A77   A(19,18,29)           108.2087         estimate D2E/DX2                !
 ! A78   A(28,18,29)           108.6194         estimate D2E/DX2                !
 ! A79   A(8,19,18)            106.377          estimate D2E/DX2                !
 ! A80   A(3,20,17)            103.0445         estimate D2E/DX2                !
 ! A81   A(3,20,42)            110.476          estimate D2E/DX2                !
 ! A82   A(3,20,43)            112.0585         estimate D2E/DX2                !
 ! A83   A(17,20,42)           112.2633         estimate D2E/DX2                !
 ! A84   A(17,20,43)           111.2768         estimate D2E/DX2                !
 ! A85   A(42,20,43)           107.7567         estimate D2E/DX2                !
 ! A86   A(7,21,44)            105.7055         estimate D2E/DX2                !
 ! A87   A(5,22,23)            104.768          estimate D2E/DX2                !
 ! A88   A(5,22,45)            109.7013         estimate D2E/DX2                !
 ! A89   A(5,22,46)            113.9431         estimate D2E/DX2                !
 ! A90   A(23,22,45)           109.7054         estimate D2E/DX2                !
 ! A91   A(23,22,46)           111.5895         estimate D2E/DX2                !
 ! A92   A(45,22,46)           107.1154         estimate D2E/DX2                !
 ! A93   A(22,23,24)           102.8302         estimate D2E/DX2                !
 ! A94   A(22,23,25)           118.5384         estimate D2E/DX2                !
 ! A95   A(22,23,47)           109.9323         estimate D2E/DX2                !
 ! A96   A(24,23,25)           108.8808         estimate D2E/DX2                !
 ! A97   A(24,23,47)           108.2863         estimate D2E/DX2                !
 ! A98   A(25,23,47)           107.9292         estimate D2E/DX2                !
 ! A99   A(4,24,23)            107.0582         estimate D2E/DX2                !
 ! A100  A(23,25,26)           115.1007         estimate D2E/DX2                !
 ! A101  A(23,25,27)           124.8437         estimate D2E/DX2                !
 ! A102  A(26,25,27)           120.0291         estimate D2E/DX2                !
 ! A103  A(25,26,48)           110.6313         estimate D2E/DX2                !
 ! A104  A(25,26,49)           112.1964         estimate D2E/DX2                !
 ! A105  A(25,26,50)           110.2676         estimate D2E/DX2                !
 ! A106  A(48,26,49)           107.5187         estimate D2E/DX2                !
 ! A107  A(48,26,50)           108.6036         estimate D2E/DX2                !
 ! A108  A(49,26,50)           107.4843         estimate D2E/DX2                !
 ! A109  A(25,27,51)           121.2826         estimate D2E/DX2                !
 ! A110  A(25,27,52)           122.6824         estimate D2E/DX2                !
 ! A111  A(51,27,52)           116.0344         estimate D2E/DX2                !
 ! A112  A(18,28,53)           110.6008         estimate D2E/DX2                !
 ! A113  A(18,28,54)           111.3335         estimate D2E/DX2                !
 ! A114  A(18,28,55)           112.1728         estimate D2E/DX2                !
 ! A115  A(53,28,54)           108.3523         estimate D2E/DX2                !
 ! A116  A(53,28,55)           105.6441         estimate D2E/DX2                !
 ! A117  A(54,28,55)           108.5055         estimate D2E/DX2                !
 ! A118  A(18,29,56)           111.8037         estimate D2E/DX2                !
 ! A119  A(18,29,57)           110.7003         estimate D2E/DX2                !
 ! A120  A(18,29,58)           111.4433         estimate D2E/DX2                !
 ! A121  A(56,29,57)           105.4481         estimate D2E/DX2                !
 ! A122  A(56,29,58)           108.8931         estimate D2E/DX2                !
 ! A123  A(57,29,58)           108.3183         estimate D2E/DX2                !
 ! A124  A(2,32,59)            112.0709         estimate D2E/DX2                !
 ! A125  A(2,32,60)            110.4509         estimate D2E/DX2                !
 ! A126  A(2,32,61)            110.2664         estimate D2E/DX2                !
 ! A127  A(59,32,60)           107.6755         estimate D2E/DX2                !
 ! A128  A(59,32,61)           107.6661         estimate D2E/DX2                !
 ! A129  A(60,32,61)           108.587          estimate D2E/DX2                !
 ! A130  A(14,62,63)           111.0585         estimate D2E/DX2                !
 ! A131  A(14,62,64)           110.0008         estimate D2E/DX2                !
 ! A132  A(14,62,65)           111.5956         estimate D2E/DX2                !
 ! A133  A(63,62,64)           107.9947         estimate D2E/DX2                !
 ! A134  A(63,62,65)           108.5618         estimate D2E/DX2                !
 ! A135  A(64,62,65)           107.4925         estimate D2E/DX2                !
 ! D1    D(6,1,2,3)              2.5263         estimate D2E/DX2                !
 ! D2    D(6,1,2,32)          -177.0833         estimate D2E/DX2                !
 ! D3    D(33,1,2,3)           178.4221         estimate D2E/DX2                !
 ! D4    D(33,1,2,32)           -1.1876         estimate D2E/DX2                !
 ! D5    D(2,1,6,5)            -30.9988         estimate D2E/DX2                !
 ! D6    D(2,1,6,34)          -154.158          estimate D2E/DX2                !
 ! D7    D(2,1,6,35)            93.1588         estimate D2E/DX2                !
 ! D8    D(33,1,6,5)           152.9718         estimate D2E/DX2                !
 ! D9    D(33,1,6,34)           29.8126         estimate D2E/DX2                !
 ! D10   D(33,1,6,35)          -82.8706         estimate D2E/DX2                !
 ! D11   D(1,2,3,4)             21.3555         estimate D2E/DX2                !
 ! D12   D(1,2,3,20)          -100.032          estimate D2E/DX2                !
 ! D13   D(1,2,3,31)           141.5769         estimate D2E/DX2                !
 ! D14   D(32,2,3,4)          -159.0162         estimate D2E/DX2                !
 ! D15   D(32,2,3,20)           79.5964         estimate D2E/DX2                !
 ! D16   D(32,2,3,31)          -38.7947         estimate D2E/DX2                !
 ! D17   D(1,2,32,59)           -0.2274         estimate D2E/DX2                !
 ! D18   D(1,2,32,60)          119.8306         estimate D2E/DX2                !
 ! D19   D(1,2,32,61)         -120.1476         estimate D2E/DX2                !
 ! D20   D(3,2,32,59)         -179.854          estimate D2E/DX2                !
 ! D21   D(3,2,32,60)          -59.796          estimate D2E/DX2                !
 ! D22   D(3,2,32,61)           60.2259         estimate D2E/DX2                !
 ! D23   D(2,3,4,5)            -15.9239         estimate D2E/DX2                !
 ! D24   D(2,3,4,7)           -144.9848         estimate D2E/DX2                !
 ! D25   D(2,3,4,24)           102.2464         estimate D2E/DX2                !
 ! D26   D(20,3,4,5)           109.8384         estimate D2E/DX2                !
 ! D27   D(20,3,4,7)           -19.2225         estimate D2E/DX2                !
 ! D28   D(20,3,4,24)         -131.9914         estimate D2E/DX2                !
 ! D29   D(31,3,4,5)          -135.8345         estimate D2E/DX2                !
 ! D30   D(31,3,4,7)            95.1045         estimate D2E/DX2                !
 ! D31   D(31,3,4,24)          -17.6643         estimate D2E/DX2                !
 ! D32   D(2,3,20,17)          165.7529         estimate D2E/DX2                !
 ! D33   D(2,3,20,42)           45.6443         estimate D2E/DX2                !
 ! D34   D(2,3,20,43)          -74.5255         estimate D2E/DX2                !
 ! D35   D(4,3,20,17)           38.0174         estimate D2E/DX2                !
 ! D36   D(4,3,20,42)          -82.0911         estimate D2E/DX2                !
 ! D37   D(4,3,20,43)          157.7391         estimate D2E/DX2                !
 ! D38   D(31,3,20,17)         -76.2456         estimate D2E/DX2                !
 ! D39   D(31,3,20,42)         163.6459         estimate D2E/DX2                !
 ! D40   D(31,3,20,43)          43.4761         estimate D2E/DX2                !
 ! D41   D(3,4,5,6)            -10.6192         estimate D2E/DX2                !
 ! D42   D(3,4,5,10)          -130.7789         estimate D2E/DX2                !
 ! D43   D(3,4,5,22)           111.4448         estimate D2E/DX2                !
 ! D44   D(7,4,5,6)            113.1064         estimate D2E/DX2                !
 ! D45   D(7,4,5,10)            -7.0533         estimate D2E/DX2                !
 ! D46   D(7,4,5,22)          -124.8296         estimate D2E/DX2                !
 ! D47   D(24,4,5,6)          -129.1012         estimate D2E/DX2                !
 ! D48   D(24,4,5,10)          110.739          estimate D2E/DX2                !
 ! D49   D(24,4,5,22)           -7.0372         estimate D2E/DX2                !
 ! D50   D(3,4,7,8)            104.2277         estimate D2E/DX2                !
 ! D51   D(3,4,7,17)            -6.8924         estimate D2E/DX2                !
 ! D52   D(3,4,7,21)          -130.8378         estimate D2E/DX2                !
 ! D53   D(5,4,7,8)            -26.4966         estimate D2E/DX2                !
 ! D54   D(5,4,7,17)          -137.6167         estimate D2E/DX2                !
 ! D55   D(5,4,7,21)            98.4379         estimate D2E/DX2                !
 ! D56   D(24,4,7,8)          -143.538          estimate D2E/DX2                !
 ! D57   D(24,4,7,17)          105.3418         estimate D2E/DX2                !
 ! D58   D(24,4,7,21)          -18.6036         estimate D2E/DX2                !
 ! D59   D(3,4,24,23)          -95.4432         estimate D2E/DX2                !
 ! D60   D(5,4,24,23)           30.5824         estimate D2E/DX2                !
 ! D61   D(7,4,24,23)          153.7363         estimate D2E/DX2                !
 ! D62   D(4,5,6,1)             33.1241         estimate D2E/DX2                !
 ! D63   D(4,5,6,34)           155.8099         estimate D2E/DX2                !
 ! D64   D(4,5,6,35)           -88.6949         estimate D2E/DX2                !
 ! D65   D(10,5,6,1)           157.9823         estimate D2E/DX2                !
 ! D66   D(10,5,6,34)          -79.3319         estimate D2E/DX2                !
 ! D67   D(10,5,6,35)           36.1633         estimate D2E/DX2                !
 ! D68   D(22,5,6,1)           -84.1362         estimate D2E/DX2                !
 ! D69   D(22,5,6,34)           38.5496         estimate D2E/DX2                !
 ! D70   D(22,5,6,35)          154.0448         estimate D2E/DX2                !
 ! D71   D(4,5,10,9)            38.1198         estimate D2E/DX2                !
 ! D72   D(4,5,10,16)         -148.6091         estimate D2E/DX2                !
 ! D73   D(6,5,10,9)           -87.5658         estimate D2E/DX2                !
 ! D74   D(6,5,10,16)           85.7053         estimate D2E/DX2                !
 ! D75   D(22,5,10,9)          152.5569         estimate D2E/DX2                !
 ! D76   D(22,5,10,16)         -34.172          estimate D2E/DX2                !
 ! D77   D(4,5,22,23)          -17.0905         estimate D2E/DX2                !
 ! D78   D(4,5,22,45)          100.6054         estimate D2E/DX2                !
 ! D79   D(4,5,22,46)         -139.3265         estimate D2E/DX2                !
 ! D80   D(6,5,22,23)          106.8024         estimate D2E/DX2                !
 ! D81   D(6,5,22,45)         -135.5016         estimate D2E/DX2                !
 ! D82   D(6,5,22,46)          -15.4336         estimate D2E/DX2                !
 ! D83   D(10,5,22,23)        -137.9008         estimate D2E/DX2                !
 ! D84   D(10,5,22,45)         -20.2048         estimate D2E/DX2                !
 ! D85   D(10,5,22,46)          99.8632         estimate D2E/DX2                !
 ! D86   D(4,7,8,9)             34.6531         estimate D2E/DX2                !
 ! D87   D(4,7,8,19)          -139.8895         estimate D2E/DX2                !
 ! D88   D(17,7,8,9)           150.3215         estimate D2E/DX2                !
 ! D89   D(17,7,8,19)          -24.2211         estimate D2E/DX2                !
 ! D90   D(21,7,8,9)           -91.9718         estimate D2E/DX2                !
 ! D91   D(21,7,8,19)           93.4856         estimate D2E/DX2                !
 ! D92   D(4,7,17,18)          151.5336         estimate D2E/DX2                !
 ! D93   D(4,7,17,20)           30.0883         estimate D2E/DX2                !
 ! D94   D(4,7,17,30)          -87.9627         estimate D2E/DX2                !
 ! D95   D(8,7,17,18)           30.4262         estimate D2E/DX2                !
 ! D96   D(8,7,17,20)          -91.0191         estimate D2E/DX2                !
 ! D97   D(8,7,17,30)          150.9299         estimate D2E/DX2                !
 ! D98   D(21,7,17,18)         -84.6504         estimate D2E/DX2                !
 ! D99   D(21,7,17,20)         153.9042         estimate D2E/DX2                !
 ! D100  D(21,7,17,30)          35.8532         estimate D2E/DX2                !
 ! D101  D(4,7,21,44)           20.5434         estimate D2E/DX2                !
 ! D102  D(8,7,21,44)          149.1361         estimate D2E/DX2                !
 ! D103  D(17,7,21,44)        -101.0521         estimate D2E/DX2                !
 ! D104  D(7,8,9,10)            -3.782          estimate D2E/DX2                !
 ! D105  D(7,8,9,11)          -177.8118         estimate D2E/DX2                !
 ! D106  D(19,8,9,10)          170.2333         estimate D2E/DX2                !
 ! D107  D(19,8,9,11)           -3.7965         estimate D2E/DX2                !
 ! D108  D(7,8,19,18)            6.4464         estimate D2E/DX2                !
 ! D109  D(9,8,19,18)         -168.0708         estimate D2E/DX2                !
 ! D110  D(8,9,10,5)           -34.0466         estimate D2E/DX2                !
 ! D111  D(8,9,10,16)          152.4913         estimate D2E/DX2                !
 ! D112  D(11,9,10,5)          139.9349         estimate D2E/DX2                !
 ! D113  D(11,9,10,16)         -33.5272         estimate D2E/DX2                !
 ! D114  D(8,9,11,12)           87.4795         estimate D2E/DX2                !
 ! D115  D(8,9,11,13)          -95.2397         estimate D2E/DX2                !
 ! D116  D(10,9,11,12)         -86.2909         estimate D2E/DX2                !
 ! D117  D(10,9,11,13)          90.9899         estimate D2E/DX2                !
 ! D118  D(9,11,13,14)        -111.0125         estimate D2E/DX2                !
 ! D119  D(9,11,13,15)          15.3073         estimate D2E/DX2                !
 ! D120  D(9,11,13,36)         132.3104         estimate D2E/DX2                !
 ! D121  D(12,11,13,14)         66.1743         estimate D2E/DX2                !
 ! D122  D(12,11,13,15)       -167.5059         estimate D2E/DX2                !
 ! D123  D(12,11,13,36)        -50.5029         estimate D2E/DX2                !
 ! D124  D(11,13,14,37)         69.4883         estimate D2E/DX2                !
 ! D125  D(11,13,14,38)        -46.9107         estimate D2E/DX2                !
 ! D126  D(11,13,14,62)       -167.8292         estimate D2E/DX2                !
 ! D127  D(15,13,14,37)        -58.0081         estimate D2E/DX2                !
 ! D128  D(15,13,14,38)       -174.407          estimate D2E/DX2                !
 ! D129  D(15,13,14,62)         64.6745         estimate D2E/DX2                !
 ! D130  D(36,13,14,37)       -176.3295         estimate D2E/DX2                !
 ! D131  D(36,13,14,38)         67.2716         estimate D2E/DX2                !
 ! D132  D(36,13,14,62)        -53.647          estimate D2E/DX2                !
 ! D133  D(11,13,15,39)        -67.3862         estimate D2E/DX2                !
 ! D134  D(11,13,15,40)         53.3086         estimate D2E/DX2                !
 ! D135  D(11,13,15,41)        172.1463         estimate D2E/DX2                !
 ! D136  D(14,13,15,39)         57.029          estimate D2E/DX2                !
 ! D137  D(14,13,15,40)        177.7238         estimate D2E/DX2                !
 ! D138  D(14,13,15,41)        -63.4385         estimate D2E/DX2                !
 ! D139  D(36,13,15,39)        176.6019         estimate D2E/DX2                !
 ! D140  D(36,13,15,40)        -62.7034         estimate D2E/DX2                !
 ! D141  D(36,13,15,41)         56.1344         estimate D2E/DX2                !
 ! D142  D(13,14,62,63)         54.9546         estimate D2E/DX2                !
 ! D143  D(13,14,62,64)        174.4552         estimate D2E/DX2                !
 ! D144  D(13,14,62,65)        -66.3289         estimate D2E/DX2                !
 ! D145  D(37,14,62,63)        178.1719         estimate D2E/DX2                !
 ! D146  D(37,14,62,64)        -62.3275         estimate D2E/DX2                !
 ! D147  D(37,14,62,65)         56.8884         estimate D2E/DX2                !
 ! D148  D(38,14,62,63)        -66.8516         estimate D2E/DX2                !
 ! D149  D(38,14,62,64)         52.649          estimate D2E/DX2                !
 ! D150  D(38,14,62,65)        171.8648         estimate D2E/DX2                !
 ! D151  D(7,17,18,19)         -28.9681         estimate D2E/DX2                !
 ! D152  D(7,17,18,28)          88.4752         estimate D2E/DX2                !
 ! D153  D(7,17,18,29)        -147.8875         estimate D2E/DX2                !
 ! D154  D(20,17,18,19)         82.3194         estimate D2E/DX2                !
 ! D155  D(20,17,18,28)       -160.2373         estimate D2E/DX2                !
 ! D156  D(20,17,18,29)        -36.5999         estimate D2E/DX2                !
 ! D157  D(30,17,18,19)       -150.2625         estimate D2E/DX2                !
 ! D158  D(30,17,18,28)        -32.8192         estimate D2E/DX2                !
 ! D159  D(30,17,18,29)         90.8181         estimate D2E/DX2                !
 ! D160  D(7,17,20,3)          -41.7228         estimate D2E/DX2                !
 ! D161  D(7,17,20,42)          77.1491         estimate D2E/DX2                !
 ! D162  D(7,17,20,43)        -161.9826         estimate D2E/DX2                !
 ! D163  D(18,17,20,3)        -153.5227         estimate D2E/DX2                !
 ! D164  D(18,17,20,42)        -34.6507         estimate D2E/DX2                !
 ! D165  D(18,17,20,43)         86.2175         estimate D2E/DX2                !
 ! D166  D(30,17,20,3)          78.2761         estimate D2E/DX2                !
 ! D167  D(30,17,20,42)       -162.852          estimate D2E/DX2                !
 ! D168  D(30,17,20,43)        -41.9837         estimate D2E/DX2                !
 ! D169  D(17,18,19,8)          14.3588         estimate D2E/DX2                !
 ! D170  D(28,18,19,8)        -106.0582         estimate D2E/DX2                !
 ! D171  D(29,18,19,8)         136.7303         estimate D2E/DX2                !
 ! D172  D(17,18,28,53)       -177.7037         estimate D2E/DX2                !
 ! D173  D(17,18,28,54)         61.771          estimate D2E/DX2                !
 ! D174  D(17,18,28,55)        -60.0402         estimate D2E/DX2                !
 ! D175  D(19,18,28,53)        -61.0111         estimate D2E/DX2                !
 ! D176  D(19,18,28,54)        178.4636         estimate D2E/DX2                !
 ! D177  D(19,18,28,55)         56.6524         estimate D2E/DX2                !
 ! D178  D(29,18,28,53)         55.9328         estimate D2E/DX2                !
 ! D179  D(29,18,28,54)        -64.5925         estimate D2E/DX2                !
 ! D180  D(29,18,28,55)        173.5963         estimate D2E/DX2                !
 ! D181  D(17,18,29,56)         64.4434         estimate D2E/DX2                !
 ! D182  D(17,18,29,57)       -178.3077         estimate D2E/DX2                !
 ! D183  D(17,18,29,58)        -57.6846         estimate D2E/DX2                !
 ! D184  D(19,18,29,56)        -53.4244         estimate D2E/DX2                !
 ! D185  D(19,18,29,57)         63.8244         estimate D2E/DX2                !
 ! D186  D(19,18,29,58)       -175.5525         estimate D2E/DX2                !
 ! D187  D(28,18,29,56)       -170.002          estimate D2E/DX2                !
 ! D188  D(28,18,29,57)        -52.7531         estimate D2E/DX2                !
 ! D189  D(28,18,29,58)         67.87           estimate D2E/DX2                !
 ! D190  D(5,22,23,24)          35.6653         estimate D2E/DX2                !
 ! D191  D(5,22,23,25)         155.7742         estimate D2E/DX2                !
 ! D192  D(5,22,23,47)         -79.4787         estimate D2E/DX2                !
 ! D193  D(45,22,23,24)        -82.0278         estimate D2E/DX2                !
 ! D194  D(45,22,23,25)         38.0811         estimate D2E/DX2                !
 ! D195  D(45,22,23,47)        162.8282         estimate D2E/DX2                !
 ! D196  D(46,22,23,24)        159.4226         estimate D2E/DX2                !
 ! D197  D(46,22,23,25)        -80.4685         estimate D2E/DX2                !
 ! D198  D(46,22,23,47)         44.2786         estimate D2E/DX2                !
 ! D199  D(22,23,24,4)         -41.4441         estimate D2E/DX2                !
 ! D200  D(25,23,24,4)        -168.0092         estimate D2E/DX2                !
 ! D201  D(47,23,24,4)          74.883          estimate D2E/DX2                !
 ! D202  D(22,23,25,26)       -171.7782         estimate D2E/DX2                !
 ! D203  D(22,23,25,27)         10.1055         estimate D2E/DX2                !
 ! D204  D(24,23,25,26)        -54.833          estimate D2E/DX2                !
 ! D205  D(24,23,25,27)        127.0508         estimate D2E/DX2                !
 ! D206  D(47,23,25,26)         62.5019         estimate D2E/DX2                !
 ! D207  D(47,23,25,27)       -115.6143         estimate D2E/DX2                !
 ! D208  D(23,25,26,48)         65.0828         estimate D2E/DX2                !
 ! D209  D(23,25,26,49)       -174.8506         estimate D2E/DX2                !
 ! D210  D(23,25,26,50)        -55.0767         estimate D2E/DX2                !
 ! D211  D(27,25,26,48)       -116.7029         estimate D2E/DX2                !
 ! D212  D(27,25,26,49)          3.3638         estimate D2E/DX2                !
 ! D213  D(27,25,26,50)        123.1376         estimate D2E/DX2                !
 ! D214  D(23,25,27,51)        179.2642         estimate D2E/DX2                !
 ! D215  D(23,25,27,52)         -0.4308         estimate D2E/DX2                !
 ! D216  D(26,25,27,51)          1.2346         estimate D2E/DX2                !
 ! D217  D(26,25,27,52)       -178.4604         estimate D2E/DX2                !
 --------------------------------------------------------------------------------
 Trust Radius=3.00D-01 FncErr=1.00D-07 GrdErr=1.00D-06
 Number of steps in this run=    390 maximum allowed number of steps=    390.
 GradGradGradGradGradGradGradGradGradGradGradGradGradGradGradGradGradGrad

 Stoichiometry    C26H34O5
 Framework group  C1[X(C26H34O5)]
 Deg. of freedom   189
 Full point group                 C1      NOp   1
 Largest Abelian subgroup         C1      NOp   1
 Largest concise Abelian subgroup C1      NOp   1
                         Standard orientation:                         
 ---------------------------------------------------------------------
 Center     Atomic      Atomic             Coordinates (Angstroms)
 Number     Number       Type             X           Y           Z
 ---------------------------------------------------------------------
      1          6           0       -2.019896    0.001189    2.830207
      2          6           0       -2.597331    0.966658    2.102171
      3          6           0       -2.138808    1.272201    0.702706
      4          6           0       -1.363719    0.139692   -0.034027
      5          6           0       -0.801553   -1.027953    0.816798
      6          6           0       -0.858318   -0.799244    2.342345
      7          6           0       -0.319999    0.890374   -0.889330
      8          6           0        1.075513    0.853023   -0.371886
      9          6           0        1.584619   -0.204646    0.264149
     10          6           0        0.677057   -1.340118    0.523633
     11          6           0        2.958742   -0.175153    0.800693
     12          8           0        3.132132    0.266790    1.939455
     13          6           0        4.115184   -0.741502   -0.025335
     14          6           0        4.626756   -2.021999    0.656695
     15          6           0        3.785747   -0.962856   -1.501882
     16          8           0        1.139665   -2.476089    0.618948
     17          6           0       -0.606383    2.375873   -0.781821
     18          6           0        0.778836    3.017972   -0.988495
     19          8           0        1.750197    2.057654   -0.506985
     20          6           0       -1.214427    2.492094    0.623739
     21          8           0       -0.316680    0.441807   -2.236850
     22          6           0       -1.663214   -2.230565    0.382658
     23          6           0       -2.871398   -1.614840   -0.298973
     24          8           0       -2.315050   -0.470373   -0.960389
     25          6           0       -3.629701   -2.442715   -1.309471
     26          6           0       -4.690965   -1.698458   -2.078537
     27          6           0       -3.441643   -3.756679   -1.522146
     28          6           0        1.080495    3.281425   -2.472128
     29          6           0        0.970615    4.323065   -0.211450
     30          1           0       -1.327815    2.723667   -1.531731
     31          1           0       -3.039556    1.497187    0.111248
     32          6           0       -3.724455    1.800423    2.643351
     33          1           0       -2.349675   -0.186816    3.850160
     34          1           0       -0.864350   -1.769820    2.856046
     35          1           0        0.047966   -0.292919    2.701383
     36          1           0        4.901060    0.025137    0.015548
     37          1           0        3.879989   -2.820166    0.568199
     38          1           0        4.754084   -1.841300    1.731448
     39          1           0        3.047681   -1.760835   -1.636051
     40          1           0        3.385873   -0.051669   -1.959035
     41          1           0        4.680809   -1.235091   -2.069784
     42          1           0       -0.452118    2.447546    1.411333
     43          1           0       -1.763238    3.432449    0.742861
     44          1           0       -1.186975    0.010606   -2.375356
     45          1           0       -1.106069   -2.844551   -0.335831
     46          1           0       -1.957471   -2.887540    1.208062
     47          1           0       -3.587183   -1.262792    0.454735
     48          1           0       -4.239740   -0.926404   -2.709994
     49          1           0       -5.270448   -2.360717   -2.730733
     50          1           0       -5.393379   -1.219057   -1.388703
     51          1           0       -4.029302   -4.298902   -2.257705
     52          1           0       -2.707555   -4.339302   -0.975893
     53          1           0        2.086752    3.700084   -2.592822
     54          1           0        0.360892    3.982965   -2.906407
     55          1           0        1.070383    2.362239   -3.065004
     56          1           0        0.941418    4.160048    0.870671
     57          1           0        1.957943    4.754000   -0.415334
     58          1           0        0.210041    5.063630   -0.479023
     59          1           0       -3.993369    1.514920    3.665742
     60          1           0       -3.445307    2.858652    2.656350
     61          1           0       -4.616606    1.682512    2.019937
     62          6           0        5.954467   -2.517605    0.101721
     63          1           0        6.716252   -1.732999    0.145046
     64          1           0        6.311906   -3.368944    0.690118
     65          1           0        5.857682   -2.852073   -0.935213
 ---------------------------------------------------------------------
 Rotational constants (GHZ):      0.1995526      0.1276234      0.1061561
 Standard basis: 6-31G(d) (6D, 7F)
 There are   533 symmetry adapted basis functions of A   symmetry.
 Integral buffers will be    131072 words long.
 Raffenetti 2 integral format.
 Two-electron integral symmetry is turned on.
   533 basis functions,  1004 primitive gaussians,   533 cartesian basis functions
   115 alpha electrons      115 beta electrons
       nuclear repulsion energy      3499.2117305369 Hartrees.
 NAtoms=   65 NActive=   65 NUniq=   65 SFac= 1.00D+00 NAtFMM=   50 NAOKFM=T Big=T
 One-electron integrals computed using PRISM.
 NBasis=   533 RedAO= T  NBF=   533
 NBsUse=   533 1.00D-06 NBFU=   533
 Harris functional with IExCor=  402 diagonalized for initial guess.
 ExpMin= 1.61D-01 ExpMax= 5.48D+03 ExpMxC= 8.25D+02 IAcc=1 IRadAn=         1 AccDes= 0.00D+00
 HarFok:  IExCor=  402 AccDes= 0.00D+00 IRadAn=         1 IDoV= 1
 ScaDFX=  1.000000  1.000000  1.000000  1.000000
 FoFCou: FMM=F IPFlag=           0 FMFlag=      100000 FMFlg1=        2001
         NFxFlg=           0 DoJE=T BraDBF=F KetDBF=T FulRan=T
         Omega=  0.000000  0.000000  1.000000  0.000000  0.000000 ICntrl=     500 IOpCl=  0
         NMat0=    1 NMatS0=    1 NMatT0=    0 NMatD0=    1 NMtDS0=    0 NMtDT0=    0
         I1Cent=           4 NGrid=           0.
 Petite list used in FoFCou.
 Initial guess orbital symmetries:
       Occupied  (A) (A) (A) (A) (A) (A) (A) (A) (A) (A) (A) (A)
                 (A) (A) (A) (A) (A) (A) (A) (A) (A) (A) (A) (A)
                 (A) (A) (A) (A) (A) (A) (A) (A) (A) (A) (A) (A)
                 (A) (A) (A) (A) (A) (A) (A) (A) (A) (A) (A) (A)
                 (A) (A) (A) (A) (A) (A) (A) (A) (A) (A) (A) (A)
                 (A) (A) (A) (A) (A) (A) (A) (A) (A) (A) (A) (A)
                 (A) (A) (A) (A) (A) (A) (A) (A) (A) (A) (A) (A)
                 (A) (A) (A) (A) (A) (A) (A) (A) (A) (A) (A) (A)
                 (A) (A) (A) (A) (A) (A) (A) (A) (A) (A) (A) (A)
                 (A) (A) (A) (A) (A) (A) (A)
       Virtual   (A) (A) (A) (A) (A) (A) (A) (A) (A) (A) (A) (A)
                 (A) (A) (A) (A) (A) (A) (A) (A) (A) (A) (A) (A)
                 (A) (A) (A) (A) (A) (A) (A) (A) (A) (A) (A) (A)
                 (A) (A) (A) (A) (A) (A) (A) (A) (A) (A) (A) (A)
                 (A) (A) (A) (A) (A) (A) (A) (A) (A) (A) (A) (A)
                 (A) (A) (A) (A) (A) (A) (A) (A) (A) (A) (A) (A)
                 (A) (A) (A) (A) (A) (A) (A) (A) (A) (A) (A) (A)
                 (A) (A) (A) (A) (A) (A) (A) (A) (A) (A) (A) (A)
                 (A) (A) (A) (A) (A) (A) (A) (A) (A) (A) (A) (A)
                 (A) (A) (A) (A) (A) (A) (A) (A) (A) (A) (A) (A)
                 (A) (A) (A) (A) (A) (A) (A) (A) (A) (A) (A) (A)
                 (A) (A) (A) (A) (A) (A) (A) (A) (A) (A) (A) (A)
                 (A) (A) (A) (A) (A) (A) (A) (A) (A) (A) (A) (A)
                 (A) (A) (A) (A) (A) (A) (A) (A) (A) (A) (A) (A)
                 (A) (A) (A) (A) (A) (A) (A) (A) (A) (A) (A) (A)
                 (A) (A) (A) (A) (A) (A) (A) (A) (A) (A) (A) (A)
                 (A) (A) (A) (A) (A) (A) (A) (A) (A) (A) (A) (A)
                 (A) (A) (A) (A) (A) (A) (A) (A) (A) (A) (A) (A)
                 (A) (A) (A) (A) (A) (A) (A) (A) (A) (A) (A) (A)
                 (A) (A) (A) (A) (A) (A) (A) (A) (A) (A) (A) (A)
                 (A) (A) (A) (A) (A) (A) (A) (A) (A) (A) (A) (A)
                 (A) (A) (A) (A) (A) (A) (A) (A) (A) (A) (A) (A)
                 (A) (A) (A) (A) (A) (A) (A) (A) (A) (A) (A) (A)
                 (A) (A) (A) (A) (A) (A) (A) (A) (A) (A) (A) (A)
                 (A) (A) (A) (A) (A) (A) (A) (A) (A) (A) (A) (A)
                 (A) (A) (A) (A) (A) (A) (A) (A) (A) (A) (A) (A)
                 (A) (A) (A) (A) (A) (A) (A) (A) (A) (A) (A) (A)
                 (A) (A) (A) (A) (A) (A) (A) (A) (A) (A) (A) (A)
                 (A) (A) (A) (A) (A) (A) (A) (A) (A) (A) (A) (A)
                 (A) (A) (A) (A) (A) (A) (A) (A) (A) (A) (A) (A)
                 (A) (A) (A) (A) (A) (A) (A) (A) (A) (A) (A) (A)
                 (A) (A) (A) (A) (A) (A) (A) (A) (A) (A) (A) (A)
                 (A) (A) (A) (A) (A) (A) (A) (A) (A) (A) (A) (A)
                 (A) (A) (A) (A) (A) (A) (A) (A) (A) (A) (A) (A)
                 (A) (A) (A) (A) (A) (A) (A) (A) (A) (A)
 The electronic state of the initial guess is 1-A.
 Requested convergence on RMS density matrix=1.00D-08 within 128 cycles.
 Requested convergence on MAX density matrix=1.00D-06.
 Requested convergence on             energy=1.00D-06.
 No special actions if energy rises.
 Integral accuracy reduced to 1.0D-05 until final iterations.
 Initial convergence to 1.0D-05 achieved.  Increase integral accuracy.
 SCF Done:  E(RB3LYP) =  -1387.29874819     A.U. after   16 cycles
             Convg  =    0.3187D-08             -V/T =  2.0091

 **********************************************************************

            Population analysis using the SCF density.

 **********************************************************************

 Orbital symmetries:
       Occupied  (A) (A) (A) (A) (A) (A) (A) (A) (A) (A) (A) (A)
                 (A) (A) (A) (A) (A) (A) (A) (A) (A) (A) (A) (A)
                 (A) (A) (A) (A) (A) (A) (A) (A) (A) (A) (A) (A)
                 (A) (A) (A) (A) (A) (A) (A) (A) (A) (A) (A) (A)
                 (A) (A) (A) (A) (A) (A) (A) (A) (A) (A) (A) (A)
                 (A) (A) (A) (A) (A) (A) (A) (A) (A) (A) (A) (A)
                 (A) (A) (A) (A) (A) (A) (A) (A) (A) (A) (A) (A)
                 (A) (A) (A) (A) (A) (A) (A) (A) (A) (A) (A) (A)
                 (A) (A) (A) (A) (A) (A) (A) (A) (A) (A) (A) (A)
                 (A) (A) (A) (A) (A) (A) (A)
       Virtual   (A) (A) (A) (A) (A) (A) (A) (A) (A) (A) (A) (A)
                 (A) (A) (A) (A) (A) (A) (A) (A) (A) (A) (A) (A)
                 (A) (A) (A) (A) (A) (A) (A) (A) (A) (A) (A) (A)
                 (A) (A) (A) (A) (A) (A) (A) (A) (A) (A) (A) (A)
                 (A) (A) (A) (A) (A) (A) (A) (A) (A) (A) (A) (A)
                 (A) (A) (A) (A) (A) (A) (A) (A) (A) (A) (A) (A)
                 (A) (A) (A) (A) (A) (A) (A) (A) (A) (A) (A) (A)
                 (A) (A) (A) (A) (A) (A) (A) (A) (A) (A) (A) (A)
                 (A) (A) (A) (A) (A) (A) (A) (A) (A) (A) (A) (A)
                 (A) (A) (A) (A) (A) (A) (A) (A) (A) (A) (A) (A)
                 (A) (A) (A) (A) (A) (A) (A) (A) (A) (A) (A) (A)
                 (A) (A) (A) (A) (A) (A) (A) (A) (A) (A) (A) (A)
                 (A) (A) (A) (A) (A) (A) (A) (A) (A) (A) (A) (A)
                 (A) (A) (A) (A) (A) (A) (A) (A) (A) (A) (A) (A)
                 (A) (A) (A) (A) (A) (A) (A) (A) (A) (A) (A) (A)
                 (A) (A) (A) (A) (A) (A) (A) (A) (A) (A) (A) (A)
                 (A) (A) (A) (A) (A) (A) (A) (A) (A) (A) (A) (A)
                 (A) (A) (A) (A) (A) (A) (A) (A) (A) (A) (A) (A)
                 (A) (A) (A) (A) (A) (A) (A) (A) (A) (A) (A) (A)
                 (A) (A) (A) (A) (A) (A) (A) (A) (A) (A) (A) (A)
                 (A) (A) (A) (A) (A) (A) (A) (A) (A) (A) (A) (A)
                 (A) (A) (A) (A) (A) (A) (A) (A) (A) (A) (A) (A)
                 (A) (A) (A) (A) (A) (A) (A) (A) (A) (A) (A) (A)
                 (A) (A) (A) (A) (A) (A) (A) (A) (A) (A) (A) (A)
                 (A) (A) (A) (A) (A) (A) (A) (A) (A) (A) (A) (A)
                 (A) (A) (A) (A) (A) (A) (A) (A) (A) (A) (A) (A)
                 (A) (A) (A) (A) (A) (A) (A) (A) (A) (A) (A) (A)
                 (A) (A) (A) (A) (A) (A) (A) (A) (A) (A) (A) (A)
                 (A) (A) (A) (A) (A) (A) (A) (A) (A) (A) (A) (A)
                 (A) (A) (A) (A) (A) (A) (A) (A) (A) (A) (A) (A)
                 (A) (A) (A) (A) (A) (A) (A) (A) (A) (A) (A) (A)
                 (A) (A) (A) (A) (A) (A) (A) (A) (A) (A) (A) (A)
                 (A) (A) (A) (A) (A) (A) (A) (A) (A) (A) (A) (A)
                 (A) (A) (A) (A) (A) (A) (A) (A) (A) (A) (A) (A)
                 (A) (A) (A) (A) (A) (A) (A) (A) (A) (A)
 The electronic state is 1-A.
 Alpha  occ. eigenvalues --  -19.19297 -19.16927 -19.14489 -19.13625 -19.13345
 Alpha  occ. eigenvalues --  -10.27783 -10.27079 -10.26296 -10.26258 -10.25846
 Alpha  occ. eigenvalues --  -10.25502 -10.24729 -10.21821 -10.20375 -10.20323
 Alpha  occ. eigenvalues --  -10.19856 -10.19735 -10.19672 -10.19614 -10.19022
 Alpha  occ. eigenvalues --  -10.18861 -10.18815 -10.18645 -10.18550 -10.18470
 Alpha  occ. eigenvalues --  -10.18457 -10.18394 -10.17614 -10.16996 -10.16534
 Alpha  occ. eigenvalues --  -10.16421  -1.08280  -1.06211  -1.03439  -1.02299
 Alpha  occ. eigenvalues --   -1.01793  -0.87545  -0.83895  -0.82581  -0.81545
 Alpha  occ. eigenvalues --   -0.80405  -0.79837  -0.76989  -0.74338  -0.73523
 Alpha  occ. eigenvalues --   -0.72589  -0.71504  -0.69529  -0.69038  -0.68199
 Alpha  occ. eigenvalues --   -0.65229  -0.64046  -0.63874  -0.62453  -0.61082
 Alpha  occ. eigenvalues --   -0.59226  -0.58282  -0.57171  -0.55472  -0.54167
 Alpha  occ. eigenvalues --   -0.52854  -0.51721  -0.50978  -0.50498  -0.49410
 Alpha  occ. eigenvalues --   -0.48146  -0.47154  -0.46364  -0.46230  -0.45626
 Alpha  occ. eigenvalues --   -0.45184  -0.44922  -0.44387  -0.44071  -0.43202
 Alpha  occ. eigenvalues --   -0.43139  -0.42696  -0.42471  -0.41870  -0.41539
 Alpha  occ. eigenvalues --   -0.41368  -0.40596  -0.40243  -0.39695  -0.39646
 Alpha  occ. eigenvalues --   -0.39193  -0.38677  -0.38456  -0.38295  -0.38155
 Alpha  occ. eigenvalues --   -0.37527  -0.37467  -0.36887  -0.36654  -0.36521
 Alpha  occ. eigenvalues --   -0.35806  -0.35471  -0.34885  -0.34657  -0.34202
 Alpha  occ. eigenvalues --   -0.33857  -0.33570  -0.32979  -0.32773  -0.32087
 Alpha  occ. eigenvalues --   -0.31794  -0.31423  -0.31055  -0.27867  -0.26938
 Alpha  occ. eigenvalues --   -0.25761  -0.25004  -0.24333  -0.23666  -0.22976
 Alpha virt. eigenvalues --   -0.04426  -0.02063   0.00722   0.01592   0.03015
 Alpha virt. eigenvalues --    0.06546   0.08423   0.08938   0.09280   0.10358
 Alpha virt. eigenvalues --    0.10534   0.11406   0.11561   0.12011   0.12440
 Alpha virt. eigenvalues --    0.12849   0.13085   0.13589   0.13760   0.14227
 Alpha virt. eigenvalues --    0.14686   0.14811   0.14967   0.15228   0.15471
 Alpha virt. eigenvalues --    0.15626   0.15994   0.16310   0.16609   0.17425
 Alpha virt. eigenvalues --    0.17771   0.17943   0.18137   0.18486   0.18845
 Alpha virt. eigenvalues --    0.19154   0.19314   0.19913   0.20294   0.20611
 Alpha virt. eigenvalues --    0.20976   0.21308   0.21486   0.21668   0.22436
 Alpha virt. eigenvalues --    0.23085   0.23646   0.23923   0.24378   0.24639
 Alpha virt. eigenvalues --    0.25375   0.25555   0.26183   0.26582   0.26791
 Alpha virt. eigenvalues --    0.27659   0.27934   0.28235   0.28756   0.30223
 Alpha virt. eigenvalues --    0.31200   0.32351   0.32636   0.34110   0.34497
 Alpha virt. eigenvalues --    0.35105   0.36015   0.36891   0.38698   0.40041
 Alpha virt. eigenvalues --    0.41542   0.44709   0.45783   0.48084   0.48694
 Alpha virt. eigenvalues --    0.49920   0.50503   0.50797   0.51757   0.51949
 Alpha virt. eigenvalues --    0.52167   0.52544   0.52816   0.53438   0.53942
 Alpha virt. eigenvalues --    0.54541   0.54717   0.55376   0.55537   0.56308
 Alpha virt. eigenvalues --    0.56398   0.57157   0.57738   0.58326   0.58666
 Alpha virt. eigenvalues --    0.59343   0.59752   0.60500   0.61015   0.61515
 Alpha virt. eigenvalues --    0.62283   0.63194   0.63692   0.64303   0.65208
 Alpha virt. eigenvalues --    0.65525   0.66200   0.66684   0.66874   0.67317
 Alpha virt. eigenvalues --    0.68035   0.68359   0.68567   0.69246   0.69683
 Alpha virt. eigenvalues --    0.70034   0.71149   0.71761   0.72333   0.72644
 Alpha virt. eigenvalues --    0.73952   0.74173   0.75132   0.75376   0.76138
 Alpha virt. eigenvalues --    0.76672   0.77162   0.78022   0.79097   0.79465
 Alpha virt. eigenvalues --    0.79993   0.80638   0.80697   0.82180   0.83149
 Alpha virt. eigenvalues --    0.83494   0.83668   0.84001   0.84231   0.84670
 Alpha virt. eigenvalues --    0.85131   0.85460   0.86172   0.86835   0.87084
 Alpha virt. eigenvalues --    0.87468   0.87740   0.88352   0.88796   0.89158
 Alpha virt. eigenvalues --    0.89824   0.89989   0.90187   0.90518   0.90751
 Alpha virt. eigenvalues --    0.91023   0.91344   0.91609   0.91880   0.92231
 Alpha virt. eigenvalues --    0.92652   0.92789   0.93733   0.94177   0.94553
 Alpha virt. eigenvalues --    0.95582   0.95747   0.95893   0.96344   0.96923
 Alpha virt. eigenvalues --    0.97371   0.98293   0.98300   0.99086   0.99625
 Alpha virt. eigenvalues --    1.00224   1.01088   1.02078   1.02669   1.03060
 Alpha virt. eigenvalues --    1.04792   1.05454   1.05740   1.06113   1.06997
 Alpha virt. eigenvalues --    1.08670   1.09856   1.10388   1.11356   1.12269
 Alpha virt. eigenvalues --    1.13555   1.14142   1.14938   1.15947   1.16163
 Alpha virt. eigenvalues --    1.16687   1.17210   1.17733   1.19885   1.21325
 Alpha virt. eigenvalues --    1.21780   1.22897   1.25168   1.25975   1.26349
 Alpha virt. eigenvalues --    1.28658   1.30382   1.31485   1.31651   1.33495
 Alpha virt. eigenvalues --    1.35322   1.35843   1.37816   1.38726   1.40504
 Alpha virt. eigenvalues --    1.41583   1.42536   1.43122   1.45057   1.46418
 Alpha virt. eigenvalues --    1.47682   1.49363   1.50532   1.51518   1.52526
 Alpha virt. eigenvalues --    1.53660   1.54741   1.55521   1.56477   1.58133
 Alpha virt. eigenvalues --    1.59482   1.60983   1.61525   1.62757   1.65186
 Alpha virt. eigenvalues --    1.65783   1.67040   1.68265   1.68453   1.69709
 Alpha virt. eigenvalues --    1.70846   1.72071   1.72945   1.73828   1.74850
 Alpha virt. eigenvalues --    1.75521   1.75857   1.76408   1.77238   1.77663
 Alpha virt. eigenvalues --    1.79458   1.79890   1.80175   1.80872   1.82270
 Alpha virt. eigenvalues --    1.83074   1.84073   1.84399   1.86274   1.86504
 Alpha virt. eigenvalues --    1.86972   1.87456   1.88015   1.88880   1.89200
 Alpha virt. eigenvalues --    1.90012   1.90196   1.90695   1.91730   1.91898
 Alpha virt. eigenvalues --    1.92697   1.94167   1.95104   1.95534   1.96086
 Alpha virt. eigenvalues --    1.96454   1.97129   1.97516   1.97988   1.99156
 Alpha virt. eigenvalues --    1.99361   2.00002   2.00140   2.00898   2.02149
 Alpha virt. eigenvalues --    2.02966   2.03214   2.03646   2.04324   2.04424
 Alpha virt. eigenvalues --    2.06012   2.07037   2.08054   2.08344   2.09320
 Alpha virt. eigenvalues --    2.10007   2.11153   2.11529   2.13069   2.14411
 Alpha virt. eigenvalues --    2.14605   2.14790   2.15377   2.16393   2.17478
 Alpha virt. eigenvalues --    2.18373   2.18620   2.20070   2.21392   2.22830
 Alpha virt. eigenvalues --    2.23499   2.24679   2.26099   2.26349   2.28246
 Alpha virt. eigenvalues --    2.28417   2.28859   2.30387   2.30553   2.31834
 Alpha virt. eigenvalues --    2.32931   2.32976   2.33711   2.34075   2.35432
 Alpha virt. eigenvalues --    2.36084   2.36903   2.37058   2.38450   2.38955
 Alpha virt. eigenvalues --    2.40709   2.41717   2.42163   2.42927   2.43755
 Alpha virt. eigenvalues --    2.45512   2.46443   2.46945   2.47962   2.48993
 Alpha virt. eigenvalues --    2.49186   2.51374   2.52841   2.54373   2.55445
 Alpha virt. eigenvalues --    2.57088   2.57672   2.58836   2.60401   2.61502
 Alpha virt. eigenvalues --    2.62318   2.63286   2.64079   2.65513   2.66222
 Alpha virt. eigenvalues --    2.67042   2.67632   2.68551   2.69680   2.71341
 Alpha virt. eigenvalues --    2.72597   2.73674   2.74035   2.76396   2.78743
 Alpha virt. eigenvalues --    2.79340   2.81032   2.81579   2.82726   2.87022
 Alpha virt. eigenvalues --    2.89175   2.91254   2.93104   2.94456   2.94956
 Alpha virt. eigenvalues --    2.97591   2.99536   2.99958   3.01353   3.03531
 Alpha virt. eigenvalues --    3.06179   3.08215   3.13064   3.16396   3.20782
 Alpha virt. eigenvalues --    3.23848   3.28787   3.99770   4.08960   4.10571
 Alpha virt. eigenvalues --    4.13574   4.14515   4.16949   4.18581   4.20340
 Alpha virt. eigenvalues --    4.22662   4.23123   4.26373   4.27891   4.31967
 Alpha virt. eigenvalues --    4.32743   4.34698   4.37647   4.39149   4.42881
 Alpha virt. eigenvalues --    4.44877   4.46946   4.51926   4.57413   4.61641
 Alpha virt. eigenvalues --    4.65540   4.66716   4.70711   4.77094   4.78474
 Alpha virt. eigenvalues --    4.90510   4.97859   5.26943
          Condensed to atoms (all electrons):
 Mulliken atomic charges:
              1
     1  C   -0.194681
     2  C    0.195112
     3  C   -0.191081
     4  C    0.319379
     5  C   -0.031083
     6  C   -0.332094
     7  C    0.201252
     8  C    0.416025
     9  C   -0.098938
    10  C    0.401969
    11  C    0.408317
    12  O   -0.456832
    13  C   -0.136332
    14  C   -0.262156
    15  C   -0.476418
    16  O   -0.494926
    17  C   -0.153782
    18  C    0.306399
    19  O   -0.538039
    20  C   -0.308017
    21  O   -0.671998
    22  C   -0.311449
    23  C    0.098605
    24  O   -0.584641
    25  C    0.189101
    26  C   -0.504575
    27  C   -0.395264
    28  C   -0.460642
    29  C   -0.462939
    30  H    0.144932
    31  H    0.148771
    32  C   -0.519391
    33  H    0.125697
    34  H    0.162838
    35  H    0.182749
    36  H    0.152063
    37  H    0.163347
    38  H    0.152502
    39  H    0.163648
    40  H    0.154732
    41  H    0.148213
    42  H    0.167367
    43  H    0.148595
    44  H    0.417921
    45  H    0.175641
    46  H    0.152017
    47  H    0.137173
    48  H    0.166739
    49  H    0.153180
    50  H    0.150181
    51  H    0.141160
    52  H    0.148876
    53  H    0.149389
    54  H    0.139908
    55  H    0.184096
    56  H    0.160974
    57  H    0.158366
    58  H    0.148169
    59  H    0.158079
    60  H    0.157353
    61  H    0.152951
    62  C   -0.449202
    63  H    0.140757
    64  H    0.144331
    65  H    0.145603
 Sum of Mulliken atomic charges =   0.00000
 Mulliken charges with hydrogens summed into heavy atoms:
              1
     1  C   -0.068983
     2  C    0.195112
     3  C   -0.042310
     4  C    0.319379
     5  C   -0.031083
     6  C    0.013493
     7  C    0.201252
     8  C    0.416025
     9  C   -0.098938
    10  C    0.401969
    11  C    0.408317
    12  O   -0.456832
    13  C    0.015731
    14  C    0.053692
    15  C   -0.009825
    16  O   -0.494926
    17  C   -0.008850
    18  C    0.306399
    19  O   -0.538039
    20  C    0.007944
    21  O   -0.254077
    22  C    0.016209
    23  C    0.235778
    24  O   -0.584641
    25  C    0.189101
    26  C   -0.034475
    27  C   -0.105228
    28  C    0.012752
    29  C    0.004570
    32  C   -0.051008
    62  C   -0.018511
 Sum of Mulliken charges with hydrogens summed into heavy atoms =   0.00000
 Electronic spatial extent (au):  <R**2>=          11868.0705
 Charge=              0.0000 electrons
 Dipole moment (field-independent basis, Debye):
    X=             -4.5166    Y=              2.2990    Z=             -0.8472  Tot=              5.1384
 Quadrupole moment (field-independent basis, Debye-Ang):
   XX=           -180.2311   YY=           -177.9752   ZZ=           -187.3920
   XY=             -0.2160   XZ=             -7.3967   YZ=             -1.2105
 Traceless Quadrupole moment (field-independent basis, Debye-Ang):
   XX=              1.6350   YY=              3.8909   ZZ=             -5.5259
   XY=             -0.2160   XZ=             -7.3967   YZ=             -1.2105
 Octapole moment (field-independent basis, Debye-Ang**2):
  XXX=            -10.0516  YYY=             42.8270  ZZZ=             -0.6831  XYY=            -15.3520
  XXY=             -9.8621  XXZ=            -31.4734  XZZ=            -29.7639  YZZ=             -7.1907
  YYZ=            -17.1053  XYZ=            -11.9888
 Hexadecapole moment (field-independent basis, Debye-Ang**3):
 XXXX=          -8583.0434 YYYY=          -4658.3594 ZZZZ=          -2515.4782 XXXY=            -12.1256
 XXXZ=              9.5277 YYYX=             58.7130 YYYZ=             -5.0800 ZZZX=            -10.8592
 ZZZY=            -24.0170 XXYY=          -2211.3398 XXZZ=          -1865.9516 YYZZ=          -1191.4886
 XXYZ=             15.5222 YYXZ=             34.5483 ZZXY=             14.9397
 N-N= 3.499211730537D+03 E-N=-1.022481884212D+04  KE= 1.374835270088D+03
 Calling FoFJK, ICntrl=      2127 FMM=T ISym2X=0 I1Cent= 0 IOpClX= 0 NMat=1 NMatS=1 NMatT=0.
 ***** Axes restored to original set *****
 -------------------------------------------------------------------
 Center     Atomic                   Forces (Hartrees/Bohr)
 Number     Number              X              Y              Z
 -------------------------------------------------------------------
      1        6           0.009974307   -0.000076803    0.000776885
      2        6          -0.009401461   -0.006382772    0.003255067
      3        6          -0.006468801   -0.009704366   -0.003240383
      4        6           0.010546433   -0.007645869    0.012441449
      5        6          -0.008237271    0.005751796    0.005517731
      6        6          -0.009455743   -0.008697910   -0.005576928
      7        6           0.020297481    0.014574258    0.011791493
      8        6          -0.004664892   -0.004081017   -0.023999751
      9        6           0.010576255   -0.006596323    0.010164170
     10        6          -0.013457120    0.016610174   -0.006430904
     11        6          -0.022720647   -0.010037197   -0.020698290
     12        8           0.005695939    0.016592498    0.012177562
     13        6           0.004188722    0.000666959   -0.002060801
     14        6          -0.008782434   -0.003366461   -0.001529811
     15        6           0.004808673    0.000743508    0.003345903
     16        8           0.006498443   -0.009626341    0.003087636
     17        6           0.003727077   -0.006699439   -0.011660450
     18        6           0.030525954    0.004565014   -0.011822496
     19        8          -0.013523344   -0.008098307    0.032942782
     20        6           0.009547206   -0.001642902   -0.005523158
     21        8          -0.003270919    0.004993638    0.005287683
     22        6          -0.006018443    0.000405688    0.011424226
     23        6          -0.004518706    0.004012666    0.007365762
     24        8           0.000482299    0.002273904   -0.011443024
     25        6          -0.002404277    0.006498979    0.013247556
     26        6           0.001250289    0.001437217    0.001196395
     27        6           0.001277443   -0.004281930   -0.010481883
     28        6          -0.001786907    0.008543262    0.001402853
     29        6          -0.008035992   -0.000673712   -0.007929378
     30        1          -0.002981583    0.001794959   -0.000016710
     31        1          -0.001693823    0.006044598    0.000517041
     32        6          -0.002509903   -0.000278572    0.000045528
     33        1           0.000548576   -0.000650653    0.000025596
     34        1           0.000449829    0.005184060   -0.000528252
     35        1          -0.000919947    0.004893259   -0.001553281
     36        1          -0.003820578   -0.002360795   -0.002622676
     37        1           0.003134928   -0.001692847    0.000525209
     38        1           0.003486073   -0.001392907   -0.000527642
     39        1           0.000086222   -0.000437224    0.000401030
     40        1           0.000379954   -0.000121174    0.000488978
     41        1          -0.001329705   -0.000389528   -0.000535427
     42        1           0.000359957    0.001007821    0.000615215
     43        1          -0.002022434   -0.001505568   -0.001468698
     44        1          -0.002981268    0.000847482   -0.003889397
     45        1           0.000409276   -0.002339008   -0.001292238
     46        1          -0.000099380    0.000574770   -0.002982830
     47        1           0.001130170   -0.003303795   -0.000609021
     48        1           0.002244915   -0.002418755   -0.001731093
     49        1          -0.002094206    0.000248536   -0.000650896
     50        1           0.003348245   -0.001265544   -0.001943404
     51        1           0.000576926   -0.001297010    0.000054317
     52        1          -0.000865723    0.000824497   -0.000758137
     53        1           0.000572873   -0.003349092   -0.002142462
     54        1           0.000223456   -0.000764015   -0.000390695
     55        1           0.000170468   -0.004513958    0.003449720
     56        1           0.001108220   -0.001687305    0.002641332
     57        1           0.001786824    0.001529213    0.001893676
     58        1          -0.000087732    0.000810240    0.001332496
     59        1          -0.000674790    0.000886777   -0.000313429
     60        1           0.003989953   -0.001572098   -0.000047312
     61        1           0.004289372   -0.001171924    0.000143727
     62        6          -0.001738385    0.003064570    0.001202728
     63        1          -0.000107901    0.001623660   -0.001433327
     64        1          -0.000866468    0.000949563   -0.000205302
     65        1          -0.000151973    0.002169556   -0.000722260
 -------------------------------------------------------------------
 Cartesian Forces:  Max     0.032942782 RMS     0.006848262

 GradGradGradGradGradGradGradGradGradGradGradGradGradGradGradGradGradGrad
 Berny optimization.
 Internal  Forces:  Max     0.021371418 RMS     0.003445429
 Search for a local minimum.
 Step number   1 out of a maximum of  390
 All quantities printed in internal units (Hartrees-Bohrs-Radians)
 Mixed Optimization -- RFO/linear search
 Second derivative matrix not updated -- first step.
 ITU=  0
     Eigenvalues ---    0.00259   0.00280   0.00356   0.00371   0.00383
     Eigenvalues ---    0.00471   0.00475   0.00576   0.00588   0.00627
     Eigenvalues ---    0.00653   0.00671   0.00725   0.00729   0.00887
     Eigenvalues ---    0.01091   0.01168   0.01254   0.01307   0.01454
     Eigenvalues ---    0.01514   0.01718   0.01742   0.01850   0.02092
     Eigenvalues ---    0.02623   0.02826   0.02826   0.03094   0.03199
     Eigenvalues ---    0.03434   0.03552   0.03703   0.03792   0.04070
     Eigenvalues ---    0.04247   0.04282   0.04370   0.04496   0.04655
     Eigenvalues ---    0.04678   0.04799   0.04973   0.05147   0.05287
     Eigenvalues ---    0.05315   0.05341   0.05408   0.05417   0.05469
     Eigenvalues ---    0.05503   0.05518   0.05530   0.05571   0.05639
     Eigenvalues ---    0.05713   0.05865   0.05931   0.05945   0.06137
     Eigenvalues ---    0.06548   0.06774   0.07094   0.07094   0.07147
     Eigenvalues ---    0.07183   0.07255   0.07309   0.07434   0.08055
     Eigenvalues ---    0.08330   0.08505   0.08950   0.09422   0.09474
     Eigenvalues ---    0.10016   0.10230   0.11419   0.11937   0.12324
     Eigenvalues ---    0.12588   0.13318   0.14572   0.15410   0.15882
     Eigenvalues ---    0.15965   0.16000   0.16000   0.16000   0.16000
     Eigenvalues ---    0.16000   0.16000   0.16000   0.16000   0.16000
     Eigenvalues ---    0.16000   0.16000   0.16000   0.16000   0.16000
     Eigenvalues ---    0.16000   0.16000   0.16000   0.16000   0.16000
     Eigenvalues ---    0.16000   0.16607   0.17080   0.18122   0.18512
     Eigenvalues ---    0.19814   0.21002   0.21911   0.22373   0.22531
     Eigenvalues ---    0.23492   0.24757   0.24878   0.24978   0.24985
     Eigenvalues ---    0.24992   0.24999   0.25000   0.26089   0.26693
     Eigenvalues ---    0.26990   0.27112   0.27388   0.27700   0.28363
     Eigenvalues ---    0.28665   0.28810   0.28921   0.29335   0.29438
     Eigenvalues ---    0.29520   0.30176   0.30325   0.30907   0.31304
     Eigenvalues ---    0.31633   0.31907   0.32084   0.33520   0.33592
     Eigenvalues ---    0.33833   0.33853   0.33887   0.33967   0.33988
     Eigenvalues ---    0.33997   0.34006   0.34016   0.34059   0.34068
     Eigenvalues ---    0.34084   0.34204   0.34209   0.34216   0.34217
     Eigenvalues ---    0.34235   0.34237   0.34238   0.34255   0.34264
     Eigenvalues ---    0.34268   0.34269   0.34273   0.34273   0.34297
     Eigenvalues ---    0.34304   0.34306   0.34371   0.34374   0.34949
     Eigenvalues ---    0.35010   0.35095   0.35225   0.35424   0.36619
     Eigenvalues ---    0.37148   0.41100   0.44406   0.50165   0.53593
     Eigenvalues ---    0.54600   0.56256   0.89539   0.90981
 RFO step:  Lambda=-2.14685062D-02 EMin= 2.58547583D-03
 Linear search not attempted -- first point.
 Iteration  1 RMS(Cart)=  0.04366174 RMS(Int)=  0.00074017
 Iteration  2 RMS(Cart)=  0.00127202 RMS(Int)=  0.00024634
 Iteration  3 RMS(Cart)=  0.00000087 RMS(Int)=  0.00024634
 Variable       Old X    -DE/DX   Delta X   Delta X   Delta X     New X
                                 (Linear)    (Quad)   (Total)
    R1        2.53223  -0.00164   0.00000  -0.00371  -0.00378   2.52846
    R2        2.82068   0.00892   0.00000   0.02572   0.02560   2.84628
    R3        2.05659   0.00029   0.00000   0.00077   0.00077   2.05736
    R4        2.84220   0.00519   0.00000   0.01294   0.01298   2.85518
    R5        2.83991   0.00450   0.00000   0.01314   0.01314   2.85304
    R6        2.94343   0.00669   0.00000   0.01706   0.01700   2.96044
    R7        2.89619   0.01053   0.00000   0.03566   0.03562   2.93181
    R8        2.08023  -0.00188   0.00000  -0.00527  -0.00527   2.07496
    R9        2.92958   0.01288   0.00000   0.04148   0.04144   2.97102
   R10        2.91803   0.00736   0.00000   0.02961   0.02987   2.94790
   R11        2.76143  -0.00605   0.00000  -0.01699  -0.01703   2.74440
   R12        2.91706   0.00583   0.00000   0.02168   0.02164   2.93870
   R13        2.90900   0.00487   0.00000   0.00878   0.00844   2.91745
   R14        2.91362   0.00704   0.00000   0.02365   0.02365   2.93727
   R15        2.07521  -0.00156   0.00000  -0.00432  -0.00432   2.07090
   R16        2.07580   0.00252   0.00000   0.00699   0.00699   2.08279
   R17        2.81347   0.01090   0.00000   0.02535   0.02508   2.83855
   R18        2.86609   0.01506   0.00000   0.05361   0.05308   2.91916
   R19        2.68383   0.00295   0.00000   0.00736   0.00739   2.69123
   R20        2.52290   0.01171   0.00000   0.02035   0.02048   2.54338
   R21        2.62161  -0.01840   0.00000  -0.04302  -0.04274   2.57886
   R22        2.79034   0.00125   0.00000  -0.00122  -0.00104   2.78930
   R23        2.78820   0.02137   0.00000   0.05739   0.05739   2.84559
   R24        2.32484  -0.00807   0.00000  -0.00867  -0.00867   2.31617
   R25        2.33146  -0.02116   0.00000  -0.02308  -0.02308   2.30838
   R26        2.89099  -0.00010   0.00000  -0.00031  -0.00031   2.89068
   R27        2.90707   0.00451   0.00000   0.01463   0.01463   2.92171
   R28        2.88931   0.00406   0.00000   0.01282   0.01282   2.90213
   R29        2.07613   0.00117   0.00000   0.00325   0.00325   2.07937
   R30        2.07230   0.00028   0.00000   0.00077   0.00077   2.07307
   R31        2.07350  -0.00035   0.00000  -0.00097  -0.00097   2.07253
   R32        2.87613   0.00834   0.00000   0.02579   0.02579   2.90193
   R33        2.06967   0.00045   0.00000   0.00123   0.00123   2.07091
   R34        2.06936   0.00031   0.00000   0.00084   0.00084   2.07020
   R35        2.06816   0.00006   0.00000   0.00017   0.00017   2.06833
   R36        2.91155  -0.00013   0.00000   0.01165   0.01184   2.92339
   R37        2.90233   0.00548   0.00000   0.01817   0.01817   2.92050
[...]
     55          1           0        1.065682    2.270802   -3.024503
     56          1           0        0.896577    4.206210    0.842864
     57          1           0        2.129572    4.648991   -0.348387
     58          1           0        0.442353    5.130997   -0.605280
     59          1           0       -4.283507    1.550318    3.416566
     60          1           0       -3.796619    2.896780    2.372003
     61          1           0       -4.813552    1.614843    1.722813
     62          6           0        5.682118   -2.758071   -0.169872
     63          1           0        6.559858   -2.187896    0.159905
     64          1           0        5.837233   -3.803751    0.119596
     65          1           0        5.652223   -2.723548   -1.264283
 ---------------------------------------------------------------------
 Rotational constants (GHZ):      0.1955809      0.1295871      0.1070178

 **********************************************************************

            Population analysis using the SCF density.

 **********************************************************************

 Orbital symmetries:
       Occupied  (A) (A) (A) (A) (A) (A) (A) (A) (A) (A) (A) (A)
                 (A) (A) (A) (A) (A) (A) (A) (A) (A) (A) (A) (A)
                 (A) (A) (A) (A) (A) (A) (A) (A) (A) (A) (A) (A)
                 (A) (A) (A) (A) (A) (A) (A) (A) (A) (A) (A) (A)
                 (A) (A) (A) (A) (A) (A) (A) (A) (A) (A) (A) (A)
                 (A) (A) (A) (A) (A) (A) (A) (A) (A) (A) (A) (A)
                 (A) (A) (A) (A) (A) (A) (A) (A) (A) (A) (A) (A)
                 (A) (A) (A) (A) (A) (A) (A) (A) (A) (A) (A) (A)
                 (A) (A) (A) (A) (A) (A) (A) (A) (A) (A) (A) (A)
                 (A) (A) (A) (A) (A) (A) (A)
       Virtual   (A) (A) (A) (A) (A) (A) (A) (A) (A) (A) (A) (A)
                 (A) (A) (A) (A) (A) (A) (A) (A) (A) (A) (A) (A)
                 (A) (A) (A) (A) (A) (A) (A) (A) (A) (A) (A) (A)
                 (A) (A) (A) (A) (A) (A) (A) (A) (A) (A) (A) (A)
                 (A) (A) (A) (A) (A) (A) (A) (A) (A) (A) (A) (A)
                 (A) (A) (A) (A) (A) (A) (A) (A) (A) (A) (A) (A)
                 (A) (A) (A) (A) (A) (A) (A) (A) (A) (A) (A) (A)
                 (A) (A) (A) (A) (A) (A) (A) (A) (A) (A) (A) (A)
                 (A) (A) (A) (A) (A) (A) (A) (A) (A) (A) (A) (A)
                 (A) (A) (A) (A) (A) (A) (A) (A) (A) (A) (A) (A)
                 (A) (A) (A) (A) (A) (A) (A) (A) (A) (A) (A) (A)
                 (A) (A) (A) (A) (A) (A) (A) (A) (A) (A) (A) (A)
                 (A) (A) (A) (A) (A) (A) (A) (A) (A) (A) (A) (A)
                 (A) (A) (A) (A) (A) (A) (A) (A) (A) (A) (A) (A)
                 (A) (A) (A) (A) (A) (A) (A) (A) (A) (A) (A) (A)
                 (A) (A) (A) (A) (A) (A) (A) (A) (A) (A) (A) (A)
                 (A) (A) (A) (A) (A) (A) (A) (A) (A) (A) (A) (A)
                 (A) (A) (A) (A) (A) (A) (A) (A) (A) (A) (A) (A)
                 (A) (A) (A) (A) (A) (A) (A) (A) (A) (A) (A) (A)
                 (A) (A) (A) (A) (A) (A) (A) (A) (A) (A) (A) (A)
                 (A) (A) (A) (A) (A) (A) (A) (A) (A) (A) (A) (A)
                 (A) (A) (A) (A) (A) (A) (A) (A) (A) (A) (A) (A)
                 (A) (A) (A) (A) (A) (A) (A) (A) (A) (A) (A) (A)
                 (A) (A) (A) (A) (A) (A) (A) (A) (A) (A) (A) (A)
                 (A) (A) (A) (A) (A) (A) (A) (A) (A) (A) (A) (A)
                 (A) (A) (A) (A) (A) (A) (A) (A) (A) (A) (A) (A)
                 (A) (A) (A) (A) (A) (A) (A) (A) (A) (A) (A) (A)
                 (A) (A) (A) (A) (A) (A) (A) (A) (A) (A) (A) (A)
                 (A) (A) (A) (A) (A) (A) (A) (A) (A) (A) (A) (A)
                 (A) (A) (A) (A) (A) (A) (A) (A) (A) (A) (A) (A)
                 (A) (A) (A) (A) (A) (A) (A) (A) (A) (A) (A) (A)
                 (A) (A) (A) (A) (A) (A) (A) (A) (A) (A) (A) (A)
                 (A) (A) (A) (A) (A) (A) (A) (A) (A) (A) (A) (A)
                 (A) (A) (A) (A) (A) (A) (A) (A) (A) (A) (A) (A)
                 (A) (A) (A) (A) (A) (A) (A) (A) (A) (A)
 The electronic state is 1-A.
 Alpha  occ. eigenvalues --  -19.19311 -19.16948 -19.14851 -19.13199 -19.13059
 Alpha  occ. eigenvalues --  -10.27094 -10.26942 -10.26545 -10.26318 -10.26038
 Alpha  occ. eigenvalues --  -10.25778 -10.24812 -10.21322 -10.20402 -10.20377
 Alpha  occ. eigenvalues --  -10.20288 -10.20123 -10.19730 -10.19345 -10.19001
 Alpha  occ. eigenvalues --  -10.18998 -10.18723 -10.18645 -10.18555 -10.18524
 Alpha  occ. eigenvalues --  -10.18398 -10.18240 -10.18184 -10.17101 -10.16570
 Alpha  occ. eigenvalues --  -10.16569  -1.08673  -1.06287  -1.03407  -1.02651
 Alpha  occ. eigenvalues --   -1.02040  -0.86774  -0.83589  -0.82062  -0.81255
 Alpha  occ. eigenvalues --   -0.79971  -0.79548  -0.76652  -0.73960  -0.72890
 Alpha  occ. eigenvalues --   -0.72115  -0.71310  -0.70016  -0.69097  -0.68120
 Alpha  occ. eigenvalues --   -0.65154  -0.64008  -0.63790  -0.61872  -0.60558
 Alpha  occ. eigenvalues --   -0.58872  -0.57988  -0.56709  -0.55362  -0.53840
 Alpha  occ. eigenvalues --   -0.52728  -0.51649  -0.50972  -0.49849  -0.49308
 Alpha  occ. eigenvalues --   -0.47933  -0.46830  -0.46711  -0.45998  -0.45681
 Alpha  occ. eigenvalues --   -0.44999  -0.44870  -0.44148  -0.44026  -0.42896
 Alpha  occ. eigenvalues --   -0.42803  -0.42609  -0.42175  -0.41638  -0.41345
 Alpha  occ. eigenvalues --   -0.41185  -0.40704  -0.40266  -0.39714  -0.39553
 Alpha  occ. eigenvalues --   -0.39069  -0.38826  -0.38509  -0.38249  -0.38061
 Alpha  occ. eigenvalues --   -0.37557  -0.37418  -0.37258  -0.36948  -0.36266
 Alpha  occ. eigenvalues --   -0.35684  -0.35501  -0.35203  -0.34728  -0.34260
 Alpha  occ. eigenvalues --   -0.33937  -0.33533  -0.33034  -0.32763  -0.32331
 Alpha  occ. eigenvalues --   -0.31564  -0.31142  -0.30683  -0.27996  -0.27216
 Alpha  occ. eigenvalues --   -0.25827  -0.24525  -0.24201  -0.23386  -0.22630
 Alpha virt. eigenvalues --   -0.03716  -0.01505   0.00974   0.01280   0.03966
 Alpha virt. eigenvalues --    0.06993   0.08204   0.09021   0.09203   0.10170
 Alpha virt. eigenvalues --    0.10776   0.10863   0.11609   0.12098   0.12340
 Alpha virt. eigenvalues --    0.12918   0.13031   0.13589   0.13951   0.14166
 Alpha virt. eigenvalues --    0.14775   0.14815   0.15229   0.15370   0.15438
 Alpha virt. eigenvalues --    0.15868   0.16070   0.16452   0.16648   0.17143
 Alpha virt. eigenvalues --    0.17688   0.18021   0.18145   0.18507   0.18615
 Alpha virt. eigenvalues --    0.19360   0.19486   0.19806   0.20060   0.20635
 Alpha virt. eigenvalues --    0.21001   0.21059   0.21511   0.21939   0.22167
 Alpha virt. eigenvalues --    0.22636   0.23364   0.23929   0.24258   0.24534
 Alpha virt. eigenvalues --    0.24772   0.24983   0.26133   0.26264   0.26936
 Alpha virt. eigenvalues --    0.27282   0.27657   0.28478   0.28521   0.30043
 Alpha virt. eigenvalues --    0.30855   0.31748   0.32121   0.33960   0.34209
 Alpha virt. eigenvalues --    0.34906   0.35818   0.37017   0.38980   0.39995
 Alpha virt. eigenvalues --    0.41373   0.44934   0.45407   0.47864   0.48306
 Alpha virt. eigenvalues --    0.49832   0.50118   0.50726   0.51160   0.51686
 Alpha virt. eigenvalues --    0.51867   0.52180   0.52444   0.52910   0.53591
 Alpha virt. eigenvalues --    0.53892   0.54360   0.54685   0.55293   0.55635
 Alpha virt. eigenvalues --    0.56170   0.57008   0.57579   0.57895   0.58442
 Alpha virt. eigenvalues --    0.59161   0.59392   0.59975   0.60571   0.60874
 Alpha virt. eigenvalues --    0.62046   0.62583   0.63466   0.64139   0.64863
 Alpha virt. eigenvalues --    0.65815   0.66065   0.66681   0.67033   0.67420
 Alpha virt. eigenvalues --    0.67998   0.68926   0.69361   0.69467   0.69956
 Alpha virt. eigenvalues --    0.70403   0.70716   0.71057   0.72204   0.72855
 Alpha virt. eigenvalues --    0.73517   0.74083   0.74567   0.74943   0.75736
 Alpha virt. eigenvalues --    0.76081   0.77079   0.77475   0.78668   0.79115
 Alpha virt. eigenvalues --    0.79804   0.80719   0.82095   0.82674   0.82859
 Alpha virt. eigenvalues --    0.83485   0.83761   0.83915   0.84284   0.84982
 Alpha virt. eigenvalues --    0.85381   0.85759   0.86231   0.86415   0.86720
 Alpha virt. eigenvalues --    0.86903   0.87654   0.88583   0.88705   0.89111
 Alpha virt. eigenvalues --    0.89381   0.89530   0.89826   0.90272   0.90663
 Alpha virt. eigenvalues --    0.90997   0.91111   0.91519   0.91720   0.92675
 Alpha virt. eigenvalues --    0.92869   0.93194   0.93735   0.94039   0.94557
 Alpha virt. eigenvalues --    0.94870   0.95346   0.95470   0.96109   0.96658
 Alpha virt. eigenvalues --    0.97165   0.97810   0.98130   0.98891   0.99002
 Alpha virt. eigenvalues --    0.99769   1.00913   1.01450   1.02219   1.02603
 Alpha virt. eigenvalues --    1.04015   1.04227   1.04670   1.06198   1.08650
 Alpha virt. eigenvalues --    1.08816   1.11040   1.11758   1.12426   1.12838
 Alpha virt. eigenvalues --    1.13290   1.14918   1.15223   1.16237   1.16361
 Alpha virt. eigenvalues --    1.16791   1.18258   1.19162   1.20898   1.22189
 Alpha virt. eigenvalues --    1.22367   1.23188   1.25233   1.25530   1.26389
 Alpha virt. eigenvalues --    1.28636   1.29924   1.31459   1.32267   1.33474
 Alpha virt. eigenvalues --    1.34750   1.35026   1.36928   1.38860   1.40113
 Alpha virt. eigenvalues --    1.41458   1.42309   1.43821   1.45470   1.46358
 Alpha virt. eigenvalues --    1.47685   1.49195   1.51632   1.51721   1.53458
 Alpha virt. eigenvalues --    1.54381   1.55961   1.56108   1.56363   1.56869
 Alpha virt. eigenvalues --    1.58602   1.60246   1.60771   1.61837   1.64684
 Alpha virt. eigenvalues --    1.65144   1.66266   1.66764   1.68000   1.69427
 Alpha virt. eigenvalues --    1.70854   1.71346   1.72361   1.73661   1.74580
 Alpha virt. eigenvalues --    1.75072   1.75353   1.75799   1.77382   1.78254
 Alpha virt. eigenvalues --    1.78528   1.79269   1.79687   1.81157   1.82394
 Alpha virt. eigenvalues --    1.83254   1.83757   1.84224   1.85185   1.86001
 Alpha virt. eigenvalues --    1.86579   1.87068   1.87301   1.87913   1.88528
 Alpha virt. eigenvalues --    1.88910   1.89504   1.90518   1.91938   1.92334
 Alpha virt. eigenvalues --    1.92572   1.93386   1.94453   1.94566   1.94904
 Alpha virt. eigenvalues --    1.95704   1.96817   1.96933   1.97258   1.97568
 Alpha virt. eigenvalues --    1.98548   1.98942   1.99317   1.99696   2.00322
 Alpha virt. eigenvalues --    2.01349   2.02245   2.02478   2.03809   2.04106
 Alpha virt. eigenvalues --    2.05494   2.06333   2.07264   2.07824   2.08216
 Alpha virt. eigenvalues --    2.09363   2.10682   2.11189   2.12590   2.12816
 Alpha virt. eigenvalues --    2.13714   2.14303   2.14981   2.16255   2.16615
 Alpha virt. eigenvalues --    2.18193   2.18594   2.20018   2.20730   2.22258
 Alpha virt. eigenvalues --    2.23726   2.24059   2.25350   2.25884   2.27183
 Alpha virt. eigenvalues --    2.28122   2.28819   2.29876   2.31046   2.32024
 Alpha virt. eigenvalues --    2.32660   2.32979   2.33035   2.33781   2.34382
 Alpha virt. eigenvalues --    2.35443   2.36480   2.36772   2.38543   2.39781
 Alpha virt. eigenvalues --    2.40267   2.40623   2.41689   2.42337   2.43740
 Alpha virt. eigenvalues --    2.44505   2.45276   2.47048   2.47986   2.48508
 Alpha virt. eigenvalues --    2.49842   2.50756   2.52403   2.53783   2.54599
 Alpha virt. eigenvalues --    2.56151   2.57842   2.58633   2.58763   2.60345
 Alpha virt. eigenvalues --    2.61546   2.62195   2.64142   2.65007   2.65739
 Alpha virt. eigenvalues --    2.66296   2.67842   2.68433   2.69509   2.71361
 Alpha virt. eigenvalues --    2.71787   2.73481   2.74210   2.76808   2.76961
 Alpha virt. eigenvalues --    2.78075   2.78578   2.79825   2.81208   2.86982
 Alpha virt. eigenvalues --    2.89333   2.90246   2.93258   2.94060   2.96349
 Alpha virt. eigenvalues --    2.97577   2.99353   2.99503   3.00722   3.03362
 Alpha virt. eigenvalues --    3.05279   3.06440   3.11940   3.13100   3.20682
 Alpha virt. eigenvalues --    3.22621   3.27226   4.00743   4.09832   4.11302
 Alpha virt. eigenvalues --    4.12280   4.15464   4.16660   4.17686   4.19991
 Alpha virt. eigenvalues --    4.22853   4.24230   4.24976   4.27054   4.30404
 Alpha virt. eigenvalues --    4.31717   4.32635   4.36038   4.38698   4.42042
 Alpha virt. eigenvalues --    4.44831   4.46660   4.52121   4.57889   4.61353
 Alpha virt. eigenvalues --    4.65262   4.67422   4.68772   4.73951   4.77359
 Alpha virt. eigenvalues --    4.89670   4.96664   5.23820
          Condensed to atoms (all electrons):
 Mulliken atomic charges:
              1
     1  C   -0.193179
     2  C    0.197821
     3  C   -0.196461
     4  C    0.314833
     5  C   -0.027589
     6  C   -0.333844
     7  C    0.199530
     8  C    0.420522
     9  C   -0.108544
    10  C    0.404455
    11  C    0.409026
    12  O   -0.445267
    13  C   -0.140310
    14  C   -0.264582
    15  C   -0.476236
    16  O   -0.493852
    17  C   -0.155491
    18  C    0.298527
    19  O   -0.538305
    20  C   -0.309520
    21  O   -0.671192
    22  C   -0.328980
    23  C    0.101780
    24  O   -0.585315
    25  C    0.189097
    26  C   -0.506372
    27  C   -0.394835
    28  C   -0.466843
    29  C   -0.460188
    30  H    0.146171
    31  H    0.145654
    32  C   -0.521202
    33  H    0.125357
    34  H    0.164030
    35  H    0.181310
    36  H    0.145388
    37  H    0.165595
    38  H    0.151707
    39  H    0.159285
    40  H    0.157575
    41  H    0.147366
    42  H    0.165786
    43  H    0.150277
    44  H    0.420853
    45  H    0.182097
    46  H    0.151066
    47  H    0.136715
    48  H    0.168899
    49  H    0.153744
    50  H    0.151493
    51  H    0.139019
    52  H    0.152508
    53  H    0.155567
    54  H    0.143764
    55  H    0.194798
    56  H    0.163336
    57  H    0.163051
    58  H    0.149745
    59  H    0.158332
    60  H    0.155578
    61  H    0.153546
    62  C   -0.449477
    63  H    0.140315
    64  H    0.146166
    65  H    0.145902
 Sum of Mulliken atomic charges =   0.00000
 Mulliken charges with hydrogens summed into heavy atoms:
              1
     1  C   -0.067823
     2  C    0.197821
     3  C   -0.050807
     4  C    0.314833
     5  C   -0.027589
     6  C    0.011496
     7  C    0.199530
     8  C    0.420522
     9  C   -0.108544
    10  C    0.404455
    11  C    0.409026
    12  O   -0.445267
    13  C    0.005078
    14  C    0.052720
    15  C   -0.012010
    16  O   -0.493852
    17  C   -0.009320
    18  C    0.298527
    19  O   -0.538305
    20  C    0.006542
    21  O   -0.250339
    22  C    0.004183
    23  C    0.238495
    24  O   -0.585315
    25  C    0.189097
    26  C   -0.032236
    27  C   -0.103308
    28  C    0.027286
    29  C    0.015944
    32  C   -0.053746
    62  C   -0.017094
 Sum of Mulliken charges with hydrogens summed into heavy atoms =   0.00000
 Electronic spatial extent (au):  <R**2>=          11811.3478
 Charge=              0.0000 electrons
 Dipole moment (field-independent basis, Debye):
    X=             -4.2639    Y=              3.1595    Z=             -1.5498  Tot=              5.5286
 Quadrupole moment (field-independent basis, Debye-Ang):
   XX=           -179.1520   YY=           -176.1333   ZZ=           -189.0038
   XY=              1.6569   XZ=             -7.8724   YZ=             -0.0949
 Traceless Quadrupole moment (field-independent basis, Debye-Ang):
   XX=              2.2777   YY=              5.2964   ZZ=             -7.5741
   XY=              1.6569   XZ=             -7.8724   YZ=             -0.0949
 Octapole moment (field-independent basis, Debye-Ang**2):
  XXX=             -3.8930  YYY=             48.1044  ZZZ=             -9.3443  XYY=            -10.9227
  XXY=             -4.8216  XXZ=            -27.3650  XZZ=            -33.9961  YZZ=             -4.4971
  YYZ=            -21.4559  XYZ=             -9.4762
 Hexadecapole moment (field-independent basis, Debye-Ang**3):
 XXXX=          -8365.9840 YYYY=          -4715.5766 ZZZZ=          -2559.2952 XXXY=            -19.2607
 XXXZ=              6.5471 YYYX=             66.0716 YYYZ=            -16.4609 ZZZX=            -25.6805
 ZZZY=            -17.3471 XXYY=          -2185.9553 XXZZ=          -1854.0463 YYZZ=          -1207.0383
 XXYZ=             23.6295 YYXZ=             30.2524 ZZXY=             29.5823
 N-N= 3.493287664994D+03 E-N=-1.021286512906D+04  KE= 1.374464016134D+03
 1\1\GINC-B0805\FOpt\RB3LYP\6-31G(d)\C26H34O5\CAOFEI\24-Mar-2021\0\\# o
 pt rb3lyp/6-31g(d) geom=connectivity\\Title Card Required\\0,1\C,0.080
 5161843,-0.0785824175,-0.1046644568\C,1.4129227341,-0.0657744405,0.020
 1313063\C,2.1623625043,1.2459697383,0.0035384565\C,1.3763464279,2.4991
 691704,0.5117683742\C,-0.1888552738,2.3817594041,0.5569543889\C,-0.735
 7093024,1.174630688,-0.2675858081\C,1.9205237642,3.6755815435,-0.36176
 87439\C,0.9603468172,4.0752970932,-1.4654770303\C,-0.3750087298,4.1499
 869397,-1.305290566\C,-0.9295935922,3.6021034355,-0.0548461106\C,-1.33
 69364269,4.5749981075,-2.3992715466\O,-1.8737911106,3.7083877789,-3.06
 62912186\C,-1.6753511201,6.0516998037,-2.6008218884\C,-3.0101392631,6.
 3254407561,-1.853314632\C,-0.5453279206,7.00733305,-2.1963362128\O,-2.
 0057707106,3.9607007569,0.4052653857\C,3.0956644943,3.1403902288,-1.21
 21712951\C,3.0605866094,4.0363655317,-2.4721639968\O,1.6189689581,4.37
 37873884,-2.5990374438\C,2.7200310484,1.655733205,-1.3849786979\O,2.21
 29183356,4.8235744488,0.4099872926\C,-0.5096604729,2.2542587298,2.0699
 855155\C,0.8481682218,2.1272033614,2.7622963002\O,1.7681232667,2.79133
 01034,1.8616188434\C,1.0291823239,2.7027330047,4.1495211502\C,2.448664
 0636,2.6987769359,4.6634975696\C,0.0028679621,3.1229575463,4.894317377
 7\C,3.8264501125,5.3467144786,-2.2719592265\C,3.4544078454,3.361364953
 9,-3.7826157479\H,4.0442754191,3.2451630638,-0.6771079947\H,3.02317927
 67,1.1713206109,0.6824843239\C,2.2361377616,-1.3214688478,0.146833119\
 H,-0.4510318853,-1.0290435954,-0.1216940185\H,-1.7733717072,1.00560582
 97,0.0393149943\H,-0.7888329203,1.4520823547,-1.3307425262\H,-1.874971
 7853,6.1538691834,-3.6762805493\H,-2.8660948467,6.1442465209,-0.781553
 1624\H,-3.7390620622,5.581008893,-2.1950355311\H,-0.3548767721,6.96924
 10075,-1.1179177548\H,0.3882234654,6.7572269247,-2.7104560107\H,-0.802
 2505831,8.038554158,-2.4578370129\H,1.9373300108,1.5370364836,-2.14367
 6691\H,3.5659581603,1.0331282605,-1.6922953167\H,2.1624896188,4.520326
 1621,1.3393370115\H,-1.0424205186,3.1515751665,2.3921899998\H,-1.15049
 98405,1.3948646354,2.2835018765\H,1.1450616203,1.065886518,2.798029792
 \H,3.1014528383,3.30831899,4.0282917199\H,2.5026407684,3.0822626594,5.
 6865991626\H,2.8663687973,1.6824027508,4.6564685532\H,0.1592417851,3.4
 868392456,5.9067011774\H,-1.022781922,3.1158268153,4.5400268649\H,3.62
 32628554,6.0293034406,-3.1036725644\H,4.9046224405,5.1511630664,-2.244
 9364698\H,3.5372815693,5.8286978474,-1.3351951971\H,2.8457405067,2.476
 2342977,-3.983531413\H,3.3266312167,4.058269475,-4.617030488\H,4.50743
 59241,3.0608544574,-3.7476085629\H,1.6075350086,-2.2174350892,0.133176
 825\H,2.9640351651,-1.409204913,-0.6716851933\H,2.8159865966,-1.325118
 0754,1.080449251\C,-3.5739130544,7.7309561869,-2.0850580965\H,-3.70477
 64445,7.9377125002,-3.1548272329\H,-4.5540489317,7.8314147455,-1.60491
 26956\H,-2.9259652821,8.5105869454,-1.6701375277\\Version=EM64L-G09Rev
 B.01\State=1-A\HF=-1387.3143347\RMSD=5.078e-09\RMSF=9.832e-06\Dipole=1
 .923431,-0.8867776,0.4951815\Quadrupole=-2.7567005,3.0286129,-0.271912
 4,-2.2897919,-5.9066736,-3.502392\PG=C01 [X(C26H34O5)]\\@


 THE DIFFICULTY IN SCIENCE IS OFTEN NOT SO MUCH HOW
 TO MAKE A DISCOVERY BUT RATHER TO KNOW ONE HAS MADE IT.

                                                   -- J. D. BERNAL
 Job cpu time:  0 days  4 hours 52 minutes 36.9 seconds.
 File lengths (MBytes):  RWF=    186 Int=      0 D2E=      0 Chk=     20 Scr=      1
 Normal termination of Gaussian 09 at Wed Mar 24 18:37:57 2021.
