 Entering Gaussian System, Link 0=g09
 Initial command:
 /public/software/g09/g09/l1.exe /tmp/Gau-24030.inp -scrdir=/tmp/
 Entering Link 1 = /public/software/g09/g09/l1.exe PID=     24031.
  
 Copyright (c) 1988,1990,1992,1993,1995,1998,2003,2009,2010,
            Gaussian, Inc.  All Rights Reserved.
  
 This is part of the Gaussian(R) 09 program.  It is based on
 the Gaussian(R) 03 system (copyright 2003, Gaussian, Inc.),
 the Gaussian(R) 98 system (copyright 1998, Gaussian, Inc.),
 the Gaussian(R) 94 system (copyright 1995, Gaussian, Inc.),
 the Gaussian 92(TM) system (copyright 1992, Gaussian, Inc.),
 the Gaussian 90(TM) system (copyright 1990, Gaussian, Inc.),
 the Gaussian 88(TM) system (copyright 1988, Gaussian, Inc.),
 the Gaussian 86(TM) system (copyright 1986, Carnegie Mellon
 University), and the Gaussian 82(TM) system (copyright 1983,
 Carnegie Mellon University). Gaussian is a federally registered
 trademark of Gaussian, Inc.
  
 This software contains proprietary and confidential information,
 including trade secrets, belonging to Gaussian, Inc.
  
 This software is provided under written license and may be
 used, copied, transmitted, or stored only in accord with that
 written license.
  
 The following legend is applicable only to US Government
 contracts under FAR:
  
                    RESTRICTED RIGHTS LEGEND
  
 Use, reproduction and disclosure by the US Government is
 subject to restrictions as set forth in subparagraphs (a)
 and (c) of the Commercial Computer Software - Restricted
 Rights clause in FAR 52.227-19.
  
 Gaussian, Inc.
 340 Quinnipiac St., Bldg. 40, Wallingford CT 06492
  
  
 ---------------------------------------------------------------
 Warning -- This program may not be used in any manner that
 competes with the business of Gaussian, Inc. or will provide
 assistance to any competitor of Gaussian, Inc.  The licensee
 of this program is prohibited from giving any competitor of
 Gaussian, Inc. access to this program.  By using this program,
 the user acknowledges that Gaussian, Inc. is engaged in the
 business of creating and licensing software in the field of
 computational chemistry and represents and warrants to the
 licensee that it is not a competitor of Gaussian, Inc. and that
 it will not use this program in any manner prohibited above.
 ---------------------------------------------------------------
  

 Cite this work as:
 Gaussian 09, Revision B.01,
 M. J. Frisch, G. W. Trucks, H. B. Schlegel, G. E. Scuseria, 
 M. A. Robb, J. R. Cheeseman, G. Scalmani, V. Barone, B. Mennucci, 
 G. A. Petersson, H. Nakatsuji, M. Caricato, X. Li, H. P. Hratchian, 
 A. F. Izmaylov, J. Bloino, G. Zheng, J. L. Sonnenberg, M. Hada, 
 M. Ehara, K. Toyota, R. Fukuda, J. Hasegawa, M. Ishida, T. Nakajima, 
 Y. Honda, O. Kitao, H. Nakai, T. Vreven, J. A. Montgomery, Jr., 
 J. E. Peralta, F. Ogliaro, M. Bearpark, J. J. Heyd, E. Brothers, 
 K. N. Kudin, V. N. Staroverov, T. Keith, R. Kobayashi, J. Normand, 
 K. Raghavachari, A. Rendell, J. C. Burant, S. S. Iyengar, J. Tomasi, 
 M. Cossi, N. Rega, J. M. Millam, M. Klene, J. E. Knox, J. B. Cross, 
 V. Bakken, C. Adamo, J. Jaramillo, R. Gomperts, R. E. Stratmann, 
 O. Yazyev, A. J. Austin, R. Cammi, C. Pomelli, J. W. Ochterski, 
 R. L. Martin, K. Morokuma, V. G. Zakrzewski, G. A. Voth, 
 P. Salvador, J. J. Dannenberg, S. Dapprich, A. D. Daniels, 
 O. Farkas, J. B. Foresman, J. V. Ortiz, J. Cioslowski, 
 and D. J. Fox, Gaussian, Inc., Wallingford CT, 2010.
 
 ******************************************
 Gaussian 09:  EM64L-G09RevB.01 12-Aug-2010
                24-Mar-2021 
 ******************************************
 %mem=600MW
 %nprocshared=10
 Will use up to   10 processors via shared memory.
 ---------------------------------------
 # opt rb3lyp/6-31g(d) geom=connectivity
 ---------------------------------------
 1/14=-1,18=20,19=15,26=3,38=1,57=2/1,3;
 2/9=110,12=2,17=6,18=5,40=1/2;
 3/5=1,6=6,7=1,11=2,16=1,25=1,30=1,71=1,74=-5,116=1/1,2,3;
 4//1;
 5/5=2,38=5/2;
 6/7=2,8=2,9=2,10=2,28=1/1;
 7//1,2,3,16;
 1/14=-1,18=20,19=15/3(2);
 2/9=110/2;
 99//99;
 2/9=110/2;
 3/5=1,6=6,7=1,11=2,16=1,25=1,30=1,71=1,74=-5,116=1/1,2,3;
 4/5=5,16=3/1;
 5/5=2,38=5/2;
 7//1,2,3,16;
 1/14=-1,18=20,19=15/3(-5);
 2/9=110/2;
 6/7=2,8=2,9=2,10=2,19=2,28=1/1;
 99/9=1/99;
 -------------------
 Title Card Required
 -------------------
 Symbolic Z-matrix:
 Charge =  0 Multiplicity = 1
 C                     0.        0.        0. 
 C                     1.3415    0.        0. 
 C                     2.1355    1.2851    0. 
 C                     1.3357    2.5819   -0.3153 
 C                    -0.1581    2.455    -0.6564 
 C                    -0.8314    1.2414    0.016 
 C                     2.1446    3.2863   -1.4222 
 C                     1.7859    2.9005   -2.8149 
 C                     0.569     2.4762   -3.1696 
 C                    -0.5031    2.4328   -2.1541 
 C                     0.3479    2.0084   -4.5564 
 O                     0.6455    0.8441   -4.8355 
 C                    -0.255     2.9552   -5.599 
 C                    -1.719     2.6066   -5.914 
 C                    -0.1428    4.4349   -5.2216 
 O                    -1.6778    2.4025   -2.5267 
 C                     3.5547    2.7404   -1.3712 
 C                     4.0579    2.9696   -2.8127 
 O                     2.8885    2.8474   -3.663 
 C                     3.3127    1.2699   -0.9923 
 O                     2.0953    4.6985   -1.3077 
 C                    -0.7203    3.7557   -0.076 
 C                     0.1151    3.9631    1.1801 
 O                     1.4189    3.4401    0.8654 
 C                     0.2755    5.3686    1.7133 
 C                     1.2029    5.5014    2.895 
 C                    -0.3612    6.4519    1.2357 
 C                     4.6498    4.3731   -3.018 
 C                     5.0967    1.94     -3.2705 
 H                     4.1861    3.2375   -0.6258 
 H                     2.568     1.3816    1.0069 
 C                     2.111    -1.2913    0.0916 
 H                    -0.5435   -0.9422    0.0475 
 H                    -1.0828    1.4469    1.0635 
 H                    -1.788     1.0142   -0.471 
 H                     0.3484    2.8207   -6.5071 
 H                    -2.3273    2.6383   -5.0039 
 H                    -2.1297    3.3655   -6.5918 
 H                    -0.4913    5.0694   -6.0439 
 H                     0.8956    4.7128   -5.0131 
 H                    -0.7439    4.6763   -4.3385 
 H                     4.2112    0.8288   -0.546 
 H                     3.0565    0.6616   -1.8683 
 H                     2.163     4.8916   -0.3505 
 H                    -1.7927    3.7106    0.1452 
 H                    -0.5745    4.5715   -0.7952 
 H                    -0.2862    3.3427    1.9911 
 H                     0.8861    4.8338    3.703 
 H                     2.2284    5.2447    2.6109 
 H                     1.2176    6.5202    3.2969 
 H                    -1.056     6.407     0.4043 
 H                    -0.2086    7.4343    1.6742 
 H                     3.9158    5.1659   -2.8521 
 H                     4.9862    4.5012   -4.0538 
 H                     5.5046    4.5447   -2.3558 
 H                     5.963     1.9226   -2.6015 
 H                     5.4487    2.1692   -4.2834 
 H                     4.6768    0.9313   -3.333 
 H                     1.4519   -2.1535    0.2397 
 H                     2.6836   -1.4693   -0.8236 
 H                     2.8045   -1.2595    0.9384 
 C                    -1.8987    1.2486   -6.5791 
 H                    -1.6614    0.43     -5.8941 
 H                    -1.2653    1.157    -7.467 
 H                    -2.9401    1.1211   -6.8925 
 

 GradGradGradGradGradGradGradGradGradGradGradGradGradGradGradGradGradGrad
 Berny optimization.
 Initialization pass.
                           ----------------------------
                           !    Initial Parameters    !
                           ! (Angstroms and Degrees)  !
 --------------------------                            --------------------------
 ! Name  Definition              Value          Derivative Info.                !
 --------------------------------------------------------------------------------
 ! R1    R(1,2)                  1.3415         estimate D2E/DX2                !
 ! R2    R(1,6)                  1.4942         estimate D2E/DX2                !
 ! R3    R(1,33)                 1.0888         estimate D2E/DX2                !
 ! R4    R(2,3)                  1.5106         estimate D2E/DX2                !
 ! R5    R(2,32)                 1.506          estimate D2E/DX2                !
 ! R6    R(3,4)                  1.5559         estimate D2E/DX2                !
 ! R7    R(3,20)                 1.5397         estimate D2E/DX2                !
 ! R8    R(3,31)                 1.1001         estimate D2E/DX2                !
 ! R9    R(4,5)                  1.5375         estimate D2E/DX2                !
 ! R10   R(4,7)                  1.5413         estimate D2E/DX2                !
 ! R11   R(4,24)                 1.462          estimate D2E/DX2                !
 ! R12   R(5,6)                  1.5422         estimate D2E/DX2                !
 ! R13   R(5,10)                 1.5371         estimate D2E/DX2                !
 ! R14   R(5,22)                 1.5313         estimate D2E/DX2                !
 ! R15   R(6,34)                 1.0967         estimate D2E/DX2                !
 ! R16   R(6,35)                 1.0972         estimate D2E/DX2                !
 ! R17   R(7,8)                  1.489          estimate D2E/DX2                !
 ! R18   R(7,17)                 1.5129         estimate D2E/DX2                !
 ! R19   R(7,21)                 1.4177         estimate D2E/DX2                !
 ! R20   R(8,9)                  1.3367         estimate D2E/DX2                !
 ! R21   R(8,19)                 1.3921         estimate D2E/DX2                !
 ! R22   R(9,10)                 1.4773         estimate D2E/DX2                !
 ! R23   R(9,11)                 1.4802         estimate D2E/DX2                !
 ! R24   R(10,16)                1.2327         estimate D2E/DX2                !
 ! R25   R(11,12)                1.2337         estimate D2E/DX2                !
 ! R26   R(11,13)                1.532          estimate D2E/DX2                !
 ! R27   R(13,14)                1.5375         estimate D2E/DX2                !
 ! R28   R(13,15)                1.5312         estimate D2E/DX2                !
 ! R29   R(13,36)                1.0986         estimate D2E/DX2                !
 ! R30   R(14,37)                1.0951         estimate D2E/DX2                !
 ! R31   R(14,38)                1.0973         estimate D2E/DX2                !
 ! R32   R(14,62)                1.5228         estimate D2E/DX2                !
 ! R33   R(15,39)                1.0955         estimate D2E/DX2                !
 ! R34   R(15,40)                1.095          estimate D2E/DX2                !
 ! R35   R(15,41)                1.0952         estimate D2E/DX2                !
 ! R36   R(17,18)                1.5439         estimate D2E/DX2                !
 ! R37   R(17,20)                1.5377         estimate D2E/DX2                !
 ! R38   R(17,30)                1.0961         estimate D2E/DX2                !
 ! R39   R(18,19)                1.451          estimate D2E/DX2                !
 ! R40   R(18,28)                1.537          estimate D2E/DX2                !
 ! R41   R(18,29)                1.5326         estimate D2E/DX2                !
 ! R42   R(20,42)                1.0959         estimate D2E/DX2                !
 ! R43   R(20,43)                1.0968         estimate D2E/DX2                !
 ! R44   R(21,44)                0.9788         estimate D2E/DX2                !
 ! R45   R(22,23)                1.5227         estimate D2E/DX2                !
 ! R46   R(22,45)                1.0959         estimate D2E/DX2                !
 ! R47   R(22,46)                1.0973         estimate D2E/DX2                !
 ! R48   R(23,24)                1.4396         estimate D2E/DX2                !
 ! R49   R(23,25)                1.5118         estimate D2E/DX2                !
 ! R50   R(23,47)                1.0971         estimate D2E/DX2                !
 ! R51   R(25,26)                1.508          estimate D2E/DX2                !
 ! R52   R(25,27)                1.3443         estimate D2E/DX2                !
 ! R53   R(26,48)                1.095          estimate D2E/DX2                !
 ! R54   R(26,49)                1.0946         estimate D2E/DX2                !
 ! R55   R(26,50)                1.0953         estimate D2E/DX2                !
 ! R56   R(27,51)                1.0844         estimate D2E/DX2                !
 ! R57   R(27,52)                1.0866         estimate D2E/DX2                !
 ! R58   R(28,53)                1.0931         estimate D2E/DX2                !
 ! R59   R(28,54)                1.0966         estimate D2E/DX2                !
 ! R60   R(28,55)                1.0948         estimate D2E/DX2                !
 ! R61   R(29,56)                1.0947         estimate D2E/DX2                !
 ! R62   R(29,57)                1.0965         estimate D2E/DX2                !
 ! R63   R(29,58)                1.0944         estimate D2E/DX2                !
 ! R64   R(32,59)                1.0953         estimate D2E/DX2                !
 ! R65   R(32,60)                1.0941         estimate D2E/DX2                !
 ! R66   R(32,61)                1.095          estimate D2E/DX2                !
 ! R67   R(62,63)                1.0935         estimate D2E/DX2                !
 ! R68   R(62,64)                1.0945         estimate D2E/DX2                !
 ! R69   R(62,65)                1.095          estimate D2E/DX2                !
 ! A1    A(2,1,6)              123.8091         estimate D2E/DX2                !
 ! A2    A(2,1,33)             119.9467         estimate D2E/DX2                !
 ! A3    A(6,1,33)             116.1523         estimate D2E/DX2                !
 ! A4    A(1,2,3)              121.7099         estimate D2E/DX2                !
 ! A5    A(1,2,32)             120.728          estimate D2E/DX2                !
 ! A6    A(3,2,32)             117.4437         estimate D2E/DX2                !
 ! A7    A(2,3,4)              116.0315         estimate D2E/DX2                !
 ! A8    A(2,3,20)             113.1706         estimate D2E/DX2                !
 ! A9    A(2,3,31)             106.336          estimate D2E/DX2                !
 ! A10   A(4,3,20)             105.7028         estimate D2E/DX2                !
 ! A11   A(4,3,31)             108.3285         estimate D2E/DX2                !
 ! A12   A(20,3,31)            106.8673         estimate D2E/DX2                !
 ! A13   A(3,4,5)              118.3987         estimate D2E/DX2                !
 ! A14   A(3,4,7)              104.8721         estimate D2E/DX2                !
 ! A15   A(3,4,24)             107.238          estimate D2E/DX2                !
 ! A16   A(5,4,7)              112.8479         estimate D2E/DX2                !
 ! A17   A(5,4,24)             106.4337         estimate D2E/DX2                !
 ! A18   A(7,4,24)             106.3697         estimate D2E/DX2                !
 ! A19   A(4,5,6)              113.1043         estimate D2E/DX2                !
 ! A20   A(4,5,10)             115.8129         estimate D2E/DX2                !
 ! A21   A(4,5,22)             101.6841         estimate D2E/DX2                !
 ! A22   A(6,5,10)             108.3897         estimate D2E/DX2                !
 ! A23   A(6,5,22)             110.0535         estimate D2E/DX2                !
 ! A24   A(10,5,22)            107.4086         estimate D2E/DX2                !
 ! A25   A(1,6,5)              113.9672         estimate D2E/DX2                !
 ! A26   A(1,6,34)             107.0657         estimate D2E/DX2                !
 ! A27   A(1,6,35)             107.9584         estimate D2E/DX2                !
 ! A28   A(5,6,34)             111.6591         estimate D2E/DX2                !
 ! A29   A(5,6,35)             110.4917         estimate D2E/DX2                !
 ! A30   A(34,6,35)            105.2417         estimate D2E/DX2                !
 ! A31   A(4,7,8)              115.2685         estimate D2E/DX2                !
 ! A32   A(4,7,17)             107.4591         estimate D2E/DX2                !
 ! A33   A(4,7,21)             112.2708         estimate D2E/DX2                !
 ! A34   A(8,7,17)              99.3558         estimate D2E/DX2                !
 ! A35   A(8,7,21)             108.9814         estimate D2E/DX2                !
 ! A36   A(17,7,21)            112.8992         estimate D2E/DX2                !
 ! A37   A(7,8,9)              123.3505         estimate D2E/DX2                !
 ! A38   A(7,8,19)             112.887          estimate D2E/DX2                !
 ! A39   A(9,8,19)             123.1831         estimate D2E/DX2                !
 ! A40   A(8,9,10)             119.1825         estimate D2E/DX2                !
 ! A41   A(8,9,11)             119.0079         estimate D2E/DX2                !
 ! A42   A(10,9,11)            121.7582         estimate D2E/DX2                !
 ! A43   A(5,10,9)             120.4287         estimate D2E/DX2                !
 ! A44   A(5,10,16)            120.5802         estimate D2E/DX2                !
 ! A45   A(9,10,16)            118.9787         estimate D2E/DX2                !
 ! A46   A(9,11,12)            118.3061         estimate D2E/DX2                !
 ! A47   A(9,11,13)            120.0721         estimate D2E/DX2                !
 ! A48   A(12,11,13)           121.616          estimate D2E/DX2                !
 ! A49   A(11,13,14)           111.9642         estimate D2E/DX2                !
 ! A50   A(11,13,15)           113.6199         estimate D2E/DX2                !
 ! A51   A(11,13,36)           105.7085         estimate D2E/DX2                !
 ! A52   A(14,13,15)           109.8384         estimate D2E/DX2                !
 ! A53   A(14,13,36)           109.019          estimate D2E/DX2                !
 ! A54   A(15,13,36)           106.3684         estimate D2E/DX2                !
 ! A55   A(13,14,37)           110.6139         estimate D2E/DX2                !
 ! A56   A(13,14,38)           109.0341         estimate D2E/DX2                !
 ! A57   A(13,14,62)           113.831          estimate D2E/DX2                !
 ! A58   A(37,14,38)           106.584          estimate D2E/DX2                !
 ! A59   A(37,14,62)           108.859          estimate D2E/DX2                !
 ! A60   A(38,14,62)           107.627          estimate D2E/DX2                !
 ! A61   A(13,15,39)           110.5717         estimate D2E/DX2                !
 ! A62   A(13,15,40)           111.2037         estimate D2E/DX2                !
 ! A63   A(13,15,41)           111.81           estimate D2E/DX2                !
 ! A64   A(39,15,40)           107.3137         estimate D2E/DX2                !
 ! A65   A(39,15,41)           107.6364         estimate D2E/DX2                !
 ! A66   A(40,15,41)           108.1202         estimate D2E/DX2                !
 ! A67   A(7,17,18)            102.6346         estimate D2E/DX2                !
 ! A68   A(7,17,20)            101.9278         estimate D2E/DX2                !
 ! A69   A(7,17,30)            113.3395         estimate D2E/DX2                !
 ! A70   A(18,17,20)           115.0446         estimate D2E/DX2                !
 ! A71   A(18,17,30)           112.3257         estimate D2E/DX2                !
 ! A72   A(20,17,30)           110.9034         estimate D2E/DX2                !
 ! A73   A(17,18,19)           105.781          estimate D2E/DX2                !
 ! A74   A(17,18,28)           112.6928         estimate D2E/DX2                !
 ! A75   A(17,18,29)           113.5834         estimate D2E/DX2                !
 ! A76   A(19,18,28)           107.9985         estimate D2E/DX2                !
 ! A77   A(19,18,29)           108.3391         estimate D2E/DX2                !
 ! A78   A(28,18,29)           108.2123         estimate D2E/DX2                !
 ! A79   A(8,19,18)            106.1474         estimate D2E/DX2                !
 ! A80   A(3,20,17)            105.6457         estimate D2E/DX2                !
 ! A81   A(3,20,42)            111.6139         estimate D2E/DX2                !
 ! A82   A(3,20,43)            109.9747         estimate D2E/DX2                !
 ! A83   A(17,20,42)           110.8683         estimate D2E/DX2                !
 ! A84   A(17,20,43)           111.7357         estimate D2E/DX2                !
 ! A85   A(42,20,43)           107.0692         estimate D2E/DX2                !
 ! A86   A(7,21,44)            105.8481         estimate D2E/DX2                !
 ! A87   A(5,22,23)            103.1167         estimate D2E/DX2                !
 ! A88   A(5,22,45)            113.6296         estimate D2E/DX2                !
 ! A89   A(5,22,46)            109.5306         estimate D2E/DX2                !
 ! A90   A(23,22,45)           112.0837         estimate D2E/DX2                !
 ! A91   A(23,22,46)           111.5005         estimate D2E/DX2                !
 ! A92   A(45,22,46)           107.0325         estimate D2E/DX2                !
 ! A93   A(22,23,24)           105.4894         estimate D2E/DX2                !
 ! A94   A(22,23,25)           118.4101         estimate D2E/DX2                !
 ! A95   A(22,23,47)           109.3953         estimate D2E/DX2                !
 ! A96   A(24,23,25)           108.5882         estimate D2E/DX2                !
 ! A97   A(24,23,47)           106.7041         estimate D2E/DX2                !
 ! A98   A(25,23,47)           107.6873         estimate D2E/DX2                !
 ! A99   A(4,24,23)            109.7705         estimate D2E/DX2                !
 ! A100  A(23,25,26)           115.0557         estimate D2E/DX2                !
 ! A101  A(23,25,27)           125.0057         estimate D2E/DX2                !
 ! A102  A(26,25,27)           119.9155         estimate D2E/DX2                !
 ! A103  A(25,26,48)           110.2813         estimate D2E/DX2                !
 ! A104  A(25,26,49)           110.6161         estimate D2E/DX2                !
 ! A105  A(25,26,50)           112.191          estimate D2E/DX2                !
 ! A106  A(48,26,49)           108.6382         estimate D2E/DX2                !
 ! A107  A(48,26,50)           107.4717         estimate D2E/DX2                !
 ! A108  A(49,26,50)           107.5046         estimate D2E/DX2                !
 ! A109  A(25,27,51)           122.8533         estimate D2E/DX2                !
 ! A110  A(25,27,52)           121.2452         estimate D2E/DX2                !
 ! A111  A(51,27,52)           115.9004         estimate D2E/DX2                !
 ! A112  A(18,28,53)           112.5465         estimate D2E/DX2                !
 ! A113  A(18,28,54)           110.5477         estimate D2E/DX2                !
 ! A114  A(18,28,55)           111.2853         estimate D2E/DX2                !
 ! A115  A(53,28,54)           105.3453         estimate D2E/DX2                !
 ! A116  A(53,28,55)           108.5906         estimate D2E/DX2                !
 ! A117  A(54,28,55)           108.2702         estimate D2E/DX2                !
 ! A118  A(18,29,56)           111.3784         estimate D2E/DX2                !
 ! A119  A(18,29,57)           110.6765         estimate D2E/DX2                !
 ! A120  A(18,29,58)           112.0986         estimate D2E/DX2                !
 ! A121  A(56,29,57)           108.2886         estimate D2E/DX2                !
 ! A122  A(56,29,58)           108.898          estimate D2E/DX2                !
 ! A123  A(57,29,58)           105.2521         estimate D2E/DX2                !
 ! A124  A(2,32,59)            112.0682         estimate D2E/DX2                !
 ! A125  A(2,32,60)            110.856          estimate D2E/DX2                !
 ! A126  A(2,32,61)            110.2273         estimate D2E/DX2                !
 ! A127  A(59,32,60)           107.4545         estimate D2E/DX2                !
 ! A128  A(59,32,61)           107.4215         estimate D2E/DX2                !
 ! A129  A(60,32,61)           108.6713         estimate D2E/DX2                !
 ! A130  A(14,62,63)           111.6173         estimate D2E/DX2                !
 ! A131  A(14,62,64)           111.141          estimate D2E/DX2                !
 ! A132  A(14,62,65)           109.943          estimate D2E/DX2                !
 ! A133  A(63,62,64)           108.6602         estimate D2E/DX2                !
 ! A134  A(63,62,65)           107.3692         estimate D2E/DX2                !
 ! A135  A(64,62,65)           107.9662         estimate D2E/DX2                !
 ! D1    D(6,1,2,3)             -0.7384         estimate D2E/DX2                !
 ! D2    D(6,1,2,32)           175.204          estimate D2E/DX2                !
 ! D3    D(33,1,2,3)          -177.1139         estimate D2E/DX2                !
 ! D4    D(33,1,2,32)           -1.1715         estimate D2E/DX2                !
 ! D5    D(2,1,6,5)             29.223          estimate D2E/DX2                !
 ! D6    D(2,1,6,34)           -94.7623         estimate D2E/DX2                !
 ! D7    D(2,1,6,35)           152.3713         estimate D2E/DX2                !
 ! D8    D(33,1,6,5)          -154.2756         estimate D2E/DX2                !
 ! D9    D(33,1,6,34)           81.7391         estimate D2E/DX2                !
 ! D10   D(33,1,6,35)          -31.1273         estimate D2E/DX2                !
 ! D11   D(1,2,3,4)            -13.034          estimate D2E/DX2                !
 ! D12   D(1,2,3,20)          -135.4911         estimate D2E/DX2                !
 ! D13   D(1,2,3,31)           107.4865         estimate D2E/DX2                !
 ! D14   D(32,2,3,4)           170.896          estimate D2E/DX2                !
 ! D15   D(32,2,3,20)           48.4389         estimate D2E/DX2                !
 ! D16   D(32,2,3,31)          -68.5835         estimate D2E/DX2                !
 ! D17   D(1,2,32,59)           -4.9009         estimate D2E/DX2                !
 ! D18   D(1,2,32,60)          115.1527         estimate D2E/DX2                !
 ! D19   D(1,2,32,61)         -124.4839         estimate D2E/DX2                !
 ! D20   D(3,2,32,59)          171.2098         estimate D2E/DX2                !
 ! D21   D(3,2,32,60)          -68.7366         estimate D2E/DX2                !
 ! D22   D(3,2,32,61)           51.6268         estimate D2E/DX2                !
 ! D23   D(2,3,4,5)             -2.5745         estimate D2E/DX2                !
 ! D24   D(2,3,4,7)           -129.4646         estimate D2E/DX2                !
 ! D25   D(2,3,4,24)           117.7231         estimate D2E/DX2                !
 ! D26   D(20,3,4,5)           123.7374         estimate D2E/DX2                !
 ! D27   D(20,3,4,7)            -3.1527         estimate D2E/DX2                !
 ! D28   D(20,3,4,24)         -115.965          estimate D2E/DX2                !
 ! D29   D(31,3,4,5)          -122.0171         estimate D2E/DX2                !
 ! D30   D(31,3,4,7)           111.0928         estimate D2E/DX2                !
 ! D31   D(31,3,4,24)           -1.7195         estimate D2E/DX2                !
 ! D32   D(2,3,20,17)          153.1957         estimate D2E/DX2                !
 ! D33   D(2,3,20,42)          -86.2156         estimate D2E/DX2                !
 ! D34   D(2,3,20,43)           32.4662         estimate D2E/DX2                !
 ! D35   D(4,3,20,17)           25.1563         estimate D2E/DX2                !
 ! D36   D(4,3,20,42)          145.7449         estimate D2E/DX2                !
 ! D37   D(4,3,20,43)          -95.5733         estimate D2E/DX2                !
 ! D38   D(31,3,20,17)         -90.0946         estimate D2E/DX2                !
 ! D39   D(31,3,20,42)          30.494          estimate D2E/DX2                !
 ! D40   D(31,3,20,43)         149.1758         estimate D2E/DX2                !
 ! D41   D(3,4,5,6)             29.1745         estimate D2E/DX2                !
 ! D42   D(3,4,5,10)           -96.7957         estimate D2E/DX2                !
 ! D43   D(3,4,5,22)           147.1383         estimate D2E/DX2                !
 ! D44   D(7,4,5,6)            152.1598         estimate D2E/DX2                !
 ! D45   D(7,4,5,10)            26.1896         estimate D2E/DX2                !
 ! D46   D(7,4,5,22)           -89.8764         estimate D2E/DX2                !
 ! D47   D(24,4,5,6)           -91.5363         estimate D2E/DX2                !
 ! D48   D(24,4,5,10)          142.4936         estimate D2E/DX2                !
 ! D49   D(24,4,5,22)           26.4276         estimate D2E/DX2                !
 ! D50   D(3,4,7,8)             89.2044         estimate D2E/DX2                !
 ! D51   D(3,4,7,17)           -20.4841         estimate D2E/DX2                !
 ! D52   D(3,4,7,21)          -145.2057         estimate D2E/DX2                !
 ! D53   D(5,4,7,8)            -41.0271         estimate D2E/DX2                !
 ! D54   D(5,4,7,17)          -150.7156         estimate D2E/DX2                !
 ! D55   D(5,4,7,21)            84.5629         estimate D2E/DX2                !
 ! D56   D(24,4,7,8)          -157.3691         estimate D2E/DX2                !
 ! D57   D(24,4,7,17)           92.9423         estimate D2E/DX2                !
 ! D58   D(24,4,7,21)          -31.7792         estimate D2E/DX2                !
 ! D59   D(3,4,24,23)         -133.9528         estimate D2E/DX2                !
 ! D60   D(5,4,24,23)           -6.3126         estimate D2E/DX2                !
 ! D61   D(7,4,24,23)          114.2558         estimate D2E/DX2                !
 ! D62   D(4,5,6,1)            -41.5433         estimate D2E/DX2                !
 ! D63   D(4,5,6,34)            79.9295         estimate D2E/DX2                !
 ! D64   D(4,5,6,35)          -163.3023         estimate D2E/DX2                !
 ! D65   D(10,5,6,1)            88.302          estimate D2E/DX2                !
 ! D66   D(10,5,6,34)         -150.2253         estimate D2E/DX2                !
 ! D67   D(10,5,6,35)          -33.457          estimate D2E/DX2                !
 ! D68   D(22,5,6,1)          -154.505          estimate D2E/DX2                !
 ! D69   D(22,5,6,34)          -33.0322         estimate D2E/DX2                !
 ! D70   D(22,5,6,35)           83.736          estimate D2E/DX2                !
 ! D71   D(4,5,10,9)             2.4201         estimate D2E/DX2                !
 ! D72   D(4,5,10,16)         -176.2878         estimate D2E/DX2                !
 ! D73   D(6,5,10,9)          -125.9083         estimate D2E/DX2                !
 ! D74   D(6,5,10,16)           55.3839         estimate D2E/DX2                !
 ! D75   D(22,5,10,9)          115.2143         estimate D2E/DX2                !
 ! D76   D(22,5,10,16)         -63.4936         estimate D2E/DX2                !
 ! D77   D(4,5,22,23)          -35.8306         estimate D2E/DX2                !
 ! D78   D(4,5,22,45)         -157.3849         estimate D2E/DX2                !
 ! D79   D(4,5,22,46)           82.9828         estimate D2E/DX2                !
 ! D80   D(6,5,22,23)           84.3058         estimate D2E/DX2                !
 ! D81   D(6,5,22,45)          -37.2485         estimate D2E/DX2                !
 ! D82   D(6,5,22,46)         -156.8808         estimate D2E/DX2                !
 ! D83   D(10,5,22,23)        -157.8924         estimate D2E/DX2                !
 ! D84   D(10,5,22,45)          80.5533         estimate D2E/DX2                !
 ! D85   D(10,5,22,46)         -39.079          estimate D2E/DX2                !
 ! D86   D(4,7,8,9)             28.004          estimate D2E/DX2                !
 ! D87   D(4,7,8,19)          -143.5051         estimate D2E/DX2                !
 ! D88   D(17,7,8,9)           142.4612         estimate D2E/DX2                !
 ! D89   D(17,7,8,19)          -29.0479         estimate D2E/DX2                !
 ! D90   D(21,7,8,9)           -99.2638         estimate D2E/DX2                !
 ! D91   D(21,7,8,19)           89.2271         estimate D2E/DX2                !
 ! D92   D(4,7,17,18)          155.022          estimate D2E/DX2                !
 ! D93   D(4,7,17,20)           35.6318         estimate D2E/DX2                !
 ! D94   D(4,7,17,30)          -83.5979         estimate D2E/DX2                !
 ! D95   D(8,7,17,18)           34.6689         estimate D2E/DX2                !
 ! D96   D(8,7,17,20)          -84.7212         estimate D2E/DX2                !
 ! D97   D(8,7,17,30)          156.0491         estimate D2E/DX2                !
 ! D98   D(21,7,17,18)         -80.6363         estimate D2E/DX2                !
 ! D99   D(21,7,17,20)         159.9735         estimate D2E/DX2                !
 ! D100  D(21,7,17,30)          40.7438         estimate D2E/DX2                !
 ! D101  D(4,7,21,44)           40.2634         estimate D2E/DX2                !
 ! D102  D(8,7,21,44)          169.2147         estimate D2E/DX2                !
 ! D103  D(17,7,21,44)         -81.4005         estimate D2E/DX2                !
 ! D104  D(7,8,9,10)             2.5815         estimate D2E/DX2                !
 ! D105  D(7,8,9,11)          -174.8578         estimate D2E/DX2                !
 ! D106  D(19,8,9,10)          173.2276         estimate D2E/DX2                !
 ! D107  D(19,8,9,11)           -4.2118         estimate D2E/DX2                !
 ! D108  D(7,8,19,18)            9.717          estimate D2E/DX2                !
 ! D109  D(9,8,19,18)         -161.8085         estimate D2E/DX2                !
 ! D110  D(8,9,10,5)           -18.3741         estimate D2E/DX2                !
 ! D111  D(8,9,10,16)          160.3543         estimate D2E/DX2                !
 ! D112  D(11,9,10,5)          158.9922         estimate D2E/DX2                !
 ! D113  D(11,9,10,16)         -22.2795         estimate D2E/DX2                !
 ! D114  D(8,9,11,12)           83.2912         estimate D2E/DX2                !
 ! D115  D(8,9,11,13)          -97.5699         estimate D2E/DX2                !
 ! D116  D(10,9,11,12)         -94.0795         estimate D2E/DX2                !
 ! D117  D(10,9,11,13)          85.0594         estimate D2E/DX2                !
 ! D118  D(9,11,13,14)        -105.7913         estimate D2E/DX2                !
 ! D119  D(9,11,13,15)          19.361          estimate D2E/DX2                !
 ! D120  D(9,11,13,36)         135.6248         estimate D2E/DX2                !
 ! D121  D(12,11,13,14)         73.3184         estimate D2E/DX2                !
 ! D122  D(12,11,13,15)       -161.5293         estimate D2E/DX2                !
 ! D123  D(12,11,13,36)        -45.2655         estimate D2E/DX2                !
 ! D124  D(11,13,14,37)         57.9393         estimate D2E/DX2                !
 ! D125  D(11,13,14,38)        174.834          estimate D2E/DX2                !
 ! D126  D(11,13,14,62)        -64.9956         estimate D2E/DX2                !
 ! D127  D(15,13,14,37)        -69.2739         estimate D2E/DX2                !
 ! D128  D(15,13,14,38)         47.6208         estimate D2E/DX2                !
 ! D129  D(15,13,14,62)        167.7912         estimate D2E/DX2                !
 ! D130  D(36,13,14,37)        174.5423         estimate D2E/DX2                !
 ! D131  D(36,13,14,38)        -68.5629         estimate D2E/DX2                !
 ! D132  D(36,13,14,62)         51.6074         estimate D2E/DX2                !
 ! D133  D(11,13,15,39)        174.0395         estimate D2E/DX2                !
 ! D134  D(11,13,15,40)         54.925          estimate D2E/DX2                !
 ! D135  D(11,13,15,41)        -66.0432         estimate D2E/DX2                !
 ! D136  D(14,13,15,39)        -59.6791         estimate D2E/DX2                !
 ! D137  D(14,13,15,40)       -178.7936         estimate D2E/DX2                !
 ! D138  D(14,13,15,41)         60.2382         estimate D2E/DX2                !
 ! D139  D(36,13,15,39)         58.1634         estimate D2E/DX2                !
 ! D140  D(36,13,15,40)        -60.9511         estimate D2E/DX2                !
 ! D141  D(36,13,15,41)        178.0807         estimate D2E/DX2                !
 ! D142  D(13,14,62,63)         68.3244         estimate D2E/DX2                !
 ! D143  D(13,14,62,64)        -53.1578         estimate D2E/DX2                !
 ! D144  D(13,14,62,65)       -172.6379         estimate D2E/DX2                !
 ! D145  D(37,14,62,63)        -55.565          estimate D2E/DX2                !
 ! D146  D(37,14,62,64)       -177.0472         estimate D2E/DX2                !
 ! D147  D(37,14,62,65)         63.4727         estimate D2E/DX2                !
 ! D148  D(38,14,62,63)       -170.7158         estimate D2E/DX2                !
 ! D149  D(38,14,62,64)         67.802          estimate D2E/DX2                !
 ! D150  D(38,14,62,65)        -51.6781         estimate D2E/DX2                !
 ! D151  D(7,17,18,19)         -31.575          estimate D2E/DX2                !
 ! D152  D(7,17,18,28)          86.214          estimate D2E/DX2                !
 ! D153  D(7,17,18,29)        -150.2692         estimate D2E/DX2                !
 ! D154  D(20,17,18,19)         78.2123         estimate D2E/DX2                !
 ! D155  D(20,17,18,28)       -163.9987         estimate D2E/DX2                !
 ! D156  D(20,17,18,29)        -40.4819         estimate D2E/DX2                !
 ! D157  D(30,17,18,19)       -153.6456         estimate D2E/DX2                !
 ! D158  D(30,17,18,28)        -35.8566         estimate D2E/DX2                !
 ! D159  D(30,17,18,29)         87.6603         estimate D2E/DX2                !
 ! D160  D(7,17,20,3)          -37.2289         estimate D2E/DX2                !
 ! D161  D(7,17,20,42)        -158.3031         estimate D2E/DX2                !
 ! D162  D(7,17,20,43)          82.3457         estimate D2E/DX2                !
 ! D163  D(18,17,20,3)        -147.439          estimate D2E/DX2                !
 ! D164  D(18,17,20,42)         91.4868         estimate D2E/DX2                !
 ! D165  D(18,17,20,43)        -27.8644         estimate D2E/DX2                !
 ! D166  D(30,17,20,3)          83.7103         estimate D2E/DX2                !
 ! D167  D(30,17,20,42)        -37.3639         estimate D2E/DX2                !
 ! D168  D(30,17,20,43)       -156.7151         estimate D2E/DX2                !
 ! D169  D(17,18,19,8)          13.9823         estimate D2E/DX2                !
 ! D170  D(28,18,19,8)        -106.9048         estimate D2E/DX2                !
 ! D171  D(29,18,19,8)         136.1013         estimate D2E/DX2                !
 ! D172  D(17,18,28,53)        -61.9395         estimate D2E/DX2                !
 ! D173  D(17,18,28,54)       -179.4313         estimate D2E/DX2                !
 ! D174  D(17,18,28,55)         60.2148         estimate D2E/DX2                !
 ! D175  D(19,18,28,53)         54.5354         estimate D2E/DX2                !
 ! D176  D(19,18,28,54)        -62.9564         estimate D2E/DX2                !
 ! D177  D(19,18,28,55)        176.6897         estimate D2E/DX2                !
 ! D178  D(29,18,28,53)        171.6114         estimate D2E/DX2                !
 ! D179  D(29,18,28,54)         54.1196         estimate D2E/DX2                !
 ! D180  D(29,18,28,55)        -66.2343         estimate D2E/DX2                !
 ! D181  D(17,18,29,56)        -57.3145         estimate D2E/DX2                !
 ! D182  D(17,18,29,57)       -177.8405         estimate D2E/DX2                !
 ! D183  D(17,18,29,58)         64.9847         estimate D2E/DX2                !
 ! D184  D(19,18,29,56)       -174.5293         estimate D2E/DX2                !
 ! D185  D(19,18,29,57)         64.9447         estimate D2E/DX2                !
 ! D186  D(19,18,29,58)        -52.2301         estimate D2E/DX2                !
 ! D187  D(28,18,29,56)         68.6144         estimate D2E/DX2                !
 ! D188  D(28,18,29,57)        -51.9116         estimate D2E/DX2                !
 ! D189  D(28,18,29,58)       -169.0864         estimate D2E/DX2                !
 ! D190  D(5,22,23,24)          33.285          estimate D2E/DX2                !
 ! D191  D(5,22,23,25)         155.0189         estimate D2E/DX2                !
 ! D192  D(5,22,23,47)         -81.157          estimate D2E/DX2                !
 ! D193  D(45,22,23,24)        155.8792         estimate D2E/DX2                !
 ! D194  D(45,22,23,25)        -82.3869         estimate D2E/DX2                !
 ! D195  D(45,22,23,47)         41.4372         estimate D2E/DX2                !
 ! D196  D(46,22,23,24)        -84.1492         estimate D2E/DX2                !
 ! D197  D(46,22,23,25)         37.5847         estimate D2E/DX2                !
 ! D198  D(46,22,23,47)        161.4088         estimate D2E/DX2                !
 ! D199  D(22,23,24,4)         -16.9057         estimate D2E/DX2                !
 ! D200  D(25,23,24,4)        -144.791          estimate D2E/DX2                !
 ! D201  D(47,23,24,4)          99.3862         estimate D2E/DX2                !
 ! D202  D(22,23,25,26)       -175.4604         estimate D2E/DX2                !
 ! D203  D(22,23,25,27)          6.2959         estimate D2E/DX2                !
 ! D204  D(24,23,25,26)        -55.311          estimate D2E/DX2                !
 ! D205  D(24,23,25,27)        126.4453         estimate D2E/DX2                !
 ! D206  D(47,23,25,26)         59.874          estimate D2E/DX2                !
 ! D207  D(47,23,25,27)       -118.3698         estimate D2E/DX2                !
 ! D208  D(23,25,26,48)        -55.2722         estimate D2E/DX2                !
 ! D209  D(23,25,26,49)         64.9296         estimate D2E/DX2                !
 ! D210  D(23,25,26,50)       -175.0357         estimate D2E/DX2                !
 ! D211  D(27,25,26,48)        123.0682         estimate D2E/DX2                !
 ! D212  D(27,25,26,49)       -116.73           estimate D2E/DX2                !
 ! D213  D(27,25,26,50)          3.3046         estimate D2E/DX2                !
 ! D214  D(23,25,27,51)         -0.3379         estimate D2E/DX2                !
 ! D215  D(23,25,27,52)        179.2676         estimate D2E/DX2                !
 ! D216  D(26,25,27,51)       -178.5024         estimate D2E/DX2                !
 ! D217  D(26,25,27,52)          1.1032         estimate D2E/DX2                !
 --------------------------------------------------------------------------------
 Trust Radius=3.00D-01 FncErr=1.00D-07 GrdErr=1.00D-06
 Number of steps in this run=    390 maximum allowed number of steps=    390.
 GradGradGradGradGradGradGradGradGradGradGradGradGradGradGradGradGradGrad

 Stoichiometry    C26H34O5
 Framework group  C1[X(C26H34O5)]
 Deg. of freedom   189
 Full point group                 C1      NOp   1
 Largest Abelian subgroup         C1      NOp   1
 Largest concise Abelian subgroup C1      NOp   1
                         Standard orientation:                         
 ---------------------------------------------------------------------
 Center     Atomic      Atomic             Coordinates (Angstroms)
 Number     Number       Type             X           Y           Z
 ---------------------------------------------------------------------
      1          6           0       -0.851050   -0.404856    3.283370
      2          6           0       -1.096311    0.867530    2.936232
      3          6           0       -1.550973    1.237158    1.543905
      4          6           0       -1.416525    0.125197    0.463974
      5          6           0       -0.787725   -1.217438    0.871197
      6          6           0       -1.013275   -1.565551    2.356533
      7          6           0       -0.678971    0.800152   -0.709132
      8          6           0        0.807032    0.723415   -0.654112
      9          6           0        1.469796   -0.266396   -0.047725
     10          6           0        0.708290   -1.378491    0.557152
     11          6           0        2.944767   -0.188782    0.049090
     12          8           0        3.436799    0.470636    0.968399
     13          6           0        3.820765   -0.932071   -0.964361
     14          6           0        4.472633   -2.183069   -0.352710
     15          6           0        3.084152   -1.307388   -2.253186
     16          8           0        1.285512   -2.443936    0.783673
     17          6           0       -0.853914    2.295062   -0.555420
     18          6           0        0.372913    2.857507   -1.305231
     19          8           0        1.426638    1.875400   -1.130387
     20          6           0       -0.816684    2.463952    0.972517
     21          8           0       -1.119208    0.319804   -1.968222
     22          6           0       -1.551428   -2.200622   -0.020352
     23          6           0       -2.951413   -1.603960   -0.072620
     24          8           0       -2.763854   -0.177749   -0.016036
     25          6           0       -3.827475   -1.928016   -1.261301
     26          6           0       -5.155396   -1.213908   -1.289532
     27          6           0       -3.516725   -2.804283   -2.232186
     28          6           0        0.122375    3.021989   -2.812706
     29          6           0        0.867330    4.198782   -0.752694
     30          1           0       -1.799578    2.666194   -0.966972
     31          1           0       -2.613054    1.511316    1.627799
     32          6           0       -1.013315    1.972941    3.955621
     33          1           0       -0.570045   -0.644269    4.307629
     34          1           0       -2.015271   -1.976907    2.528221
     35          1           0       -0.319462   -2.353192    2.676092
     36          1           0        4.608433   -0.222886   -1.253259
     37          1           0        3.708712   -2.866440    0.032965
     38          1           0        5.011021   -2.726854   -1.139127
     39          1           0        3.778865   -1.739664   -2.981699
     40          1           0        2.628637   -0.427621   -2.719547
     41          1           0        2.294148   -2.043626   -2.070685
     42          1           0       -1.300129    3.400238    1.273689
     43          1           0        0.211652    2.495784    1.352721
     44          1           0       -2.090485    0.224427   -1.893209
     45          1           0       -1.555350   -3.227878    0.361399
     46          1           0       -1.089024   -2.229147   -1.015041
     47          1           0       -3.501668   -1.885857    0.833698
     48          1           0       -5.706873   -1.401255   -0.362337
     49          1           0       -5.010260   -0.134380   -1.398217
     50          1           0       -5.786535   -1.546782   -2.120526
     51          1           0       -2.586401   -3.361321   -2.246197
     52          1           0       -4.199196   -2.999399   -3.054890
     53          1           0       -0.092501    2.071566   -3.308020
     54          1           0        1.017336    3.413176   -3.311177
     55          1           0       -0.706435    3.711001   -3.004994
     56          1           0        0.075454    4.954374   -0.771480
     57          1           0        1.713262    4.572158   -1.342093
     58          1           0        1.246605    4.108162    0.269870
     59          1           0       -0.826333    1.589295    4.964377
     60          1           0       -0.202772    2.666649    3.712858
     61          1           0       -1.954925    2.531014    3.986425
     62          6           0        5.466509   -1.877441    0.759771
     63          1           0        4.967338   -1.481075    1.648233
     64          1           0        6.219106   -1.154754    0.429205
     65          1           0        5.986341   -2.793757    1.058320
 ---------------------------------------------------------------------
 Rotational constants (GHZ):      0.1926432      0.1316381      0.1212991
 Standard basis: 6-31G(d) (6D, 7F)
 There are   533 symmetry adapted basis functions of A   symmetry.
 Integral buffers will be    131072 words long.
 Raffenetti 2 integral format.
 Two-electron integral symmetry is turned on.
   533 basis functions,  1004 primitive gaussians,   533 cartesian basis functions
   115 alpha electrons      115 beta electrons
       nuclear repulsion energy      3534.6533197511 Hartrees.
 NAtoms=   65 NActive=   65 NUniq=   65 SFac= 1.00D+00 NAtFMM=   50 NAOKFM=T Big=T
 One-electron integrals computed using PRISM.
 NBasis=   533 RedAO= T  NBF=   533
 NBsUse=   533 1.00D-06 NBFU=   533
 Harris functional with IExCor=  402 diagonalized for initial guess.
 ExpMin= 1.61D-01 ExpMax= 5.48D+03 ExpMxC= 8.25D+02 IAcc=1 IRadAn=         1 AccDes= 0.00D+00
 HarFok:  IExCor=  402 AccDes= 0.00D+00 IRadAn=         1 IDoV= 1
 ScaDFX=  1.000000  1.000000  1.000000  1.000000
 FoFCou: FMM=F IPFlag=           0 FMFlag=      100000 FMFlg1=        2001
         NFxFlg=           0 DoJE=T BraDBF=F KetDBF=T FulRan=T
         Omega=  0.000000  0.000000  1.000000  0.000000  0.000000 ICntrl=     500 IOpCl=  0
         NMat0=    1 NMatS0=    1 NMatT0=    0 NMatD0=    1 NMtDS0=    0 NMtDT0=    0
         I1Cent=           4 NGrid=           0.
 Petite list used in FoFCou.
 Initial guess orbital symmetries:
       Occupied  (A) (A) (A) (A) (A) (A) (A) (A) (A) (A) (A) (A)
                 (A) (A) (A) (A) (A) (A) (A) (A) (A) (A) (A) (A)
                 (A) (A) (A) (A) (A) (A) (A) (A) (A) (A) (A) (A)
                 (A) (A) (A) (A) (A) (A) (A) (A) (A) (A) (A) (A)
                 (A) (A) (A) (A) (A) (A) (A) (A) (A) (A) (A) (A)
                 (A) (A) (A) (A) (A) (A) (A) (A) (A) (A) (A) (A)
                 (A) (A) (A) (A) (A) (A) (A) (A) (A) (A) (A) (A)
                 (A) (A) (A) (A) (A) (A) (A) (A) (A) (A) (A) (A)
                 (A) (A) (A) (A) (A) (A) (A) (A) (A) (A) (A) (A)
                 (A) (A) (A) (A) (A) (A) (A)
       Virtual   (A) (A) (A) (A) (A) (A) (A) (A) (A) (A) (A) (A)
                 (A) (A) (A) (A) (A) (A) (A) (A) (A) (A) (A) (A)
                 (A) (A) (A) (A) (A) (A) (A) (A) (A) (A) (A) (A)
                 (A) (A) (A) (A) (A) (A) (A) (A) (A) (A) (A) (A)
                 (A) (A) (A) (A) (A) (A) (A) (A) (A) (A) (A) (A)
                 (A) (A) (A) (A) (A) (A) (A) (A) (A) (A) (A) (A)
                 (A) (A) (A) (A) (A) (A) (A) (A) (A) (A) (A) (A)
                 (A) (A) (A) (A) (A) (A) (A) (A) (A) (A) (A) (A)
                 (A) (A) (A) (A) (A) (A) (A) (A) (A) (A) (A) (A)
                 (A) (A) (A) (A) (A) (A) (A) (A) (A) (A) (A) (A)
                 (A) (A) (A) (A) (A) (A) (A) (A) (A) (A) (A) (A)
                 (A) (A) (A) (A) (A) (A) (A) (A) (A) (A) (A) (A)
                 (A) (A) (A) (A) (A) (A) (A) (A) (A) (A) (A) (A)
                 (A) (A) (A) (A) (A) (A) (A) (A) (A) (A) (A) (A)
                 (A) (A) (A) (A) (A) (A) (A) (A) (A) (A) (A) (A)
                 (A) (A) (A) (A) (A) (A) (A) (A) (A) (A) (A) (A)
                 (A) (A) (A) (A) (A) (A) (A) (A) (A) (A) (A) (A)
                 (A) (A) (A) (A) (A) (A) (A) (A) (A) (A) (A) (A)
                 (A) (A) (A) (A) (A) (A) (A) (A) (A) (A) (A) (A)
                 (A) (A) (A) (A) (A) (A) (A) (A) (A) (A) (A) (A)
                 (A) (A) (A) (A) (A) (A) (A) (A) (A) (A) (A) (A)
                 (A) (A) (A) (A) (A) (A) (A) (A) (A) (A) (A) (A)
                 (A) (A) (A) (A) (A) (A) (A) (A) (A) (A) (A) (A)
                 (A) (A) (A) (A) (A) (A) (A) (A) (A) (A) (A) (A)
                 (A) (A) (A) (A) (A) (A) (A) (A) (A) (A) (A) (A)
                 (A) (A) (A) (A) (A) (A) (A) (A) (A) (A) (A) (A)
                 (A) (A) (A) (A) (A) (A) (A) (A) (A) (A) (A) (A)
                 (A) (A) (A) (A) (A) (A) (A) (A) (A) (A) (A) (A)
                 (A) (A) (A) (A) (A) (A) (A) (A) (A) (A) (A) (A)
                 (A) (A) (A) (A) (A) (A) (A) (A) (A) (A) (A) (A)
                 (A) (A) (A) (A) (A) (A) (A) (A) (A) (A) (A) (A)
                 (A) (A) (A) (A) (A) (A) (A) (A) (A) (A) (A) (A)
                 (A) (A) (A) (A) (A) (A) (A) (A) (A) (A) (A) (A)
                 (A) (A) (A) (A) (A) (A) (A) (A) (A) (A) (A) (A)
                 (A) (A) (A) (A) (A) (A) (A) (A) (A) (A)
 The electronic state of the initial guess is 1-A.
 Requested convergence on RMS density matrix=1.00D-08 within 128 cycles.
 Requested convergence on MAX density matrix=1.00D-06.
 Requested convergence on             energy=1.00D-06.
 No special actions if energy rises.
 Integral accuracy reduced to 1.0D-05 until final iterations.
 Initial convergence to 1.0D-05 achieved.  Increase integral accuracy.
 SCF Done:  E(RB3LYP) =  -1387.30094226     A.U. after   16 cycles
             Convg  =    0.3837D-08             -V/T =  2.0091

 **********************************************************************

            Population analysis using the SCF density.

 **********************************************************************

 Orbital symmetries:
       Occupied  (A) (A) (A) (A) (A) (A) (A) (A) (A) (A) (A) (A)
                 (A) (A) (A) (A) (A) (A) (A) (A) (A) (A) (A) (A)
                 (A) (A) (A) (A) (A) (A) (A) (A) (A) (A) (A) (A)
                 (A) (A) (A) (A) (A) (A) (A) (A) (A) (A) (A) (A)
                 (A) (A) (A) (A) (A) (A) (A) (A) (A) (A) (A) (A)
                 (A) (A) (A) (A) (A) (A) (A) (A) (A) (A) (A) (A)
                 (A) (A) (A) (A) (A) (A) (A) (A) (A) (A) (A) (A)
                 (A) (A) (A) (A) (A) (A) (A) (A) (A) (A) (A) (A)
                 (A) (A) (A) (A) (A) (A) (A) (A) (A) (A) (A) (A)
                 (A) (A) (A) (A) (A) (A) (A)
       Virtual   (A) (A) (A) (A) (A) (A) (A) (A) (A) (A) (A) (A)
                 (A) (A) (A) (A) (A) (A) (A) (A) (A) (A) (A) (A)
                 (A) (A) (A) (A) (A) (A) (A) (A) (A) (A) (A) (A)
                 (A) (A) (A) (A) (A) (A) (A) (A) (A) (A) (A) (A)
                 (A) (A) (A) (A) (A) (A) (A) (A) (A) (A) (A) (A)
                 (A) (A) (A) (A) (A) (A) (A) (A) (A) (A) (A) (A)
                 (A) (A) (A) (A) (A) (A) (A) (A) (A) (A) (A) (A)
                 (A) (A) (A) (A) (A) (A) (A) (A) (A) (A) (A) (A)
                 (A) (A) (A) (A) (A) (A) (A) (A) (A) (A) (A) (A)
                 (A) (A) (A) (A) (A) (A) (A) (A) (A) (A) (A) (A)
                 (A) (A) (A) (A) (A) (A) (A) (A) (A) (A) (A) (A)
                 (A) (A) (A) (A) (A) (A) (A) (A) (A) (A) (A) (A)
                 (A) (A) (A) (A) (A) (A) (A) (A) (A) (A) (A) (A)
                 (A) (A) (A) (A) (A) (A) (A) (A) (A) (A) (A) (A)
                 (A) (A) (A) (A) (A) (A) (A) (A) (A) (A) (A) (A)
                 (A) (A) (A) (A) (A) (A) (A) (A) (A) (A) (A) (A)
                 (A) (A) (A) (A) (A) (A) (A) (A) (A) (A) (A) (A)
                 (A) (A) (A) (A) (A) (A) (A) (A) (A) (A) (A) (A)
                 (A) (A) (A) (A) (A) (A) (A) (A) (A) (A) (A) (A)
                 (A) (A) (A) (A) (A) (A) (A) (A) (A) (A) (A) (A)
                 (A) (A) (A) (A) (A) (A) (A) (A) (A) (A) (A) (A)
                 (A) (A) (A) (A) (A) (A) (A) (A) (A) (A) (A) (A)
                 (A) (A) (A) (A) (A) (A) (A) (A) (A) (A) (A) (A)
                 (A) (A) (A) (A) (A) (A) (A) (A) (A) (A) (A) (A)
                 (A) (A) (A) (A) (A) (A) (A) (A) (A) (A) (A) (A)
                 (A) (A) (A) (A) (A) (A) (A) (A) (A) (A) (A) (A)
                 (A) (A) (A) (A) (A) (A) (A) (A) (A) (A) (A) (A)
                 (A) (A) (A) (A) (A) (A) (A) (A) (A) (A) (A) (A)
                 (A) (A) (A) (A) (A) (A) (A) (A) (A) (A) (A) (A)
                 (A) (A) (A) (A) (A) (A) (A) (A) (A) (A) (A) (A)
                 (A) (A) (A) (A) (A) (A) (A) (A) (A) (A) (A) (A)
                 (A) (A) (A) (A) (A) (A) (A) (A) (A) (A) (A) (A)
                 (A) (A) (A) (A) (A) (A) (A) (A) (A) (A) (A) (A)
                 (A) (A) (A) (A) (A) (A) (A) (A) (A) (A) (A) (A)
                 (A) (A) (A) (A) (A) (A) (A) (A) (A) (A)
 The electronic state is 1-A.
 Alpha  occ. eigenvalues --  -19.19406 -19.16749 -19.15298 -19.13641 -19.13204
 Alpha  occ. eigenvalues --  -10.28093 -10.27034 -10.26756 -10.25952 -10.25894
 Alpha  occ. eigenvalues --  -10.25413 -10.25034 -10.21669 -10.20659 -10.20180
 Alpha  occ. eigenvalues --  -10.20017 -10.19511 -10.19497 -10.19331 -10.19217
 Alpha  occ. eigenvalues --  -10.19132 -10.18772 -10.18693 -10.18457 -10.18411
 Alpha  occ. eigenvalues --  -10.18270 -10.17971 -10.17589 -10.16883 -10.16651
 Alpha  occ. eigenvalues --  -10.15264  -1.08307  -1.05964  -1.03475  -1.02270
 Alpha  occ. eigenvalues --   -1.02163  -0.87357  -0.83928  -0.82609  -0.81680
 Alpha  occ. eigenvalues --   -0.80388  -0.79673  -0.76841  -0.74399  -0.73626
 Alpha  occ. eigenvalues --   -0.72218  -0.71328  -0.69406  -0.69191  -0.67841
 Alpha  occ. eigenvalues --   -0.64893  -0.64232  -0.63308  -0.61849  -0.60799
 Alpha  occ. eigenvalues --   -0.59402  -0.58866  -0.57405  -0.55567  -0.53918
 Alpha  occ. eigenvalues --   -0.53191  -0.52213  -0.50913  -0.50489  -0.49137
 Alpha  occ. eigenvalues --   -0.48070  -0.47543  -0.46603  -0.45909  -0.45499
 Alpha  occ. eigenvalues --   -0.45020  -0.44635  -0.44225  -0.43822  -0.43089
 Alpha  occ. eigenvalues --   -0.42829  -0.42435  -0.41947  -0.41733  -0.41515
 Alpha  occ. eigenvalues --   -0.40943  -0.40603  -0.40284  -0.40171  -0.39655
 Alpha  occ. eigenvalues --   -0.39069  -0.38673  -0.38359  -0.38138  -0.37984
 Alpha  occ. eigenvalues --   -0.37225  -0.37041  -0.36937  -0.36780  -0.36679
 Alpha  occ. eigenvalues --   -0.36398  -0.35705  -0.34717  -0.34529  -0.34045
 Alpha  occ. eigenvalues --   -0.33570  -0.33224  -0.32984  -0.32507  -0.32049
 Alpha  occ. eigenvalues --   -0.31561  -0.31287  -0.30779  -0.27862  -0.26553
 Alpha  occ. eigenvalues --   -0.26075  -0.25328  -0.24550  -0.23350  -0.23080
 Alpha virt. eigenvalues --   -0.05153  -0.01893   0.00378   0.02296   0.03651
 Alpha virt. eigenvalues --    0.07094   0.08557   0.08961   0.09283   0.10321
 Alpha virt. eigenvalues --    0.10762   0.11102   0.11477   0.11866   0.12535
 Alpha virt. eigenvalues --    0.13001   0.13283   0.13520   0.13806   0.13930
 Alpha virt. eigenvalues --    0.14402   0.14808   0.14991   0.15272   0.15672
 Alpha virt. eigenvalues --    0.15737   0.16463   0.16969   0.17449   0.17825
 Alpha virt. eigenvalues --    0.18006   0.18230   0.18620   0.18965   0.19140
 Alpha virt. eigenvalues --    0.19559   0.19862   0.20076   0.20202   0.20782
 Alpha virt. eigenvalues --    0.20858   0.21048   0.21558   0.21774   0.22230
 Alpha virt. eigenvalues --    0.23044   0.23262   0.23907   0.24643   0.24703
 Alpha virt. eigenvalues --    0.25068   0.25459   0.25940   0.26651   0.27066
 Alpha virt. eigenvalues --    0.27584   0.27890   0.28194   0.29033   0.30040
 Alpha virt. eigenvalues --    0.30812   0.32238   0.32456   0.33323   0.34452
 Alpha virt. eigenvalues --    0.34886   0.35746   0.37720   0.39068   0.40245
 Alpha virt. eigenvalues --    0.42173   0.45454   0.45723   0.47960   0.48334
 Alpha virt. eigenvalues --    0.50166   0.50284   0.50897   0.51784   0.51982
 Alpha virt. eigenvalues --    0.52124   0.52732   0.52880   0.53495   0.54131
 Alpha virt. eigenvalues --    0.54374   0.54874   0.55346   0.55922   0.56611
 Alpha virt. eigenvalues --    0.57547   0.57614   0.57846   0.58711   0.59094
 Alpha virt. eigenvalues --    0.59165   0.60291   0.60726   0.61768   0.62262
 Alpha virt. eigenvalues --    0.62528   0.62905   0.63184   0.64075   0.64595
 Alpha virt. eigenvalues --    0.65533   0.65838   0.66515   0.66771   0.67229
 Alpha virt. eigenvalues --    0.67346   0.68550   0.68874   0.69188   0.69615
 Alpha virt. eigenvalues --    0.70032   0.71860   0.72066   0.72860   0.73500
 Alpha virt. eigenvalues --    0.74381   0.74849   0.75218   0.75765   0.76133
 Alpha virt. eigenvalues --    0.76760   0.77580   0.78120   0.79117   0.80090
 Alpha virt. eigenvalues --    0.80703   0.81151   0.81549   0.81700   0.82121
 Alpha virt. eigenvalues --    0.82739   0.83434   0.83824   0.83911   0.84832
 Alpha virt. eigenvalues --    0.85594   0.85785   0.85911   0.86983   0.87169
 Alpha virt. eigenvalues --    0.87828   0.88074   0.88483   0.88997   0.89370
 Alpha virt. eigenvalues --    0.89700   0.90225   0.90586   0.90823   0.91021
 Alpha virt. eigenvalues --    0.91093   0.91768   0.92084   0.92167   0.92505
 Alpha virt. eigenvalues --    0.93100   0.93659   0.93905   0.94435   0.94620
 Alpha virt. eigenvalues --    0.94946   0.95366   0.95708   0.96379   0.96631
 Alpha virt. eigenvalues --    0.97040   0.98113   0.98409   0.98769   0.99950
 Alpha virt. eigenvalues --    1.00383   1.01709   1.02183   1.02958   1.03741
 Alpha virt. eigenvalues --    1.04748   1.05154   1.05637   1.06426   1.07516
 Alpha virt. eigenvalues --    1.09124   1.09838   1.10797   1.11130   1.11624
 Alpha virt. eigenvalues --    1.12376   1.13487   1.14298   1.15323   1.16584
 Alpha virt. eigenvalues --    1.17864   1.18025   1.18888   1.19159   1.21210
 Alpha virt. eigenvalues --    1.23449   1.24123   1.24754   1.24940   1.26180
 Alpha virt. eigenvalues --    1.26832   1.29291   1.31009   1.31603   1.33523
 Alpha virt. eigenvalues --    1.36212   1.36751   1.37066   1.39082   1.40077
 Alpha virt. eigenvalues --    1.41100   1.41772   1.43301   1.44177   1.46670
 Alpha virt. eigenvalues --    1.47667   1.48804   1.50449   1.52878   1.53319
 Alpha virt. eigenvalues --    1.54123   1.54655   1.56436   1.56826   1.58282
 Alpha virt. eigenvalues --    1.61203   1.61918   1.62301   1.62794   1.63293
 Alpha virt. eigenvalues --    1.64558   1.65824   1.66757   1.67623   1.68772
 Alpha virt. eigenvalues --    1.71202   1.71533   1.73290   1.73674   1.74503
 Alpha virt. eigenvalues --    1.75747   1.76841   1.76927   1.78155   1.78580
 Alpha virt. eigenvalues --    1.79522   1.80170   1.81126   1.82242   1.82691
 Alpha virt. eigenvalues --    1.83367   1.83649   1.84322   1.85354   1.85909
 Alpha virt. eigenvalues --    1.86343   1.87059   1.87783   1.88475   1.88764
 Alpha virt. eigenvalues --    1.89599   1.89851   1.90306   1.91168   1.91513
 Alpha virt. eigenvalues --    1.91738   1.92620   1.93554   1.94094   1.95149
 Alpha virt. eigenvalues --    1.95869   1.96129   1.97083   1.98112   1.98434
 Alpha virt. eigenvalues --    1.99435   2.00479   2.00741   2.01980   2.02397
 Alpha virt. eigenvalues --    2.02950   2.03350   2.04232   2.05500   2.06014
 Alpha virt. eigenvalues --    2.06395   2.07230   2.07352   2.08528   2.09349
 Alpha virt. eigenvalues --    2.10077   2.10710   2.12288   2.13147   2.13747
 Alpha virt. eigenvalues --    2.13993   2.15848   2.16711   2.16838   2.18774
 Alpha virt. eigenvalues --    2.20054   2.20279   2.21269   2.22388   2.23229
 Alpha virt. eigenvalues --    2.23588   2.24415   2.25589   2.26352   2.27909
 Alpha virt. eigenvalues --    2.28903   2.29112   2.30360   2.31173   2.31754
 Alpha virt. eigenvalues --    2.32410   2.33899   2.34347   2.34727   2.35407
 Alpha virt. eigenvalues --    2.36067   2.37158   2.37525   2.37785   2.39014
 Alpha virt. eigenvalues --    2.39660   2.40975   2.42195   2.42933   2.43350
 Alpha virt. eigenvalues --    2.44790   2.45311   2.46539   2.48231   2.48479
 Alpha virt. eigenvalues --    2.50030   2.50780   2.51395   2.52950   2.55155
 Alpha virt. eigenvalues --    2.56828   2.57734   2.58193   2.59610   2.60717
 Alpha virt. eigenvalues --    2.61510   2.62305   2.62912   2.65140   2.66142
 Alpha virt. eigenvalues --    2.67284   2.68474   2.68732   2.70470   2.71254
 Alpha virt. eigenvalues --    2.71602   2.72040   2.74205   2.77111   2.78914
 Alpha virt. eigenvalues --    2.80046   2.81669   2.82766   2.83770   2.86086
 Alpha virt. eigenvalues --    2.87044   2.89406   2.92898   2.94828   2.95647
 Alpha virt. eigenvalues --    2.96523   3.00199   3.00985   3.01954   3.04414
 Alpha virt. eigenvalues --    3.06731   3.07185   3.12796   3.18871   3.20735
 Alpha virt. eigenvalues --    3.21997   3.29668   4.00797   4.08487   4.11098
 Alpha virt. eigenvalues --    4.11917   4.14135   4.16648   4.18674   4.20011
 Alpha virt. eigenvalues --    4.22628   4.24810   4.27293   4.29544   4.31527
 Alpha virt. eigenvalues --    4.33665   4.35771   4.38107   4.38962   4.41278
 Alpha virt. eigenvalues --    4.46512   4.50464   4.53983   4.56023   4.60948
 Alpha virt. eigenvalues --    4.63702   4.65273   4.71849   4.75224   4.82340
 Alpha virt. eigenvalues --    4.91173   5.03918   5.19206
          Condensed to atoms (all electrons):
 Mulliken atomic charges:
              1
     1  C   -0.192212
     2  C    0.192004
     3  C   -0.186482
     4  C    0.322184
     5  C   -0.045893
     6  C   -0.331993
     7  C    0.212186
     8  C    0.402470
     9  C   -0.087952
    10  C    0.428261
    11  C    0.414356
    12  O   -0.449105
    13  C   -0.143914
    14  C   -0.263500
    15  C   -0.471115
    16  O   -0.507334
    17  C   -0.162468
    18  C    0.312682
    19  O   -0.538481
    20  C   -0.321799
    21  O   -0.661023
    22  C   -0.325649
    23  C    0.105403
    24  O   -0.584854
    25  C    0.178259
    26  C   -0.504678
    27  C   -0.391794
    28  C   -0.462663
    29  C   -0.462427
    30  H    0.142473
    31  H    0.163157
    32  C   -0.517705
    33  H    0.123663
    34  H    0.151990
    35  H    0.178686
    36  H    0.152527
    37  H    0.171365
    38  H    0.130080
    39  H    0.143822
    40  H    0.152272
    41  H    0.156661
    42  H    0.147272
    43  H    0.175035
    44  H    0.410666
    45  H    0.167698
    46  H    0.171603
    47  H    0.136504
    48  H    0.154638
    49  H    0.165914
    50  H    0.153641
    51  H    0.149078
    52  H    0.142724
    53  H    0.184087
    54  H    0.148906
    55  H    0.138770
    56  H    0.148242
    57  H    0.158039
    58  H    0.163857
    59  H    0.158142
    60  H    0.162789
    61  H    0.148105
    62  C   -0.442588
    63  H    0.166723
    64  H    0.137431
    65  H    0.131264
 Sum of Mulliken atomic charges =   0.00000
 Mulliken charges with hydrogens summed into heavy atoms:
              1
     1  C   -0.068549
     2  C    0.192004
     3  C   -0.023325
     4  C    0.322184
     5  C   -0.045893
     6  C   -0.001318
     7  C    0.212186
     8  C    0.402470
     9  C   -0.087952
    10  C    0.428261
    11  C    0.414356
    12  O   -0.449105
    13  C    0.008614
    14  C    0.037944
    15  C   -0.018359
    16  O   -0.507334
    17  C   -0.019995
    18  C    0.312682
    19  O   -0.538481
    20  C    0.000508
    21  O   -0.250358
    22  C    0.013652
    23  C    0.241907
    24  O   -0.584854
    25  C    0.178259
    26  C   -0.030485
    27  C   -0.099992
    28  C    0.009099
    29  C    0.007711
    32  C   -0.048669
    62  C   -0.007170
 Sum of Mulliken charges with hydrogens summed into heavy atoms =   0.00000
 Electronic spatial extent (au):  <R**2>=          11228.7004
 Charge=              0.0000 electrons
 Dipole moment (field-independent basis, Debye):
    X=             -4.8381    Y=              1.7268    Z=             -0.8428  Tot=              5.2057
 Quadrupole moment (field-independent basis, Debye-Ang):
   XX=           -186.7593   YY=           -177.6185   ZZ=           -182.1980
   XY=              0.0865   XZ=             -6.2849   YZ=              0.5037
 Traceless Quadrupole moment (field-independent basis, Debye-Ang):
   XX=             -4.5674   YY=              4.5734   ZZ=             -0.0061
   XY=              0.0865   XZ=             -6.2849   YZ=              0.5037
 Octapole moment (field-independent basis, Debye-Ang**2):
  XXX=            -46.5008  YYY=             47.4045  ZZZ=             11.5607  XYY=            -18.1167
  XXY=            -19.2572  XXZ=            -46.4817  XZZ=            -11.6343  YZZ=             -1.4023
  YYZ=            -14.3980  XYZ=             -1.6916
 Hexadecapole moment (field-independent basis, Debye-Ang**3):
 XXXX=          -7457.2444 YYYY=          -4209.4213 ZZZZ=          -3310.5525 XXXY=            -11.0530
 XXXZ=            -33.8443 YYYX=             14.2672 YYYZ=            -20.8750 ZZZX=             31.2267
 ZZZY=            -13.9528 XXYY=          -1940.6208 XXZZ=          -1778.9536 YYZZ=          -1230.0173
 XXYZ=             13.5186 YYXZ=             -4.0680 ZZXY=             20.3978
 N-N= 3.534653319751D+03 E-N=-1.029576918635D+04  KE= 1.374774907442D+03
 Calling FoFJK, ICntrl=      2127 FMM=T ISym2X=0 I1Cent= 0 IOpClX= 0 NMat=1 NMatS=1 NMatT=0.
 ***** Axes restored to original set *****
 -------------------------------------------------------------------
 Center     Atomic                   Forces (Hartrees/Bohr)
 Number     Number              X              Y              Z
 -------------------------------------------------------------------
      1        6           0.009589752   -0.000538232    0.000261928
      2        6          -0.012526102   -0.005185964    0.001878554
      3        6          -0.001126198   -0.008004110   -0.000568191
      4        6           0.003697922   -0.004053202    0.010451575
      5        6          -0.011431580   -0.002455656    0.000952091
      6        6          -0.004256678   -0.010827194   -0.000757878
      7        6           0.010813178    0.019630891    0.008848727
      8        6           0.010460386   -0.012635308   -0.014594887
      9        6           0.000557815    0.006157300    0.012884698
     10        6          -0.005430930    0.002450714   -0.020246459
     11        6          -0.007876750   -0.027378474   -0.021184900
     12        8          -0.004088814    0.021413400    0.003012125
     13        6           0.003823038    0.009744639   -0.000282586
     14        6          -0.006037883   -0.007724166   -0.003124507
     15        6           0.003651380    0.003814423    0.003964824
     16        8           0.006290488   -0.003938568    0.009933341
     17        6           0.007906494   -0.011154603   -0.005696486
     18        6           0.032228627    0.007637575   -0.000094312
     19        8          -0.028509834    0.002314442    0.026026787
     20        6           0.011280333   -0.004863178   -0.000066428
     21        8          -0.005522076    0.006961409   -0.002190610
     22        6          -0.007316172    0.013776330    0.001427289
     23        6          -0.005013312    0.008038988    0.000914853
     24        8           0.001620186   -0.006404943   -0.009599516
     25        6          -0.003112319    0.014944774    0.001336669
     26        6           0.001264888    0.001735058    0.000240807
     27        6           0.001136779   -0.010126915   -0.001401575
     28        6          -0.002818523    0.007841745   -0.004840870
     29        6          -0.003700723   -0.006341324   -0.009056824
     30        1          -0.001682534    0.001130971   -0.001669417
     31        1          -0.003259764    0.006052343    0.000002146
     32        6          -0.001051782    0.000835198   -0.001058036
     33        1           0.001453064   -0.000849459   -0.000076344
     34        1          -0.000569493    0.005723651    0.001795350
     35        1           0.000444409    0.007305939   -0.001462996
     36        1          -0.001602203   -0.005429868   -0.000973981
     37        1           0.002405817    0.002292724    0.002122180
     38        1           0.003150856    0.003748824    0.000942315
     39        1          -0.000690011   -0.001207088   -0.000658807
     40        1           0.000273148    0.001120591    0.000836848
     41        1          -0.000158071   -0.000031425    0.000349925
     42        1          -0.001274930   -0.001877620   -0.001408459
     43        1           0.000057752    0.002887909   -0.000189133
     44        1          -0.001933858   -0.003569469   -0.002616636
     45        1           0.001461443   -0.002932410   -0.001280238
     46        1           0.001992923    0.000314285    0.003553444
     47        1          -0.001952200   -0.001282487    0.002994796
     48        1           0.002566908   -0.002690562    0.001675542
     49        1           0.001044134   -0.003320961    0.002321177
     50        1          -0.001349012   -0.000118911   -0.001665318
     51        1          -0.000234702   -0.000385841   -0.001414702
     52        1          -0.000032189   -0.000624546    0.001014447
     53        1          -0.001367428   -0.002761323    0.005493578
     54        1           0.002034702   -0.003849855    0.000334350
     55        1           0.000506608   -0.000878597    0.000173573
     56        1          -0.000724260    0.001295450    0.000729872
     57        1           0.000537258    0.002768581    0.001511891
     58        1          -0.000302381    0.000102297    0.003611354
     59        1          -0.001122864    0.001769655   -0.000604145
     60        1           0.004157911   -0.001572698    0.000296631
     61        1           0.004074693   -0.001147891    0.000148805
     62        6          -0.004171983   -0.004854246   -0.000123902
     63        1           0.002226002   -0.000611179   -0.001508026
     64        1           0.000755880   -0.001639263   -0.000641243
     65        1          -0.001217215   -0.000542571   -0.000985078
 -------------------------------------------------------------------
 Cartesian Forces:  Max     0.032228627 RMS     0.006890622

 GradGradGradGradGradGradGradGradGradGradGradGradGradGradGradGradGradGrad
 Berny optimization.
 Internal  Forces:  Max     0.021876457 RMS     0.003487318
 Search for a local minimum.
 Step number   1 out of a maximum of  390
 All quantities printed in internal units (Hartrees-Bohrs-Radians)
 Mixed Optimization -- RFO/linear search
 Second derivative matrix not updated -- first step.
 ITU=  0
     Eigenvalues ---    0.00269   0.00277   0.00335   0.00343   0.00353
     Eigenvalues ---    0.00431   0.00465   0.00560   0.00607   0.00610
     Eigenvalues ---    0.00615   0.00660   0.00683   0.00687   0.00731
     Eigenvalues ---    0.01028   0.01083   0.01244   0.01249   0.01419
     Eigenvalues ---    0.01458   0.01623   0.01713   0.01818   0.01925
     Eigenvalues ---    0.02506   0.02826   0.02826   0.03030   0.03115
     Eigenvalues ---    0.03421   0.03565   0.03597   0.03746   0.04033
     Eigenvalues ---    0.04108   0.04315   0.04401   0.04585   0.04641
     Eigenvalues ---    0.04810   0.04916   0.04926   0.05096   0.05248
     Eigenvalues ---    0.05307   0.05381   0.05399   0.05419   0.05494
     Eigenvalues ---    0.05498   0.05503   0.05550   0.05558   0.05602
     Eigenvalues ---    0.05618   0.05713   0.05923   0.06273   0.06639
     Eigenvalues ---    0.06692   0.06862   0.07090   0.07110   0.07156
     Eigenvalues ---    0.07247   0.07250   0.07364   0.07664   0.08380
     Eigenvalues ---    0.08535   0.08821   0.09022   0.09177   0.09808
     Eigenvalues ---    0.10096   0.10645   0.10897   0.11632   0.12348
     Eigenvalues ---    0.13180   0.14699   0.15198   0.15972   0.16000
     Eigenvalues ---    0.16000   0.16000   0.16000   0.16000   0.16000
     Eigenvalues ---    0.16000   0.16000   0.16000   0.16000   0.16000
     Eigenvalues ---    0.16000   0.16000   0.16000   0.16000   0.16000
     Eigenvalues ---    0.16000   0.16000   0.16000   0.16000   0.16000
     Eigenvalues ---    0.16438   0.16916   0.17261   0.18325   0.18660
     Eigenvalues ---    0.19721   0.21564   0.21936   0.22719   0.23550
     Eigenvalues ---    0.24515   0.24932   0.24973   0.24987   0.24993
     Eigenvalues ---    0.24993   0.24998   0.25000   0.25889   0.27260
     Eigenvalues ---    0.27403   0.27703   0.27815   0.28104   0.28275
     Eigenvalues ---    0.28655   0.28738   0.28788   0.29188   0.29242
     Eigenvalues ---    0.29314   0.30102   0.30438   0.30594   0.31173
     Eigenvalues ---    0.31550   0.31758   0.31815   0.33456   0.33671
     Eigenvalues ---    0.33842   0.33984   0.33985   0.33992   0.34003
     Eigenvalues ---    0.34035   0.34053   0.34065   0.34068   0.34119
     Eigenvalues ---    0.34137   0.34139   0.34180   0.34205   0.34207
     Eigenvalues ---    0.34219   0.34226   0.34241   0.34243   0.34244
     Eigenvalues ---    0.34247   0.34261   0.34277   0.34281   0.34297
     Eigenvalues ---    0.34310   0.34338   0.34416   0.34460   0.34549
     Eigenvalues ---    0.34957   0.35210   0.35282   0.35464   0.36376
     Eigenvalues ---    0.37307   0.42810   0.43583   0.51613   0.53324
     Eigenvalues ---    0.54517   0.56261   0.89555   0.89951
 RFO step:  Lambda=-2.21732786D-02 EMin= 2.69306236D-03
 Linear search not attempted -- first point.
 Iteration  1 RMS(Cart)=  0.04823728 RMS(Int)=  0.00074008
 Iteration  2 RMS(Cart)=  0.00114381 RMS(Int)=  0.00026786
 Iteration  3 RMS(Cart)=  0.00000067 RMS(Int)=  0.00026786
 Variable       Old X    -DE/DX   Delta X   Delta X   Delta X     New X
                                 (Linear)    (Quad)   (Total)
    R1        2.53507  -0.00270   0.00000  -0.00569  -0.00569   2.52937
    R2        2.82358   0.00856   0.00000   0.02500   0.02495   2.84853
    R3        2.05745   0.00001   0.00000   0.00002   0.00002   2.05747
    R4        2.85462   0.00366   0.00000   0.00803   0.00808   2.86270
    R5        2.84589   0.00312   0.00000   0.00918   0.00918   2.85507
    R6        2.94020   0.00495   0.00000   0.01210   0.01200   2.95220
    R7        2.90962   0.01103   0.00000   0.03773   0.03772   2.94734
    R8        2.07888  -0.00075   0.00000  -0.00209  -0.00209   2.07680
    R9        2.90544   0.00875   0.00000   0.02890   0.02872   2.93417
   R10        2.91271   0.00680   0.00000   0.02341   0.02353   2.93624
   R11        2.76280  -0.00453   0.00000  -0.01058  -0.01060   2.75220
   R12        2.91427  -0.00006   0.00000   0.00258   0.00250   2.91678
   R13        2.90467   0.00605   0.00000   0.01316   0.01314   2.91780
   R14        2.89366   0.01258   0.00000   0.04065   0.04066   2.93432
   R15        2.07241   0.00292   0.00000   0.00804   0.00804   2.08045
   R16        2.07343  -0.00125   0.00000  -0.00345  -0.00345   2.06998
   R17        2.81380   0.00879   0.00000   0.01907   0.01865   2.83246
   R18        2.85904   0.01551   0.00000   0.05545   0.05495   2.91400
   R19        2.67905   0.00325   0.00000   0.00722   0.00722   2.68627
   R20        2.52594   0.01147   0.00000   0.01984   0.01984   2.54578
   R21        2.63060  -0.02053   0.00000  -0.04855  -0.04836   2.58224
   R22        2.79176  -0.00180   0.00000  -0.00918  -0.00900   2.78276
   R23        2.79714   0.02084   0.00000   0.05668   0.05668   2.85381
   R24        2.32956  -0.00890   0.00000  -0.00966  -0.00966   2.31990
   R25        2.33139  -0.02188   0.00000  -0.02384  -0.02384   2.30755
   R26        2.89500  -0.00170   0.00000  -0.00540  -0.00540   2.88960
   R27        2.90554   0.00553   0.00000   0.01787   0.01787   2.92340
   R28        2.89352   0.00491   0.00000   0.01557   0.01557   2.90909
   R29        2.07597   0.00059   0.00000   0.00164   0.00164   2.07761
   R30        2.06950   0.00049   0.00000   0.00135   0.00135   2.07085
   R31        2.07355   0.00083   0.00000   0.00230   0.00230   2.07585
   R32        2.87761   0.00852   0.00000   0.02638   0.02638   2.90398
   R33        2.07028   0.00001   0.00000   0.00004   0.00004   2.07032
   R34        2.06921   0.00070   0.00000   0.00193   0.00193   2.07114
   R35        2.06963   0.00036   0.00000   0.00099   0.00099   2.07062
   R36        2.91757  -0.00081   0.00000   0.00973   0.01000   2.92757
   R37        2.90582   0.00411   0.00000   0.01418   0.01425   2.92007
   R38        2.07129  -0.00159   0.00000  -0.00438  -0.00438   2.06692
[...]
     57          1           0        1.906200    4.525869   -1.121087
     58          1           0        1.179194    4.129395    0.443214
     59          1           0       -1.338421    1.615731    4.917955
     60          1           0       -0.715507    2.757198    3.716995
     61          1           0       -2.453335    2.508427    3.865654
     62          6           0        4.668768   -2.769722    0.773625
     63          1           0        4.043102   -2.461599    1.615417
     64          1           0        5.668268   -2.340196    0.913855
     65          1           0        4.763731   -3.861155    0.809098
 ---------------------------------------------------------------------
 Rotational constants (GHZ):      0.1842716      0.1359631      0.1239850

 **********************************************************************

            Population analysis using the SCF density.

 **********************************************************************

 Orbital symmetries:
       Occupied  (A) (A) (A) (A) (A) (A) (A) (A) (A) (A) (A) (A)
                 (A) (A) (A) (A) (A) (A) (A) (A) (A) (A) (A) (A)
                 (A) (A) (A) (A) (A) (A) (A) (A) (A) (A) (A) (A)
                 (A) (A) (A) (A) (A) (A) (A) (A) (A) (A) (A) (A)
                 (A) (A) (A) (A) (A) (A) (A) (A) (A) (A) (A) (A)
                 (A) (A) (A) (A) (A) (A) (A) (A) (A) (A) (A) (A)
                 (A) (A) (A) (A) (A) (A) (A) (A) (A) (A) (A) (A)
                 (A) (A) (A) (A) (A) (A) (A) (A) (A) (A) (A) (A)
                 (A) (A) (A) (A) (A) (A) (A) (A) (A) (A) (A) (A)
                 (A) (A) (A) (A) (A) (A) (A)
       Virtual   (A) (A) (A) (A) (A) (A) (A) (A) (A) (A) (A) (A)
                 (A) (A) (A) (A) (A) (A) (A) (A) (A) (A) (A) (A)
                 (A) (A) (A) (A) (A) (A) (A) (A) (A) (A) (A) (A)
                 (A) (A) (A) (A) (A) (A) (A) (A) (A) (A) (A) (A)
                 (A) (A) (A) (A) (A) (A) (A) (A) (A) (A) (A) (A)
                 (A) (A) (A) (A) (A) (A) (A) (A) (A) (A) (A) (A)
                 (A) (A) (A) (A) (A) (A) (A) (A) (A) (A) (A) (A)
                 (A) (A) (A) (A) (A) (A) (A) (A) (A) (A) (A) (A)
                 (A) (A) (A) (A) (A) (A) (A) (A) (A) (A) (A) (A)
                 (A) (A) (A) (A) (A) (A) (A) (A) (A) (A) (A) (A)
                 (A) (A) (A) (A) (A) (A) (A) (A) (A) (A) (A) (A)
                 (A) (A) (A) (A) (A) (A) (A) (A) (A) (A) (A) (A)
                 (A) (A) (A) (A) (A) (A) (A) (A) (A) (A) (A) (A)
                 (A) (A) (A) (A) (A) (A) (A) (A) (A) (A) (A) (A)
                 (A) (A) (A) (A) (A) (A) (A) (A) (A) (A) (A) (A)
                 (A) (A) (A) (A) (A) (A) (A) (A) (A) (A) (A) (A)
                 (A) (A) (A) (A) (A) (A) (A) (A) (A) (A) (A) (A)
                 (A) (A) (A) (A) (A) (A) (A) (A) (A) (A) (A) (A)
                 (A) (A) (A) (A) (A) (A) (A) (A) (A) (A) (A) (A)
                 (A) (A) (A) (A) (A) (A) (A) (A) (A) (A) (A) (A)
                 (A) (A) (A) (A) (A) (A) (A) (A) (A) (A) (A) (A)
                 (A) (A) (A) (A) (A) (A) (A) (A) (A) (A) (A) (A)
                 (A) (A) (A) (A) (A) (A) (A) (A) (A) (A) (A) (A)
                 (A) (A) (A) (A) (A) (A) (A) (A) (A) (A) (A) (A)
                 (A) (A) (A) (A) (A) (A) (A) (A) (A) (A) (A) (A)
                 (A) (A) (A) (A) (A) (A) (A) (A) (A) (A) (A) (A)
                 (A) (A) (A) (A) (A) (A) (A) (A) (A) (A) (A) (A)
                 (A) (A) (A) (A) (A) (A) (A) (A) (A) (A) (A) (A)
                 (A) (A) (A) (A) (A) (A) (A) (A) (A) (A) (A) (A)
                 (A) (A) (A) (A) (A) (A) (A) (A) (A) (A) (A) (A)
                 (A) (A) (A) (A) (A) (A) (A) (A) (A) (A) (A) (A)
                 (A) (A) (A) (A) (A) (A) (A) (A) (A) (A) (A) (A)
                 (A) (A) (A) (A) (A) (A) (A) (A) (A) (A) (A) (A)
                 (A) (A) (A) (A) (A) (A) (A) (A) (A) (A) (A) (A)
                 (A) (A) (A) (A) (A) (A) (A) (A) (A) (A)
 The electronic state is 1-A.
 Alpha  occ. eigenvalues --  -19.19468 -19.16642 -19.15744 -19.12876 -19.12681
 Alpha  occ. eigenvalues --  -10.27145 -10.26858 -10.26660 -10.26654 -10.25719
 Alpha  occ. eigenvalues --  -10.25682 -10.25175 -10.21307 -10.20833 -10.20544
 Alpha  occ. eigenvalues --  -10.20247 -10.19751 -10.19587 -10.19196 -10.19080
 Alpha  occ. eigenvalues --  -10.18941 -10.18940 -10.18929 -10.18641 -10.18324
 Alpha  occ. eigenvalues --  -10.18227 -10.18193 -10.17957 -10.17188 -10.16871
 Alpha  occ. eigenvalues --  -10.15261  -1.08924  -1.05793  -1.03174  -1.02374
 Alpha  occ. eigenvalues --   -1.02327  -0.86597  -0.83593  -0.82386  -0.81340
 Alpha  occ. eigenvalues --   -0.80174  -0.79464  -0.76532  -0.74221  -0.73069
 Alpha  occ. eigenvalues --   -0.71761  -0.71170  -0.69914  -0.69508  -0.67753
 Alpha  occ. eigenvalues --   -0.64943  -0.63763  -0.63267  -0.61546  -0.60470
 Alpha  occ. eigenvalues --   -0.59257  -0.58801  -0.56913  -0.55416  -0.53648
 Alpha  occ. eigenvalues --   -0.52946  -0.52152  -0.50639  -0.50331  -0.49167
 Alpha  occ. eigenvalues --   -0.48023  -0.46959  -0.46541  -0.45950  -0.45489
 Alpha  occ. eigenvalues --   -0.45096  -0.44567  -0.43917  -0.43512  -0.43257
 Alpha  occ. eigenvalues --   -0.42763  -0.41990  -0.41802  -0.41597  -0.41303
 Alpha  occ. eigenvalues --   -0.40718  -0.40571  -0.40362  -0.39988  -0.39799
 Alpha  occ. eigenvalues --   -0.39120  -0.38868  -0.38265  -0.38111  -0.37947
 Alpha  occ. eigenvalues --   -0.37479  -0.37360  -0.37146  -0.36833  -0.36705
 Alpha  occ. eigenvalues --   -0.36321  -0.35397  -0.35016  -0.34723  -0.34293
 Alpha  occ. eigenvalues --   -0.33534  -0.33487  -0.33020  -0.32456  -0.31997
 Alpha  occ. eigenvalues --   -0.31754  -0.31060  -0.30682  -0.28058  -0.26703
 Alpha  occ. eigenvalues --   -0.26286  -0.24707  -0.24049  -0.23346  -0.22575
 Alpha virt. eigenvalues --   -0.04404  -0.00864   0.00286   0.02395   0.04552
 Alpha virt. eigenvalues --    0.07290   0.08678   0.08907   0.09201   0.10350
 Alpha virt. eigenvalues --    0.10803   0.11134   0.11192   0.12194   0.12357
 Alpha virt. eigenvalues --    0.12975   0.13230   0.13455   0.13920   0.14324
 Alpha virt. eigenvalues --    0.14460   0.14755   0.15000   0.15201   0.15953
 Alpha virt. eigenvalues --    0.16148   0.16873   0.16976   0.17106   0.17287
 Alpha virt. eigenvalues --    0.17901   0.18211   0.18354   0.18645   0.18953
 Alpha virt. eigenvalues --    0.19317   0.19357   0.19765   0.20048   0.20445
 Alpha virt. eigenvalues --    0.20863   0.20899   0.21448   0.21578   0.22134
 Alpha virt. eigenvalues --    0.22624   0.23178   0.23711   0.24000   0.24159
 Alpha virt. eigenvalues --    0.24791   0.25464   0.25927   0.26687   0.26921
 Alpha virt. eigenvalues --    0.27095   0.27416   0.27893   0.28579   0.29830
 Alpha virt. eigenvalues --    0.30135   0.31761   0.32476   0.32748   0.33964
 Alpha virt. eigenvalues --    0.34680   0.36205   0.37351   0.39318   0.39804
 Alpha virt. eigenvalues --    0.41645   0.45668   0.45727   0.48249   0.48807
 Alpha virt. eigenvalues --    0.49342   0.49999   0.50475   0.51346   0.51617
 Alpha virt. eigenvalues --    0.52065   0.52350   0.52888   0.53279   0.53437
 Alpha virt. eigenvalues --    0.53565   0.54105   0.55033   0.55662   0.56292
 Alpha virt. eigenvalues --    0.57235   0.57664   0.57764   0.58650   0.58714
 Alpha virt. eigenvalues --    0.59666   0.60068   0.60671   0.61441   0.62013
 Alpha virt. eigenvalues --    0.62366   0.62663   0.62953   0.63221   0.64610
 Alpha virt. eigenvalues --    0.64854   0.65832   0.66148   0.66600   0.67317
 Alpha virt. eigenvalues --    0.67593   0.68804   0.69002   0.69334   0.69667
 Alpha virt. eigenvalues --    0.70368   0.71599   0.71686   0.73042   0.73550
 Alpha virt. eigenvalues --    0.74021   0.75014   0.75146   0.76140   0.76692
 Alpha virt. eigenvalues --    0.77358   0.77540   0.78062   0.78438   0.79755
 Alpha virt. eigenvalues --    0.80212   0.81327   0.81433   0.82483   0.82936
 Alpha virt. eigenvalues --    0.83125   0.83597   0.84041   0.85001   0.85150
 Alpha virt. eigenvalues --    0.85931   0.86488   0.86571   0.86811   0.87309
 Alpha virt. eigenvalues --    0.87372   0.88431   0.88598   0.88811   0.88910
 Alpha virt. eigenvalues --    0.89165   0.90228   0.90414   0.90686   0.90866
 Alpha virt. eigenvalues --    0.91160   0.91394   0.91703   0.92631   0.92910
 Alpha virt. eigenvalues --    0.93484   0.93659   0.94170   0.94301   0.94563
 Alpha virt. eigenvalues --    0.94716   0.95116   0.96006   0.96579   0.96913
 Alpha virt. eigenvalues --    0.97251   0.98020   0.98198   0.98586   0.99262
 Alpha virt. eigenvalues --    0.99632   1.00461   1.01223   1.01688   1.03082
 Alpha virt. eigenvalues --    1.04180   1.04685   1.05241   1.06124   1.07326
 Alpha virt. eigenvalues --    1.07956   1.08658   1.10500   1.12016   1.12662
 Alpha virt. eigenvalues --    1.13457   1.13873   1.15638   1.16082   1.16439
 Alpha virt. eigenvalues --    1.17384   1.18262   1.19268   1.19839   1.21826
 Alpha virt. eigenvalues --    1.22981   1.23567   1.25335   1.25901   1.26710
 Alpha virt. eigenvalues --    1.28162   1.28731   1.29814   1.31380   1.32291
 Alpha virt. eigenvalues --    1.35596   1.36959   1.37415   1.38438   1.40208
 Alpha virt. eigenvalues --    1.40343   1.41684   1.43443   1.44726   1.45270
 Alpha virt. eigenvalues --    1.47072   1.48804   1.50360   1.50968   1.53036
 Alpha virt. eigenvalues --    1.53952   1.54921   1.55912   1.57816   1.59473
 Alpha virt. eigenvalues --    1.59676   1.61037   1.61200   1.62853   1.63506
 Alpha virt. eigenvalues --    1.65029   1.65594   1.66670   1.67821   1.68396
 Alpha virt. eigenvalues --    1.69793   1.70711   1.72453   1.72706   1.73898
 Alpha virt. eigenvalues --    1.75016   1.75643   1.76825   1.78067   1.78707
 Alpha virt. eigenvalues --    1.79387   1.79941   1.80545   1.82048   1.82560
 Alpha virt. eigenvalues --    1.83107   1.83917   1.84287   1.85354   1.86043
 Alpha virt. eigenvalues --    1.86413   1.86628   1.87254   1.88296   1.88314
 Alpha virt. eigenvalues --    1.89135   1.89845   1.90498   1.90587   1.91028
 Alpha virt. eigenvalues --    1.91573   1.92661   1.92952   1.94167   1.94977
 Alpha virt. eigenvalues --    1.95455   1.96239   1.97220   1.97471   1.98567
 Alpha virt. eigenvalues --    1.99334   1.99601   1.99823   2.01362   2.01795
 Alpha virt. eigenvalues --    2.02299   2.03202   2.03269   2.03681   2.05023
 Alpha virt. eigenvalues --    2.05190   2.06744   2.07492   2.08278   2.09009
 Alpha virt. eigenvalues --    2.09611   2.10519   2.11520   2.12845   2.13671
 Alpha virt. eigenvalues --    2.14213   2.15323   2.16091   2.16769   2.17603
 Alpha virt. eigenvalues --    2.18325   2.19600   2.20293   2.21284   2.22585
 Alpha virt. eigenvalues --    2.23470   2.24416   2.24923   2.26400   2.27157
 Alpha virt. eigenvalues --    2.28024   2.29419   2.30104   2.30195   2.30744
 Alpha virt. eigenvalues --    2.33040   2.33611   2.34119   2.34284   2.35236
 Alpha virt. eigenvalues --    2.36149   2.36430   2.37638   2.38285   2.38777
 Alpha virt. eigenvalues --    2.39197   2.40532   2.41322   2.41817   2.42044
 Alpha virt. eigenvalues --    2.43182   2.44590   2.45588   2.47361   2.48236
 Alpha virt. eigenvalues --    2.48574   2.50012   2.51885   2.53743   2.54228
 Alpha virt. eigenvalues --    2.55903   2.56981   2.58513   2.58877   2.59651
 Alpha virt. eigenvalues --    2.60860   2.62434   2.63196   2.65223   2.65390
 Alpha virt. eigenvalues --    2.66716   2.68758   2.69183   2.69548   2.70389
 Alpha virt. eigenvalues --    2.71394   2.72070   2.72441   2.76301   2.76844
 Alpha virt. eigenvalues --    2.77560   2.79796   2.81921   2.83379   2.85013
 Alpha virt. eigenvalues --    2.86517   2.89114   2.91436   2.94069   2.96327
 Alpha virt. eigenvalues --    2.99054   3.00291   3.00951   3.01553   3.03960
 Alpha virt. eigenvalues --    3.05802   3.06366   3.12168   3.17889   3.20355
 Alpha virt. eigenvalues --    3.23826   3.28391   4.04303   4.07292   4.12043
 Alpha virt. eigenvalues --    4.12935   4.13974   4.14843   4.17051   4.19762
 Alpha virt. eigenvalues --    4.21975   4.24195   4.26295   4.28459   4.31510
 Alpha virt. eigenvalues --    4.32360   4.34251   4.36359   4.38259   4.43404
 Alpha virt. eigenvalues --    4.45120   4.49650   4.53778   4.56408   4.59819
 Alpha virt. eigenvalues --    4.65697   4.66668   4.67780   4.74123   4.81987
 Alpha virt. eigenvalues --    4.88995   5.01523   5.16631
          Condensed to atoms (all electrons):
 Mulliken atomic charges:
              1
     1  C   -0.184882
     2  C    0.195102
     3  C   -0.188524
     4  C    0.324480
     5  C   -0.055917
     6  C   -0.334556
     7  C    0.201138
     8  C    0.413185
     9  C   -0.105831
    10  C    0.436256
    11  C    0.421810
    12  O   -0.439537
    13  C   -0.151919
    14  C   -0.255638
    15  C   -0.468825
    16  O   -0.513289
    17  C   -0.164507
    18  C    0.304832
    19  O   -0.535865
    20  C   -0.323711
    21  O   -0.659491
    22  C   -0.325415
    23  C    0.097202
    24  O   -0.591872
    25  C    0.181374
    26  C   -0.508102
    27  C   -0.392578
    28  C   -0.467991
    29  C   -0.458593
    30  H    0.142641
    31  H    0.163053
    32  C   -0.519946
    33  H    0.123211
    34  H    0.145175
    35  H    0.186102
    36  H    0.145475
    37  H    0.150104
    38  H    0.129097
    39  H    0.144445
    40  H    0.158507
    41  H    0.153479
    42  H    0.150676
    43  H    0.173366
    44  H    0.413912
    45  H    0.167587
    46  H    0.168623
    47  H    0.139097
    48  H    0.156786
    49  H    0.170914
    50  H    0.154451
    51  H    0.152316
    52  H    0.142364
    53  H    0.192405
    54  H    0.155678
    55  H    0.143031
    56  H    0.149487
    57  H    0.163236
    58  H    0.166529
    59  H    0.158383
    60  H    0.159576
    61  H    0.148764
    62  C   -0.447643
    63  H    0.179714
    64  H    0.135901
    65  H    0.135170
 Sum of Mulliken atomic charges =   0.00000
 Mulliken charges with hydrogens summed into heavy atoms:
              1
     1  C   -0.061671
     2  C    0.195102
     3  C   -0.025471
     4  C    0.324480
     5  C   -0.055917
     6  C   -0.003279
     7  C    0.201138
     8  C    0.413185
     9  C   -0.105831
    10  C    0.436256
    11  C    0.421810
    12  O   -0.439537
    13  C   -0.006444
    14  C    0.023563
    15  C   -0.012394
    16  O   -0.513289
    17  C   -0.021866
    18  C    0.304832
    19  O   -0.535865
    20  C    0.000331
    21  O   -0.245578
    22  C    0.010795
    23  C    0.236299
    24  O   -0.591872
    25  C    0.181374
    26  C   -0.025951
    27  C   -0.097898
    28  C    0.023122
    29  C    0.020659
    32  C   -0.053223
    62  C    0.003141
 Sum of Mulliken charges with hydrogens summed into heavy atoms =   0.00000
 Electronic spatial extent (au):  <R**2>=          11118.2190
 Charge=              0.0000 electrons
 Dipole moment (field-independent basis, Debye):
    X=             -4.9708    Y=              2.2145    Z=             -2.1279  Tot=              5.8430
 Quadrupole moment (field-independent basis, Debye-Ang):
   XX=           -187.0223   YY=           -174.1440   ZZ=           -184.6981
   XY=              1.9758   XZ=             -7.9940   YZ=              2.0884
 Traceless Quadrupole moment (field-independent basis, Debye-Ang):
   XX=             -5.0675   YY=              7.8107   ZZ=             -2.7433
   XY=              1.9758   XZ=             -7.9940   YZ=              2.0884
 Octapole moment (field-independent basis, Debye-Ang**2):
  XXX=            -36.8979  YYY=             52.0590  ZZZ=              4.8111  XYY=            -16.2408
  XXY=            -15.0429  XXZ=            -48.9765  XZZ=            -22.0612  YZZ=              2.9113
  YYZ=            -20.2015  XYZ=             -2.1676
 Hexadecapole moment (field-independent basis, Debye-Ang**3):
 XXXX=          -6946.0312 YYYY=          -4381.4522 ZZZZ=          -3408.0582 XXXY=             12.7632
 XXXZ=            -29.5068 YYYX=             23.9225 YYYZ=            -29.7341 ZZZX=             32.3975
 ZZZY=             -0.3494 XXYY=          -1900.7408 XXZZ=          -1741.7586 YYZZ=          -1285.0121
 XXYZ=             14.9613 YYXZ=            -12.9613 ZZXY=             30.4008
 N-N= 3.531439091800D+03 E-N=-1.028923646570D+04  KE= 1.374458830807D+03
 1\1\GINC-B0603\FOpt\RB3LYP\6-31G(d)\C26H34O5\CAOFEI\24-Mar-2021\0\\# o
 pt rb3lyp/6-31g(d) geom=connectivity\\Title Card Required\\0,1\C,0.150
 014273,-0.134360813,0.0646272114\C,1.4859038626,-0.0659449858,0.077557
 8685\C,2.2089830975,1.2628035226,0.01869363\C,1.331443565,2.5043021333
 ,-0.3347325803\C,-0.1537935742,2.2778120467,-0.7296432831\C,-0.7620007
 963,1.0589018161,0.0056602676\C,2.1463351786,3.2550063222,-1.424195997
 6\C,1.8095129554,2.8073601444,-2.8271634451\C,0.5997839381,2.372530817
 4,-3.2393457879\C,-0.4481205257,2.1259976958,-2.2472168802\C,0.3671740
 682,1.9025866214,-4.6710099645\O,0.5799384587,0.7377196236,-4.94788152
 68\C,-0.132945197,2.9000518439,-5.7142983779\C,-1.6674547029,3.0944764
 459,-5.6025662034\C,0.6008963305,4.249605839,-5.6458166182\O,-1.578332
 2525,1.7860734766,-2.5878257112\C,3.6083548728,2.7605519701,-1.3590635
 437\C,4.1279402842,3.0314670236,-2.7927086062\O,2.8976020149,2.8587933
 683,-3.6142899393\C,3.4143074599,1.2827774643,-0.9662401167\O,1.965636
 242,4.6577359387,-1.3583701274\C,-0.8133666568,3.5906461833,-0.2288972
 453\C,-0.0594537221,3.871891126,1.0674919375\O,1.2909334878,3.37941840
 25,0.822012579\C,0.0340134952,5.2976043666,1.5713355566\C,0.8624341647
 ,5.4724056187,2.8219017758\C,-0.5974600004,6.3193969473,0.9849903881\C
 ,4.621620576,4.4672537589,-2.9843548301\C,5.1432795715,2.030154904,-3.
 3373434031\H,4.1887672749,3.3077075329,-0.6095745215\H,2.601151312,1.4
 810004856,1.0226297685\C,2.3441479449,-1.2990513601,0.2171137501\H,-0.
 3287918461,-1.1096768862,0.1407024733\H,-1.0395517871,1.346628443,1.03
 07011952\H,-1.697783226,0.8075005217,-0.5020362771\H,0.0768622647,2.42
 09770179,-6.6793103239\H,-1.9135582909,3.4789216229,-4.6055183528\H,-1
 .9433084601,3.8807326362,-6.3189646998\H,0.2718599077,4.8922427411,-6.
 4702913273\H,1.6859273982,4.1263504623,-5.7223154405\H,0.3878453553,4.
 7729471979,-4.7070274656\H,4.312798943,0.8409563959,-0.5260097934\H,3.
 162988903,0.6894492993,-1.8522835969\H,1.8800356675,4.8447909402,-0.40
 23808435\H,-1.890382888,3.4731654907,-0.0824860464\H,-0.6424424345,4.3
 933705965,-0.9513416572\H,-0.4766191173,3.2598467175,1.8824624063\H,0.
 4494236154,4.879559216,3.6496734357\H,1.8881689769,5.1187744883,2.6666
 393096\H,0.8967161232,6.5194950254,3.1366287476\H,-1.2089524391,6.2020
 35302,0.0961376828\H,-0.5306005412,7.3256061353,1.3911864867\H,3.88846
 03862,5.1852845925,-2.6125896818\H,4.8052750387,4.6588716673,-4.046684
 592\H,5.5639858499,4.6135228558,-2.4438858422\H,6.0672755674,2.0791044
 322,-2.7503750767\H,5.3867801003,2.2727518402,-4.3765439551\H,4.765159
 7341,1.0057305019,-3.308362467\H,1.7285129827,-2.1972442212,0.32480852
 93\H,3.0006428929,-1.4459913213,-0.6501668127\H,2.9981721403,-1.229262
 199,1.0982767456\C,-2.4868016279,1.8314003975,-5.879636432\H,-2.283369
 2082,1.0583877009,-5.1339299421\H,-2.260925345,1.4196601044,-6.8709015
 464\H,-3.5591516365,2.0558340039,-5.8450508634\\Version=EM64L-G09RevB.
 01\State=1-A\HF=-1387.3174416\RMSD=5.171e-09\RMSF=3.285e-06\Dipole=1.3
 312182,0.9115299,1.6375309\Quadrupole=3.6427283,-2.6519986,-0.9907297,
 -4.5697879,-3.21709,-4.9046924\PG=C01 [X(C26H34O5)]\\@


 CLIMB THE MOUNTAINS AND GET THEIR GOOD TIDINGS.
 NATURE'S PEACE WILL FLOW INTO YOU AS SUNSHINE FLOWS INTO TREES.
 THE WINDS WILL BLOW THEIR OWN FRESHNESS INTO YOU, 
 AND CARES WILL DROP OFF LIKE AUTUMN LEAVES.

                                         -- JOHN MUIR
 Job cpu time:  0 days 10 hours  4 minutes 47.9 seconds.
 File lengths (MBytes):  RWF=    186 Int=      0 D2E=      0 Chk=     20 Scr=      1
 Normal termination of Gaussian 09 at Wed Mar 24 15:20:19 2021.
