 Entering Gaussian System, Link 0=g09
 Initial command:
 /public/software/g09/g09/l1.exe /tmp/Gau-16116.inp -scrdir=/tmp/
 Entering Link 1 = /public/software/g09/g09/l1.exe PID=     16117.
  
 Copyright (c) 1988,1990,1992,1993,1995,1998,2003,2009,2010,
            Gaussian, Inc.  All Rights Reserved.
  
 This is part of the Gaussian(R) 09 program.  It is based on
 the Gaussian(R) 03 system (copyright 2003, Gaussian, Inc.),
 the Gaussian(R) 98 system (copyright 1998, Gaussian, Inc.),
 the Gaussian(R) 94 system (copyright 1995, Gaussian, Inc.),
 the Gaussian 92(TM) system (copyright 1992, Gaussian, Inc.),
 the Gaussian 90(TM) system (copyright 1990, Gaussian, Inc.),
 the Gaussian 88(TM) system (copyright 1988, Gaussian, Inc.),
 the Gaussian 86(TM) system (copyright 1986, Carnegie Mellon
 University), and the Gaussian 82(TM) system (copyright 1983,
 Carnegie Mellon University). Gaussian is a federally registered
 trademark of Gaussian, Inc.
  
 This software contains proprietary and confidential information,
 including trade secrets, belonging to Gaussian, Inc.
  
 This software is provided under written license and may be
 used, copied, transmitted, or stored only in accord with that
 written license.
  
 The following legend is applicable only to US Government
 contracts under FAR:
  
                    RESTRICTED RIGHTS LEGEND
  
 Use, reproduction and disclosure by the US Government is
 subject to restrictions as set forth in subparagraphs (a)
 and (c) of the Commercial Computer Software - Restricted
 Rights clause in FAR 52.227-19.
  
 Gaussian, Inc.
 340 Quinnipiac St., Bldg. 40, Wallingford CT 06492
  
  
 ---------------------------------------------------------------
 Warning -- This program may not be used in any manner that
 competes with the business of Gaussian, Inc. or will provide
 assistance to any competitor of Gaussian, Inc.  The licensee
 of this program is prohibited from giving any competitor of
 Gaussian, Inc. access to this program.  By using this program,
 the user acknowledges that Gaussian, Inc. is engaged in the
 business of creating and licensing software in the field of
 computational chemistry and represents and warrants to the
 licensee that it is not a competitor of Gaussian, Inc. and that
 it will not use this program in any manner prohibited above.
 ---------------------------------------------------------------
  

 Cite this work as:
 Gaussian 09, Revision B.01,
 M. J. Frisch, G. W. Trucks, H. B. Schlegel, G. E. Scuseria, 
 M. A. Robb, J. R. Cheeseman, G. Scalmani, V. Barone, B. Mennucci, 
 G. A. Petersson, H. Nakatsuji, M. Caricato, X. Li, H. P. Hratchian, 
 A. F. Izmaylov, J. Bloino, G. Zheng, J. L. Sonnenberg, M. Hada, 
 M. Ehara, K. Toyota, R. Fukuda, J. Hasegawa, M. Ishida, T. Nakajima, 
 Y. Honda, O. Kitao, H. Nakai, T. Vreven, J. A. Montgomery, Jr., 
 J. E. Peralta, F. Ogliaro, M. Bearpark, J. J. Heyd, E. Brothers, 
 K. N. Kudin, V. N. Staroverov, T. Keith, R. Kobayashi, J. Normand, 
 K. Raghavachari, A. Rendell, J. C. Burant, S. S. Iyengar, J. Tomasi, 
 M. Cossi, N. Rega, J. M. Millam, M. Klene, J. E. Knox, J. B. Cross, 
 V. Bakken, C. Adamo, J. Jaramillo, R. Gomperts, R. E. Stratmann, 
 O. Yazyev, A. J. Austin, R. Cammi, C. Pomelli, J. W. Ochterski, 
 R. L. Martin, K. Morokuma, V. G. Zakrzewski, G. A. Voth, 
 P. Salvador, J. J. Dannenberg, S. Dapprich, A. D. Daniels, 
 O. Farkas, J. B. Foresman, J. V. Ortiz, J. Cioslowski, 
 and D. J. Fox, Gaussian, Inc., Wallingford CT, 2010.
 
 ******************************************
 Gaussian 09:  EM64L-G09RevB.01 12-Aug-2010
                24-Mar-2021 
 ******************************************
 %mem=600MW
 %nprocshared=10
 Will use up to   10 processors via shared memory.
 ---------------------------------------
 # opt rb3lyp/6-31g(d) geom=connectivity
 ---------------------------------------
 1/14=-1,18=20,19=15,26=3,38=1,57=2/1,3;
 2/9=110,12=2,17=6,18=5,40=1/2;
 3/5=1,6=6,7=1,11=2,16=1,25=1,30=1,71=1,74=-5,116=1/1,2,3;
 4//1;
 5/5=2,38=5/2;
 6/7=2,8=2,9=2,10=2,28=1/1;
 7//1,2,3,16;
 1/14=-1,18=20,19=15/3(2);
 2/9=110/2;
 99//99;
 2/9=110/2;
 3/5=1,6=6,7=1,11=2,16=1,25=1,30=1,71=1,74=-5,116=1/1,2,3;
 4/5=5,16=3/1;
 5/5=2,38=5/2;
 7//1,2,3,16;
 1/14=-1,18=20,19=15/3(-5);
 2/9=110/2;
 6/7=2,8=2,9=2,10=2,19=2,28=1/1;
 99/9=1/99;
 -------------------
 Title Card Required
 -------------------
 Symbolic Z-matrix:
 Charge =  0 Multiplicity = 1
 C                     0.        0.        0. 
 C                     1.3402    0.        0. 
 C                     2.123     1.2847    0. 
 C                     1.3741    2.5515    0.5105 
 C                    -0.1704    2.4836    0.6207 
 C                    -0.8118    1.2518   -0.052 
 C                     1.9196    3.6973   -0.3706 
 C                     1.        4.1721   -1.443 
 C                    -0.3266    4.2149   -1.2933 
 C                    -0.8717    3.6939   -0.0207 
 C                    -1.2231    4.6336   -2.3928 
 O                    -1.9865    3.7902   -2.8668 
 C                    -1.1199    6.0658   -2.9315 
 C                    -2.3212    6.4163   -3.8327 
 C                    -0.9304    7.0994   -1.8203 
 O                    -1.9122    4.1691    0.4323 
 C                     3.0524    3.14     -1.2119 
 C                     3.0175    4.0184   -2.4762 
 O                     1.6381    4.4242   -2.6496 
 C                     2.6402    1.6714   -1.3895 
 O                     2.3301    4.8147    0.4034 
 C                    -0.4192    2.5019    2.1429 
 C                     0.9252    2.1618    2.7606 
 O                     1.8553    2.7917    1.8688 
 C                     1.2105    2.6233    4.1704 
 C                     2.6289    2.4164    4.6363 
 C                     0.2983    3.1501    5.0056 
 C                     3.8644    5.2918   -2.3252 
 C                     3.4625    3.2839   -3.7438 
 H                     4.0243    3.1984   -0.7064 
 H                     2.997     1.1298    0.651 
 C                     2.1325   -1.2768   -0.0091 
 H                    -0.5481   -0.9398   -0.0261 
 H                    -1.7889    1.0533    0.4082 
 H                    -1.0296    1.4448   -1.111 
 H                    -0.2315    6.088    -3.5758 
 H                    -2.1065    7.3533   -4.3617 
 H                    -2.4379    5.6475   -4.6065 
 H                    -0.9894    8.1181   -2.2179 
 H                     0.0513    6.9951   -1.3463 
 H                    -1.6843    6.9901   -1.0335 
 H                     3.4909    1.0543   -1.6979 
 H                     1.8497    1.5501   -2.1405 
 H                     2.4633    4.4732    1.3136 
 H                    -1.2002    1.8089    2.4736 
 H                    -0.7259    3.5068    2.4575 
 H                     1.0908    1.0777    2.7211 
 H                     2.9156    1.3656    4.5237 
 H                     3.3205    3.0316    4.0519 
 H                     2.7611    2.6824    5.6906 
 H                    -0.7391    3.2951    4.7237 
 H                     0.5651    3.4527    6.0143 
 H                     3.5189    5.9231   -1.5014 
 H                     3.7894    5.9138   -3.2251 
 H                     4.9195    5.051    -2.1597 
 H                     4.4756    2.8826   -3.6389 
 H                     3.4468    3.9583   -4.6082 
 H                     2.7819    2.4657   -4.0003 
 H                     1.4872   -2.1616   -0.0114 
 H                     2.7677   -1.3265   -0.8991 
 H                     2.7707   -1.3334    0.8786 
 C                    -3.6474    6.5742   -3.0981 
 H                    -3.6246    7.4242   -2.4096 
 H                    -3.9047    5.676    -2.5295 
 H                    -4.4518    6.7569   -3.8182 
 

 GradGradGradGradGradGradGradGradGradGradGradGradGradGradGradGradGradGrad
 Berny optimization.
 Initialization pass.
                           ----------------------------
                           !    Initial Parameters    !
                           ! (Angstroms and Degrees)  !
 --------------------------                            --------------------------
 ! Name  Definition              Value          Derivative Info.                !
 --------------------------------------------------------------------------------
 ! R1    R(1,2)                  1.3402         estimate D2E/DX2                !
 ! R2    R(1,6)                  1.4929         estimate D2E/DX2                !
 ! R3    R(1,33)                 1.0883         estimate D2E/DX2                !
 ! R4    R(2,3)                  1.5044         estimate D2E/DX2                !
 ! R5    R(2,32)                 1.5027         estimate D2E/DX2                !
 ! R6    R(3,4)                  1.5576         estimate D2E/DX2                !
 ! R7    R(3,20)                 1.5322         estimate D2E/DX2                !
 ! R8    R(3,31)                 1.1008         estimate D2E/DX2                !
 ! R9    R(4,5)                  1.5499         estimate D2E/DX2                !
 ! R10   R(4,7)                  1.5449         estimate D2E/DX2                !
 ! R11   R(4,24)                 1.4609         estimate D2E/DX2                !
 ! R12   R(5,6)                  1.5431         estimate D2E/DX2                !
 ! R13   R(5,10)                 1.5388         estimate D2E/DX2                !
 ! R14   R(5,22)                 1.5425         estimate D2E/DX2                !
 ! R15   R(6,34)                 1.0981         estimate D2E/DX2                !
 ! R16   R(6,35)                 1.0983         estimate D2E/DX2                !
 ! R17   R(7,8)                  1.4903         estimate D2E/DX2                !
 ! R18   R(7,17)                 1.5171         estimate D2E/DX2                !
 ! R19   R(7,21)                 1.4199         estimate D2E/DX2                !
 ! R20   R(8,9)                  1.3357         estimate D2E/DX2                !
 ! R21   R(8,19)                 1.388          estimate D2E/DX2                !
 ! R22   R(9,10)                 1.4792         estimate D2E/DX2                !
 ! R23   R(9,11)                 1.4792         estimate D2E/DX2                !
 ! R24   R(10,16)                1.2303         estimate D2E/DX2                !
 ! R25   R(11,12)                1.2324         estimate D2E/DX2                !
 ! R26   R(11,13)                1.5336         estimate D2E/DX2                !
 ! R27   R(13,14)                1.5421         estimate D2E/DX2                !
 ! R28   R(13,15)                1.5294         estimate D2E/DX2                !
 ! R29   R(13,36)                1.0977         estimate D2E/DX2                !
 ! R30   R(14,37)                1.0972         estimate D2E/DX2                !
 ! R31   R(14,38)                1.097          estimate D2E/DX2                !
 ! R32   R(14,62)                1.5243         estimate D2E/DX2                !
 ! R33   R(15,39)                1.0951         estimate D2E/DX2                !
 ! R34   R(15,40)                1.0951         estimate D2E/DX2                !
 ! R35   R(15,41)                1.0952         estimate D2E/DX2                !
 ! R36   R(17,18)                1.5399         estimate D2E/DX2                !
 ! R37   R(17,20)                1.5357         estimate D2E/DX2                !
 ! R38   R(17,30)                1.0971         estimate D2E/DX2                !
 ! R39   R(18,19)                1.4483         estimate D2E/DX2                !
 ! R40   R(18,28)                1.5367         estimate D2E/DX2                !
 ! R41   R(18,29)                1.5311         estimate D2E/DX2                !
 ! R42   R(20,42)                1.0953         estimate D2E/DX2                !
 ! R43   R(20,43)                1.0971         estimate D2E/DX2                !
 ! R44   R(21,44)                0.9812         estimate D2E/DX2                !
 ! R45   R(22,23)                1.5181         estimate D2E/DX2                !
 ! R46   R(22,45)                1.0952         estimate D2E/DX2                !
 ! R47   R(22,46)                1.0968         estimate D2E/DX2                !
 ! R48   R(23,24)                1.4343         estimate D2E/DX2                !
 ! R49   R(23,25)                1.5106         estimate D2E/DX2                !
 ! R50   R(23,47)                1.0974         estimate D2E/DX2                !
 ! R51   R(24,44)                1.8723         estimate D2E/DX2                !
 ! R52   R(25,26)                1.5072         estimate D2E/DX2                !
 ! R53   R(25,27)                1.3443         estimate D2E/DX2                !
 ! R54   R(26,48)                1.095          estimate D2E/DX2                !
 ! R55   R(26,49)                1.0947         estimate D2E/DX2                !
 ! R56   R(26,50)                1.0953         estimate D2E/DX2                !
 ! R57   R(27,51)                1.0848         estimate D2E/DX2                !
 ! R58   R(27,52)                1.0864         estimate D2E/DX2                !
 ! R59   R(28,53)                1.0939         estimate D2E/DX2                !
 ! R60   R(28,54)                1.0965         estimate D2E/DX2                !
 ! R61   R(28,55)                1.0948         estimate D2E/DX2                !
 ! R62   R(29,56)                1.0947         estimate D2E/DX2                !
 ! R63   R(29,57)                1.0965         estimate D2E/DX2                !
 ! R64   R(29,58)                1.0947         estimate D2E/DX2                !
 ! R65   R(32,59)                1.0951         estimate D2E/DX2                !
 ! R66   R(32,60)                1.0946         estimate D2E/DX2                !
 ! R67   R(32,61)                1.0948         estimate D2E/DX2                !
 ! R68   R(62,63)                1.0941         estimate D2E/DX2                !
 ! R69   R(62,64)                1.0937         estimate D2E/DX2                !
 ! R70   R(62,65)                1.095          estimate D2E/DX2                !
 ! A1    A(2,1,6)              122.9411         estimate D2E/DX2                !
 ! A2    A(2,1,33)             120.2415         estimate D2E/DX2                !
 ! A3    A(6,1,33)             116.7058         estimate D2E/DX2                !
 ! A4    A(1,2,3)              121.355          estimate D2E/DX2                !
 ! A5    A(1,2,32)             121.8204         estimate D2E/DX2                !
 ! A6    A(3,2,32)             116.8234         estimate D2E/DX2                !
 ! A7    A(2,3,4)              116.3808         estimate D2E/DX2                !
 ! A8    A(2,3,20)             113.0266         estimate D2E/DX2                !
 ! A9    A(2,3,31)             107.0363         estimate D2E/DX2                !
 ! A10   A(4,3,20)             104.7289         estimate D2E/DX2                !
 ! A11   A(4,3,31)             107.5997         estimate D2E/DX2                !
 ! A12   A(20,3,31)            107.6873         estimate D2E/DX2                !
 ! A13   A(3,4,5)              117.8258         estimate D2E/DX2                !
 ! A14   A(3,4,7)              104.2702         estimate D2E/DX2                !
 ! A15   A(3,4,24)             106.2647         estimate D2E/DX2                !
 ! A16   A(5,4,7)              115.1444         estimate D2E/DX2                !
 ! A17   A(5,4,24)             105.6245         estimate D2E/DX2                !
 ! A18   A(7,4,24)             106.979          estimate D2E/DX2                !
 ! A19   A(4,5,6)              114.7192         estimate D2E/DX2                !
 ! A20   A(4,5,10)             112.9575         estimate D2E/DX2                !
 ! A21   A(4,5,22)             103.3193         estimate D2E/DX2                !
 ! A22   A(6,5,10)             104.8742         estimate D2E/DX2                !
 ! A23   A(6,5,22)             111.8773         estimate D2E/DX2                !
 ! A24   A(10,5,22)            109.1766         estimate D2E/DX2                !
 ! A25   A(1,6,5)              115.3491         estimate D2E/DX2                !
 ! A26   A(1,6,34)             108.5224         estimate D2E/DX2                !
 ! A27   A(1,6,35)             106.7849         estimate D2E/DX2                !
 ! A28   A(5,6,34)             109.3562         estimate D2E/DX2                !
 ! A29   A(5,6,35)             111.2538         estimate D2E/DX2                !
 ! A30   A(34,6,35)            105.0346         estimate D2E/DX2                !
 ! A31   A(4,7,8)              115.3909         estimate D2E/DX2                !
 ! A32   A(4,7,17)             107.9071         estimate D2E/DX2                !
 ! A33   A(4,7,21)             112.0145         estimate D2E/DX2                !
 ! A34   A(8,7,17)             100.296          estimate D2E/DX2                !
 ! A35   A(8,7,21)             108.6577         estimate D2E/DX2                !
 ! A36   A(17,7,21)            112.0549         estimate D2E/DX2                !
 ! A37   A(7,8,9)              122.8467         estimate D2E/DX2                !
 ! A38   A(7,8,19)             113.5601         estimate D2E/DX2                !
 ! A39   A(9,8,19)             123.243          estimate D2E/DX2                !
 ! A40   A(8,9,10)             116.8161         estimate D2E/DX2                !
 ! A41   A(8,9,11)             121.8513         estimate D2E/DX2                !
 ! A42   A(10,9,11)            121.0544         estimate D2E/DX2                !
 ! A43   A(5,10,9)             117.8827         estimate D2E/DX2                !
 ! A44   A(5,10,16)            122.3937         estimate D2E/DX2                !
 ! A45   A(9,10,16)            119.4973         estimate D2E/DX2                !
 ! A46   A(9,11,12)            117.8797         estimate D2E/DX2                !
 ! A47   A(9,11,13)            118.99           estimate D2E/DX2                !
 ! A48   A(12,11,13)           123.0712         estimate D2E/DX2                !
 ! A49   A(11,13,14)           111.4139         estimate D2E/DX2                !
 ! A50   A(11,13,15)           112.5975         estimate D2E/DX2                !
 ! A51   A(11,13,36)           106.232          estimate D2E/DX2                !
 ! A52   A(14,13,15)           111.5625         estimate D2E/DX2                !
 ! A53   A(14,13,36)           106.4311         estimate D2E/DX2                !
 ! A54   A(15,13,36)           108.2114         estimate D2E/DX2                !
 ! A55   A(13,14,37)           108.8695         estimate D2E/DX2                !
 ! A56   A(13,14,38)           109.621          estimate D2E/DX2                !
 ! A57   A(13,14,62)           114.8141         estimate D2E/DX2                !
 ! A58   A(37,14,38)           106.2132         estimate D2E/DX2                !
 ! A59   A(37,14,62)           108.3089         estimate D2E/DX2                !
 ! A60   A(38,14,62)           108.662          estimate D2E/DX2                !
 ! A61   A(13,15,39)           110.9895         estimate D2E/DX2                !
 ! A62   A(13,15,40)           111.1731         estimate D2E/DX2                !
 ! A63   A(13,15,41)           111.6692         estimate D2E/DX2                !
 ! A64   A(39,15,40)           107.0995         estimate D2E/DX2                !
 ! A65   A(39,15,41)           108.4566         estimate D2E/DX2                !
 ! A66   A(40,15,41)           107.2555         estimate D2E/DX2                !
 ! A67   A(7,17,18)            103.2283         estimate D2E/DX2                !
 ! A68   A(7,17,20)            102.4163         estimate D2E/DX2                !
 ! A69   A(7,17,30)            112.7322         estimate D2E/DX2                !
 ! A70   A(18,17,20)           116.3904         estimate D2E/DX2                !
 ! A71   A(18,17,30)           111.594          estimate D2E/DX2                !
 ! A72   A(20,17,30)           109.9985         estimate D2E/DX2                !
 ! A73   A(17,18,19)           106.2435         estimate D2E/DX2                !
 ! A74   A(17,18,28)           112.3036         estimate D2E/DX2                !
 ! A75   A(17,18,29)           113.5466         estimate D2E/DX2                !
 ! A76   A(19,18,28)           107.7267         estimate D2E/DX2                !
 ! A77   A(19,18,29)           108.1863         estimate D2E/DX2                !
 ! A78   A(28,18,29)           108.5835         estimate D2E/DX2                !
 ! A79   A(8,19,18)            106.4326         estimate D2E/DX2                !
 ! A80   A(3,20,17)            103.1254         estimate D2E/DX2                !
 ! A81   A(3,20,42)            112.0443         estimate D2E/DX2                !
 ! A82   A(3,20,43)            110.4659         estimate D2E/DX2                !
 ! A83   A(17,20,42)           111.2786         estimate D2E/DX2                !
 ! A84   A(17,20,43)           112.2292         estimate D2E/DX2                !
 ! A85   A(42,20,43)           107.7344         estimate D2E/DX2                !
 ! A86   A(7,21,44)            105.7239         estimate D2E/DX2                !
 ! A87   A(5,22,23)            104.8349         estimate D2E/DX2                !
 ! A88   A(5,22,45)            113.9209         estimate D2E/DX2                !
 ! A89   A(5,22,46)            109.8188         estimate D2E/DX2                !
 ! A90   A(23,22,45)           111.5234         estimate D2E/DX2                !
 ! A91   A(23,22,46)           109.6455         estimate D2E/DX2                !
 ! A92   A(45,22,46)           107.081          estimate D2E/DX2                !
 ! A93   A(22,23,24)           102.8792         estimate D2E/DX2                !
 ! A94   A(22,23,25)           118.5908         estimate D2E/DX2                !
 ! A95   A(22,23,47)           109.8957         estimate D2E/DX2                !
 ! A96   A(24,23,25)           108.8831         estimate D2E/DX2                !
 ! A97   A(24,23,47)           108.2774         estimate D2E/DX2                !
 ! A98   A(25,23,47)           107.8726         estimate D2E/DX2                !
 ! A99   A(4,24,23)            106.9956         estimate D2E/DX2                !
 ! A100  A(23,25,26)           115.1052         estimate D2E/DX2                !
 ! A101  A(23,25,27)           124.8471         estimate D2E/DX2                !
 ! A102  A(26,25,27)           120.0211         estimate D2E/DX2                !
 ! A103  A(25,26,48)           110.2634         estimate D2E/DX2                !
 ! A104  A(25,26,49)           110.6334         estimate D2E/DX2                !
 ! A105  A(25,26,50)           112.1957         estimate D2E/DX2                !
 ! A106  A(48,26,49)           108.6018         estimate D2E/DX2                !
 ! A107  A(48,26,50)           107.4826         estimate D2E/DX2                !
 ! A108  A(49,26,50)           107.5251         estimate D2E/DX2                !
 ! A109  A(25,27,51)           122.6744         estimate D2E/DX2                !
 ! A110  A(25,27,52)           121.2896         estimate D2E/DX2                !
 ! A111  A(51,27,52)           116.0353         estimate D2E/DX2                !
 ! A112  A(18,28,53)           112.2197         estimate D2E/DX2                !
 ! A113  A(18,28,54)           110.592          estimate D2E/DX2                !
 ! A114  A(18,28,55)           111.3281         estimate D2E/DX2                !
 ! A115  A(53,28,54)           105.6101         estimate D2E/DX2                !
 ! A116  A(53,28,55)           108.5109         estimate D2E/DX2                !
 ! A117  A(54,28,55)           108.3455         estimate D2E/DX2                !
 ! A118  A(18,29,56)           111.4376         estimate D2E/DX2                !
 ! A119  A(18,29,57)           110.6984         estimate D2E/DX2                !
 ! A120  A(18,29,58)           111.828          estimate D2E/DX2                !
 ! A121  A(56,29,57)           108.3162         estimate D2E/DX2                !
 ! A122  A(56,29,58)           108.8941         estimate D2E/DX2                !
 ! A123  A(57,29,58)           105.4311         estimate D2E/DX2                !
 ! A124  A(2,32,59)            112.0753         estimate D2E/DX2                !
 ! A125  A(2,32,60)            110.456          estimate D2E/DX2                !
 ! A126  A(2,32,61)            110.2665         estimate D2E/DX2                !
 ! A127  A(59,32,60)           107.6718         estimate D2E/DX2                !
 ! A128  A(59,32,61)           107.6642         estimate D2E/DX2                !
 ! A129  A(60,32,61)           108.5825         estimate D2E/DX2                !
 ! A130  A(14,62,63)           111.446          estimate D2E/DX2                !
 ! A131  A(14,62,64)           111.725          estimate D2E/DX2                !
 ! A132  A(14,62,65)           109.8471         estimate D2E/DX2                !
 ! A133  A(63,62,64)           108.4066         estimate D2E/DX2                !
 ! A134  A(63,62,65)           107.429          estimate D2E/DX2                !
 ! A135  A(64,62,65)           107.8236         estimate D2E/DX2                !
 ! D1    D(6,1,2,3)              2.3787         estimate D2E/DX2                !
 ! D2    D(6,1,2,32)          -177.2129         estimate D2E/DX2                !
 ! D3    D(33,1,2,3)           178.4092         estimate D2E/DX2                !
 ! D4    D(33,1,2,32)           -1.1825         estimate D2E/DX2                !
 ! D5    D(2,1,6,5)            -31.2399         estimate D2E/DX2                !
 ! D6    D(2,1,6,34)          -154.2991         estimate D2E/DX2                !
 ! D7    D(2,1,6,35)            92.9452         estimate D2E/DX2                !
 ! D8    D(33,1,6,5)           152.5987         estimate D2E/DX2                !
 ! D9    D(33,1,6,34)           29.5395         estimate D2E/DX2                !
 ! D10   D(33,1,6,35)          -83.2162         estimate D2E/DX2                !
 ! D11   D(1,2,3,4)             21.4591         estimate D2E/DX2                !
 ! D12   D(1,2,3,20)           -99.8178         estimate D2E/DX2                !
 ! D13   D(1,2,3,31)           141.7895         estimate D2E/DX2                !
 ! D14   D(32,2,3,4)          -158.9297         estimate D2E/DX2                !
 ! D15   D(32,2,3,20)           79.7934         estimate D2E/DX2                !
 ! D16   D(32,2,3,31)          -38.5993         estimate D2E/DX2                !
 ! D17   D(1,2,32,59)           -0.2262         estimate D2E/DX2                !
 ! D18   D(1,2,32,60)          119.8335         estimate D2E/DX2                !
 ! D19   D(1,2,32,61)         -120.147          estimate D2E/DX2                !
 ! D20   D(3,2,32,59)         -179.8354         estimate D2E/DX2                !
 ! D21   D(3,2,32,60)          -59.7757         estimate D2E/DX2                !
 ! D22   D(3,2,32,61)           60.2438         estimate D2E/DX2                !
 ! D23   D(2,3,4,5)            -15.5316         estimate D2E/DX2                !
 ! D24   D(2,3,4,7)           -144.5817         estimate D2E/DX2                !
 ! D25   D(2,3,4,24)           102.5828         estimate D2E/DX2                !
 ! D26   D(20,3,4,5)           110.0492         estimate D2E/DX2                !
 ! D27   D(20,3,4,7)           -19.001          estimate D2E/DX2                !
 ! D28   D(20,3,4,24)         -131.8364         estimate D2E/DX2                !
 ! D29   D(31,3,4,5)          -135.5599         estimate D2E/DX2                !
 ! D30   D(31,3,4,7)            95.39           estimate D2E/DX2                !
 ! D31   D(31,3,4,24)          -17.4455         estimate D2E/DX2                !
 ! D32   D(2,3,20,17)          165.4448         estimate D2E/DX2                !
 ! D33   D(2,3,20,42)          -74.79           estimate D2E/DX2                !
 ! D34   D(2,3,20,43)           45.3352         estimate D2E/DX2                !
 ! D35   D(4,3,20,17)           37.7874         estimate D2E/DX2                !
 ! D36   D(4,3,20,42)          157.5526         estimate D2E/DX2                !
 ! D37   D(4,3,20,43)          -82.3222         estimate D2E/DX2                !
 ! D38   D(31,3,20,17)         -76.542          estimate D2E/DX2                !
 ! D39   D(31,3,20,42)          43.2232         estimate D2E/DX2                !
 ! D40   D(31,3,20,43)         163.3484         estimate D2E/DX2                !
 ! D41   D(3,4,5,6)            -11.4205         estimate D2E/DX2                !
 ! D42   D(3,4,5,10)          -131.5467         estimate D2E/DX2                !
 ! D43   D(3,4,5,22)           110.6212         estimate D2E/DX2                !
 ! D44   D(7,4,5,6)            112.3349         estimate D2E/DX2                !
 ! D45   D(7,4,5,10)            -7.7914         estimate D2E/DX2                !
 ! D46   D(7,4,5,22)          -125.6235         estimate D2E/DX2                !
 ! D47   D(24,4,5,6)          -129.8748         estimate D2E/DX2                !
 ! D48   D(24,4,5,10)          109.999          estimate D2E/DX2                !
 ! D49   D(24,4,5,22)           -7.8332         estimate D2E/DX2                !
 ! D50   D(3,4,7,8)            104.1639         estimate D2E/DX2                !
 ! D51   D(3,4,7,17)            -7.0152         estimate D2E/DX2                !
 ! D52   D(3,4,7,21)          -130.8151         estimate D2E/DX2                !
 ! D53   D(5,4,7,8)            -26.4871         estimate D2E/DX2                !
 ! D54   D(5,4,7,17)          -137.6662         estimate D2E/DX2                !
 ! D55   D(5,4,7,21)            98.5339         estimate D2E/DX2                !
 ! D56   D(24,4,7,8)          -143.5134         estimate D2E/DX2                !
 ! D57   D(24,4,7,17)          105.3074         estimate D2E/DX2                !
 ! D58   D(24,4,7,21)          -18.4924         estimate D2E/DX2                !
 ! D59   D(3,4,24,23)          -94.7814         estimate D2E/DX2                !
 ! D60   D(5,4,24,23)           31.1273         estimate D2E/DX2                !
 ! D61   D(7,4,24,23)          154.2684         estimate D2E/DX2                !
 ! D62   D(4,5,6,1)             33.8579         estimate D2E/DX2                !
 ! D63   D(4,5,6,34)           156.4738         estimate D2E/DX2                !
 ! D64   D(4,5,6,35)           -87.954          estimate D2E/DX2                !
 ! D65   D(10,5,6,1)           158.368          estimate D2E/DX2                !
 ! D66   D(10,5,6,34)          -79.0161         estimate D2E/DX2                !
 ! D67   D(10,5,6,35)           36.556          estimate D2E/DX2                !
 ! D68   D(22,5,6,1)           -83.4098         estimate D2E/DX2                !
 ! D69   D(22,5,6,34)           39.2061         estimate D2E/DX2                !
 ! D70   D(22,5,6,35)          154.7782         estimate D2E/DX2                !
 ! D71   D(4,5,10,9)            39.6981         estimate D2E/DX2                !
 ! D72   D(4,5,10,16)         -145.8003         estimate D2E/DX2                !
 ! D73   D(6,5,10,9)           -85.921          estimate D2E/DX2                !
 ! D74   D(6,5,10,16)           88.5805         estimate D2E/DX2                !
 ! D75   D(22,5,10,9)          154.042          estimate D2E/DX2                !
 ! D76   D(22,5,10,16)         -31.4565         estimate D2E/DX2                !
 ! D77   D(4,5,22,23)          -16.3281         estimate D2E/DX2                !
 ! D78   D(4,5,22,45)         -138.515          estimate D2E/DX2                !
 ! D79   D(4,5,22,46)          101.3914         estimate D2E/DX2                !
 ! D80   D(6,5,22,23)          107.5993         estimate D2E/DX2                !
 ! D81   D(6,5,22,45)          -14.5875         estimate D2E/DX2                !
 ! D82   D(6,5,22,46)         -134.6811         estimate D2E/DX2                !
 ! D83   D(10,5,22,23)        -136.7733         estimate D2E/DX2                !
 ! D84   D(10,5,22,45)         101.0398         estimate D2E/DX2                !
 ! D85   D(10,5,22,46)         -19.0538         estimate D2E/DX2                !
 ! D86   D(4,7,8,9)             34.7755         estimate D2E/DX2                !
 ! D87   D(4,7,8,19)          -138.6259         estimate D2E/DX2                !
 ! D88   D(17,7,8,9)           150.3792         estimate D2E/DX2                !
 ! D89   D(17,7,8,19)          -23.0223         estimate D2E/DX2                !
 ! D90   D(21,7,8,9)           -91.9657         estimate D2E/DX2                !
 ! D91   D(21,7,8,19)           94.6328         estimate D2E/DX2                !
 ! D92   D(4,7,17,18)          151.3578         estimate D2E/DX2                !
 ! D93   D(4,7,17,20)           30.0732         estimate D2E/DX2                !
 ! D94   D(4,7,17,30)          -88.0858         estimate D2E/DX2                !
 ! D95   D(8,7,17,18)           30.2471         estimate D2E/DX2                !
 ! D96   D(8,7,17,20)          -91.0375         estimate D2E/DX2                !
 ! D97   D(8,7,17,30)          150.8034         estimate D2E/DX2                !
 ! D98   D(21,7,17,18)         -84.8668         estimate D2E/DX2                !
 ! D99   D(21,7,17,20)         153.8487         estimate D2E/DX2                !
 ! D100  D(21,7,17,30)          35.6896         estimate D2E/DX2                !
 ! D101  D(4,7,21,44)           19.5779         estimate D2E/DX2                !
 ! D102  D(8,7,21,44)          148.2374         estimate D2E/DX2                !
 ! D103  D(17,7,21,44)        -101.865          estimate D2E/DX2                !
 ! D104  D(7,8,9,10)            -3.2509         estimate D2E/DX2                !
 ! D105  D(7,8,9,11)          -177.2495         estimate D2E/DX2                !
 ! D106  D(19,8,9,10)          169.5139         estimate D2E/DX2                !
 ! D107  D(19,8,9,11)           -4.4847         estimate D2E/DX2                !
 ! D108  D(7,8,19,18)            4.7452         estimate D2E/DX2                !
 ! D109  D(9,8,19,18)         -168.6264         estimate D2E/DX2                !
 ! D110  D(8,9,10,5)           -35.5159         estimate D2E/DX2                !
 ! D111  D(8,9,10,16)          149.8178         estimate D2E/DX2                !
 ! D112  D(11,9,10,5)          138.5337         estimate D2E/DX2                !
 ! D113  D(11,9,10,16)         -36.1325         estimate D2E/DX2                !
 ! D114  D(8,9,11,12)          113.8356         estimate D2E/DX2                !
 ! D115  D(8,9,11,13)          -63.4556         estimate D2E/DX2                !
 ! D116  D(10,9,11,12)         -59.9113         estimate D2E/DX2                !
 ! D117  D(10,9,11,13)         122.7975         estimate D2E/DX2                !
 ! D118  D(9,11,13,14)        -167.1465         estimate D2E/DX2                !
 ! D119  D(9,11,13,15)         -40.9311         estimate D2E/DX2                !
 ! D120  D(9,11,13,36)          77.3461         estimate D2E/DX2                !
 ! D121  D(12,11,13,14)         15.7109         estimate D2E/DX2                !
 ! D122  D(12,11,13,15)        141.9263         estimate D2E/DX2                !
 ! D123  D(12,11,13,36)        -99.7965         estimate D2E/DX2                !
 ! D124  D(11,13,14,37)       -168.0756         estimate D2E/DX2                !
 ! D125  D(11,13,14,38)        -52.2837         estimate D2E/DX2                !
 ! D126  D(11,13,14,62)         70.3385         estimate D2E/DX2                !
 ! D127  D(15,13,14,37)         65.1416         estimate D2E/DX2                !
 ! D128  D(15,13,14,38)       -179.0665         estimate D2E/DX2                !
 ! D129  D(15,13,14,62)        -56.4444         estimate D2E/DX2                !
 ! D130  D(36,13,14,37)        -52.6909         estimate D2E/DX2                !
 ! D131  D(36,13,14,38)         63.1011         estimate D2E/DX2                !
 ! D132  D(36,13,14,62)       -174.2768         estimate D2E/DX2                !
 ! D133  D(11,13,15,39)       -172.681          estimate D2E/DX2                !
 ! D134  D(11,13,15,40)         68.2194         estimate D2E/DX2                !
 ! D135  D(11,13,15,41)        -51.5292         estimate D2E/DX2                !
 ! D136  D(14,13,15,39)        -46.5455         estimate D2E/DX2                !
 ! D137  D(14,13,15,40)       -165.6452         estimate D2E/DX2                !
 ! D138  D(14,13,15,41)         74.6062         estimate D2E/DX2                !
 ! D139  D(36,13,15,39)         70.2109         estimate D2E/DX2                !
 ! D140  D(36,13,15,40)        -48.8887         estimate D2E/DX2                !
 ! D141  D(36,13,15,41)       -168.6373         estimate D2E/DX2                !
 ! D142  D(13,14,62,63)         64.7147         estimate D2E/DX2                !
 ! D143  D(13,14,62,64)        -56.7321         estimate D2E/DX2                !
 ! D144  D(13,14,62,65)       -176.3439         estimate D2E/DX2                !
 ! D145  D(37,14,62,63)        -57.1761         estimate D2E/DX2                !
 ! D146  D(37,14,62,64)       -178.6229         estimate D2E/DX2                !
 ! D147  D(37,14,62,65)         61.7654         estimate D2E/DX2                !
 ! D148  D(38,14,62,63)       -172.1483         estimate D2E/DX2                !
 ! D149  D(38,14,62,64)         66.4049         estimate D2E/DX2                !
 ! D150  D(38,14,62,65)        -53.2068         estimate D2E/DX2                !
 ! D151  D(7,17,18,19)         -29.7134         estimate D2E/DX2                !
 ! D152  D(7,17,18,28)          87.8219         estimate D2E/DX2                !
 ! D153  D(7,17,18,29)        -148.5018         estimate D2E/DX2                !
 ! D154  D(20,17,18,19)         81.584          estimate D2E/DX2                !
 ! D155  D(20,17,18,28)       -160.8807         estimate D2E/DX2                !
 ! D156  D(20,17,18,29)        -37.2044         estimate D2E/DX2                !
 ! D157  D(30,17,18,19)       -151.0431         estimate D2E/DX2                !
 ! D158  D(30,17,18,28)        -33.5079         estimate D2E/DX2                !
 ! D159  D(30,17,18,29)         90.1685         estimate D2E/DX2                !
 ! D160  D(7,17,20,3)          -41.6169         estimate D2E/DX2                !
 ! D161  D(7,17,20,42)        -161.9083         estimate D2E/DX2                !
 ! D162  D(7,17,20,43)          77.2745         estimate D2E/DX2                !
 ! D163  D(18,17,20,3)        -153.3828         estimate D2E/DX2                !
 ! D164  D(18,17,20,42)         86.3259         estimate D2E/DX2                !
 ! D165  D(18,17,20,43)        -34.4913         estimate D2E/DX2                !
 ! D166  D(30,17,20,3)          78.4622         estimate D2E/DX2                !
 ! D167  D(30,17,20,42)        -41.8292         estimate D2E/DX2                !
 ! D168  D(30,17,20,43)       -162.6464         estimate D2E/DX2                !
 ! D169  D(17,18,19,8)          15.8091         estimate D2E/DX2                !
 ! D170  D(28,18,19,8)        -104.7302         estimate D2E/DX2                !
 ! D171  D(29,18,19,8)         138.0648         estimate D2E/DX2                !
 ! D172  D(17,18,28,53)        -60.2136         estimate D2E/DX2                !
 ! D173  D(17,18,28,54)       -177.8586         estimate D2E/DX2                !
 ! D174  D(17,18,28,55)         61.6341         estimate D2E/DX2                !
 ! D175  D(19,18,28,53)         56.436          estimate D2E/DX2                !
 ! D176  D(19,18,28,54)        -61.209          estimate D2E/DX2                !
 ! D177  D(19,18,28,55)        178.2838         estimate D2E/DX2                !
 ! D178  D(29,18,28,53)        173.3828         estimate D2E/DX2                !
 ! D179  D(29,18,28,54)         55.7378         estimate D2E/DX2                !
 ! D180  D(29,18,28,55)        -64.7695         estimate D2E/DX2                !
 ! D181  D(17,18,29,56)        -57.7955         estimate D2E/DX2                !
 ! D182  D(17,18,29,57)       -178.411          estimate D2E/DX2                !
 ! D183  D(17,18,29,58)         64.3472         estimate D2E/DX2                !
 ! D184  D(19,18,29,56)       -175.4626         estimate D2E/DX2                !
 ! D185  D(19,18,29,57)         63.922          estimate D2E/DX2                !
 ! D186  D(19,18,29,58)        -53.3198         estimate D2E/DX2                !
 ! D187  D(28,18,29,56)         67.8855         estimate D2E/DX2                !
 ! D188  D(28,18,29,57)        -52.73           estimate D2E/DX2                !
 ! D189  D(28,18,29,58)       -169.9717         estimate D2E/DX2                !
 ! D190  D(5,22,23,24)          35.199          estimate D2E/DX2                !
 ! D191  D(5,22,23,25)         155.3786         estimate D2E/DX2                !
 ! D192  D(5,22,23,47)         -79.9442         estimate D2E/DX2                !
 ! D193  D(45,22,23,24)        158.9343         estimate D2E/DX2                !
 ! D194  D(45,22,23,25)        -80.8862         estimate D2E/DX2                !
 ! D195  D(45,22,23,47)         43.791          estimate D2E/DX2                !
 ! D196  D(46,22,23,24)        -82.6385         estimate D2E/DX2                !
 ! D197  D(46,22,23,25)         37.541          estimate D2E/DX2                !
 ! D198  D(46,22,23,47)        162.2182         estimate D2E/DX2                !
 ! D199  D(22,23,24,4)         -41.4906         estimate D2E/DX2                !
 ! D200  D(25,23,24,4)        -168.1482         estimate D2E/DX2                !
 ! D201  D(47,23,24,4)          74.815          estimate D2E/DX2                !
 ! D202  D(22,23,25,26)       -171.7475         estimate D2E/DX2                !
 ! D203  D(22,23,25,27)         10.1378         estimate D2E/DX2                !
 ! D204  D(24,23,25,26)        -54.7013         estimate D2E/DX2                !
 ! D205  D(24,23,25,27)        127.184          estimate D2E/DX2                !
 ! D206  D(47,23,25,26)         62.5931         estimate D2E/DX2                !
 ! D207  D(47,23,25,27)       -115.5217         estimate D2E/DX2                !
 ! D208  D(23,25,26,48)        -55.0503         estimate D2E/DX2                !
 ! D209  D(23,25,26,49)         65.1056         estimate D2E/DX2                !
 ! D210  D(23,25,26,50)       -174.8186         estimate D2E/DX2                !
 ! D211  D(27,25,26,48)        123.1628         estimate D2E/DX2                !
 ! D212  D(27,25,26,49)       -116.6813         estimate D2E/DX2                !
 ! D213  D(27,25,26,50)          3.3945         estimate D2E/DX2                !
 ! D214  D(23,25,27,51)         -0.4318         estimate D2E/DX2                !
 ! D215  D(23,25,27,52)        179.2711         estimate D2E/DX2                !
 ! D216  D(26,25,27,51)       -178.4601         estimate D2E/DX2                !
 ! D217  D(26,25,27,52)          1.2428         estimate D2E/DX2                !
 --------------------------------------------------------------------------------
 Trust Radius=3.00D-01 FncErr=1.00D-07 GrdErr=1.00D-06
 Number of steps in this run=    390 maximum allowed number of steps=    390.
 GradGradGradGradGradGradGradGradGradGradGradGradGradGradGradGradGradGrad

 Stoichiometry    C26H34O5
 Framework group  C1[X(C26H34O5)]
 Deg. of freedom   189
 Full point group                 C1      NOp   1
 Largest Abelian subgroup         C1      NOp   1
 Largest concise Abelian subgroup C1      NOp   1
                         Standard orientation:                         
 ---------------------------------------------------------------------
 Center     Atomic      Atomic             Coordinates (Angstroms)
 Number     Number       Type             X           Y           Z
 ---------------------------------------------------------------------
      1          6           0       -1.941719    0.009167    2.863444
      2          6           0       -2.432864    1.065485    2.200794
      3          6           0       -1.990862    1.384570    0.798636
      4          6           0       -1.374153    0.209520   -0.016945
      5          6           0       -0.927927   -1.054902    0.760457
      6          6           0       -0.895662   -0.891305    2.294551
      7          6           0       -0.274237    0.876085   -0.872890
      8          6           0        1.122974    0.652541   -0.404949
      9          6           0        1.523023   -0.488325    0.162937
     10          6           0        0.488736   -1.522646    0.383197
     11          6           0        2.899925   -0.665204    0.673600
     12          8           0        3.050730   -0.801106    1.889153
     13          6           0        4.071922   -0.608862   -0.313970
     14          6           0        5.375598   -1.123212    0.329464
     15          6           0        3.769451   -1.332661   -1.626840
     16          8           0        0.805595   -2.711189    0.358108
     17          6           0       -0.385155    2.377781   -0.687925
     18          6           0        1.058336    2.867351   -0.906817
     19          8           0        1.921948    1.784891   -0.482624
     20          6           0       -0.936339    2.494687    0.740629
     21          8           0       -0.361492    0.499276   -2.239115
     22          6           0       -1.948891   -2.123035    0.317680
     23          6           0       -3.090045   -1.336687   -0.302043
     24          8           0       -2.415881   -0.241259   -0.936635
     25          6           0       -3.972405   -2.022547   -1.318386
     26          6           0       -4.953164   -1.122221   -2.024965
     27          6           0       -3.955136   -3.339821   -1.586115
     28          6           0        1.359083    3.153495   -2.386432
     29          6           0        1.413311    4.111056   -0.087356
     30          1           0       -1.080969    2.842090   -1.397707
     31          1           0       -2.879111    1.738230    0.253100
     32          6           0       -3.440902    1.991218    2.821213
     33          1           0       -2.254805   -0.190030    3.886487
     34          1           0       -0.989570   -1.877762    2.767833
     35          1           0        0.074599   -0.503999    2.633306
     36          1           0        4.234074    0.453518   -0.537410
     37          1           0        6.218628   -0.869688   -0.325465
     38          1           0        5.552814   -0.595784    1.274902
     39          1           0        4.662237   -1.388717   -2.258589
     40          1           0        3.000966   -0.804943   -2.201500
     41          1           0        3.403507   -2.350072   -1.452693
     42          1           0       -1.370783    3.484103    0.919313
     43          1           0       -0.161648    2.327896    1.499339
     44          1           0       -1.275270    0.164554   -2.364807
     45          1           0       -2.299722   -2.766436    1.131637
     46          1           0       -1.498361   -2.777141   -0.438647
     47          1           0       -3.736669   -0.932260    0.486990
     48          1           0       -5.571368   -0.588394   -1.295645
     49          1           0       -4.426623   -0.386611   -2.641356
     50          1           0       -5.628175   -1.680751   -2.682373
     51          1           0       -3.284810   -4.030393   -1.085652
     52          1           0       -4.625082   -3.774752   -2.322479
     53          1           0        1.236367    2.265150   -3.012803
     54          1           0        2.403079    3.463173   -2.514885
     55          1           0        0.713756    3.946591   -2.777791
     56          1           0        0.737004    4.942814   -0.309180
     57          1           0        2.439126    4.435084   -0.299392
     58          1           0        1.387677    3.910577    0.988567
     59          1           0       -3.704714    1.689088    3.840237
     60          1           0       -3.045563    3.010774    2.868768
     61          1           0       -4.361518    2.001290    2.228862
     62          6           0        5.409476   -2.623899    0.594358
     63          1           0        5.375644   -3.195537   -0.337918
     64          1           0        4.574868   -2.942572    1.225349
     65          1           0        6.338948   -2.889754    1.108542
 ---------------------------------------------------------------------
 Rotational constants (GHZ):      0.2103506      0.1235897      0.1064288
 Standard basis: 6-31G(d) (6D, 7F)
 There are   533 symmetry adapted basis functions of A   symmetry.
 Integral buffers will be    131072 words long.
 Raffenetti 2 integral format.
 Two-electron integral symmetry is turned on.
   533 basis functions,  1004 primitive gaussians,   533 cartesian basis functions
   115 alpha electrons      115 beta electrons
       nuclear repulsion energy      3501.8580888145 Hartrees.
 NAtoms=   65 NActive=   65 NUniq=   65 SFac= 1.00D+00 NAtFMM=   50 NAOKFM=T Big=T
 One-electron integrals computed using PRISM.
 NBasis=   533 RedAO= T  NBF=   533
 NBsUse=   533 1.00D-06 NBFU=   533
 Harris functional with IExCor=  402 diagonalized for initial guess.
 ExpMin= 1.61D-01 ExpMax= 5.48D+03 ExpMxC= 8.25D+02 IAcc=1 IRadAn=         1 AccDes= 0.00D+00
 HarFok:  IExCor=  402 AccDes= 0.00D+00 IRadAn=         1 IDoV= 1
 ScaDFX=  1.000000  1.000000  1.000000  1.000000
 FoFCou: FMM=F IPFlag=           0 FMFlag=      100000 FMFlg1=        2001
         NFxFlg=           0 DoJE=T BraDBF=F KetDBF=T FulRan=T
         Omega=  0.000000  0.000000  1.000000  0.000000  0.000000 ICntrl=     500 IOpCl=  0
         NMat0=    1 NMatS0=    1 NMatT0=    0 NMatD0=    1 NMtDS0=    0 NMtDT0=    0
         I1Cent=           4 NGrid=           0.
 Petite list used in FoFCou.
 Initial guess orbital symmetries:
       Occupied  (A) (A) (A) (A) (A) (A) (A) (A) (A) (A) (A) (A)
                 (A) (A) (A) (A) (A) (A) (A) (A) (A) (A) (A) (A)
                 (A) (A) (A) (A) (A) (A) (A) (A) (A) (A) (A) (A)
                 (A) (A) (A) (A) (A) (A) (A) (A) (A) (A) (A) (A)
                 (A) (A) (A) (A) (A) (A) (A) (A) (A) (A) (A) (A)
                 (A) (A) (A) (A) (A) (A) (A) (A) (A) (A) (A) (A)
                 (A) (A) (A) (A) (A) (A) (A) (A) (A) (A) (A) (A)
                 (A) (A) (A) (A) (A) (A) (A) (A) (A) (A) (A) (A)
                 (A) (A) (A) (A) (A) (A) (A) (A) (A) (A) (A) (A)
                 (A) (A) (A) (A) (A) (A) (A)
       Virtual   (A) (A) (A) (A) (A) (A) (A) (A) (A) (A) (A) (A)
                 (A) (A) (A) (A) (A) (A) (A) (A) (A) (A) (A) (A)
                 (A) (A) (A) (A) (A) (A) (A) (A) (A) (A) (A) (A)
                 (A) (A) (A) (A) (A) (A) (A) (A) (A) (A) (A) (A)
                 (A) (A) (A) (A) (A) (A) (A) (A) (A) (A) (A) (A)
                 (A) (A) (A) (A) (A) (A) (A) (A) (A) (A) (A) (A)
                 (A) (A) (A) (A) (A) (A) (A) (A) (A) (A) (A) (A)
                 (A) (A) (A) (A) (A) (A) (A) (A) (A) (A) (A) (A)
                 (A) (A) (A) (A) (A) (A) (A) (A) (A) (A) (A) (A)
                 (A) (A) (A) (A) (A) (A) (A) (A) (A) (A) (A) (A)
                 (A) (A) (A) (A) (A) (A) (A) (A) (A) (A) (A) (A)
                 (A) (A) (A) (A) (A) (A) (A) (A) (A) (A) (A) (A)
                 (A) (A) (A) (A) (A) (A) (A) (A) (A) (A) (A) (A)
                 (A) (A) (A) (A) (A) (A) (A) (A) (A) (A) (A) (A)
                 (A) (A) (A) (A) (A) (A) (A) (A) (A) (A) (A) (A)
                 (A) (A) (A) (A) (A) (A) (A) (A) (A) (A) (A) (A)
                 (A) (A) (A) (A) (A) (A) (A) (A) (A) (A) (A) (A)
                 (A) (A) (A) (A) (A) (A) (A) (A) (A) (A) (A) (A)
                 (A) (A) (A) (A) (A) (A) (A) (A) (A) (A) (A) (A)
                 (A) (A) (A) (A) (A) (A) (A) (A) (A) (A) (A) (A)
                 (A) (A) (A) (A) (A) (A) (A) (A) (A) (A) (A) (A)
                 (A) (A) (A) (A) (A) (A) (A) (A) (A) (A) (A) (A)
                 (A) (A) (A) (A) (A) (A) (A) (A) (A) (A) (A) (A)
                 (A) (A) (A) (A) (A) (A) (A) (A) (A) (A) (A) (A)
                 (A) (A) (A) (A) (A) (A) (A) (A) (A) (A) (A) (A)
                 (A) (A) (A) (A) (A) (A) (A) (A) (A) (A) (A) (A)
                 (A) (A) (A) (A) (A) (A) (A) (A) (A) (A) (A) (A)
                 (A) (A) (A) (A) (A) (A) (A) (A) (A) (A) (A) (A)
                 (A) (A) (A) (A) (A) (A) (A) (A) (A) (A) (A) (A)
                 (A) (A) (A) (A) (A) (A) (A) (A) (A) (A) (A) (A)
                 (A) (A) (A) (A) (A) (A) (A) (A) (A) (A) (A) (A)
                 (A) (A) (A) (A) (A) (A) (A) (A) (A) (A) (A) (A)
                 (A) (A) (A) (A) (A) (A) (A) (A) (A) (A) (A) (A)
                 (A) (A) (A) (A) (A) (A) (A) (A) (A) (A) (A) (A)
                 (A) (A) (A) (A) (A) (A) (A) (A) (A) (A)
 The electronic state of the initial guess is 1-A.
 Requested convergence on RMS density matrix=1.00D-08 within 128 cycles.
 Requested convergence on MAX density matrix=1.00D-06.
 Requested convergence on             energy=1.00D-06.
 No special actions if energy rises.
 Integral accuracy reduced to 1.0D-05 until final iterations.
 Initial convergence to 1.0D-05 achieved.  Increase integral accuracy.
 SCF Done:  E(RB3LYP) =  -1387.30124302     A.U. after   16 cycles
             Convg  =    0.3937D-08             -V/T =  2.0091

 **********************************************************************

            Population analysis using the SCF density.

 **********************************************************************

 Orbital symmetries:
       Occupied  (A) (A) (A) (A) (A) (A) (A) (A) (A) (A) (A) (A)
                 (A) (A) (A) (A) (A) (A) (A) (A) (A) (A) (A) (A)
                 (A) (A) (A) (A) (A) (A) (A) (A) (A) (A) (A) (A)
                 (A) (A) (A) (A) (A) (A) (A) (A) (A) (A) (A) (A)
                 (A) (A) (A) (A) (A) (A) (A) (A) (A) (A) (A) (A)
                 (A) (A) (A) (A) (A) (A) (A) (A) (A) (A) (A) (A)
                 (A) (A) (A) (A) (A) (A) (A) (A) (A) (A) (A) (A)
                 (A) (A) (A) (A) (A) (A) (A) (A) (A) (A) (A) (A)
                 (A) (A) (A) (A) (A) (A) (A) (A) (A) (A) (A) (A)
                 (A) (A) (A) (A) (A) (A) (A)
       Virtual   (A) (A) (A) (A) (A) (A) (A) (A) (A) (A) (A) (A)
                 (A) (A) (A) (A) (A) (A) (A) (A) (A) (A) (A) (A)
                 (A) (A) (A) (A) (A) (A) (A) (A) (A) (A) (A) (A)
                 (A) (A) (A) (A) (A) (A) (A) (A) (A) (A) (A) (A)
                 (A) (A) (A) (A) (A) (A) (A) (A) (A) (A) (A) (A)
                 (A) (A) (A) (A) (A) (A) (A) (A) (A) (A) (A) (A)
                 (A) (A) (A) (A) (A) (A) (A) (A) (A) (A) (A) (A)
                 (A) (A) (A) (A) (A) (A) (A) (A) (A) (A) (A) (A)
                 (A) (A) (A) (A) (A) (A) (A) (A) (A) (A) (A) (A)
                 (A) (A) (A) (A) (A) (A) (A) (A) (A) (A) (A) (A)
                 (A) (A) (A) (A) (A) (A) (A) (A) (A) (A) (A) (A)
                 (A) (A) (A) (A) (A) (A) (A) (A) (A) (A) (A) (A)
                 (A) (A) (A) (A) (A) (A) (A) (A) (A) (A) (A) (A)
                 (A) (A) (A) (A) (A) (A) (A) (A) (A) (A) (A) (A)
                 (A) (A) (A) (A) (A) (A) (A) (A) (A) (A) (A) (A)
                 (A) (A) (A) (A) (A) (A) (A) (A) (A) (A) (A) (A)
                 (A) (A) (A) (A) (A) (A) (A) (A) (A) (A) (A) (A)
                 (A) (A) (A) (A) (A) (A) (A) (A) (A) (A) (A) (A)
                 (A) (A) (A) (A) (A) (A) (A) (A) (A) (A) (A) (A)
                 (A) (A) (A) (A) (A) (A) (A) (A) (A) (A) (A) (A)
                 (A) (A) (A) (A) (A) (A) (A) (A) (A) (A) (A) (A)
                 (A) (A) (A) (A) (A) (A) (A) (A) (A) (A) (A) (A)
                 (A) (A) (A) (A) (A) (A) (A) (A) (A) (A) (A) (A)
                 (A) (A) (A) (A) (A) (A) (A) (A) (A) (A) (A) (A)
                 (A) (A) (A) (A) (A) (A) (A) (A) (A) (A) (A) (A)
                 (A) (A) (A) (A) (A) (A) (A) (A) (A) (A) (A) (A)
                 (A) (A) (A) (A) (A) (A) (A) (A) (A) (A) (A) (A)
                 (A) (A) (A) (A) (A) (A) (A) (A) (A) (A) (A) (A)
                 (A) (A) (A) (A) (A) (A) (A) (A) (A) (A) (A) (A)
                 (A) (A) (A) (A) (A) (A) (A) (A) (A) (A) (A) (A)
                 (A) (A) (A) (A) (A) (A) (A) (A) (A) (A) (A) (A)
                 (A) (A) (A) (A) (A) (A) (A) (A) (A) (A) (A) (A)
                 (A) (A) (A) (A) (A) (A) (A) (A) (A) (A) (A) (A)
                 (A) (A) (A) (A) (A) (A) (A) (A) (A) (A) (A) (A)
                 (A) (A) (A) (A) (A) (A) (A) (A) (A) (A)
 The electronic state is 1-A.
 Alpha  occ. eigenvalues --  -19.19650 -19.16969 -19.14713 -19.13456 -19.13434
 Alpha  occ. eigenvalues --  -10.27573 -10.27145 -10.26560 -10.26323 -10.26108
 Alpha  occ. eigenvalues --  -10.25706 -10.24697 -10.21701 -10.20396 -10.20335
 Alpha  occ. eigenvalues --  -10.20026 -10.19896 -10.19623 -10.19557 -10.19165
 Alpha  occ. eigenvalues --  -10.18894 -10.18782 -10.18686 -10.18650 -10.18643
 Alpha  occ. eigenvalues --  -10.18438 -10.18348 -10.17853 -10.16777 -10.16749
 Alpha  occ. eigenvalues --  -10.15504  -1.08585  -1.06280  -1.03312  -1.02307
 Alpha  occ. eigenvalues --   -1.01978  -0.87625  -0.84022  -0.82632  -0.81553
 Alpha  occ. eigenvalues --   -0.80410  -0.79657  -0.77094  -0.74306  -0.73596
 Alpha  occ. eigenvalues --   -0.72580  -0.71200  -0.69748  -0.69046  -0.68224
 Alpha  occ. eigenvalues --   -0.65097  -0.64165  -0.63744  -0.62591  -0.61165
 Alpha  occ. eigenvalues --   -0.59330  -0.58645  -0.57200  -0.55090  -0.53551
 Alpha  occ. eigenvalues --   -0.52961  -0.51758  -0.50966  -0.50402  -0.49370
 Alpha  occ. eigenvalues --   -0.48299  -0.47578  -0.46563  -0.46404  -0.45839
 Alpha  occ. eigenvalues --   -0.45313  -0.44737  -0.44416  -0.44078  -0.43313
 Alpha  occ. eigenvalues --   -0.43153  -0.42729  -0.42491  -0.41743  -0.41527
 Alpha  occ. eigenvalues --   -0.40741  -0.40672  -0.40334  -0.39841  -0.39616
 Alpha  occ. eigenvalues --   -0.39033  -0.38803  -0.38764  -0.38231  -0.38052
 Alpha  occ. eigenvalues --   -0.37743  -0.37072  -0.36973  -0.36758  -0.36638
 Alpha  occ. eigenvalues --   -0.36126  -0.35494  -0.35411  -0.34838  -0.34045
 Alpha  occ. eigenvalues --   -0.33869  -0.33032  -0.32790  -0.32378  -0.32236
 Alpha  occ. eigenvalues --   -0.31895  -0.31389  -0.30994  -0.27897  -0.27083
 Alpha  occ. eigenvalues --   -0.25719  -0.24857  -0.24479  -0.23658  -0.23226
 Alpha virt. eigenvalues --   -0.04732  -0.02193   0.00802   0.01607   0.03718
 Alpha virt. eigenvalues --    0.06457   0.08191   0.08913   0.09480   0.10298
 Alpha virt. eigenvalues --    0.10474   0.11420   0.11537   0.12033   0.12339
 Alpha virt. eigenvalues --    0.12906   0.13039   0.13545   0.13683   0.14026
 Alpha virt. eigenvalues --    0.14518   0.14646   0.15212   0.15293   0.15447
 Alpha virt. eigenvalues --    0.15882   0.16089   0.16456   0.16673   0.17582
 Alpha virt. eigenvalues --    0.17874   0.18159   0.18475   0.18727   0.18969
 Alpha virt. eigenvalues --    0.19203   0.19251   0.19883   0.20124   0.20329
 Alpha virt. eigenvalues --    0.20707   0.20910   0.21324   0.21628   0.22451
 Alpha virt. eigenvalues --    0.22630   0.23287   0.23822   0.24128   0.24477
 Alpha virt. eigenvalues --    0.25236   0.25502   0.25968   0.26405   0.26686
 Alpha virt. eigenvalues --    0.27597   0.27644   0.28457   0.29054   0.30549
 Alpha virt. eigenvalues --    0.31074   0.31853   0.32655   0.34091   0.34683
 Alpha virt. eigenvalues --    0.34904   0.35878   0.37163   0.38661   0.40136
 Alpha virt. eigenvalues --    0.41703   0.44774   0.46396   0.47771   0.48534
 Alpha virt. eigenvalues --    0.49657   0.50140   0.50731   0.51341   0.51812
 Alpha virt. eigenvalues --    0.51898   0.52255   0.52757   0.53423   0.53695
 Alpha virt. eigenvalues --    0.54171   0.54694   0.55320   0.55429   0.56135
 Alpha virt. eigenvalues --    0.56778   0.57494   0.57803   0.58187   0.58815
 Alpha virt. eigenvalues --    0.59263   0.59999   0.60643   0.60909   0.61764
 Alpha virt. eigenvalues --    0.62183   0.62745   0.63731   0.64112   0.65206
 Alpha virt. eigenvalues --    0.65666   0.66388   0.66647   0.67079   0.67317
 Alpha virt. eigenvalues --    0.67672   0.68271   0.68585   0.68797   0.69903
 Alpha virt. eigenvalues --    0.70523   0.71175   0.71524   0.72191   0.72696
 Alpha virt. eigenvalues --    0.73783   0.74044   0.75024   0.75653   0.76387
 Alpha virt. eigenvalues --    0.76902   0.77637   0.78275   0.78896   0.79145
 Alpha virt. eigenvalues --    0.79797   0.80308   0.81345   0.81653   0.82790
 Alpha virt. eigenvalues --    0.83388   0.83697   0.84013   0.84345   0.84702
 Alpha virt. eigenvalues --    0.85499   0.86077   0.86424   0.86798   0.87311
 Alpha virt. eigenvalues --    0.87353   0.87474   0.88617   0.88943   0.89335
 Alpha virt. eigenvalues --    0.89695   0.89745   0.90113   0.90392   0.90617
 Alpha virt. eigenvalues --    0.90973   0.91191   0.91418   0.91666   0.92180
 Alpha virt. eigenvalues --    0.92667   0.93351   0.93822   0.94020   0.94629
 Alpha virt. eigenvalues --    0.95039   0.95494   0.96126   0.96295   0.96569
 Alpha virt. eigenvalues --    0.97217   0.97937   0.98105   0.98741   0.99536
 Alpha virt. eigenvalues --    1.00247   1.00943   1.02193   1.02680   1.02974
 Alpha virt. eigenvalues --    1.04193   1.04701   1.05157   1.05989   1.07097
 Alpha virt. eigenvalues --    1.08061   1.09646   1.10334   1.10888   1.12288
 Alpha virt. eigenvalues --    1.13993   1.14780   1.15078   1.16139   1.16258
 Alpha virt. eigenvalues --    1.16858   1.18427   1.18727   1.19903   1.20056
 Alpha virt. eigenvalues --    1.21102   1.22714   1.24756   1.25435   1.26455
 Alpha virt. eigenvalues --    1.27738   1.28341   1.30665   1.31553   1.33123
 Alpha virt. eigenvalues --    1.33572   1.35550   1.37693   1.38745   1.40867
 Alpha virt. eigenvalues --    1.41367   1.42141   1.43559   1.45009   1.46902
 Alpha virt. eigenvalues --    1.47582   1.49338   1.49735   1.50672   1.51035
 Alpha virt. eigenvalues --    1.52838   1.54363   1.56005   1.56857   1.57679
 Alpha virt. eigenvalues --    1.59247   1.61773   1.62116   1.63758   1.64960
 Alpha virt. eigenvalues --    1.66471   1.67586   1.68128   1.68835   1.69681
 Alpha virt. eigenvalues --    1.70272   1.71412   1.72250   1.73057   1.74102
 Alpha virt. eigenvalues --    1.75290   1.75760   1.76254   1.76982   1.78128
 Alpha virt. eigenvalues --    1.78369   1.79514   1.80356   1.80913   1.81401
 Alpha virt. eigenvalues --    1.82783   1.82969   1.83451   1.84447   1.85842
 Alpha virt. eigenvalues --    1.86399   1.86596   1.87408   1.87842   1.88352
 Alpha virt. eigenvalues --    1.89154   1.89488   1.90237   1.91453   1.91933
 Alpha virt. eigenvalues --    1.92808   1.93376   1.93828   1.94880   1.96147
 Alpha virt. eigenvalues --    1.96377   1.96775   1.97242   1.97397   1.98592
 Alpha virt. eigenvalues --    1.99267   2.00038   2.00092   2.01268   2.01592
 Alpha virt. eigenvalues --    2.02651   2.03033   2.03876   2.04614   2.05308
 Alpha virt. eigenvalues --    2.06487   2.07971   2.08668   2.09787   2.10036
 Alpha virt. eigenvalues --    2.10700   2.11889   2.12356   2.12997   2.14427
 Alpha virt. eigenvalues --    2.14811   2.15439   2.16397   2.16735   2.17569
 Alpha virt. eigenvalues --    2.18348   2.18625   2.19488   2.21537   2.22108
 Alpha virt. eigenvalues --    2.23401   2.24689   2.25787   2.25984   2.27680
 Alpha virt. eigenvalues --    2.28435   2.28772   2.29178   2.30492   2.32687
 Alpha virt. eigenvalues --    2.32892   2.33333   2.33979   2.34233   2.35246
 Alpha virt. eigenvalues --    2.35719   2.37027   2.37639   2.38152   2.38885
 Alpha virt. eigenvalues --    2.41383   2.41629   2.42143   2.43205   2.44411
 Alpha virt. eigenvalues --    2.46062   2.46495   2.47192   2.48225   2.49210
 Alpha virt. eigenvalues --    2.49782   2.50972   2.52485   2.54753   2.55858
 Alpha virt. eigenvalues --    2.56548   2.57069   2.58296   2.59511   2.60783
 Alpha virt. eigenvalues --    2.60825   2.62092   2.63521   2.64516   2.65744
 Alpha virt. eigenvalues --    2.66898   2.67143   2.68412   2.69959   2.71072
 Alpha virt. eigenvalues --    2.71990   2.74024   2.75566   2.76573   2.78633
 Alpha virt. eigenvalues --    2.79205   2.80773   2.81377   2.82174   2.87430
 Alpha virt. eigenvalues --    2.89172   2.91457   2.93012   2.93811   2.95556
 Alpha virt. eigenvalues --    2.97215   2.99222   3.00328   3.01071   3.03571
 Alpha virt. eigenvalues --    3.03995   3.07860   3.12458   3.16592   3.22700
 Alpha virt. eigenvalues --    3.24115   3.28257   3.99872   4.10399   4.11867
 Alpha virt. eigenvalues --    4.13125   4.14713   4.17128   4.18480   4.20056
 Alpha virt. eigenvalues --    4.21656   4.22743   4.24539   4.26361   4.28733
 Alpha virt. eigenvalues --    4.31858   4.34316   4.36704   4.38742   4.42632
 Alpha virt. eigenvalues --    4.45603   4.47892   4.51517   4.54498   4.60171
 Alpha virt. eigenvalues --    4.65162   4.66337   4.70723   4.72734   4.77323
 Alpha virt. eigenvalues --    4.88791   4.95288   5.26114
          Condensed to atoms (all electrons):
 Mulliken atomic charges:
              1
     1  C   -0.194836
     2  C    0.194028
     3  C   -0.190861
     4  C    0.317097
     5  C   -0.034355
     6  C   -0.331444
     7  C    0.204187
     8  C    0.405540
     9  C   -0.086851
    10  C    0.399405
    11  C    0.430769
    12  O   -0.463544
    13  C   -0.171860
    14  C   -0.248462
    15  C   -0.469257
    16  O   -0.483530
    17  C   -0.153205
    18  C    0.306018
    19  O   -0.541668
    20  C   -0.307301
    21  O   -0.672373
    22  C   -0.312718
    23  C    0.098747
    24  O   -0.584488
    25  C    0.188683
    26  C   -0.504691
    27  C   -0.395036
    28  C   -0.460081
    29  C   -0.463701
    30  H    0.145870
    31  H    0.149011
    32  C   -0.519266
    33  H    0.126015
    34  H    0.163835
    35  H    0.183512
    36  H    0.168584
    37  H    0.122762
    38  H    0.148705
    39  H    0.146311
    40  H    0.157718
    41  H    0.171228
    42  H    0.149188
    43  H    0.163923
    44  H    0.419207
    45  H    0.151527
    46  H    0.177726
    47  H    0.136885
    48  H    0.149943
    49  H    0.166343
    50  H    0.153241
    51  H    0.149676
    52  H    0.141088
    53  H    0.184695
    54  H    0.148715
    55  H    0.141244
    56  H    0.150145
    57  H    0.157486
    58  H    0.158896
    59  H    0.158357
    60  H    0.156467
    61  H    0.153013
    62  C   -0.452601
    63  H    0.140309
    64  H    0.168764
    65  H    0.137266
 Sum of Mulliken atomic charges =   0.00000
 Mulliken charges with hydrogens summed into heavy atoms:
              1
     1  C   -0.068821
     2  C    0.194028
     3  C   -0.041850
     4  C    0.317097
     5  C   -0.034355
     6  C    0.015903
     7  C    0.204187
     8  C    0.405540
     9  C   -0.086851
    10  C    0.399405
    11  C    0.430769
    12  O   -0.463544
    13  C   -0.003275
    14  C    0.023005
    15  C    0.005999
    16  O   -0.483530
    17  C   -0.007335
    18  C    0.306018
    19  O   -0.541668
    20  C    0.005810
    21  O   -0.253166
    22  C    0.016535
    23  C    0.235632
    24  O   -0.584488
    25  C    0.188683
    26  C   -0.035163
    27  C   -0.104272
    28  C    0.014572
    29  C    0.002827
    32  C   -0.051430
    62  C   -0.006262
 Sum of Mulliken charges with hydrogens summed into heavy atoms =   0.00000
 Electronic spatial extent (au):  <R**2>=          11848.7386
 Charge=              0.0000 electrons
 Dipole moment (field-independent basis, Debye):
    X=             -4.1161    Y=              4.0906    Z=             -0.7133  Tot=              5.8467
 Quadrupole moment (field-independent basis, Debye-Ang):
   XX=           -179.3377   YY=           -180.7402   ZZ=           -186.9780
   XY=              5.1166   XZ=             -7.8129   YZ=              1.7308
 Traceless Quadrupole moment (field-independent basis, Debye-Ang):
   XX=              3.0143   YY=              1.6118   ZZ=             -4.6261
   XY=              5.1166   XZ=             -7.8129   YZ=              1.7308
 Octapole moment (field-independent basis, Debye-Ang**2):
  XXX=            -10.7208  YYY=             50.6542  ZZZ=             -1.0341  XYY=            -16.9885
  XXY=              2.4778  XXZ=            -36.7741  XZZ=            -28.1647  YZZ=             -1.0420
  YYZ=            -14.4512  XYZ=             -0.6631
 Hexadecapole moment (field-independent basis, Debye-Ang**3):
 XXXX=          -8872.6124 YYYY=          -4334.1531 ZZZZ=          -2539.2079 XXXY=             23.6565
 XXXZ=             10.3964 YYYX=             74.7565 YYYZ=            -14.1269 ZZZX=            -13.9387
 ZZZY=            -16.6374 XXYY=          -2215.8810 XXZZ=          -1907.7078 YYZZ=          -1138.2369
 XXYZ=             57.2844 YYXZ=             15.9426 ZZXY=             33.5598
 N-N= 3.501858088814D+03 E-N=-1.023003198232D+04  KE= 1.374798505146D+03
 Calling FoFJK, ICntrl=      2127 FMM=T ISym2X=0 I1Cent= 0 IOpClX= 0 NMat=1 NMatS=1 NMatT=0.
 ***** Axes restored to original set *****
 -------------------------------------------------------------------
 Center     Atomic                   Forces (Hartrees/Bohr)
 Number     Number              X              Y              Z
 -------------------------------------------------------------------
      1        6           0.009970248    0.000027095    0.000885165
      2        6          -0.009818633   -0.006363043    0.003403249
      3        6          -0.006208269   -0.009744636   -0.003300724
      4        6           0.010518782   -0.007777204    0.012500759
      5        6          -0.008069099    0.005518805    0.006699960
      6        6          -0.008928685   -0.008631717   -0.005825535
      7        6           0.020953941    0.013411516    0.010829071
      8        6          -0.004768103   -0.002903624   -0.024155253
      9        6           0.006003750   -0.002091875    0.006860012
     10        6          -0.018175558    0.016703030   -0.002497301
     11        6          -0.017723307   -0.008915224   -0.015917686
     12        8           0.007744360    0.014389727    0.006501230
     13        6          -0.009195495    0.001158770   -0.006940435
     14        6          -0.001378416   -0.003666672   -0.004942780
     15        6           0.006215728    0.000497847    0.008080531
     16        8           0.010385741   -0.010965937    0.000223588
     17        6           0.003542471   -0.006408565   -0.011455330
     18        6           0.030664858    0.004360832   -0.012673899
     19        8          -0.011752426   -0.007583266    0.032819357
     20        6           0.009655421   -0.001653249   -0.005384106
     21        8          -0.003881229    0.005031960    0.004995285
     22        6          -0.005674145    0.000117976    0.011383363
     23        6          -0.004661786    0.003659430    0.007586465
     24        8           0.000575856    0.002855929   -0.011901649
     25        6          -0.002486168    0.006496037    0.013134931
     26        6           0.001082162    0.001349368    0.001133452
     27        6           0.001240089   -0.004272546   -0.010617405
     28        6          -0.002038273    0.008497389    0.001396559
     29        6          -0.008139524   -0.000688223   -0.007790068
     30        1          -0.002931273    0.001803556   -0.000007528
     31        1          -0.001753571    0.005992110    0.000593619
     32        6          -0.002395465   -0.000324168   -0.000011374
     33        1           0.000651378   -0.000730297    0.000029483
     34        1           0.000474984    0.005159045   -0.000587394
     35        1          -0.001547540    0.005250956   -0.001371904
     36        1           0.003336267   -0.002384737    0.001149615
     37        1           0.002946763    0.000469407    0.000131572
     38        1           0.001878671   -0.000607436    0.001426245
     39        1          -0.001174099   -0.000284122   -0.001296255
     40        1          -0.000396812   -0.000112911    0.000953886
     41        1          -0.000143594    0.000620829   -0.000397218
     42        1          -0.002016076   -0.001472399   -0.001512437
     43        1           0.000236909    0.000880822    0.000759388
     44        1          -0.003077997    0.000758338   -0.003732521
     45        1          -0.000136569    0.000584093   -0.003072354
     46        1           0.000133650   -0.002055822   -0.001867318
     47        1           0.001312412   -0.003342268   -0.000660846
     48        1           0.003363560   -0.001230991   -0.001973223
     49        1           0.002391255   -0.002299263   -0.001731768
     50        1          -0.002025751    0.000256577   -0.000627441
     51        1          -0.000897341    0.000835005   -0.000769802
     52        1           0.000594170   -0.001281806    0.000099594
     53        1           0.000287965   -0.004520182    0.003521626
     54        1           0.000638102   -0.003330389   -0.002160109
     55        1           0.000146924   -0.000755939   -0.000310048
     56        1          -0.000178385    0.000795812    0.001300733
     57        1           0.001892607    0.001583084    0.001863218
     58        1           0.001198156   -0.001745151    0.002739582
     59        1          -0.000649452    0.000947564   -0.000312479
     60        1           0.004016558   -0.001620296   -0.000057552
     61        1           0.004289831   -0.001196058    0.000134485
     62        6          -0.003835639    0.000727842    0.001051792
     63        1          -0.000957385    0.000383859    0.001291370
     64        1          -0.000056808   -0.000356617    0.000211399
     65        1          -0.001270696    0.000192022    0.000171159
 -------------------------------------------------------------------
 Cartesian Forces:  Max     0.032819357 RMS     0.006677524

 GradGradGradGradGradGradGradGradGradGradGradGradGradGradGradGradGradGrad
 Berny optimization.
 Internal  Forces:  Max     0.017369624 RMS     0.003344867
 Search for a local minimum.
 Step number   1 out of a maximum of  390
 All quantities printed in internal units (Hartrees-Bohrs-Radians)
 Mixed Optimization -- RFO/linear search
 Second derivative matrix not updated -- first step.
 ITU=  0
     Eigenvalues ---    0.00230   0.00280   0.00321   0.00354   0.00377
     Eigenvalues ---    0.00445   0.00475   0.00564   0.00586   0.00597
     Eigenvalues ---    0.00626   0.00670   0.00731   0.00732   0.00890
     Eigenvalues ---    0.01042   0.01168   0.01253   0.01305   0.01453
     Eigenvalues ---    0.01519   0.01713   0.01739   0.01835   0.02089
     Eigenvalues ---    0.02623   0.02825   0.02825   0.03102   0.03203
     Eigenvalues ---    0.03307   0.03526   0.03702   0.03788   0.04073
     Eigenvalues ---    0.04247   0.04299   0.04376   0.04493   0.04659
     Eigenvalues ---    0.04762   0.04820   0.04974   0.05145   0.05282
     Eigenvalues ---    0.05318   0.05338   0.05407   0.05423   0.05452
     Eigenvalues ---    0.05464   0.05503   0.05535   0.05569   0.05642
     Eigenvalues ---    0.05694   0.05733   0.05864   0.05941   0.06144
     Eigenvalues ---    0.06553   0.06789   0.07093   0.07103   0.07147
     Eigenvalues ---    0.07181   0.07255   0.07310   0.07422   0.08040
     Eigenvalues ---    0.08337   0.08690   0.08947   0.09425   0.09443
     Eigenvalues ---    0.09988   0.10238   0.11427   0.11918   0.12461
     Eigenvalues ---    0.12564   0.13297   0.14558   0.15403   0.15897
     Eigenvalues ---    0.15967   0.16000   0.16000   0.16000   0.16000
     Eigenvalues ---    0.16000   0.16000   0.16000   0.16000   0.16000
     Eigenvalues ---    0.16000   0.16000   0.16000   0.16000   0.16000
     Eigenvalues ---    0.16000   0.16000   0.16000   0.16000   0.16000
     Eigenvalues ---    0.16000   0.16590   0.17182   0.18112   0.18506
     Eigenvalues ---    0.19791   0.20991   0.21944   0.22367   0.22504
     Eigenvalues ---    0.23409   0.24803   0.24898   0.24976   0.24985
     Eigenvalues ---    0.24992   0.24999   0.25000   0.26113   0.26670
     Eigenvalues ---    0.26958   0.27118   0.27393   0.27728   0.28332
     Eigenvalues ---    0.28379   0.28809   0.28906   0.29090   0.29320
     Eigenvalues ---    0.29481   0.29960   0.30233   0.30870   0.31290
     Eigenvalues ---    0.31631   0.31881   0.32098   0.33261   0.33598
     Eigenvalues ---    0.33876   0.33889   0.33942   0.33973   0.33991
     Eigenvalues ---    0.34006   0.34010   0.34015   0.34044   0.34071
     Eigenvalues ---    0.34075   0.34202   0.34211   0.34213   0.34224
     Eigenvalues ---    0.34226   0.34228   0.34228   0.34240   0.34243
     Eigenvalues ---    0.34263   0.34268   0.34270   0.34273   0.34278
     Eigenvalues ---    0.34292   0.34343   0.34369   0.34384   0.34666
     Eigenvalues ---    0.34975   0.35014   0.35234   0.35426   0.36594
     Eigenvalues ---    0.37139   0.41134   0.44298   0.50129   0.53543
     Eigenvalues ---    0.54447   0.56249   0.90099   0.90957
 RFO step:  Lambda=-2.10016083D-02 EMin= 2.30000000D-03
 Linear search not attempted -- first point.
 Iteration  1 RMS(Cart)=  0.04792767 RMS(Int)=  0.00072617
 Iteration  2 RMS(Cart)=  0.00113552 RMS(Int)=  0.00024391
 Iteration  3 RMS(Cart)=  0.00000073 RMS(Int)=  0.00024391
 Variable       Old X    -DE/DX   Delta X   Delta X   Delta X     New X
                                 (Linear)    (Quad)   (Total)
    R1        2.53261  -0.00178   0.00000  -0.00385  -0.00393   2.52868
    R2        2.82116   0.00892   0.00000   0.02589   0.02578   2.84693
    R3        2.05652   0.00030   0.00000   0.00082   0.00082   2.05734
    R4        2.84291   0.00523   0.00000   0.01318   0.01321   2.85612
    R5        2.83965   0.00464   0.00000   0.01355   0.01355   2.85320
    R6        2.94351   0.00662   0.00000   0.01713   0.01708   2.96059
    R7        2.89550   0.01033   0.00000   0.03524   0.03519   2.93070
    R8        2.08013  -0.00189   0.00000  -0.00528  -0.00528   2.07485
    R9        2.92891   0.01322   0.00000   0.04180   0.04178   2.97069
   R10        2.91947   0.00784   0.00000   0.03062   0.03088   2.95035
   R11        2.76070  -0.00636   0.00000  -0.01772  -0.01775   2.74295
   R12        2.91609   0.00564   0.00000   0.02080   0.02076   2.93686
   R13        2.90799   0.00472   0.00000   0.00852   0.00821   2.91620
   R14        2.91492   0.00617   0.00000   0.02067   0.02066   2.93557
   R15        2.07518  -0.00160   0.00000  -0.00445  -0.00445   2.07074
   R16        2.07540   0.00255   0.00000   0.00710   0.00710   2.08250
   R17        2.81635   0.01120   0.00000   0.02533   0.02504   2.84139
   R18        2.86691   0.01516   0.00000   0.05318   0.05265   2.91956
   R19        2.68326   0.00272   0.00000   0.00692   0.00695   2.69021
   R20        2.52412   0.01305   0.00000   0.02290   0.02301   2.54713
   R21        2.62298  -0.01737   0.00000  -0.04072  -0.04042   2.58256
   R22        2.79532   0.00223   0.00000   0.00240   0.00256   2.79787
   R23        2.79521   0.01540   0.00000   0.04189   0.04189   2.83710
   R24        2.32495  -0.01294   0.00000  -0.01390  -0.01390   2.31105
   R25        2.32887  -0.01715   0.00000  -0.01860  -0.01860   2.31028
   R26        2.89816  -0.00369   0.00000  -0.01183  -0.01183   2.88632
   R27        2.91418   0.00181   0.00000   0.00593   0.00593   2.92012
   R28        2.89011   0.00639   0.00000   0.02024   0.02024   2.91035
   R29        2.07429   0.00198   0.00000   0.00549   0.00549   2.07977
   R30        2.07346   0.00092   0.00000   0.00254   0.00254   2.07600
   R31        2.07306  -0.00079   0.00000  -0.00217  -0.00217   2.07088
   R32        2.88044   0.00674   0.00000   0.02102   0.02102   2.90146
   R33        2.06950   0.00027   0.00000   0.00074   0.00074   2.07025
   R34        2.06948   0.00007   0.00000   0.00020   0.00020   2.06967
   R35        2.06954  -0.00025   0.00000  -0.00069  -0.00069   2.06886
   R36        2.90997  -0.00011   0.00000   0.01139   0.01157   2.92154
   R37        2.90197   0.00565   0.00000   0.01868   0.01868   2.92065
[...]
     55          1           0        0.928975    4.021961   -2.698341
     56          1           0        1.063346    4.942665   -0.264670
     57          1           0        2.676443    4.209661   -0.207538
     58          1           0        1.490000    3.828036    1.051499
     59          1           0       -3.721472    1.640459    3.908354
     60          1           0       -3.125331    3.009195    2.953485
     61          1           0       -4.397373    1.981451    2.301946
     62          6           0        5.765943   -2.393276    0.489728
     63          1           0        5.927694   -2.753377   -0.532724
     64          1           0        4.991757   -3.009459    0.954178
     65          1           0        6.700149   -2.551324    1.041310
 ---------------------------------------------------------------------
 Rotational constants (GHZ):      0.2119167      0.1206686      0.1048819

 **********************************************************************

            Population analysis using the SCF density.

 **********************************************************************

 Orbital symmetries:
       Occupied  (A) (A) (A) (A) (A) (A) (A) (A) (A) (A) (A) (A)
                 (A) (A) (A) (A) (A) (A) (A) (A) (A) (A) (A) (A)
                 (A) (A) (A) (A) (A) (A) (A) (A) (A) (A) (A) (A)
                 (A) (A) (A) (A) (A) (A) (A) (A) (A) (A) (A) (A)
                 (A) (A) (A) (A) (A) (A) (A) (A) (A) (A) (A) (A)
                 (A) (A) (A) (A) (A) (A) (A) (A) (A) (A) (A) (A)
                 (A) (A) (A) (A) (A) (A) (A) (A) (A) (A) (A) (A)
                 (A) (A) (A) (A) (A) (A) (A) (A) (A) (A) (A) (A)
                 (A) (A) (A) (A) (A) (A) (A) (A) (A) (A) (A) (A)
                 (A) (A) (A) (A) (A) (A) (A)
       Virtual   (A) (A) (A) (A) (A) (A) (A) (A) (A) (A) (A) (A)
                 (A) (A) (A) (A) (A) (A) (A) (A) (A) (A) (A) (A)
                 (A) (A) (A) (A) (A) (A) (A) (A) (A) (A) (A) (A)
                 (A) (A) (A) (A) (A) (A) (A) (A) (A) (A) (A) (A)
                 (A) (A) (A) (A) (A) (A) (A) (A) (A) (A) (A) (A)
                 (A) (A) (A) (A) (A) (A) (A) (A) (A) (A) (A) (A)
                 (A) (A) (A) (A) (A) (A) (A) (A) (A) (A) (A) (A)
                 (A) (A) (A) (A) (A) (A) (A) (A) (A) (A) (A) (A)
                 (A) (A) (A) (A) (A) (A) (A) (A) (A) (A) (A) (A)
                 (A) (A) (A) (A) (A) (A) (A) (A) (A) (A) (A) (A)
                 (A) (A) (A) (A) (A) (A) (A) (A) (A) (A) (A) (A)
                 (A) (A) (A) (A) (A) (A) (A) (A) (A) (A) (A) (A)
                 (A) (A) (A) (A) (A) (A) (A) (A) (A) (A) (A) (A)
                 (A) (A) (A) (A) (A) (A) (A) (A) (A) (A) (A) (A)
                 (A) (A) (A) (A) (A) (A) (A) (A) (A) (A) (A) (A)
                 (A) (A) (A) (A) (A) (A) (A) (A) (A) (A) (A) (A)
                 (A) (A) (A) (A) (A) (A) (A) (A) (A) (A) (A) (A)
                 (A) (A) (A) (A) (A) (A) (A) (A) (A) (A) (A) (A)
                 (A) (A) (A) (A) (A) (A) (A) (A) (A) (A) (A) (A)
                 (A) (A) (A) (A) (A) (A) (A) (A) (A) (A) (A) (A)
                 (A) (A) (A) (A) (A) (A) (A) (A) (A) (A) (A) (A)
                 (A) (A) (A) (A) (A) (A) (A) (A) (A) (A) (A) (A)
                 (A) (A) (A) (A) (A) (A) (A) (A) (A) (A) (A) (A)
                 (A) (A) (A) (A) (A) (A) (A) (A) (A) (A) (A) (A)
                 (A) (A) (A) (A) (A) (A) (A) (A) (A) (A) (A) (A)
                 (A) (A) (A) (A) (A) (A) (A) (A) (A) (A) (A) (A)
                 (A) (A) (A) (A) (A) (A) (A) (A) (A) (A) (A) (A)
                 (A) (A) (A) (A) (A) (A) (A) (A) (A) (A) (A) (A)
                 (A) (A) (A) (A) (A) (A) (A) (A) (A) (A) (A) (A)
                 (A) (A) (A) (A) (A) (A) (A) (A) (A) (A) (A) (A)
                 (A) (A) (A) (A) (A) (A) (A) (A) (A) (A) (A) (A)
                 (A) (A) (A) (A) (A) (A) (A) (A) (A) (A) (A) (A)
                 (A) (A) (A) (A) (A) (A) (A) (A) (A) (A) (A) (A)
                 (A) (A) (A) (A) (A) (A) (A) (A) (A) (A) (A) (A)
                 (A) (A) (A) (A) (A) (A) (A) (A) (A) (A)
 The electronic state is 1-A.
 Alpha  occ. eigenvalues --  -19.19840 -19.17032 -19.15155 -19.12917 -19.12475
 Alpha  occ. eigenvalues --  -10.26921 -10.26862 -10.26849 -10.26372 -10.26159
 Alpha  occ. eigenvalues --  -10.26054 -10.24824 -10.21225 -10.20689 -10.20554
 Alpha  occ. eigenvalues --  -10.20404 -10.20253 -10.19879 -10.19470 -10.19413
 Alpha  occ. eigenvalues --  -10.19129 -10.18874 -10.18786 -10.18555 -10.18485
 Alpha  occ. eigenvalues --  -10.18395 -10.18212 -10.18199 -10.16866 -10.16744
 Alpha  occ. eigenvalues --  -10.15324  -1.09158  -1.06439  -1.03290  -1.02289
 Alpha  occ. eigenvalues --   -1.02057  -0.86937  -0.83844  -0.82134  -0.81325
 Alpha  occ. eigenvalues --   -0.80104  -0.79203  -0.76790  -0.74002  -0.73093
 Alpha  occ. eigenvalues --   -0.72221  -0.71020  -0.70275  -0.69112  -0.68215
 Alpha  occ. eigenvalues --   -0.64902  -0.64194  -0.63722  -0.62072  -0.60757
 Alpha  occ. eigenvalues --   -0.59120  -0.58339  -0.56784  -0.54950  -0.53128
 Alpha  occ. eigenvalues --   -0.52903  -0.51622  -0.51059  -0.49689  -0.49343
 Alpha  occ. eigenvalues --   -0.48147  -0.47243  -0.47039  -0.46438  -0.45994
 Alpha  occ. eigenvalues --   -0.45171  -0.44453  -0.44190  -0.44094  -0.43081
 Alpha  occ. eigenvalues --   -0.42657  -0.42482  -0.42239  -0.41678  -0.41255
 Alpha  occ. eigenvalues --   -0.40896  -0.40587  -0.40518  -0.39858  -0.39396
 Alpha  occ. eigenvalues --   -0.39164  -0.38943  -0.38592  -0.38324  -0.38064
 Alpha  occ. eigenvalues --   -0.37732  -0.37470  -0.37005  -0.36906  -0.36451
 Alpha  occ. eigenvalues --   -0.35940  -0.35637  -0.35441  -0.34898  -0.34329
 Alpha  occ. eigenvalues --   -0.33721  -0.33135  -0.32947  -0.32360  -0.32001
 Alpha  occ. eigenvalues --   -0.31524  -0.31040  -0.30818  -0.28084  -0.27388
 Alpha  occ. eigenvalues --   -0.25794  -0.24389  -0.24312  -0.23398  -0.22591
 Alpha virt. eigenvalues --   -0.04178  -0.01459   0.01039   0.01207   0.05214
 Alpha virt. eigenvalues --    0.06966   0.07967   0.08683   0.09463   0.10341
 Alpha virt. eigenvalues --    0.10488   0.10895   0.11514   0.11947   0.12382
 Alpha virt. eigenvalues --    0.12881   0.12960   0.13599   0.13811   0.14039
 Alpha virt. eigenvalues --    0.14288   0.15011   0.15171   0.15275   0.15617
 Alpha virt. eigenvalues --    0.15920   0.16166   0.16468   0.16601   0.17258
 Alpha virt. eigenvalues --    0.17733   0.18106   0.18253   0.18947   0.19141
 Alpha virt. eigenvalues --    0.19259   0.19387   0.19710   0.19877   0.20308
 Alpha virt. eigenvalues --    0.20539   0.21010   0.21399   0.21735   0.22223
 Alpha virt. eigenvalues --    0.22544   0.22988   0.23750   0.23884   0.24297
 Alpha virt. eigenvalues --    0.24733   0.25197   0.25526   0.26324   0.26515
 Alpha virt. eigenvalues --    0.27322   0.27799   0.28274   0.29018   0.30030
 Alpha virt. eigenvalues --    0.30528   0.31606   0.32359   0.33952   0.34571
 Alpha virt. eigenvalues --    0.34732   0.35694   0.37509   0.38881   0.39513
 Alpha virt. eigenvalues --    0.42540   0.44858   0.45931   0.47253   0.48117
 Alpha virt. eigenvalues --    0.49524   0.50112   0.50580   0.50928   0.51198
 Alpha virt. eigenvalues --    0.51771   0.52075   0.52226   0.52659   0.53346
 Alpha virt. eigenvalues --    0.53628   0.54098   0.54904   0.55066   0.55457
 Alpha virt. eigenvalues --    0.56892   0.57122   0.58108   0.58182   0.58989
 Alpha virt. eigenvalues --    0.59200   0.59589   0.60059   0.60326   0.60964
 Alpha virt. eigenvalues --    0.62117   0.62233   0.63642   0.64060   0.64920
 Alpha virt. eigenvalues --    0.65800   0.66408   0.66945   0.67108   0.67269
 Alpha virt. eigenvalues --    0.67944   0.68101   0.68921   0.69707   0.69976
 Alpha virt. eigenvalues --    0.70451   0.70826   0.71588   0.71696   0.72728
 Alpha virt. eigenvalues --    0.72794   0.73869   0.74336   0.75860   0.76046
 Alpha virt. eigenvalues --    0.76615   0.76976   0.77952   0.78594   0.78921
 Alpha virt. eigenvalues --    0.79391   0.80669   0.81282   0.81689   0.82506
 Alpha virt. eigenvalues --    0.83322   0.83613   0.84210   0.84540   0.84865
 Alpha virt. eigenvalues --    0.84996   0.86137   0.86293   0.86432   0.86995
 Alpha virt. eigenvalues --    0.87481   0.88019   0.88221   0.88422   0.88789
 Alpha virt. eigenvalues --    0.89088   0.89490   0.90273   0.90447   0.90795
 Alpha virt. eigenvalues --    0.90951   0.91277   0.91356   0.91518   0.92453
 Alpha virt. eigenvalues --    0.92965   0.93120   0.93664   0.94450   0.94756
 Alpha virt. eigenvalues --    0.94899   0.95273   0.96088   0.96589   0.96756
 Alpha virt. eigenvalues --    0.97293   0.97952   0.98344   0.98737   0.99645
 Alpha virt. eigenvalues --    1.00034   1.00646   1.01713   1.01919   1.02459
 Alpha virt. eigenvalues --    1.03633   1.04231   1.05207   1.07528   1.08708
 Alpha virt. eigenvalues --    1.09045   1.09837   1.10644   1.12307   1.13453
 Alpha virt. eigenvalues --    1.13670   1.14718   1.15674   1.15982   1.16332
 Alpha virt. eigenvalues --    1.16872   1.17863   1.19134   1.19758   1.21064
 Alpha virt. eigenvalues --    1.21284   1.23840   1.24559   1.26360   1.27050
 Alpha virt. eigenvalues --    1.28241   1.29100   1.31003   1.31731   1.33477
 Alpha virt. eigenvalues --    1.34282   1.35917   1.37316   1.38512   1.39529
 Alpha virt. eigenvalues --    1.41370   1.42229   1.43849   1.45299   1.46133
 Alpha virt. eigenvalues --    1.46792   1.48378   1.49193   1.50521   1.52760
 Alpha virt. eigenvalues --    1.52910   1.54540   1.55828   1.56988   1.57718
 Alpha virt. eigenvalues --    1.60166   1.61162   1.61643   1.63214   1.64492
 Alpha virt. eigenvalues --    1.65368   1.66838   1.67794   1.69277   1.69510
 Alpha virt. eigenvalues --    1.70122   1.71062   1.71654   1.73471   1.74308
 Alpha virt. eigenvalues --    1.74682   1.74920   1.75369   1.76089   1.77879
 Alpha virt. eigenvalues --    1.78451   1.78992   1.79648   1.80876   1.81294
 Alpha virt. eigenvalues --    1.81721   1.81972   1.82922   1.83919   1.84023
 Alpha virt. eigenvalues --    1.85699   1.86248   1.86672   1.87027   1.87578
 Alpha virt. eigenvalues --    1.88011   1.88638   1.90177   1.90369   1.90864
 Alpha virt. eigenvalues --    1.91933   1.92878   1.93366   1.93937   1.94577
 Alpha virt. eigenvalues --    1.95552   1.96472   1.96989   1.97560   1.98182
 Alpha virt. eigenvalues --    1.98253   1.98829   1.99006   2.00293   2.00724
 Alpha virt. eigenvalues --    2.02181   2.02527   2.02988   2.04108   2.05369
 Alpha virt. eigenvalues --    2.05739   2.06783   2.07374   2.08593   2.09844
 Alpha virt. eigenvalues --    2.10124   2.11041   2.11630   2.12340   2.12687
 Alpha virt. eigenvalues --    2.14006   2.14582   2.15881   2.16033   2.17089
 Alpha virt. eigenvalues --    2.18394   2.18714   2.19954   2.20025   2.21391
 Alpha virt. eigenvalues --    2.23257   2.24137   2.25083   2.25846   2.27205
 Alpha virt. eigenvalues --    2.27499   2.28834   2.29929   2.31432   2.31981
 Alpha virt. eigenvalues --    2.32524   2.32876   2.33501   2.33898   2.35255
 Alpha virt. eigenvalues --    2.35697   2.36288   2.37247   2.38769   2.39671
 Alpha virt. eigenvalues --    2.40754   2.41424   2.41638   2.42365   2.43698
 Alpha virt. eigenvalues --    2.45185   2.46433   2.46662   2.47800   2.49185
 Alpha virt. eigenvalues --    2.49771   2.51107   2.51408   2.53944   2.54555
 Alpha virt. eigenvalues --    2.56031   2.56374   2.57679   2.58558   2.59642
 Alpha virt. eigenvalues --    2.61150   2.61969   2.63242   2.65030   2.65626
 Alpha virt. eigenvalues --    2.66177   2.67198   2.68488   2.69301   2.70633
 Alpha virt. eigenvalues --    2.71363   2.73315   2.75729   2.76341   2.76771
 Alpha virt. eigenvalues --    2.78320   2.78522   2.79535   2.80413   2.86696
 Alpha virt. eigenvalues --    2.88193   2.89310   2.92042   2.94507   2.97029
 Alpha virt. eigenvalues --    2.97373   2.99247   2.99742   3.00922   3.02791
 Alpha virt. eigenvalues --    3.04596   3.06353   3.11256   3.13344   3.22057
 Alpha virt. eigenvalues --    3.25369   3.26998   4.00269   4.05864   4.09948
 Alpha virt. eigenvalues --    4.11715   4.13879   4.16108   4.17239   4.19197
 Alpha virt. eigenvalues --    4.22116   4.23574   4.26040   4.26353   4.29670
 Alpha virt. eigenvalues --    4.31537   4.33254   4.35961   4.39198   4.42205
 Alpha virt. eigenvalues --    4.46015   4.48385   4.51589   4.55326   4.59686
 Alpha virt. eigenvalues --    4.64740   4.65590   4.68341   4.73415   4.76308
 Alpha virt. eigenvalues --    4.87976   4.94921   5.23607
          Condensed to atoms (all electrons):
 Mulliken atomic charges:
              1
     1  C   -0.193064
     2  C    0.197082
     3  C   -0.196288
     4  C    0.313765
     5  C   -0.032121
     6  C   -0.329013
     7  C    0.199694
     8  C    0.400867
     9  C   -0.091962
    10  C    0.399176
    11  C    0.430063
    12  O   -0.459769
    13  C   -0.178451
    14  C   -0.244362
    15  C   -0.461235
    16  O   -0.465465
    17  C   -0.156655
    18  C    0.300835
    19  O   -0.540150
    20  C   -0.308868
    21  O   -0.669829
    22  C   -0.331235
    23  C    0.101829
    24  O   -0.585060
    25  C    0.188830
    26  C   -0.506113
    27  C   -0.393989
    28  C   -0.467369
    29  C   -0.461481
    30  H    0.147827
    31  H    0.146809
    32  C   -0.521019
    33  H    0.125616
    34  H    0.166784
    35  H    0.173173
    36  H    0.160738
    37  H    0.119969
    38  H    0.142124
    39  H    0.144471
    40  H    0.161024
    41  H    0.163951
    42  H    0.151123
    43  H    0.161216
    44  H    0.422544
    45  H    0.150111
    46  H    0.186919
    47  H    0.135987
    48  H    0.150869
    49  H    0.168288
    50  H    0.153919
    51  H    0.153671
    52  H    0.139079
    53  H    0.196075
    54  H    0.155853
    55  H    0.145189
    56  H    0.152135
    57  H    0.162789
    58  H    0.161535
    59  H    0.158769
    60  H    0.155077
    61  H    0.153974
    62  C   -0.452950
    63  H    0.136197
    64  H    0.175816
    65  H    0.134688
 Sum of Mulliken atomic charges =   0.00000
 Mulliken charges with hydrogens summed into heavy atoms:
              1
     1  C   -0.067448
     2  C    0.197082
     3  C   -0.049480
     4  C    0.313765
     5  C   -0.032121
     6  C    0.010944
     7  C    0.199694
     8  C    0.400867
     9  C   -0.091962
    10  C    0.399176
    11  C    0.430063
    12  O   -0.459769
    13  C   -0.017713
    14  C    0.017730
    15  C    0.008211
    16  O   -0.465465
    17  C   -0.008828
    18  C    0.300835
    19  O   -0.540150
    20  C    0.003471
    21  O   -0.247285
    22  C    0.005795
    23  C    0.237816
    24  O   -0.585060
    25  C    0.188830
    26  C   -0.033037
    27  C   -0.101239
    28  C    0.029747
    29  C    0.014979
    32  C   -0.053200
    62  C   -0.006249
 Sum of Mulliken charges with hydrogens summed into heavy atoms =   0.00000
 Electronic spatial extent (au):  <R**2>=          12000.9450
 Charge=              0.0000 electrons
 Dipole moment (field-independent basis, Debye):
    X=             -3.9635    Y=              5.6445    Z=             -0.3824  Tot=              6.9076
 Quadrupole moment (field-independent basis, Debye-Ang):
   XX=           -179.5941   YY=           -182.4147   ZZ=           -185.2353
   XY=              9.0116   XZ=             -6.3752   YZ=              2.8748
 Traceless Quadrupole moment (field-independent basis, Debye-Ang):
   XX=              2.8206   YY=              0.0000   ZZ=             -2.8206
   XY=              9.0116   XZ=             -6.3752   YZ=              2.8748
 Octapole moment (field-independent basis, Debye-Ang**2):
  XXX=            -22.4010  YYY=             61.4924  ZZZ=             -0.2943  XYY=            -20.8307
  XXY=             12.9428  XXZ=            -30.8293  XZZ=            -23.4775  YZZ=              1.0583
  YYZ=            -19.1183  XYZ=              1.8676
 Hexadecapole moment (field-independent basis, Debye-Ang**3):
 XXXX=          -9243.9593 YYYY=          -4208.4390 ZZZZ=          -2562.6168 XXXY=             57.7326
 XXXZ=             25.3370 YYYX=             89.3489 YYYZ=            -21.5061 ZZZX=              0.0675
 ZZZY=            -14.4156 XXYY=          -2259.8396 XXZZ=          -1943.1459 YYZZ=          -1130.6809
 XXYZ=             67.9299 YYXZ=             -8.5807 ZZXY=             43.4092
 N-N= 3.488191629557D+03 E-N=-1.020260153897D+04  KE= 1.374454982020D+03
 1\1\GINC-B0800\FOpt\RB3LYP\6-31G(d)\C26H34O5\CAOFEI\24-Mar-2021\0\\# o
 pt rb3lyp/6-31g(d) geom=connectivity\\Title Card Required\\0,1\C,-0.00
 05275511,-0.0190567981,-0.0660547866\C,1.3366678351,-0.0501992955,-0.0
 194669689\C,2.127867377,1.2370880081,-0.0175725141\C,1.4051737319,2.49
 36934379,0.570260087\C,-0.1557044133,2.4159235115,0.7096456335\C,-0.78
 98151713,1.2610371369,-0.122910493\C,1.9245311178,3.6849463823,-0.2984
 666264\C,0.9208781959,4.1390713205,-1.3454604148\C,-0.4076682721,4.235
 3721455,-1.1099173325\C,-0.8710310829,3.6982951912,0.1984974179\C,-1.4
 478114612,4.7189049302,-2.0806444187\O,-2.5041193952,4.1107370404,-2.1
 580496612\C,-1.1436318237,5.9493765351,-2.938106273\C,-2.2566614958,6.
 2351974701,-3.966521721\C,-0.8043974233,7.1632649738,-2.0458256061\O,-
 1.830510945,4.1558010549,0.7927299287\C,3.0525591794,3.1529334058,-1.2
 113089855\C,2.9817947818,4.0836653749,-2.4420107321\O,1.5396639385,4.4
 406903277,-2.4997779703\C,2.6420478924,1.680866052,-1.4121025647\O,2.2
 644751251,4.8088001725,0.4886500229\C,-0.3850942175,2.2359173471,2.233
 079375\C,1.0098523549,2.0584631839,2.8344520768\O,1.8856469528,2.73770
 65461,1.9001291572\C,1.2912417732,2.578340644,4.2267174658\C,2.7404700
 402,2.5293265198,4.6468222223\C,0.3231116017,2.9885651856,5.0506445177
 \C,3.7693710594,5.3798126785,-2.2356819116\C,3.3126350786,3.4433739687
 ,-3.7865122386\H,4.0241464129,3.2253440664,-0.7134654632\H,3.012056805
 6,1.1075031241,0.622019361\C,2.1247115902,-1.3345987617,0.0000592883\H
 ,-0.5600175633,-0.9531154255,-0.0953820853\H,-1.8101293373,1.105066332
 2,0.2434023832\H,-0.9071964144,1.5802548058,-1.1686657795\H,-0.2300945
 254,5.7015750608,-3.4960499945\H,-1.85023399,6.9386020353,-4.706593938
 6\H,-2.4734303434,5.3051858162,-4.5049128128\H,-0.5909128625,8.0381192
 292,-2.6708828433\H,0.0743591176,6.968934448,-1.4238535637\H,-1.635162
 1715,7.4185102573,-1.3800840657\H,3.4639131919,1.0533848418,-1.7702835
 576\H,1.8293850542,1.5984064003,-2.1438340119\H,2.2633654806,4.4794524
 592,1.4108942603\H,-1.0287650804,1.380458369,2.4542960871\H,-0.8790523
 392,3.1315697864,2.6163296633\H,1.2869880945,0.9912654502,2.8127008429
 \H,3.1392217975,1.5086737482,4.5647731742\H,3.3614420173,3.1595156052,
 4.0000238828\H,2.8667681082,2.8627571324,5.6810372433\H,-0.7225859364,
 3.014348738,4.7620907699\H,0.550675872,3.3106017604,6.063714596\H,3.52
 60598602,5.8338277726,-1.2724026247\H,3.5379962091,6.0899707555,-3.036
 2481011\H,4.8453684695,5.1728212899,-2.2612901412\H,4.3619593624,3.129
 0111969,-3.8032565359\H,3.1617618525,4.1661638679,-4.5947609821\H,2.68
 50496967,2.5716022371,-3.9876563686\H,1.4673225795,-2.2095744999,-0.01
 72608731\H,2.8005910302,-1.4052658613,-0.8634761779\H,2.7573121535,-1.
 4003006702,0.8963402045\C,-3.5668885583,6.7995147813,-3.402831127\H,-3
 .4220228377,7.7776688495,-2.9301015298\H,-3.9993411995,6.11985409,-2.6
 640457061\H,-4.29843638,6.9332764605,-4.2083801587\\Version=EM64L-G09R
 evB.01\State=1-A\HF=-1387.3169756\RMSD=5.953e-09\RMSF=9.243e-06\Dipole
 =2.4122537,-1.2506509,-0.0512108\Quadrupole=-7.3994268,2.7586217,4.640
 8051,1.1660266,-4.7598574,-3.2179565\PG=C01 [X(C26H34O5)]\\@


 We're simply so accustomed to the marvels of everyday thought
 that we never wonder about it.
 -- Marvin Minsky in "Why people think computers are smart"
 Job cpu time:  0 days  5 hours 16 minutes 12.8 seconds.
 File lengths (MBytes):  RWF=    186 Int=      0 D2E=      0 Chk=     20 Scr=      1
 Normal termination of Gaussian 09 at Wed Mar 24 16:03:22 2021.
