 Entering Gaussian System, Link 0=g09
 Initial command:
 /public/software/g09/g09/l1.exe /tmp/Gau-28979.inp -scrdir=/tmp/
 Entering Link 1 = /public/software/g09/g09/l1.exe PID=     28980.
  
 Copyright (c) 1988,1990,1992,1993,1995,1998,2003,2009,2010,
            Gaussian, Inc.  All Rights Reserved.
  
 This is part of the Gaussian(R) 09 program.  It is based on
 the Gaussian(R) 03 system (copyright 2003, Gaussian, Inc.),
 the Gaussian(R) 98 system (copyright 1998, Gaussian, Inc.),
 the Gaussian(R) 94 system (copyright 1995, Gaussian, Inc.),
 the Gaussian 92(TM) system (copyright 1992, Gaussian, Inc.),
 the Gaussian 90(TM) system (copyright 1990, Gaussian, Inc.),
 the Gaussian 88(TM) system (copyright 1988, Gaussian, Inc.),
 the Gaussian 86(TM) system (copyright 1986, Carnegie Mellon
 University), and the Gaussian 82(TM) system (copyright 1983,
 Carnegie Mellon University). Gaussian is a federally registered
 trademark of Gaussian, Inc.
  
 This software contains proprietary and confidential information,
 including trade secrets, belonging to Gaussian, Inc.
  
 This software is provided under written license and may be
 used, copied, transmitted, or stored only in accord with that
 written license.
  
 The following legend is applicable only to US Government
 contracts under FAR:
  
                    RESTRICTED RIGHTS LEGEND
  
 Use, reproduction and disclosure by the US Government is
 subject to restrictions as set forth in subparagraphs (a)
 and (c) of the Commercial Computer Software - Restricted
 Rights clause in FAR 52.227-19.
  
 Gaussian, Inc.
 340 Quinnipiac St., Bldg. 40, Wallingford CT 06492
  
  
 ---------------------------------------------------------------
 Warning -- This program may not be used in any manner that
 competes with the business of Gaussian, Inc. or will provide
 assistance to any competitor of Gaussian, Inc.  The licensee
 of this program is prohibited from giving any competitor of
 Gaussian, Inc. access to this program.  By using this program,
 the user acknowledges that Gaussian, Inc. is engaged in the
 business of creating and licensing software in the field of
 computational chemistry and represents and warrants to the
 licensee that it is not a competitor of Gaussian, Inc. and that
 it will not use this program in any manner prohibited above.
 ---------------------------------------------------------------
  

 Cite this work as:
 Gaussian 09, Revision B.01,
 M. J. Frisch, G. W. Trucks, H. B. Schlegel, G. E. Scuseria, 
 M. A. Robb, J. R. Cheeseman, G. Scalmani, V. Barone, B. Mennucci, 
 G. A. Petersson, H. Nakatsuji, M. Caricato, X. Li, H. P. Hratchian, 
 A. F. Izmaylov, J. Bloino, G. Zheng, J. L. Sonnenberg, M. Hada, 
 M. Ehara, K. Toyota, R. Fukuda, J. Hasegawa, M. Ishida, T. Nakajima, 
 Y. Honda, O. Kitao, H. Nakai, T. Vreven, J. A. Montgomery, Jr., 
 J. E. Peralta, F. Ogliaro, M. Bearpark, J. J. Heyd, E. Brothers, 
 K. N. Kudin, V. N. Staroverov, T. Keith, R. Kobayashi, J. Normand, 
 K. Raghavachari, A. Rendell, J. C. Burant, S. S. Iyengar, J. Tomasi, 
 M. Cossi, N. Rega, J. M. Millam, M. Klene, J. E. Knox, J. B. Cross, 
 V. Bakken, C. Adamo, J. Jaramillo, R. Gomperts, R. E. Stratmann, 
 O. Yazyev, A. J. Austin, R. Cammi, C. Pomelli, J. W. Ochterski, 
 R. L. Martin, K. Morokuma, V. G. Zakrzewski, G. A. Voth, 
 P. Salvador, J. J. Dannenberg, S. Dapprich, A. D. Daniels, 
 O. Farkas, J. B. Foresman, J. V. Ortiz, J. Cioslowski, 
 and D. J. Fox, Gaussian, Inc., Wallingford CT, 2010.
 
 ******************************************
 Gaussian 09:  EM64L-G09RevB.01 12-Aug-2010
                24-Mar-2021 
 ******************************************
 %mem=600MW
 %nprocshared=10
 Will use up to   10 processors via shared memory.
 ---------------------------------------
 # opt rb3lyp/6-31g(d) geom=connectivity
 ---------------------------------------
 1/14=-1,18=20,19=15,26=3,38=1,57=2/1,3;
 2/9=110,12=2,17=6,18=5,40=1/2;
 3/5=1,6=6,7=1,11=2,16=1,25=1,30=1,71=1,74=-5,116=1/1,2,3;
 4//1;
 5/5=2,38=5/2;
 6/7=2,8=2,9=2,10=2,28=1/1;
 7//1,2,3,16;
 1/14=-1,18=20,19=15/3(2);
 2/9=110/2;
 99//99;
 2/9=110/2;
 3/5=1,6=6,7=1,11=2,16=1,25=1,30=1,71=1,74=-5,116=1/1,2,3;
 4/5=5,16=3/1;
 5/5=2,38=5/2;
 7//1,2,3,16;
 1/14=-1,18=20,19=15/3(-5);
 2/9=110/2;
 6/7=2,8=2,9=2,10=2,19=2,28=1/1;
 99/9=1/99;
 -------------------
 Title Card Required
 -------------------
 Symbolic Z-matrix:
 Charge =  0 Multiplicity = 1
 C                     0.        0.        0. 
 C                     1.3414    0.        0. 
 C                     2.1357    1.2844    0. 
 C                     1.337     2.5828   -0.3107 
 C                    -0.1599    2.4601   -0.6414 
 C                    -0.8334    1.2399    0.0173 
 C                     2.1406    3.2866   -1.4231 
 C                     1.7732    2.9016   -2.8147 
 C                     0.5511    2.4848   -3.1591 
 C                    -0.5156    2.4598   -2.1361 
 C                     0.2947    2.0078   -4.5371 
 O                     0.1542    0.7971   -4.7174 
 C                     0.2892    3.0288   -5.6819 
 C                    -0.3603    2.4442   -6.952 
 C                    -0.3457    4.3638   -5.2897 
 O                    -1.693     2.4782   -2.5025 
 C                     3.5504    2.7385   -1.3785 
 C                     4.0457    2.9615   -2.8232 
 O                     2.8722    2.8232   -3.6659 
 C                     3.3094    1.2689   -0.9959 
 O                     2.0951    4.6987   -1.3077 
 C                    -0.7166    3.7549   -0.0411 
 C                     0.1303    3.9486    1.2087 
 O                     1.4334    3.4406    0.8695 
 C                     0.2879    5.3474    1.7601 
 C                     1.2275    5.4694    2.9331 
 C                    -0.3612    6.433     1.3051 
 C                     4.6273    4.3672   -3.043 
 C                     5.0893    1.9354   -3.2782 
 H                     4.1869    3.2367   -0.6382 
 H                     2.5716    1.3786    1.0057 
 C                     2.1102   -1.2918    0.0915 
 H                    -0.5432   -0.9425    0.0461 
 H                    -1.0934    1.4379    1.0642 
 H                    -1.7857    1.0134   -0.4788 
 H                     1.3438    3.214    -5.9257 
 H                    -0.162     3.1176   -7.7954 
 H                     0.1172    1.4892   -7.204 
 H                    -0.4325    5.0259   -6.1577 
 H                     0.2627    4.8871   -4.5445 
 H                    -1.343     4.2275   -4.8585 
 H                     4.2095    0.8285   -0.5521 
 H                     3.0506    0.6593   -1.8702 
 H                     2.1561    4.8907   -0.3497 
 H                    -1.787     3.7077    0.1893 
 H                    -0.5764    4.5788   -0.7522 
 H                    -0.2571    3.313     2.0146 
 H                     0.924     4.7885    3.7351 
 H                     2.2514    5.2231    2.6341 
 H                     1.2405    6.4826    3.3492 
 H                    -1.0652    6.3948    0.4809 
 H                    -0.2103    7.4101    1.7557 
 H                     3.8882    5.1567   -2.8836 
 H                     4.9607    4.4877   -4.0807 
 H                     5.4821    4.551    -2.3842 
 H                     5.9594    1.93     -2.6139 
 H                     5.4341    2.1586   -4.295 
 H                     4.6767    0.9232   -3.33 
 H                     1.4507   -2.1536    0.2398 
 H                     2.6825   -1.4702   -0.8238 
 H                     2.8039   -1.2603    0.9381 
 C                    -1.8656    2.2258   -6.8557 
 H                    -2.401     3.173    -6.7411 
 H                    -2.127     1.5772   -6.0146 
 H                    -2.2318    1.7506   -7.7717 
 

 GradGradGradGradGradGradGradGradGradGradGradGradGradGradGradGradGradGrad
 Berny optimization.
 Initialization pass.
                           ----------------------------
                           !    Initial Parameters    !
                           ! (Angstroms and Degrees)  !
 --------------------------                            --------------------------
 ! Name  Definition              Value          Derivative Info.                !
 --------------------------------------------------------------------------------
 ! R1    R(1,2)                  1.3414         estimate D2E/DX2                !
 ! R2    R(1,6)                  1.4941         estimate D2E/DX2                !
 ! R3    R(1,33)                 1.0888         estimate D2E/DX2                !
 ! R4    R(2,3)                  1.5102         estimate D2E/DX2                !
 ! R5    R(2,32)                 1.506          estimate D2E/DX2                !
 ! R6    R(3,4)                  1.5557         estimate D2E/DX2                !
 ! R7    R(3,20)                 1.5394         estimate D2E/DX2                !
 ! R8    R(3,31)                 1.1001         estimate D2E/DX2                !
 ! R9    R(4,5)                  1.5379         estimate D2E/DX2                !
 ! R10   R(4,7)                  1.5423         estimate D2E/DX2                !
 ! R11   R(4,24)                 1.4622         estimate D2E/DX2                !
 ! R12   R(5,6)                  1.5415         estimate D2E/DX2                !
 ! R13   R(5,10)                 1.5364         estimate D2E/DX2                !
 ! R14   R(5,22)                 1.5319         estimate D2E/DX2                !
 ! R15   R(6,34)                 1.0967         estimate D2E/DX2                !
 ! R16   R(6,35)                 1.0974         estimate D2E/DX2                !
 ! R17   R(7,8)                  1.4899         estimate D2E/DX2                !
 ! R18   R(7,17)                 1.5133         estimate D2E/DX2                !
 ! R19   R(7,21)                 1.4175         estimate D2E/DX2                !
 ! R20   R(8,9)                  1.3364         estimate D2E/DX2                !
 ! R21   R(8,19)                 1.3923         estimate D2E/DX2                !
 ! R22   R(9,10)                 1.4782         estimate D2E/DX2                !
 ! R23   R(9,11)                 1.4806         estimate D2E/DX2                !
 ! R24   R(10,16)                1.2332         estimate D2E/DX2                !
 ! R25   R(11,12)                1.2321         estimate D2E/DX2                !
 ! R26   R(11,13)                1.534          estimate D2E/DX2                !
 ! R27   R(13,14)                1.5417         estimate D2E/DX2                !
 ! R28   R(13,15)                1.5294         estimate D2E/DX2                !
 ! R29   R(13,36)                1.0981         estimate D2E/DX2                !
 ! R30   R(14,37)                1.0973         estimate D2E/DX2                !
 ! R31   R(14,38)                1.0971         estimate D2E/DX2                !
 ! R32   R(14,62)                1.5241         estimate D2E/DX2                !
 ! R33   R(15,39)                1.0951         estimate D2E/DX2                !
 ! R34   R(15,40)                1.0951         estimate D2E/DX2                !
 ! R35   R(15,41)                1.095          estimate D2E/DX2                !
 ! R36   R(17,18)                1.5434         estimate D2E/DX2                !
 ! R37   R(17,20)                1.5376         estimate D2E/DX2                !
 ! R38   R(17,30)                1.0961         estimate D2E/DX2                !
 ! R39   R(18,19)                1.4513         estimate D2E/DX2                !
 ! R40   R(18,28)                1.5371         estimate D2E/DX2                !
 ! R41   R(18,29)                1.5326         estimate D2E/DX2                !
 ! R42   R(20,42)                1.0959         estimate D2E/DX2                !
 ! R43   R(20,43)                1.0968         estimate D2E/DX2                !
 ! R44   R(21,44)                0.979          estimate D2E/DX2                !
 ! R45   R(22,23)                1.5221         estimate D2E/DX2                !
 ! R46   R(22,45)                1.0959         estimate D2E/DX2                !
 ! R47   R(22,46)                1.0973         estimate D2E/DX2                !
 ! R48   R(23,24)                1.4392         estimate D2E/DX2                !
 ! R49   R(23,25)                1.5118         estimate D2E/DX2                !
 ! R50   R(23,47)                1.0971         estimate D2E/DX2                !
 ! R51   R(25,26)                1.5079         estimate D2E/DX2                !
 ! R52   R(25,27)                1.3442         estimate D2E/DX2                !
 ! R53   R(26,48)                1.095          estimate D2E/DX2                !
 ! R54   R(26,49)                1.0947         estimate D2E/DX2                !
 ! R55   R(26,50)                1.0954         estimate D2E/DX2                !
 ! R56   R(27,51)                1.0846         estimate D2E/DX2                !
 ! R57   R(27,52)                1.0865         estimate D2E/DX2                !
 ! R58   R(28,53)                1.0932         estimate D2E/DX2                !
 ! R59   R(28,54)                1.0966         estimate D2E/DX2                !
 ! R60   R(28,55)                1.0948         estimate D2E/DX2                !
 ! R61   R(29,56)                1.0947         estimate D2E/DX2                !
 ! R62   R(29,57)                1.0966         estimate D2E/DX2                !
 ! R63   R(29,58)                1.0943         estimate D2E/DX2                !
 ! R64   R(32,59)                1.0953         estimate D2E/DX2                !
 ! R65   R(32,60)                1.0941         estimate D2E/DX2                !
 ! R66   R(32,61)                1.095          estimate D2E/DX2                !
 ! R67   R(62,63)                1.0941         estimate D2E/DX2                !
 ! R68   R(62,64)                1.0938         estimate D2E/DX2                !
 ! R69   R(62,65)                1.095          estimate D2E/DX2                !
 ! A1    A(2,1,6)              123.9045         estimate D2E/DX2                !
 ! A2    A(2,1,33)             119.9269         estimate D2E/DX2                !
 ! A3    A(6,1,33)             116.078          estimate D2E/DX2                !
 ! A4    A(1,2,3)              121.7335         estimate D2E/DX2                !
 ! A5    A(1,2,32)             120.6955         estimate D2E/DX2                !
 ! A6    A(3,2,32)             117.4529         estimate D2E/DX2                !
 ! A7    A(2,3,4)              116.0908         estimate D2E/DX2                !
 ! A8    A(2,3,20)             113.1081         estimate D2E/DX2                !
 ! A9    A(2,3,31)             106.3333         estimate D2E/DX2                !
 ! A10   A(4,3,20)             105.7023         estimate D2E/DX2                !
 ! A11   A(4,3,31)             108.332          estimate D2E/DX2                !
 ! A12   A(20,3,31)            106.8686         estimate D2E/DX2                !
 ! A13   A(3,4,5)              118.4286         estimate D2E/DX2                !
 ! A14   A(3,4,7)              104.9162         estimate D2E/DX2                !
 ! A15   A(3,4,24)             107.1319         estimate D2E/DX2                !
 ! A16   A(5,4,7)              112.8596         estimate D2E/DX2                !
 ! A17   A(5,4,24)             106.5314         estimate D2E/DX2                !
 ! A18   A(7,4,24)             106.2669         estimate D2E/DX2                !
 ! A19   A(4,5,6)              113.3608         estimate D2E/DX2                !
 ! A20   A(4,5,10)             115.7564         estimate D2E/DX2                !
 ! A21   A(4,5,22)             101.6548         estimate D2E/DX2                !
 ! A22   A(6,5,10)             108.3239         estimate D2E/DX2                !
 ! A23   A(6,5,22)             110.0482         estimate D2E/DX2                !
 ! A24   A(10,5,22)            107.2925         estimate D2E/DX2                !
 ! A25   A(1,6,5)              114.0941         estimate D2E/DX2                !
 ! A26   A(1,6,34)             107.0448         estimate D2E/DX2                !
 ! A27   A(1,6,35)             107.9107         estimate D2E/DX2                !
 ! A28   A(5,6,34)             111.6267         estimate D2E/DX2                !
 ! A29   A(5,6,35)             110.4466         estimate D2E/DX2                !
 ! A30   A(34,6,35)            105.2522         estimate D2E/DX2                !
 ! A31   A(4,7,8)              115.2955         estimate D2E/DX2                !
 ! A32   A(4,7,17)             107.3908         estimate D2E/DX2                !
 ! A33   A(4,7,21)             112.2811         estimate D2E/DX2                !
 ! A34   A(8,7,17)              99.42           estimate D2E/DX2                !
 ! A35   A(8,7,21)             108.9984         estimate D2E/DX2                !
 ! A36   A(17,7,21)            112.8496         estimate D2E/DX2                !
 ! A37   A(7,8,9)              123.1492         estimate D2E/DX2                !
 ! A38   A(7,8,19)             113.0127         estimate D2E/DX2                !
 ! A39   A(9,8,19)             123.1432         estimate D2E/DX2                !
 ! A40   A(8,9,10)             119.1338         estimate D2E/DX2                !
 ! A41   A(8,9,11)             119.9144         estimate D2E/DX2                !
 ! A42   A(10,9,11)            120.9105         estimate D2E/DX2                !
 ! A43   A(5,10,9)             120.411          estimate D2E/DX2                !
 ! A44   A(5,10,16)            120.6678         estimate D2E/DX2                !
 ! A45   A(9,10,16)            118.8876         estimate D2E/DX2                !
 ! A46   A(9,11,12)            118.198          estimate D2E/DX2                !
 ! A47   A(9,11,13)            118.7362         estimate D2E/DX2                !
 ! A48   A(12,11,13)           122.9852         estimate D2E/DX2                !
 ! A49   A(11,13,14)           111.3433         estimate D2E/DX2                !
 ! A50   A(11,13,15)           113.0225         estimate D2E/DX2                !
 ! A51   A(11,13,36)           105.932          estimate D2E/DX2                !
 ! A52   A(14,13,15)           111.5533         estimate D2E/DX2                !
 ! A53   A(14,13,36)           106.597          estimate D2E/DX2                !
 ! A54   A(15,13,36)           107.9619         estimate D2E/DX2                !
 ! A55   A(13,14,37)           108.9273         estimate D2E/DX2                !
 ! A56   A(13,14,38)           109.6313         estimate D2E/DX2                !
 ! A57   A(13,14,62)           114.7324         estimate D2E/DX2                !
 ! A58   A(37,14,38)           106.2008         estimate D2E/DX2                !
 ! A59   A(37,14,62)           108.3599         estimate D2E/DX2                !
 ! A60   A(38,14,62)           108.6422         estimate D2E/DX2                !
 ! A61   A(13,15,39)           110.9392         estimate D2E/DX2                !
 ! A62   A(13,15,40)           111.1599         estimate D2E/DX2                !
 ! A63   A(13,15,41)           111.7403         estimate D2E/DX2                !
 ! A64   A(39,15,40)           107.1258         estimate D2E/DX2                !
 ! A65   A(39,15,41)           108.3711         estimate D2E/DX2                !
 ! A66   A(40,15,41)           107.3068         estimate D2E/DX2                !
 ! A67   A(7,17,18)            102.6532         estimate D2E/DX2                !
 ! A68   A(7,17,20)            101.9755         estimate D2E/DX2                !
 ! A69   A(7,17,30)            113.3461         estimate D2E/DX2                !
 ! A70   A(18,17,20)           114.9169         estimate D2E/DX2                !
 ! A71   A(18,17,30)           112.3446         estimate D2E/DX2                !
 ! A72   A(20,17,30)           110.9399         estimate D2E/DX2                !
 ! A73   A(17,18,19)           105.6791         estimate D2E/DX2                !
 ! A74   A(17,18,28)           112.7936         estimate D2E/DX2                !
 ! A75   A(17,18,29)           113.5569         estimate D2E/DX2                !
 ! A76   A(19,18,28)           108.0631         estimate D2E/DX2                !
 ! A77   A(19,18,29)           108.3241         estimate D2E/DX2                !
 ! A78   A(28,18,29)           108.1906         estimate D2E/DX2                !
 ! A79   A(8,19,18)            106.1343         estimate D2E/DX2                !
 ! A80   A(3,20,17)            105.7158         estimate D2E/DX2                !
 ! A81   A(3,20,42)            111.6091         estimate D2E/DX2                !
 ! A82   A(3,20,43)            109.9621         estimate D2E/DX2                !
 ! A83   A(17,20,42)           110.8615         estimate D2E/DX2                !
 ! A84   A(17,20,43)           111.7064         estimate D2E/DX2                !
 ! A85   A(42,20,43)           107.0523         estimate D2E/DX2                !
 ! A86   A(7,21,44)            105.8454         estimate D2E/DX2                !
 ! A87   A(5,22,23)            103.1278         estimate D2E/DX2                !
 ! A88   A(5,22,45)            113.6353         estimate D2E/DX2                !
 ! A89   A(5,22,46)            109.5263         estimate D2E/DX2                !
 ! A90   A(23,22,45)           112.1047         estimate D2E/DX2                !
 ! A91   A(23,22,46)           111.4361         estimate D2E/DX2                !
 ! A92   A(45,22,46)           107.0593         estimate D2E/DX2                !
 ! A93   A(22,23,24)           105.3879         estimate D2E/DX2                !
 ! A94   A(22,23,25)           118.3747         estimate D2E/DX2                !
 ! A95   A(22,23,47)           109.4494         estimate D2E/DX2                !
 ! A96   A(24,23,25)           108.5525         estimate D2E/DX2                !
 ! A97   A(24,23,47)           106.7606         estimate D2E/DX2                !
 ! A98   A(25,23,47)           107.7548         estimate D2E/DX2                !
 ! A99   A(4,24,23)            109.7321         estimate D2E/DX2                !
 ! A100  A(23,25,26)           115.0592         estimate D2E/DX2                !
 ! A101  A(23,25,27)           124.9915         estimate D2E/DX2                !
 ! A102  A(26,25,27)           119.9258         estimate D2E/DX2                !
 ! A103  A(25,26,48)           110.2888         estimate D2E/DX2                !
 ! A104  A(25,26,49)           110.6183         estimate D2E/DX2                !
 ! A105  A(25,26,50)           112.1936         estimate D2E/DX2                !
 ! A106  A(48,26,49)           108.6259         estimate D2E/DX2                !
 ! A107  A(48,26,50)           107.4725         estimate D2E/DX2                !
 ! A108  A(49,26,50)           107.503          estimate D2E/DX2                !
 ! A109  A(25,27,51)           122.8342         estimate D2E/DX2                !
 ! A110  A(25,27,52)           121.2543         estimate D2E/DX2                !
 ! A111  A(51,27,52)           115.9103         estimate D2E/DX2                !
 ! A112  A(18,28,53)           112.5702         estimate D2E/DX2                !
 ! A113  A(18,28,54)           110.5398         estimate D2E/DX2                !
 ! A114  A(18,28,55)           111.2807         estimate D2E/DX2                !
 ! A115  A(53,28,54)           105.3186         estimate D2E/DX2                !
 ! A116  A(53,28,55)           108.5975         estimate D2E/DX2                !
 ! A117  A(54,28,55)           108.2776         estimate D2E/DX2                !
 ! A118  A(18,29,56)           111.368          estimate D2E/DX2                !
 ! A119  A(18,29,57)           110.6764         estimate D2E/DX2                !
 ! A120  A(18,29,58)           112.1225         estimate D2E/DX2                !
 ! A121  A(56,29,57)           108.2854         estimate D2E/DX2                !
 ! A122  A(56,29,58)           108.8958         estimate D2E/DX2                !
 ! A123  A(57,29,58)           105.2437         estimate D2E/DX2                !
 ! A124  A(2,32,59)            112.0709         estimate D2E/DX2                !
 ! A125  A(2,32,60)            110.8573         estimate D2E/DX2                !
 ! A126  A(2,32,61)            110.2248         estimate D2E/DX2                !
 ! A127  A(59,32,60)           107.4532         estimate D2E/DX2                !
 ! A128  A(59,32,61)           107.4228         estimate D2E/DX2                !
 ! A129  A(60,32,61)           108.6698         estimate D2E/DX2                !
 ! A130  A(14,62,63)           111.4622         estimate D2E/DX2                !
 ! A131  A(14,62,64)           111.69           estimate D2E/DX2                !
 ! A132  A(14,62,65)           109.855          estimate D2E/DX2                !
 ! A133  A(63,62,64)           108.4135         estimate D2E/DX2                !
 ! A134  A(63,62,65)           107.4389         estimate D2E/DX2                !
 ! A135  A(64,62,65)           107.8187         estimate D2E/DX2                !
 ! D1    D(6,1,2,3)             -0.7994         estimate D2E/DX2                !
 ! D2    D(6,1,2,32)           175.149          estimate D2E/DX2                !
 ! D3    D(33,1,2,3)          -177.1998         estimate D2E/DX2                !
 ! D4    D(33,1,2,32)           -1.2513         estimate D2E/DX2                !
 ! D5    D(2,1,6,5)             28.6939         estimate D2E/DX2                !
 ! D6    D(2,1,6,34)           -95.3194         estimate D2E/DX2                !
 ! D7    D(2,1,6,35)           151.8345         estimate D2E/DX2                !
 ! D8    D(33,1,6,5)          -154.7792         estimate D2E/DX2                !
 ! D9    D(33,1,6,34)           81.2075         estimate D2E/DX2                !
 ! D10   D(33,1,6,35)          -31.6385         estimate D2E/DX2                !
 ! D11   D(1,2,3,4)            -12.8485         estimate D2E/DX2                !
 ! D12   D(1,2,3,20)          -135.3001         estimate D2E/DX2                !
 ! D13   D(1,2,3,31)           107.7118         estimate D2E/DX2                !
 ! D14   D(32,2,3,4)           171.0774         estimate D2E/DX2                !
 ! D15   D(32,2,3,20)           48.6257         estimate D2E/DX2                !
 ! D16   D(32,2,3,31)          -68.3624         estimate D2E/DX2                !
 ! D17   D(1,2,32,59)           -4.9193         estimate D2E/DX2                !
 ! D18   D(1,2,32,60)          115.1353         estimate D2E/DX2                !
 ! D19   D(1,2,32,61)         -124.5039         estimate D2E/DX2                !
 ! D20   D(3,2,32,59)          171.1978         estimate D2E/DX2                !
 ! D21   D(3,2,32,60)          -68.7475         estimate D2E/DX2                !
 ! D22   D(3,2,32,61)           51.6132         estimate D2E/DX2                !
 ! D23   D(2,3,4,5)             -2.274          estimate D2E/DX2                !
 ! D24   D(2,3,4,7)           -129.2409         estimate D2E/DX2                !
 ! D25   D(2,3,4,24)           118.0873         estimate D2E/DX2                !
 ! D26   D(20,3,4,5)           123.997          estimate D2E/DX2                !
 ! D27   D(20,3,4,7)            -2.9699         estimate D2E/DX2                !
 ! D28   D(20,3,4,24)         -115.6416         estimate D2E/DX2                !
 ! D29   D(31,3,4,5)          -121.7547         estimate D2E/DX2                !
 ! D30   D(31,3,4,7)           111.2784         estimate D2E/DX2                !
 ! D31   D(31,3,4,24)           -1.3933         estimate D2E/DX2                !
 ! D32   D(2,3,20,17)          153.0209         estimate D2E/DX2                !
 ! D33   D(2,3,20,42)          -86.3575         estimate D2E/DX2                !
 ! D34   D(2,3,20,43)           32.292          estimate D2E/DX2                !
 ! D35   D(4,3,20,17)           24.9487         estimate D2E/DX2                !
 ! D36   D(4,3,20,42)          145.5702         estimate D2E/DX2                !
 ! D37   D(4,3,20,43)          -95.7802         estimate D2E/DX2                !
 ! D38   D(31,3,20,17)         -90.3065         estimate D2E/DX2                !
 ! D39   D(31,3,20,42)          30.315          estimate D2E/DX2                !
 ! D40   D(31,3,20,43)         148.9645         estimate D2E/DX2                !
 ! D41   D(3,4,5,6)             28.3612         estimate D2E/DX2                !
 ! D42   D(3,4,5,10)           -97.699          estimate D2E/DX2                !
 ! D43   D(3,4,5,22)           146.4199         estimate D2E/DX2                !
 ! D44   D(7,4,5,6)            151.4456         estimate D2E/DX2                !
 ! D45   D(7,4,5,10)            25.3855         estimate D2E/DX2                !
 ! D46   D(7,4,5,22)           -90.4957         estimate D2E/DX2                !
 ! D47   D(24,4,5,6)           -92.3084         estimate D2E/DX2                !
 ! D48   D(24,4,5,10)          141.6315         estimate D2E/DX2                !
 ! D49   D(24,4,5,22)           25.7503         estimate D2E/DX2                !
 ! D50   D(3,4,7,8)             89.1793         estimate D2E/DX2                !
 ! D51   D(3,4,7,17)           -20.5587         estimate D2E/DX2                !
 ! D52   D(3,4,7,21)          -145.1754         estimate D2E/DX2                !
 ! D53   D(5,4,7,8)            -41.1335         estimate D2E/DX2                !
 ! D54   D(5,4,7,17)          -150.8716         estimate D2E/DX2                !
 ! D55   D(5,4,7,21)            84.5118         estimate D2E/DX2                !
 ! D56   D(24,4,7,8)          -157.5369         estimate D2E/DX2                !
 ! D57   D(24,4,7,17)           92.7251         estimate D2E/DX2                !
 ! D58   D(24,4,7,21)          -31.8916         estimate D2E/DX2                !
 ! D59   D(3,4,24,23)         -132.9527         estimate D2E/DX2                !
 ! D60   D(5,4,24,23)           -5.2807         estimate D2E/DX2                !
 ! D61   D(7,4,24,23)          115.2986         estimate D2E/DX2                !
 ! D62   D(4,5,6,1)            -40.62           estimate D2E/DX2                !
 ! D63   D(4,5,6,34)            80.8941         estimate D2E/DX2                !
 ! D64   D(4,5,6,35)          -162.3732         estimate D2E/DX2                !
 ! D65   D(10,5,6,1)            89.2969         estimate D2E/DX2                !
 ! D66   D(10,5,6,34)         -149.189          estimate D2E/DX2                !
 ! D67   D(10,5,6,35)          -32.4562         estimate D2E/DX2                !
 ! D68   D(22,5,6,1)          -153.6908         estimate D2E/DX2                !
 ! D69   D(22,5,6,34)          -32.1767         estimate D2E/DX2                !
 ! D70   D(22,5,6,35)           84.556          estimate D2E/DX2                !
 ! D71   D(4,5,10,9)             3.9465         estimate D2E/DX2                !
 ! D72   D(4,5,10,16)         -173.9226         estimate D2E/DX2                !
 ! D73   D(6,5,10,9)          -124.6303         estimate D2E/DX2                !
 ! D74   D(6,5,10,16)           57.5005         estimate D2E/DX2                !
 ! D75   D(22,5,10,9)          116.5979         estimate D2E/DX2                !
 ! D76   D(22,5,10,16)         -61.2713         estimate D2E/DX2                !
 ! D77   D(4,5,22,23)          -35.7391         estimate D2E/DX2                !
 ! D78   D(4,5,22,45)         -157.3294         estimate D2E/DX2                !
 ! D79   D(4,5,22,46)           83.0035         estimate D2E/DX2                !
 ! D80   D(6,5,22,23)           84.6756         estimate D2E/DX2                !
 ! D81   D(6,5,22,45)          -36.9147         estimate D2E/DX2                !
 ! D82   D(6,5,22,46)         -156.5818         estimate D2E/DX2                !
 ! D83   D(10,5,22,23)        -157.6712         estimate D2E/DX2                !
 ! D84   D(10,5,22,45)          80.7386         estimate D2E/DX2                !
 ! D85   D(10,5,22,46)         -38.9285         estimate D2E/DX2                !
 ! D86   D(4,7,8,9)             28.2834         estimate D2E/DX2                !
 ! D87   D(4,7,8,19)          -142.4231         estimate D2E/DX2                !
 ! D88   D(17,7,8,9)           142.7091         estimate D2E/DX2                !
 ! D89   D(17,7,8,19)          -27.9975         estimate D2E/DX2                !
 ! D90   D(21,7,8,9)           -99.0344         estimate D2E/DX2                !
 ! D91   D(21,7,8,19)           90.2591         estimate D2E/DX2                !
 ! D92   D(4,7,17,18)          154.8458         estimate D2E/DX2                !
 ! D93   D(4,7,17,20)           35.5699         estimate D2E/DX2                !
 ! D94   D(4,7,17,30)          -83.7358         estimate D2E/DX2                !
 ! D95   D(8,7,17,18)           34.4588         estimate D2E/DX2                !
 ! D96   D(8,7,17,20)          -84.8171         estimate D2E/DX2                !
 ! D97   D(8,7,17,30)          155.8772         estimate D2E/DX2                !
 ! D98   D(21,7,17,18)         -80.882          estimate D2E/DX2                !
 ! D99   D(21,7,17,20)         159.8421         estimate D2E/DX2                !
 ! D100  D(21,7,17,30)          40.5364         estimate D2E/DX2                !
 ! D101  D(4,7,21,44)           39.4474         estimate D2E/DX2                !
 ! D102  D(8,7,21,44)          168.4563         estimate D2E/DX2                !
 ! D103  D(17,7,21,44)         -82.0976         estimate D2E/DX2                !
 ! D104  D(7,8,9,10)             3.0158         estimate D2E/DX2                !
 ! D105  D(7,8,9,11)          -174.6679         estimate D2E/DX2                !
 ! D106  D(19,8,9,10)          172.7904         estimate D2E/DX2                !
 ! D107  D(19,8,9,11)           -4.8933         estimate D2E/DX2                !
 ! D108  D(7,8,19,18)            8.2642         estimate D2E/DX2                !
 ! D109  D(9,8,19,18)         -162.443          estimate D2E/DX2                !
 ! D110  D(8,9,10,5)           -19.7642         estimate D2E/DX2                !
 ! D111  D(8,9,10,16)          158.1426         estimate D2E/DX2                !
 ! D112  D(11,9,10,5)          157.8958         estimate D2E/DX2                !
 ! D113  D(11,9,10,16)         -24.1975         estimate D2E/DX2                !
 ! D114  D(8,9,11,12)          106.1768         estimate D2E/DX2                !
 ! D115  D(8,9,11,13)          -70.656          estimate D2E/DX2                !
 ! D116  D(10,9,11,12)         -71.465          estimate D2E/DX2                !
 ! D117  D(10,9,11,13)         111.7021         estimate D2E/DX2                !
 ! D118  D(9,11,13,14)        -164.4732         estimate D2E/DX2                !
 ! D119  D(9,11,13,15)         -37.9892         estimate D2E/DX2                !
 ! D120  D(9,11,13,36)          80.0296         estimate D2E/DX2                !
 ! D121  D(12,11,13,14)         18.8546         estimate D2E/DX2                !
 ! D122  D(12,11,13,15)        145.3386         estimate D2E/DX2                !
 ! D123  D(12,11,13,36)        -96.6426         estimate D2E/DX2                !
 ! D124  D(11,13,14,37)       -168.499          estimate D2E/DX2                !
 ! D125  D(11,13,14,38)        -52.6838         estimate D2E/DX2                !
 ! D126  D(11,13,14,62)         69.8615         estimate D2E/DX2                !
 ! D127  D(15,13,14,37)         64.2145         estimate D2E/DX2                !
 ! D128  D(15,13,14,38)       -179.9704         estimate D2E/DX2                !
 ! D129  D(15,13,14,62)        -57.425          estimate D2E/DX2                !
 ! D130  D(36,13,14,37)        -53.4125         estimate D2E/DX2                !
 ! D131  D(36,13,14,38)         62.4027         estimate D2E/DX2                !
 ! D132  D(36,13,14,62)       -175.052          estimate D2E/DX2                !
 ! D133  D(11,13,15,39)       -173.734          estimate D2E/DX2                !
 ! D134  D(11,13,15,40)         67.175          estimate D2E/DX2                !
 ! D135  D(11,13,15,41)        -52.6777         estimate D2E/DX2                !
 ! D136  D(14,13,15,39)        -47.3619         estimate D2E/DX2                !
 ! D137  D(14,13,15,40)       -166.4528         estimate D2E/DX2                !
 ! D138  D(14,13,15,41)         73.6945         estimate D2E/DX2                !
 ! D139  D(36,13,15,39)         69.4394         estimate D2E/DX2                !
 ! D140  D(36,13,15,40)        -49.6516         estimate D2E/DX2                !
 ! D141  D(36,13,15,41)       -169.5042         estimate D2E/DX2                !
 ! D142  D(13,14,62,63)         64.6805         estimate D2E/DX2                !
 ! D143  D(13,14,62,64)        -56.762          estimate D2E/DX2                !
 ! D144  D(13,14,62,65)       -176.3504         estimate D2E/DX2                !
 ! D145  D(37,14,62,63)        -57.2679         estimate D2E/DX2                !
 ! D146  D(37,14,62,64)       -178.7103         estimate D2E/DX2                !
 ! D147  D(37,14,62,65)         61.7013         estimate D2E/DX2                !
 ! D148  D(38,14,62,63)       -172.2418         estimate D2E/DX2                !
 ! D149  D(38,14,62,64)         66.3157         estimate D2E/DX2                !
 ! D150  D(38,14,62,65)        -53.2727         estimate D2E/DX2                !
 ! D151  D(7,17,18,19)         -32.1812         estimate D2E/DX2                !
 ! D152  D(7,17,18,28)          85.6769         estimate D2E/DX2                !
 ! D153  D(7,17,18,29)        -150.7758         estimate D2E/DX2                !
 ! D154  D(20,17,18,19)         77.621          estimate D2E/DX2                !
 ! D155  D(20,17,18,28)       -164.5208         estimate D2E/DX2                !
 ! D156  D(20,17,18,29)        -40.9736         estimate D2E/DX2                !
 ! D157  D(30,17,18,19)       -154.2812         estimate D2E/DX2                !
 ! D158  D(30,17,18,28)        -36.423          estimate D2E/DX2                !
 ! D159  D(30,17,18,29)         87.1242         estimate D2E/DX2                !
 ! D160  D(7,17,20,3)          -37.0942         estimate D2E/DX2                !
 ! D161  D(7,17,20,42)        -158.2018         estimate D2E/DX2                !
 ! D162  D(7,17,20,43)          82.4923         estimate D2E/DX2                !
 ! D163  D(18,17,20,3)        -147.3027         estimate D2E/DX2                !
 ! D164  D(18,17,20,42)         91.5897         estimate D2E/DX2                !
 ! D165  D(18,17,20,43)        -27.7163         estimate D2E/DX2                !
 ! D166  D(30,17,20,3)          83.8974         estimate D2E/DX2                !
 ! D167  D(30,17,20,42)        -37.2101         estimate D2E/DX2                !
 ! D168  D(30,17,20,43)       -156.5161         estimate D2E/DX2                !
 ! D169  D(17,18,19,8)          15.1981         estimate D2E/DX2                !
 ! D170  D(28,18,19,8)        -105.7852         estimate D2E/DX2                !
 ! D171  D(29,18,19,8)         137.2198         estimate D2E/DX2                !
 ! D172  D(17,18,28,53)        -62.1414         estimate D2E/DX2                !
 ! D173  D(17,18,28,54)       -179.6096         estimate D2E/DX2                !
 ! D174  D(17,18,28,55)         60.0355         estimate D2E/DX2                !
 ! D175  D(19,18,28,53)         54.307          estimate D2E/DX2                !
 ! D176  D(19,18,28,54)        -63.1612         estimate D2E/DX2                !
 ! D177  D(19,18,28,55)        176.4839         estimate D2E/DX2                !
 ! D178  D(29,18,28,53)        171.3883         estimate D2E/DX2                !
 ! D179  D(29,18,28,54)         53.9201         estimate D2E/DX2                !
 ! D180  D(29,18,28,55)        -66.4348         estimate D2E/DX2                !
 ! D181  D(17,18,29,56)        -57.4518         estimate D2E/DX2                !
 ! D182  D(17,18,29,57)       -177.9667         estimate D2E/DX2                !
 ! D183  D(17,18,29,58)         64.854          estimate D2E/DX2                !
 ! D184  D(19,18,29,56)       -174.5142         estimate D2E/DX2                !
 ! D185  D(19,18,29,57)         64.9709         estimate D2E/DX2                !
 ! D186  D(19,18,29,58)        -52.2084         estimate D2E/DX2                !
 ! D187  D(28,18,29,56)         68.5728         estimate D2E/DX2                !
 ! D188  D(28,18,29,57)        -51.9421         estimate D2E/DX2                !
 ! D189  D(28,18,29,58)       -169.1214         estimate D2E/DX2                !
 ! D190  D(5,22,23,24)          33.8265         estimate D2E/DX2                !
 ! D191  D(5,22,23,25)         155.4084         estimate D2E/DX2                !
 ! D192  D(5,22,23,47)         -80.654          estimate D2E/DX2                !
 ! D193  D(45,22,23,24)        156.4457         estimate D2E/DX2                !
 ! D194  D(45,22,23,25)        -81.9723         estimate D2E/DX2                !
 ! D195  D(45,22,23,47)         41.9653         estimate D2E/DX2                !
 ! D196  D(46,22,23,24)        -83.5787         estimate D2E/DX2                !
 ! D197  D(46,22,23,25)         38.0032         estimate D2E/DX2                !
 ! D198  D(46,22,23,47)        161.9408         estimate D2E/DX2                !
 ! D199  D(22,23,24,4)         -17.8842         estimate D2E/DX2                !
 ! D200  D(25,23,24,4)        -145.6397         estimate D2E/DX2                !
 ! D201  D(47,23,24,4)          98.4473         estimate D2E/DX2                !
 ! D202  D(22,23,25,26)       -175.4074         estimate D2E/DX2                !
 ! D203  D(22,23,25,27)          6.3655         estimate D2E/DX2                !
 ! D204  D(24,23,25,26)        -55.4476         estimate D2E/DX2                !
 ! D205  D(24,23,25,27)        126.3253         estimate D2E/DX2                !
 ! D206  D(47,23,25,26)         59.8205         estimate D2E/DX2                !
 ! D207  D(47,23,25,27)       -118.4066         estimate D2E/DX2                !
 ! D208  D(23,25,26,48)        -55.2763         estimate D2E/DX2                !
 ! D209  D(23,25,26,49)         64.9163         estimate D2E/DX2                !
 ! D210  D(23,25,26,50)       -175.0478         estimate D2E/DX2                !
 ! D211  D(27,25,26,48)        123.0479         estimate D2E/DX2                !
 ! D212  D(27,25,26,49)       -116.7595         estimate D2E/DX2                !
 ! D213  D(27,25,26,50)          3.2764         estimate D2E/DX2                !
 ! D214  D(23,25,27,51)         -0.3377         estimate D2E/DX2                !
 ! D215  D(23,25,27,52)        179.2515         estimate D2E/DX2                !
 ! D216  D(26,25,27,51)       -178.4846         estimate D2E/DX2                !
 ! D217  D(26,25,27,52)          1.1047         estimate D2E/DX2                !
 --------------------------------------------------------------------------------
 Trust Radius=3.00D-01 FncErr=1.00D-07 GrdErr=1.00D-06
 Number of steps in this run=    390 maximum allowed number of steps=    390.
 GradGradGradGradGradGradGradGradGradGradGradGradGradGradGradGradGradGrad

 Stoichiometry    C26H34O5
 Framework group  C1[X(C26H34O5)]
 Deg. of freedom   189
 Full point group                 C1      NOp   1
 Largest Abelian subgroup         C1      NOp   1
 Largest concise Abelian subgroup C1      NOp   1
                         Standard orientation:                         
 ---------------------------------------------------------------------
 Center     Atomic      Atomic             Coordinates (Angstroms)
 Number     Number       Type             X           Y           Z
 ---------------------------------------------------------------------
      1          6           0       -1.157139   -0.101174    3.272970
      2          6           0       -1.319291    1.142058    2.796070
      3          6           0       -1.644702    1.399646    1.344054
      4          6           0       -1.476660    0.190070    0.380213
      5          6           0       -0.950879   -1.136157    0.954497
      6          6           0       -1.294735   -1.336391    2.443807
      7          6           0       -0.613278    0.724435   -0.780634
      8          6           0        0.858748    0.592204   -0.592451
      9          6           0        1.417215   -0.369111    0.149068
     10          6           0        0.551699   -1.396086    0.766487
     11          6           0        2.878975   -0.364819    0.384430
     12          8           0        3.288247   -0.035516    1.498924
     13          6           0        3.815148   -0.697025   -0.784440
     14          6           0        5.238283   -1.021998   -0.288616
     15          6           0        3.270494   -1.801169   -1.691833
     16          8           0        1.048518   -2.477109    1.091172
     17          6           0       -0.729357    2.233213   -0.773340
     18          6           0        0.581645    2.676472   -1.456717
     19          8           0        1.571070    1.679641   -1.091018
     20          6           0       -0.811350    2.539619    0.731180
     21          8           0       -0.972664    0.150723   -2.026069
     22          6           0       -1.701009   -2.162539    0.099729
     23          6           0       -3.058369   -1.508013   -0.114581
     24          8           0       -2.793944   -0.095189   -0.186687
     25          6           0       -3.865671   -1.908843   -1.328303
     26          6           0       -5.146438   -1.138107   -1.526450
     27          6           0       -3.536802   -2.893753   -2.181931
     28          6           0        0.474908    2.701967   -2.989858
     29          6           0        1.083046    4.047232   -0.989147
     30          1           0       -1.618157    2.603011   -1.297424
     31          1           0       -2.696253    1.721696    1.315071
     32          6           0       -1.270856    2.331674    3.718373
     33          1           0       -0.968159   -0.255581    4.334075
     34          1           0       -2.320933   -1.699909    2.576385
     35          1           0       -0.654740   -2.111493    2.884167
     36          1           0        3.892652    0.222746   -1.379363
     37          1           0        5.917595   -1.049839   -1.149937
     38          1           0        5.597195   -0.211859    0.358216
     39          1           0        4.010309   -2.087889   -2.446684
     40          1           0        2.375824   -1.466995   -2.227752
     41          1           0        2.994341   -2.694783   -1.122350
     42          1           0       -1.274857    3.517272    0.905670
     43          1           0        0.182535    2.567631    1.194212
     44          1           0       -1.949785    0.091091   -2.020871
     45          1           0       -1.788165   -3.147750    0.571781
     46          1           0       -1.170740   -2.306469   -0.850128
     47          1           0       -3.684956   -1.667771    0.771651
     48          1           0       -5.771268   -1.203044   -0.629615
     49          1           0       -4.934256   -0.083436   -1.729142
     50          1           0       -5.735276   -1.522972   -2.366111
     51          1           0       -2.640073   -3.493604   -2.070410
     52          1           0       -4.169550   -3.138966   -3.030480
     53          1           0        0.267598    1.715353   -3.412473
     54          1           0        1.426365    3.014407   -3.436633
     55          1           0       -0.304546    3.395035   -3.322410
     56          1           0        0.330163    4.824722   -1.153688
     57          1           0        1.994375    4.330997   -1.529096
     58          1           0        1.364283    4.044398    0.068383
     59          1           0       -1.182026    2.034647    4.768857
     60          1           0       -0.414413    2.971203    3.484627
     61          1           0       -2.187015    2.923432    3.621331
     62          6           0        5.365220   -2.340243    0.465716
     63          1           0        5.148867   -3.194738   -0.182361
     64          1           0        4.691352   -2.380018    1.326403
     65          1           0        6.388803   -2.459907    0.835760
 ---------------------------------------------------------------------
 Rotational constants (GHZ):      0.1977005      0.1271261      0.1187277
 Standard basis: 6-31G(d) (6D, 7F)
 There are   533 symmetry adapted basis functions of A   symmetry.
 Integral buffers will be    131072 words long.
 Raffenetti 2 integral format.
 Two-electron integral symmetry is turned on.
   533 basis functions,  1004 primitive gaussians,   533 cartesian basis functions
   115 alpha electrons      115 beta electrons
       nuclear repulsion energy      3525.8288397992 Hartrees.
 NAtoms=   65 NActive=   65 NUniq=   65 SFac= 1.00D+00 NAtFMM=   50 NAOKFM=T Big=T
 One-electron integrals computed using PRISM.
 NBasis=   533 RedAO= T  NBF=   533
 NBsUse=   533 1.00D-06 NBFU=   533
 Harris functional with IExCor=  402 diagonalized for initial guess.
 ExpMin= 1.61D-01 ExpMax= 5.48D+03 ExpMxC= 8.25D+02 IAcc=1 IRadAn=         1 AccDes= 0.00D+00
 HarFok:  IExCor=  402 AccDes= 0.00D+00 IRadAn=         1 IDoV= 1
 ScaDFX=  1.000000  1.000000  1.000000  1.000000
 FoFCou: FMM=F IPFlag=           0 FMFlag=      100000 FMFlg1=        2001
         NFxFlg=           0 DoJE=T BraDBF=F KetDBF=T FulRan=T
         Omega=  0.000000  0.000000  1.000000  0.000000  0.000000 ICntrl=     500 IOpCl=  0
         NMat0=    1 NMatS0=    1 NMatT0=    0 NMatD0=    1 NMtDS0=    0 NMtDT0=    0
         I1Cent=           4 NGrid=           0.
 Petite list used in FoFCou.
 Initial guess orbital symmetries:
       Occupied  (A) (A) (A) (A) (A) (A) (A) (A) (A) (A) (A) (A)
                 (A) (A) (A) (A) (A) (A) (A) (A) (A) (A) (A) (A)
                 (A) (A) (A) (A) (A) (A) (A) (A) (A) (A) (A) (A)
                 (A) (A) (A) (A) (A) (A) (A) (A) (A) (A) (A) (A)
                 (A) (A) (A) (A) (A) (A) (A) (A) (A) (A) (A) (A)
                 (A) (A) (A) (A) (A) (A) (A) (A) (A) (A) (A) (A)
                 (A) (A) (A) (A) (A) (A) (A) (A) (A) (A) (A) (A)
                 (A) (A) (A) (A) (A) (A) (A) (A) (A) (A) (A) (A)
                 (A) (A) (A) (A) (A) (A) (A) (A) (A) (A) (A) (A)
                 (A) (A) (A) (A) (A) (A) (A)
       Virtual   (A) (A) (A) (A) (A) (A) (A) (A) (A) (A) (A) (A)
                 (A) (A) (A) (A) (A) (A) (A) (A) (A) (A) (A) (A)
                 (A) (A) (A) (A) (A) (A) (A) (A) (A) (A) (A) (A)
                 (A) (A) (A) (A) (A) (A) (A) (A) (A) (A) (A) (A)
                 (A) (A) (A) (A) (A) (A) (A) (A) (A) (A) (A) (A)
                 (A) (A) (A) (A) (A) (A) (A) (A) (A) (A) (A) (A)
                 (A) (A) (A) (A) (A) (A) (A) (A) (A) (A) (A) (A)
                 (A) (A) (A) (A) (A) (A) (A) (A) (A) (A) (A) (A)
                 (A) (A) (A) (A) (A) (A) (A) (A) (A) (A) (A) (A)
                 (A) (A) (A) (A) (A) (A) (A) (A) (A) (A) (A) (A)
                 (A) (A) (A) (A) (A) (A) (A) (A) (A) (A) (A) (A)
                 (A) (A) (A) (A) (A) (A) (A) (A) (A) (A) (A) (A)
                 (A) (A) (A) (A) (A) (A) (A) (A) (A) (A) (A) (A)
                 (A) (A) (A) (A) (A) (A) (A) (A) (A) (A) (A) (A)
                 (A) (A) (A) (A) (A) (A) (A) (A) (A) (A) (A) (A)
                 (A) (A) (A) (A) (A) (A) (A) (A) (A) (A) (A) (A)
                 (A) (A) (A) (A) (A) (A) (A) (A) (A) (A) (A) (A)
                 (A) (A) (A) (A) (A) (A) (A) (A) (A) (A) (A) (A)
                 (A) (A) (A) (A) (A) (A) (A) (A) (A) (A) (A) (A)
                 (A) (A) (A) (A) (A) (A) (A) (A) (A) (A) (A) (A)
                 (A) (A) (A) (A) (A) (A) (A) (A) (A) (A) (A) (A)
                 (A) (A) (A) (A) (A) (A) (A) (A) (A) (A) (A) (A)
                 (A) (A) (A) (A) (A) (A) (A) (A) (A) (A) (A) (A)
                 (A) (A) (A) (A) (A) (A) (A) (A) (A) (A) (A) (A)
                 (A) (A) (A) (A) (A) (A) (A) (A) (A) (A) (A) (A)
                 (A) (A) (A) (A) (A) (A) (A) (A) (A) (A) (A) (A)
                 (A) (A) (A) (A) (A) (A) (A) (A) (A) (A) (A) (A)
                 (A) (A) (A) (A) (A) (A) (A) (A) (A) (A) (A) (A)
                 (A) (A) (A) (A) (A) (A) (A) (A) (A) (A) (A) (A)
                 (A) (A) (A) (A) (A) (A) (A) (A) (A) (A) (A) (A)
                 (A) (A) (A) (A) (A) (A) (A) (A) (A) (A) (A) (A)
                 (A) (A) (A) (A) (A) (A) (A) (A) (A) (A) (A) (A)
                 (A) (A) (A) (A) (A) (A) (A) (A) (A) (A) (A) (A)
                 (A) (A) (A) (A) (A) (A) (A) (A) (A) (A) (A) (A)
                 (A) (A) (A) (A) (A) (A) (A) (A) (A) (A)
 The electronic state of the initial guess is 1-A.
 Requested convergence on RMS density matrix=1.00D-08 within 128 cycles.
 Requested convergence on MAX density matrix=1.00D-06.
 Requested convergence on             energy=1.00D-06.
 No special actions if energy rises.
 Integral accuracy reduced to 1.0D-05 until final iterations.
 Initial convergence to 1.0D-05 achieved.  Increase integral accuracy.
 SCF Done:  E(RB3LYP) =  -1387.30193400     A.U. after   16 cycles
             Convg  =    0.3404D-08             -V/T =  2.0091

 **********************************************************************

            Population analysis using the SCF density.

 **********************************************************************

 Orbital symmetries:
       Occupied  (A) (A) (A) (A) (A) (A) (A) (A) (A) (A) (A) (A)
                 (A) (A) (A) (A) (A) (A) (A) (A) (A) (A) (A) (A)
                 (A) (A) (A) (A) (A) (A) (A) (A) (A) (A) (A) (A)
                 (A) (A) (A) (A) (A) (A) (A) (A) (A) (A) (A) (A)
                 (A) (A) (A) (A) (A) (A) (A) (A) (A) (A) (A) (A)
                 (A) (A) (A) (A) (A) (A) (A) (A) (A) (A) (A) (A)
                 (A) (A) (A) (A) (A) (A) (A) (A) (A) (A) (A) (A)
                 (A) (A) (A) (A) (A) (A) (A) (A) (A) (A) (A) (A)
                 (A) (A) (A) (A) (A) (A) (A) (A) (A) (A) (A) (A)
                 (A) (A) (A) (A) (A) (A) (A)
       Virtual   (A) (A) (A) (A) (A) (A) (A) (A) (A) (A) (A) (A)
                 (A) (A) (A) (A) (A) (A) (A) (A) (A) (A) (A) (A)
                 (A) (A) (A) (A) (A) (A) (A) (A) (A) (A) (A) (A)
                 (A) (A) (A) (A) (A) (A) (A) (A) (A) (A) (A) (A)
                 (A) (A) (A) (A) (A) (A) (A) (A) (A) (A) (A) (A)
                 (A) (A) (A) (A) (A) (A) (A) (A) (A) (A) (A) (A)
                 (A) (A) (A) (A) (A) (A) (A) (A) (A) (A) (A) (A)
                 (A) (A) (A) (A) (A) (A) (A) (A) (A) (A) (A) (A)
                 (A) (A) (A) (A) (A) (A) (A) (A) (A) (A) (A) (A)
                 (A) (A) (A) (A) (A) (A) (A) (A) (A) (A) (A) (A)
                 (A) (A) (A) (A) (A) (A) (A) (A) (A) (A) (A) (A)
                 (A) (A) (A) (A) (A) (A) (A) (A) (A) (A) (A) (A)
                 (A) (A) (A) (A) (A) (A) (A) (A) (A) (A) (A) (A)
                 (A) (A) (A) (A) (A) (A) (A) (A) (A) (A) (A) (A)
                 (A) (A) (A) (A) (A) (A) (A) (A) (A) (A) (A) (A)
                 (A) (A) (A) (A) (A) (A) (A) (A) (A) (A) (A) (A)
                 (A) (A) (A) (A) (A) (A) (A) (A) (A) (A) (A) (A)
                 (A) (A) (A) (A) (A) (A) (A) (A) (A) (A) (A) (A)
                 (A) (A) (A) (A) (A) (A) (A) (A) (A) (A) (A) (A)
                 (A) (A) (A) (A) (A) (A) (A) (A) (A) (A) (A) (A)
                 (A) (A) (A) (A) (A) (A) (A) (A) (A) (A) (A) (A)
                 (A) (A) (A) (A) (A) (A) (A) (A) (A) (A) (A) (A)
                 (A) (A) (A) (A) (A) (A) (A) (A) (A) (A) (A) (A)
                 (A) (A) (A) (A) (A) (A) (A) (A) (A) (A) (A) (A)
                 (A) (A) (A) (A) (A) (A) (A) (A) (A) (A) (A) (A)
                 (A) (A) (A) (A) (A) (A) (A) (A) (A) (A) (A) (A)
                 (A) (A) (A) (A) (A) (A) (A) (A) (A) (A) (A) (A)
                 (A) (A) (A) (A) (A) (A) (A) (A) (A) (A) (A) (A)
                 (A) (A) (A) (A) (A) (A) (A) (A) (A) (A) (A) (A)
                 (A) (A) (A) (A) (A) (A) (A) (A) (A) (A) (A) (A)
                 (A) (A) (A) (A) (A) (A) (A) (A) (A) (A) (A) (A)
                 (A) (A) (A) (A) (A) (A) (A) (A) (A) (A) (A) (A)
                 (A) (A) (A) (A) (A) (A) (A) (A) (A) (A) (A) (A)
                 (A) (A) (A) (A) (A) (A) (A) (A) (A) (A) (A) (A)
                 (A) (A) (A) (A) (A) (A) (A) (A) (A) (A)
 The electronic state is 1-A.
 Alpha  occ. eigenvalues --  -19.19611 -19.16758 -19.15367 -19.13411 -19.13241
 Alpha  occ. eigenvalues --  -10.27865 -10.27023 -10.26784 -10.26128 -10.25910
 Alpha  occ. eigenvalues --  -10.25495 -10.24985 -10.21556 -10.20635 -10.20189
 Alpha  occ. eigenvalues --  -10.20095 -10.19485 -10.19427 -10.19395 -10.19177
 Alpha  occ. eigenvalues --  -10.19085 -10.18747 -10.18675 -10.18649 -10.18609
 Alpha  occ. eigenvalues --  -10.18279 -10.17941 -10.17750 -10.16744 -10.16717
 Alpha  occ. eigenvalues --  -10.15432  -1.08470  -1.06002  -1.03259  -1.02312
 Alpha  occ. eigenvalues --   -1.02158  -0.87366  -0.83971  -0.82642  -0.81678
 Alpha  occ. eigenvalues --   -0.80400  -0.79631  -0.76928  -0.74376  -0.73656
 Alpha  occ. eigenvalues --   -0.72212  -0.71075  -0.69549  -0.69186  -0.67854
 Alpha  occ. eigenvalues --   -0.64988  -0.64529  -0.63494  -0.62412  -0.60841
 Alpha  occ. eigenvalues --   -0.59438  -0.58663  -0.57317  -0.55088  -0.53462
 Alpha  occ. eigenvalues --   -0.53048  -0.52214  -0.50739  -0.50405  -0.49158
 Alpha  occ. eigenvalues --   -0.48131  -0.47644  -0.46613  -0.46141  -0.45696
 Alpha  occ. eigenvalues --   -0.45268  -0.44964  -0.44491  -0.43697  -0.43407
 Alpha  occ. eigenvalues --   -0.42958  -0.42753  -0.41985  -0.41712  -0.41534
 Alpha  occ. eigenvalues --   -0.40869  -0.40581  -0.40267  -0.39898  -0.39217
 Alpha  occ. eigenvalues --   -0.38940  -0.38513  -0.38316  -0.38080  -0.37929
 Alpha  occ. eigenvalues --   -0.37186  -0.37099  -0.37047  -0.36925  -0.36678
 Alpha  occ. eigenvalues --   -0.36537  -0.36270  -0.35226  -0.34536  -0.34134
 Alpha  occ. eigenvalues --   -0.33673  -0.33242  -0.32630  -0.32233  -0.32180
 Alpha  occ. eigenvalues --   -0.31399  -0.31210  -0.30953  -0.27880  -0.26596
 Alpha  occ. eigenvalues --   -0.26073  -0.25119  -0.24592  -0.23384  -0.23219
 Alpha virt. eigenvalues --   -0.05182  -0.01876   0.00408   0.02357   0.04088
 Alpha virt. eigenvalues --    0.06974   0.08610   0.08904   0.09204   0.10311
 Alpha virt. eigenvalues --    0.10578   0.10906   0.11440   0.12006   0.12605
 Alpha virt. eigenvalues --    0.13038   0.13226   0.13584   0.13871   0.14283
 Alpha virt. eigenvalues --    0.14349   0.14933   0.15035   0.15137   0.15695
 Alpha virt. eigenvalues --    0.16126   0.16185   0.17028   0.17557   0.17654
 Alpha virt. eigenvalues --    0.18102   0.18307   0.18429   0.18871   0.19098
 Alpha virt. eigenvalues --    0.19185   0.19595   0.19785   0.20092   0.20136
 Alpha virt. eigenvalues --    0.20401   0.20982   0.21556   0.21811   0.22141
 Alpha virt. eigenvalues --    0.22915   0.23338   0.23541   0.24018   0.24692
 Alpha virt. eigenvalues --    0.25166   0.25734   0.25948   0.26450   0.26598
 Alpha virt. eigenvalues --    0.27221   0.27917   0.28540   0.29094   0.29987
 Alpha virt. eigenvalues --    0.30804   0.32120   0.32580   0.33025   0.34467
 Alpha virt. eigenvalues --    0.35166   0.35897   0.37830   0.38946   0.40322
 Alpha virt. eigenvalues --    0.42237   0.45474   0.46466   0.47918   0.48284
 Alpha virt. eigenvalues --    0.49445   0.50599   0.51072   0.51336   0.51989
 Alpha virt. eigenvalues --    0.52120   0.52526   0.52912   0.53001   0.54133
 Alpha virt. eigenvalues --    0.54444   0.54580   0.55501   0.55929   0.56305
 Alpha virt. eigenvalues --    0.57318   0.57576   0.58061   0.58363   0.58990
 Alpha virt. eigenvalues --    0.59221   0.60182   0.60815   0.61845   0.62027
 Alpha virt. eigenvalues --    0.62666   0.63050   0.63101   0.63483   0.64420
 Alpha virt. eigenvalues --    0.65365   0.65773   0.66718   0.67083   0.67761
 Alpha virt. eigenvalues --    0.68259   0.68296   0.68734   0.69297   0.69882
 Alpha virt. eigenvalues --    0.70581   0.71570   0.71908   0.72416   0.73295
 Alpha virt. eigenvalues --    0.73913   0.74907   0.75159   0.75671   0.76252
 Alpha virt. eigenvalues --    0.76936   0.78429   0.78635   0.80275   0.80433
 Alpha virt. eigenvalues --    0.80805   0.81191   0.81478   0.82261   0.82453
 Alpha virt. eigenvalues --    0.82948   0.83368   0.83861   0.84297   0.85073
 Alpha virt. eigenvalues --    0.85609   0.86068   0.86607   0.86910   0.87199
 Alpha virt. eigenvalues --    0.87483   0.87907   0.88571   0.88746   0.89057
 Alpha virt. eigenvalues --    0.89511   0.89885   0.90454   0.90691   0.90753
 Alpha virt. eigenvalues --    0.90942   0.91356   0.91754   0.92309   0.92448
 Alpha virt. eigenvalues --    0.92872   0.93070   0.93772   0.94303   0.94709
 Alpha virt. eigenvalues --    0.94941   0.95379   0.95646   0.96223   0.96633
 Alpha virt. eigenvalues --    0.97661   0.97981   0.98317   0.98492   0.99210
 Alpha virt. eigenvalues --    1.00199   1.01244   1.01848   1.02414   1.02965
 Alpha virt. eigenvalues --    1.04030   1.04795   1.05208   1.05784   1.07471
 Alpha virt. eigenvalues --    1.07943   1.09581   1.10145   1.11012   1.12229
 Alpha virt. eigenvalues --    1.13055   1.14203   1.14572   1.15670   1.17027
 Alpha virt. eigenvalues --    1.17999   1.18205   1.18582   1.19228   1.20581
 Alpha virt. eigenvalues --    1.21252   1.23934   1.24336   1.25475   1.25754
 Alpha virt. eigenvalues --    1.26379   1.27597   1.30776   1.31076   1.32110
 Alpha virt. eigenvalues --    1.34991   1.35895   1.36829   1.38369   1.40105
 Alpha virt. eigenvalues --    1.41097   1.42202   1.42880   1.43380   1.44716
 Alpha virt. eigenvalues --    1.47457   1.49371   1.50311   1.50942   1.52656
 Alpha virt. eigenvalues --    1.53352   1.55166   1.55414   1.56459   1.59021
 Alpha virt. eigenvalues --    1.60779   1.61993   1.62875   1.63170   1.64021
 Alpha virt. eigenvalues --    1.65435   1.66739   1.67173   1.69895   1.70112
 Alpha virt. eigenvalues --    1.70819   1.71808   1.72652   1.73371   1.74124
 Alpha virt. eigenvalues --    1.74629   1.74804   1.75746   1.77027   1.77513
 Alpha virt. eigenvalues --    1.78996   1.79629   1.80539   1.81046   1.82167
 Alpha virt. eigenvalues --    1.82932   1.83245   1.84219   1.84697   1.84958
 Alpha virt. eigenvalues --    1.85699   1.86203   1.87086   1.87747   1.88442
 Alpha virt. eigenvalues --    1.89012   1.89837   1.90227   1.90911   1.91303
 Alpha virt. eigenvalues --    1.91854   1.93148   1.93904   1.94443   1.95150
 Alpha virt. eigenvalues --    1.95912   1.96378   1.96479   1.97361   1.98263
 Alpha virt. eigenvalues --    1.99379   1.99917   2.00742   2.01273   2.02497
 Alpha virt. eigenvalues --    2.02840   2.03781   2.04822   2.05932   2.06638
 Alpha virt. eigenvalues --    2.07298   2.07898   2.07995   2.09467   2.09721
 Alpha virt. eigenvalues --    2.09855   2.12297   2.12856   2.12951   2.13702
 Alpha virt. eigenvalues --    2.14690   2.15519   2.15887   2.16800   2.17155
 Alpha virt. eigenvalues --    2.18705   2.20062   2.21329   2.22513   2.23215
 Alpha virt. eigenvalues --    2.23443   2.24350   2.25316   2.25917   2.27817
 Alpha virt. eigenvalues --    2.28626   2.28949   2.31097   2.31558   2.32154
 Alpha virt. eigenvalues --    2.33435   2.33557   2.34274   2.35000   2.35272
 Alpha virt. eigenvalues --    2.35813   2.36759   2.37465   2.37704   2.38959
 Alpha virt. eigenvalues --    2.39645   2.41233   2.42271   2.42905   2.44674
 Alpha virt. eigenvalues --    2.44979   2.45681   2.46971   2.48334   2.49074
 Alpha virt. eigenvalues --    2.49968   2.50682   2.51358   2.53486   2.56070
 Alpha virt. eigenvalues --    2.56517   2.57595   2.57894   2.59364   2.60115
 Alpha virt. eigenvalues --    2.60846   2.61468   2.61946   2.63933   2.65675
 Alpha virt. eigenvalues --    2.66390   2.67620   2.68736   2.69527   2.70669
 Alpha virt. eigenvalues --    2.71288   2.73433   2.74243   2.77652   2.79169
 Alpha virt. eigenvalues --    2.80422   2.81986   2.82395   2.84077   2.86476
 Alpha virt. eigenvalues --    2.87132   2.89642   2.92600   2.94994   2.95521
 Alpha virt. eigenvalues --    2.96492   2.99136   3.01307   3.02199   3.03693
 Alpha virt. eigenvalues --    3.04930   3.07607   3.13052   3.18185   3.21718
 Alpha virt. eigenvalues --    3.22217   3.29023   4.01260   4.08715   4.11714
 Alpha virt. eigenvalues --    4.14194   4.15535   4.16096   4.17778   4.19908
 Alpha virt. eigenvalues --    4.22454   4.24172   4.24915   4.26904   4.30640
 Alpha virt. eigenvalues --    4.32816   4.35163   4.37549   4.39470   4.42245
 Alpha virt. eigenvalues --    4.46347   4.47991   4.52842   4.54158   4.58944
 Alpha virt. eigenvalues --    4.62955   4.65169   4.69747   4.72815   4.81333
 Alpha virt. eigenvalues --    4.91404   4.99500   5.19205
          Condensed to atoms (all electrons):
 Mulliken atomic charges:
              1
     1  C   -0.189349
     2  C    0.190697
     3  C   -0.186447
     4  C    0.321383
     5  C   -0.046060
     6  C   -0.332838
     7  C    0.214329
     8  C    0.392283
     9  C   -0.080384
    10  C    0.425966
    11  C    0.430008
    12  O   -0.457827
    13  C   -0.170551
    14  C   -0.248532
    15  C   -0.471045
    16  O   -0.500446
    17  C   -0.161773
    18  C    0.312768
    19  O   -0.543182
    20  C   -0.320362
    21  O   -0.661861
    22  C   -0.325077
    23  C    0.104696
    24  O   -0.584573
    25  C    0.178851
    26  C   -0.504755
    27  C   -0.392540
    28  C   -0.461914
    29  C   -0.463070
    30  H    0.142907
    31  H    0.163006
    32  C   -0.517239
    33  H    0.124303
    34  H    0.151646
    35  H    0.180538
    36  H    0.168121
    37  H    0.122397
    38  H    0.149862
    39  H    0.146200
    40  H    0.152361
    41  H    0.173306
    42  H    0.147626
    43  H    0.170886
    44  H    0.411053
    45  H    0.168146
    46  H    0.171131
    47  H    0.136331
    48  H    0.154617
    49  H    0.165728
    50  H    0.153513
    51  H    0.149759
    52  H    0.142596
    53  H    0.184506
    54  H    0.147964
    55  H    0.139712
    56  H    0.149910
    57  H    0.157150
    58  H    0.161290
    59  H    0.158682
    60  H    0.161153
    61  H    0.147863
    62  C   -0.452294
    63  H    0.139911
    64  H    0.170156
    65  H    0.136809
 Sum of Mulliken atomic charges =   0.00000
 Mulliken charges with hydrogens summed into heavy atoms:
              1
     1  C   -0.065047
     2  C    0.190697
     3  C   -0.023441
     4  C    0.321383
     5  C   -0.046060
     6  C   -0.000654
     7  C    0.214329
     8  C    0.392283
     9  C   -0.080384
    10  C    0.425966
    11  C    0.430008
    12  O   -0.457827
    13  C   -0.002430
    14  C    0.023727
    15  C    0.000822
    16  O   -0.500446
    17  C   -0.018866
    18  C    0.312768
    19  O   -0.543182
    20  C   -0.001850
    21  O   -0.250807
    22  C    0.014201
    23  C    0.241027
    24  O   -0.584573
    25  C    0.178851
    26  C   -0.030897
    27  C   -0.100185
    28  C    0.010267
    29  C    0.005280
    32  C   -0.049541
    62  C   -0.005419
 Sum of Mulliken charges with hydrogens summed into heavy atoms =   0.00000
 Electronic spatial extent (au):  <R**2>=          11390.7706
 Charge=              0.0000 electrons
 Dipole moment (field-independent basis, Debye):
    X=             -4.5569    Y=              2.7382    Z=             -1.7744  Tot=              5.6046
 Quadrupole moment (field-independent basis, Debye-Ang):
   XX=           -184.2665   YY=           -178.4760   ZZ=           -183.9861
   XY=              3.5193   XZ=             -7.8735   YZ=              1.3759
 Traceless Quadrupole moment (field-independent basis, Debye-Ang):
   XX=             -2.0236   YY=              3.7669   ZZ=             -1.7433
   XY=              3.5193   XZ=             -7.8735   YZ=              1.3759
 Octapole moment (field-independent basis, Debye-Ang**2):
  XXX=            -31.2934  YYY=             45.9889  ZZZ=              6.0436  XYY=            -17.1459
  XXY=            -10.1882  XXZ=            -44.7193  XZZ=            -22.1279  YZZ=              2.5049
  YYZ=            -18.8417  XYZ=              1.5179
 Hexadecapole moment (field-independent basis, Debye-Ang**3):
 XXXX=          -7808.3128 YYYY=          -4093.2162 ZZZZ=          -3242.1156 XXXY=             28.3097
 XXXZ=             -1.2490 YYYX=             27.8194 YYYZ=             -7.5187 ZZZX=             15.4609
 ZZZY=            -17.3916 XXYY=          -1997.9533 XXZZ=          -1852.6495 YYZZ=          -1199.9675
 XXYZ=             19.4836 YYXZ=             -1.8633 ZZXY=             28.3538
 N-N= 3.525828839799D+03 E-N=-1.027805813635D+04  KE= 1.374754343944D+03
 Calling FoFJK, ICntrl=      2127 FMM=T ISym2X=0 I1Cent= 0 IOpClX= 0 NMat=1 NMatS=1 NMatT=0.
 ***** Axes restored to original set *****
 -------------------------------------------------------------------
 Center     Atomic                   Forces (Hartrees/Bohr)
 Number     Number              X              Y              Z
 -------------------------------------------------------------------
      1        6           0.009548389   -0.000547273    0.000250068
      2        6          -0.012814080   -0.005438317    0.001963996
      3        6          -0.000876380   -0.007761227   -0.000605032
      4        6           0.003088096   -0.004568088    0.010920197
      5        6          -0.011181940   -0.000816811    0.000739331
      6        6          -0.004391352   -0.011176819   -0.000915586
      7        6           0.011921169    0.018584255    0.008578872
      8        6           0.008751860   -0.012067924   -0.014196950
      9        6          -0.000131759    0.006376611    0.009639958
     10        6          -0.009677589    0.002538995   -0.020131419
     11        6          -0.006313311   -0.024426875   -0.016796053
     12        8           0.000009777    0.020866782    0.000297424
     13        6          -0.004791344   -0.005061283   -0.008436448
     14        6           0.002411072   -0.005480915   -0.002853654
     15        6           0.000363188    0.005918665    0.007807093
     16        8           0.010170429   -0.004468213    0.010160780
     17        6           0.007732514   -0.010822871   -0.005492908
     18        6           0.032448575    0.007294949   -0.000354156
     19        8          -0.026520579    0.002958088    0.025626253
     20        6           0.011559681   -0.004739066    0.000052789
     21        8          -0.006061890    0.007062593   -0.002405264
     22        6          -0.007213028    0.013481079    0.002109671
     23        6          -0.005244987    0.008293140    0.000714642
     24        8           0.001653338   -0.006025956   -0.009854021
     25        6          -0.003066756    0.014515139    0.001740663
     26        6           0.001418494    0.001810464    0.000380781
     27        6           0.001058593   -0.010075111   -0.001784524
     28        6          -0.003068038    0.007733531   -0.004903291
     29        6          -0.003696052   -0.006153709   -0.009034074
     30        1          -0.001641276    0.001098980   -0.001757688
     31        1          -0.003226124    0.006080004   -0.000100184
     32        6          -0.000958449    0.000984130   -0.001020158
     33        1           0.001480630   -0.000792990   -0.000066900
     34        1          -0.000722977    0.005537544    0.001906884
     35        1           0.000429321    0.007269036   -0.001206126
     36        1           0.002988329   -0.000376961    0.002875406
     37        1           0.002287788    0.001764423    0.000784011
     38        1           0.001065992    0.001001794    0.002214440
     39        1          -0.000037510   -0.001149708   -0.001157742
     40        1          -0.000529472    0.000254040    0.000533754
     41        1           0.000062562   -0.000008094   -0.000676406
     42        1          -0.001268198   -0.002003158   -0.001470837
     43        1           0.000122407    0.002760258   -0.000216996
     44        1          -0.001898937   -0.003616701   -0.002429676
     45        1           0.001489265   -0.002896106   -0.001491902
     46        1           0.001895674    0.000065085    0.003437175
     47        1          -0.001863975   -0.001351761    0.003061602
     48        1           0.002579379   -0.002676134    0.001599540
     49        1           0.001035317   -0.003346050    0.002236794
     50        1          -0.001429050   -0.000173231   -0.001690057
     51        1          -0.000219030   -0.000298331   -0.001306471
     52        1           0.000031323   -0.000571143    0.001048706
     53        1          -0.001234227   -0.002735030    0.005568448
     54        1           0.002102944   -0.003823873    0.000347304
     55        1           0.000479370   -0.000827707    0.000179754
     56        1          -0.000776838    0.001228968    0.000620215
     57        1           0.000620293    0.002779149    0.001487876
     58        1          -0.000295096    0.000001417    0.003744386
     59        1          -0.001149404    0.001762626   -0.000633740
     60        1           0.004206159   -0.001647323    0.000286113
     61        1           0.004093634   -0.001176688    0.000162550
     62        6          -0.003787889   -0.000825940   -0.000678623
     63        1          -0.001611847    0.000319034    0.000573770
     64        1          -0.000252734   -0.000058724    0.000411037
     65        1          -0.001153445   -0.000354666   -0.000395398
 -------------------------------------------------------------------
 Cartesian Forces:  Max     0.032448575 RMS     0.006663651

 GradGradGradGradGradGradGradGradGradGradGradGradGradGradGradGradGradGrad
 Berny optimization.
 Internal  Forces:  Max     0.020548841 RMS     0.003415609
 Search for a local minimum.
 Step number   1 out of a maximum of  390
 All quantities printed in internal units (Hartrees-Bohrs-Radians)
 Mixed Optimization -- RFO/linear search
 Second derivative matrix not updated -- first step.
 ITU=  0
     Eigenvalues ---    0.00230   0.00276   0.00317   0.00334   0.00377
     Eigenvalues ---    0.00432   0.00447   0.00559   0.00590   0.00609
     Eigenvalues ---    0.00610   0.00662   0.00686   0.00689   0.00740
     Eigenvalues ---    0.01023   0.01084   0.01245   0.01252   0.01420
     Eigenvalues ---    0.01460   0.01629   0.01715   0.01822   0.01929
     Eigenvalues ---    0.02506   0.02827   0.02827   0.03030   0.03115
     Eigenvalues ---    0.03314   0.03488   0.03594   0.03753   0.04034
     Eigenvalues ---    0.04102   0.04312   0.04388   0.04586   0.04637
     Eigenvalues ---    0.04763   0.04826   0.04924   0.05093   0.05245
     Eigenvalues ---    0.05305   0.05381   0.05419   0.05421   0.05455
     Eigenvalues ---    0.05493   0.05503   0.05538   0.05549   0.05623
     Eigenvalues ---    0.05695   0.05743   0.05927   0.06274   0.06637
     Eigenvalues ---    0.06687   0.06862   0.07090   0.07109   0.07169
     Eigenvalues ---    0.07248   0.07250   0.07365   0.07687   0.08381
     Eigenvalues ---    0.08678   0.08827   0.09021   0.09184   0.09825
     Eigenvalues ---    0.10086   0.10639   0.10919   0.11636   0.12452
     Eigenvalues ---    0.13168   0.14704   0.15203   0.15972   0.16000
     Eigenvalues ---    0.16000   0.16000   0.16000   0.16000   0.16000
     Eigenvalues ---    0.16000   0.16000   0.16000   0.16000   0.16000
     Eigenvalues ---    0.16000   0.16000   0.16000   0.16000   0.16000
     Eigenvalues ---    0.16000   0.16000   0.16000   0.16000   0.16000
     Eigenvalues ---    0.16412   0.17219   0.17248   0.18324   0.18580
     Eigenvalues ---    0.19737   0.21567   0.21941   0.22719   0.23517
     Eigenvalues ---    0.24475   0.24933   0.24967   0.24972   0.24986
     Eigenvalues ---    0.24986   0.24993   0.25000   0.25906   0.27299
     Eigenvalues ---    0.27374   0.27728   0.27834   0.28046   0.28302
     Eigenvalues ---    0.28371   0.28688   0.28781   0.29061   0.29180
     Eigenvalues ---    0.29476   0.29974   0.30485   0.30542   0.31171
     Eigenvalues ---    0.31566   0.31751   0.31826   0.33369   0.33666
     Eigenvalues ---    0.33888   0.33971   0.33979   0.33980   0.34009
     Eigenvalues ---    0.34010   0.34037   0.34047   0.34058   0.34063
     Eigenvalues ---    0.34120   0.34135   0.34136   0.34197   0.34210
     Eigenvalues ---    0.34225   0.34226   0.34236   0.34244   0.34245
     Eigenvalues ---    0.34245   0.34269   0.34272   0.34274   0.34322
     Eigenvalues ---    0.34339   0.34347   0.34374   0.34451   0.34502
     Eigenvalues ---    0.34951   0.35217   0.35261   0.35443   0.36327
     Eigenvalues ---    0.37342   0.42833   0.43551   0.51589   0.53351
     Eigenvalues ---    0.54566   0.56273   0.89753   0.90222
 RFO step:  Lambda=-2.13796715D-02 EMin= 2.30000000D-03
 Linear search not attempted -- first point.
 Iteration  1 RMS(Cart)=  0.04435135 RMS(Int)=  0.00064213
 Iteration  2 RMS(Cart)=  0.00099276 RMS(Int)=  0.00025233
 Iteration  3 RMS(Cart)=  0.00000055 RMS(Int)=  0.00025233
 Variable       Old X    -DE/DX   Delta X   Delta X   Delta X     New X
                                 (Linear)    (Quad)   (Total)
    R1        2.53488  -0.00261   0.00000  -0.00553  -0.00555   2.52933
    R2        2.82336   0.00863   0.00000   0.02539   0.02532   2.84868
    R3        2.05754  -0.00006   0.00000  -0.00015  -0.00015   2.05739
    R4        2.85380   0.00391   0.00000   0.00864   0.00868   2.86248
    R5        2.84601   0.00316   0.00000   0.00931   0.00931   2.85532
    R6        2.93991   0.00499   0.00000   0.01221   0.01213   2.95204
    R7        2.90897   0.01123   0.00000   0.03852   0.03851   2.94748
    R8        2.07897  -0.00085   0.00000  -0.00237  -0.00237   2.07660
    R9        2.90620   0.00891   0.00000   0.02919   0.02903   2.93524
   R10        2.91443   0.00712   0.00000   0.02415   0.02426   2.93869
   R11        2.76313  -0.00456   0.00000  -0.01076  -0.01077   2.75236
   R12        2.91311   0.00060   0.00000   0.00502   0.00495   2.91806
   R13        2.90345   0.00618   0.00000   0.01387   0.01384   2.91729
   R14        2.89491   0.01234   0.00000   0.04012   0.04012   2.93503
   R15        2.07251   0.00299   0.00000   0.00827   0.00827   2.08078
   R16        2.07379  -0.00133   0.00000  -0.00368  -0.00368   2.07011
   R17        2.81548   0.00901   0.00000   0.01926   0.01884   2.83432
   R18        2.85964   0.01578   0.00000   0.05577   0.05526   2.91489
   R19        2.67876   0.00329   0.00000   0.00733   0.00733   2.68608
   R20        2.52536   0.01209   0.00000   0.02095   0.02095   2.54631
   R21        2.63106  -0.01889   0.00000  -0.04499  -0.04477   2.58628
   R22        2.79335  -0.00142   0.00000  -0.00786  -0.00769   2.78566
   R23        2.79791   0.01848   0.00000   0.05043   0.05043   2.84835
   R24        2.33047  -0.01280   0.00000  -0.01392  -0.01392   2.31654
   R25        2.32831  -0.02055   0.00000  -0.02225  -0.02225   2.30606
   R26        2.89877  -0.00345   0.00000  -0.01107  -0.01107   2.88770
   R27        2.91334   0.00177   0.00000   0.00581   0.00581   2.91915
   R28        2.89020   0.00611   0.00000   0.01932   0.01932   2.90952
   R29        2.07519   0.00217   0.00000   0.00601   0.00601   2.08120
   R30        2.07364   0.00089   0.00000   0.00247   0.00247   2.07611
   R31        2.07314  -0.00092   0.00000  -0.00254  -0.00254   2.07060
   R32        2.88014   0.00686   0.00000   0.02137   0.02137   2.90152
   R33        2.06952   0.00022   0.00000   0.00062   0.00062   2.07014
   R34        2.06950   0.00019   0.00000   0.00052   0.00052   2.07002
   R35        2.06933  -0.00032   0.00000  -0.00088  -0.00088   2.06845
   R36        2.91668  -0.00064   0.00000   0.00994   0.01019   2.92687
   R37        2.90563   0.00422   0.00000   0.01452   0.01458   2.92021
   R38        2.07128  -0.00164   0.00000  -0.00453  -0.00453   2.06675
[...]
     55          1           0       -0.170320    3.440785   -3.453359
     56          1           0        0.501821    4.834834   -1.363327
     57          1           0        2.128532    4.171581   -1.602934
     58          1           0        1.342848    4.025956   -0.023383
     59          1           0       -1.313966    2.222132    4.670594
     60          1           0       -0.621884    3.167355    3.343606
     61          1           0       -2.371594    3.053474    3.513896
     62          6           0        5.764484   -1.957558    0.497698
     63          1           0        5.618383   -2.943174    0.041289
     64          1           0        5.232481   -1.939101    1.452608
     65          1           0        6.835447   -1.849269    0.705193
 ---------------------------------------------------------------------
 Rotational constants (GHZ):      0.1964855      0.1240454      0.1161357

 **********************************************************************

            Population analysis using the SCF density.

 **********************************************************************

 Orbital symmetries:
       Occupied  (A) (A) (A) (A) (A) (A) (A) (A) (A) (A) (A) (A)
                 (A) (A) (A) (A) (A) (A) (A) (A) (A) (A) (A) (A)
                 (A) (A) (A) (A) (A) (A) (A) (A) (A) (A) (A) (A)
                 (A) (A) (A) (A) (A) (A) (A) (A) (A) (A) (A) (A)
                 (A) (A) (A) (A) (A) (A) (A) (A) (A) (A) (A) (A)
                 (A) (A) (A) (A) (A) (A) (A) (A) (A) (A) (A) (A)
                 (A) (A) (A) (A) (A) (A) (A) (A) (A) (A) (A) (A)
                 (A) (A) (A) (A) (A) (A) (A) (A) (A) (A) (A) (A)
                 (A) (A) (A) (A) (A) (A) (A) (A) (A) (A) (A) (A)
                 (A) (A) (A) (A) (A) (A) (A)
       Virtual   (A) (A) (A) (A) (A) (A) (A) (A) (A) (A) (A) (A)
                 (A) (A) (A) (A) (A) (A) (A) (A) (A) (A) (A) (A)
                 (A) (A) (A) (A) (A) (A) (A) (A) (A) (A) (A) (A)
                 (A) (A) (A) (A) (A) (A) (A) (A) (A) (A) (A) (A)
                 (A) (A) (A) (A) (A) (A) (A) (A) (A) (A) (A) (A)
                 (A) (A) (A) (A) (A) (A) (A) (A) (A) (A) (A) (A)
                 (A) (A) (A) (A) (A) (A) (A) (A) (A) (A) (A) (A)
                 (A) (A) (A) (A) (A) (A) (A) (A) (A) (A) (A) (A)
                 (A) (A) (A) (A) (A) (A) (A) (A) (A) (A) (A) (A)
                 (A) (A) (A) (A) (A) (A) (A) (A) (A) (A) (A) (A)
                 (A) (A) (A) (A) (A) (A) (A) (A) (A) (A) (A) (A)
                 (A) (A) (A) (A) (A) (A) (A) (A) (A) (A) (A) (A)
                 (A) (A) (A) (A) (A) (A) (A) (A) (A) (A) (A) (A)
                 (A) (A) (A) (A) (A) (A) (A) (A) (A) (A) (A) (A)
                 (A) (A) (A) (A) (A) (A) (A) (A) (A) (A) (A) (A)
                 (A) (A) (A) (A) (A) (A) (A) (A) (A) (A) (A) (A)
                 (A) (A) (A) (A) (A) (A) (A) (A) (A) (A) (A) (A)
                 (A) (A) (A) (A) (A) (A) (A) (A) (A) (A) (A) (A)
                 (A) (A) (A) (A) (A) (A) (A) (A) (A) (A) (A) (A)
                 (A) (A) (A) (A) (A) (A) (A) (A) (A) (A) (A) (A)
                 (A) (A) (A) (A) (A) (A) (A) (A) (A) (A) (A) (A)
                 (A) (A) (A) (A) (A) (A) (A) (A) (A) (A) (A) (A)
                 (A) (A) (A) (A) (A) (A) (A) (A) (A) (A) (A) (A)
                 (A) (A) (A) (A) (A) (A) (A) (A) (A) (A) (A) (A)
                 (A) (A) (A) (A) (A) (A) (A) (A) (A) (A) (A) (A)
                 (A) (A) (A) (A) (A) (A) (A) (A) (A) (A) (A) (A)
                 (A) (A) (A) (A) (A) (A) (A) (A) (A) (A) (A) (A)
                 (A) (A) (A) (A) (A) (A) (A) (A) (A) (A) (A) (A)
                 (A) (A) (A) (A) (A) (A) (A) (A) (A) (A) (A) (A)
                 (A) (A) (A) (A) (A) (A) (A) (A) (A) (A) (A) (A)
                 (A) (A) (A) (A) (A) (A) (A) (A) (A) (A) (A) (A)
                 (A) (A) (A) (A) (A) (A) (A) (A) (A) (A) (A) (A)
                 (A) (A) (A) (A) (A) (A) (A) (A) (A) (A) (A) (A)
                 (A) (A) (A) (A) (A) (A) (A) (A) (A) (A) (A) (A)
                 (A) (A) (A) (A) (A) (A) (A) (A) (A) (A)
 The electronic state is 1-A.
 Alpha  occ. eigenvalues --  -19.19524 -19.16628 -19.15737 -19.12923 -19.12480
 Alpha  occ. eigenvalues --  -10.26937 -10.26863 -10.26738 -10.26648 -10.25709
 Alpha  occ. eigenvalues --  -10.25690 -10.25120 -10.21219 -10.20789 -10.20589
 Alpha  occ. eigenvalues --  -10.20265 -10.19822 -10.19458 -10.19215 -10.19090
 Alpha  occ. eigenvalues --  -10.19030 -10.18893 -10.18885 -10.18695 -10.18485
 Alpha  occ. eigenvalues --  -10.18360 -10.18260 -10.17974 -10.16942 -10.16834
 Alpha  occ. eigenvalues --  -10.15425  -1.08917  -1.05809  -1.03219  -1.02370
 Alpha  occ. eigenvalues --   -1.02212  -0.86578  -0.83621  -0.82371  -0.81338
 Alpha  occ. eigenvalues --   -0.80151  -0.79396  -0.76638  -0.74207  -0.73086
 Alpha  occ. eigenvalues --   -0.71852  -0.70969  -0.69960  -0.69470  -0.67760
 Alpha  occ. eigenvalues --   -0.64883  -0.64534  -0.63285  -0.61995  -0.60486
 Alpha  occ. eigenvalues --   -0.59253  -0.58533  -0.56803  -0.54877  -0.53295
 Alpha  occ. eigenvalues --   -0.52599  -0.52089  -0.50373  -0.50161  -0.49162
 Alpha  occ. eigenvalues --   -0.48071  -0.47488  -0.46576  -0.46182  -0.45625
 Alpha  occ. eigenvalues --   -0.45231  -0.44866  -0.44390  -0.43486  -0.43310
 Alpha  occ. eigenvalues --   -0.42716  -0.42429  -0.41908  -0.41509  -0.41293
 Alpha  occ. eigenvalues --   -0.40735  -0.40505  -0.40282  -0.40046  -0.39129
 Alpha  occ. eigenvalues --   -0.38935  -0.38470  -0.38312  -0.38144  -0.37669
 Alpha  occ. eigenvalues --   -0.37468  -0.37356  -0.37140  -0.37063  -0.36737
 Alpha  occ. eigenvalues --   -0.36516  -0.36215  -0.35110  -0.34807  -0.34275
 Alpha  occ. eigenvalues --   -0.33608  -0.33482  -0.32691  -0.32320  -0.31829
 Alpha  occ. eigenvalues --   -0.31416  -0.31180  -0.30951  -0.28047  -0.26651
 Alpha  occ. eigenvalues --   -0.26299  -0.24560  -0.24038  -0.23266  -0.22757
 Alpha virt. eigenvalues --   -0.04378  -0.00996   0.00344   0.02381   0.05199
 Alpha virt. eigenvalues --    0.07167   0.08721   0.08943   0.09233   0.10069
 Alpha virt. eigenvalues --    0.10656   0.10819   0.11162   0.11998   0.12501
 Alpha virt. eigenvalues --    0.13046   0.13303   0.13585   0.14098   0.14197
 Alpha virt. eigenvalues --    0.14375   0.14782   0.15293   0.15539   0.15931
 Alpha virt. eigenvalues --    0.16209   0.16692   0.16997   0.17042   0.17411
 Alpha virt. eigenvalues --    0.17905   0.18195   0.18261   0.18608   0.18757
 Alpha virt. eigenvalues --    0.18993   0.19322   0.19401   0.19876   0.20223
 Alpha virt. eigenvalues --    0.20448   0.20714   0.21386   0.21834   0.21989
 Alpha virt. eigenvalues --    0.22630   0.23146   0.23283   0.23838   0.24116
 Alpha virt. eigenvalues --    0.24863   0.25490   0.25796   0.26676   0.26998
 Alpha virt. eigenvalues --    0.27589   0.27902   0.27963   0.28895   0.29744
 Alpha virt. eigenvalues --    0.30235   0.31829   0.32451   0.32674   0.33979
 Alpha virt. eigenvalues --    0.34911   0.36111   0.37509   0.38910   0.39522
 Alpha virt. eigenvalues --    0.41737   0.45641   0.46344   0.48157   0.48549
 Alpha virt. eigenvalues --    0.49048   0.50480   0.50647   0.51254   0.51793
 Alpha virt. eigenvalues --    0.52013   0.52484   0.52644   0.53001   0.53583
 Alpha virt. eigenvalues --    0.53969   0.54197   0.55038   0.55643   0.56214
 Alpha virt. eigenvalues --    0.57032   0.57474   0.58002   0.58612   0.58691
 Alpha virt. eigenvalues --    0.58784   0.60180   0.60543   0.61273   0.61507
 Alpha virt. eigenvalues --    0.62219   0.62723   0.62780   0.63246   0.64737
 Alpha virt. eigenvalues --    0.65432   0.65885   0.66413   0.67417   0.67777
 Alpha virt. eigenvalues --    0.67993   0.68541   0.68786   0.69470   0.69765
 Alpha virt. eigenvalues --    0.70390   0.71321   0.72009   0.72472   0.72791
 Alpha virt. eigenvalues --    0.74550   0.75014   0.75099   0.75632   0.75999
 Alpha virt. eigenvalues --    0.76789   0.77786   0.77989   0.79670   0.79935
 Alpha virt. eigenvalues --    0.80514   0.80848   0.81503   0.81822   0.82653
 Alpha virt. eigenvalues --    0.83021   0.83474   0.83989   0.84717   0.85282
 Alpha virt. eigenvalues --    0.85605   0.86198   0.86363   0.86554   0.87011
 Alpha virt. eigenvalues --    0.87583   0.88139   0.88264   0.88783   0.88855
 Alpha virt. eigenvalues --    0.89007   0.89502   0.90232   0.90340   0.90651
 Alpha virt. eigenvalues --    0.90992   0.91059   0.91351   0.91684   0.93049
 Alpha virt. eigenvalues --    0.93274   0.93651   0.93809   0.94252   0.94750
 Alpha virt. eigenvalues --    0.95222   0.95376   0.95642   0.96264   0.96617
 Alpha virt. eigenvalues --    0.97305   0.97844   0.98227   0.98489   0.99618
 Alpha virt. eigenvalues --    1.00371   1.01408   1.01754   1.02105   1.02387
 Alpha virt. eigenvalues --    1.03302   1.05225   1.05568   1.05829   1.07886
 Alpha virt. eigenvalues --    1.08560   1.09184   1.10407   1.11928   1.12221
 Alpha virt. eigenvalues --    1.13367   1.14488   1.15462   1.15984   1.16417
 Alpha virt. eigenvalues --    1.17168   1.17835   1.18593   1.19241   1.21266
 Alpha virt. eigenvalues --    1.22400   1.24060   1.25102   1.25675   1.26232
 Alpha virt. eigenvalues --    1.27530   1.29365   1.29898   1.31641   1.33206
 Alpha virt. eigenvalues --    1.33728   1.35993   1.37366   1.38471   1.39244
 Alpha virt. eigenvalues --    1.40205   1.41565   1.41855   1.43837   1.45552
 Alpha virt. eigenvalues --    1.46658   1.48167   1.49831   1.51043   1.52874
 Alpha virt. eigenvalues --    1.53283   1.54347   1.55068   1.56376   1.58581
 Alpha virt. eigenvalues --    1.59615   1.61515   1.62830   1.63528   1.63539
 Alpha virt. eigenvalues --    1.65371   1.66235   1.67739   1.68734   1.69475
 Alpha virt. eigenvalues --    1.70989   1.71950   1.72406   1.73003   1.73789
 Alpha virt. eigenvalues --    1.74158   1.74677   1.75952   1.76318   1.77252
 Alpha virt. eigenvalues --    1.78639   1.78961   1.79630   1.80447   1.80950
 Alpha virt. eigenvalues --    1.82107   1.82287   1.83776   1.84790   1.85388
 Alpha virt. eigenvalues --    1.85702   1.86232   1.86597   1.87083   1.87640
 Alpha virt. eigenvalues --    1.89019   1.89066   1.90036   1.90152   1.90970
 Alpha virt. eigenvalues --    1.91490   1.92844   1.93286   1.93902   1.94960
 Alpha virt. eigenvalues --    1.95495   1.95912   1.96951   1.97442   1.97924
 Alpha virt. eigenvalues --    1.98976   1.99653   1.99911   2.00418   2.01080
 Alpha virt. eigenvalues --    2.02275   2.02501   2.03955   2.04719   2.05858
 Alpha virt. eigenvalues --    2.06632   2.07200   2.08597   2.09475   2.09523
 Alpha virt. eigenvalues --    2.09991   2.11260   2.11855   2.12607   2.12812
 Alpha virt. eigenvalues --    2.13906   2.14892   2.15204   2.16742   2.17019
 Alpha virt. eigenvalues --    2.17835   2.19160   2.19698   2.21348   2.22452
 Alpha virt. eigenvalues --    2.23685   2.23961   2.24623   2.26300   2.27197
 Alpha virt. eigenvalues --    2.28374   2.29241   2.30151   2.30623   2.32092
 Alpha virt. eigenvalues --    2.33262   2.33728   2.34362   2.34496   2.35090
 Alpha virt. eigenvalues --    2.35595   2.36486   2.37470   2.38310   2.39024
 Alpha virt. eigenvalues --    2.39202   2.40641   2.41138   2.41461   2.42761
 Alpha virt. eigenvalues --    2.44096   2.44461   2.46685   2.47693   2.48363
 Alpha virt. eigenvalues --    2.48962   2.50201   2.51787   2.53405   2.55013
 Alpha virt. eigenvalues --    2.55288   2.56741   2.57770   2.58918   2.59446
 Alpha virt. eigenvalues --    2.60878   2.61306   2.62783   2.63426   2.65081
 Alpha virt. eigenvalues --    2.65590   2.67168   2.67904   2.69171   2.69765
 Alpha virt. eigenvalues --    2.71384   2.72337   2.73088   2.76440   2.77434
 Alpha virt. eigenvalues --    2.79032   2.79843   2.81820   2.83256   2.85435
 Alpha virt. eigenvalues --    2.86571   2.89032   2.91582   2.94230   2.96114
 Alpha virt. eigenvalues --    2.97884   3.00574   3.01106   3.01727   3.03985
 Alpha virt. eigenvalues --    3.04749   3.06606   3.12271   3.18107   3.21464
 Alpha virt. eigenvalues --    3.23795   3.28266   4.03159   4.07646   4.11474
 Alpha virt. eigenvalues --    4.12743   4.13605   4.13934   4.17146   4.19501
 Alpha virt. eigenvalues --    4.22455   4.23844   4.25686   4.28588   4.30191
 Alpha virt. eigenvalues --    4.31568   4.33881   4.37249   4.38862   4.43723
 Alpha virt. eigenvalues --    4.46056   4.48319   4.53668   4.55653   4.60005
 Alpha virt. eigenvalues --    4.62390   4.65803   4.66944   4.72982   4.81132
 Alpha virt. eigenvalues --    4.89527   5.02093   5.17728
          Condensed to atoms (all electrons):
 Mulliken atomic charges:
              1
     1  C   -0.184332
     2  C    0.194087
     3  C   -0.188606
     4  C    0.324187
     5  C   -0.055056
     6  C   -0.335542
     7  C    0.203277
     8  C    0.395865
     9  C   -0.096329
    10  C    0.433846
    11  C    0.428807
    12  O   -0.442063
    13  C   -0.173387
    14  C   -0.246704
    15  C   -0.461945
    16  O   -0.503856
    17  C   -0.164472
    18  C    0.305724
    19  O   -0.540236
    20  C   -0.322917
    21  O   -0.659225
    22  C   -0.324769
    23  C    0.096431
    24  O   -0.591717
    25  C    0.183027
    26  C   -0.508046
    27  C   -0.393780
    28  C   -0.467915
    29  C   -0.459173
    30  H    0.143147
    31  H    0.163170
    32  C   -0.519404
    33  H    0.123818
    34  H    0.145308
    35  H    0.186254
    36  H    0.157706
    37  H    0.121688
    38  H    0.144834
    39  H    0.145963
    40  H    0.153825
    41  H    0.172320
    42  H    0.150693
    43  H    0.169807
    44  H    0.413708
    45  H    0.168584
    46  H    0.168021
    47  H    0.138505
    48  H    0.156622
    49  H    0.170706
    50  H    0.154293
    51  H    0.152876
    52  H    0.142098
    53  H    0.192763
    54  H    0.154931
    55  H    0.143255
    56  H    0.150499
    57  H    0.162602
    58  H    0.164236
    59  H    0.158724
    60  H    0.158346
    61  H    0.148896
    62  C   -0.452689
    63  H    0.137681
    64  H    0.175540
    65  H    0.135496
 Sum of Mulliken atomic charges =   0.00000
 Mulliken charges with hydrogens summed into heavy atoms:
              1
     1  C   -0.060515
     2  C    0.194087
     3  C   -0.025437
     4  C    0.324187
     5  C   -0.055056
     6  C   -0.003980
     7  C    0.203277
     8  C    0.395865
     9  C   -0.096329
    10  C    0.433846
    11  C    0.428807
    12  O   -0.442063
    13  C   -0.015681
    14  C    0.019818
    15  C    0.010163
    16  O   -0.503856
    17  C   -0.021325
    18  C    0.305724
    19  O   -0.540236
    20  C   -0.002418
    21  O   -0.245517
    22  C    0.011835
    23  C    0.234935
    24  O   -0.591717
    25  C    0.183027
    26  C   -0.026425
    27  C   -0.098806
    28  C    0.023035
    29  C    0.018164
    32  C   -0.053438
    62  C   -0.003971
 Sum of Mulliken charges with hydrogens summed into heavy atoms =   0.00000
 Electronic spatial extent (au):  <R**2>=          11599.0228
 Charge=              0.0000 electrons
 Dipole moment (field-independent basis, Debye):
    X=             -4.6922    Y=              3.0234    Z=             -2.5907  Tot=              6.1538
 Quadrupole moment (field-independent basis, Debye-Ang):
   XX=           -185.1185   YY=           -175.3682   ZZ=           -185.3167
   XY=              4.6080   XZ=             -8.4910   YZ=              2.2831
 Traceless Quadrupole moment (field-independent basis, Debye-Ang):
   XX=             -3.1840   YY=              6.5662   ZZ=             -3.3822
   XY=              4.6080   XZ=             -8.4910   YZ=              2.2831
 Octapole moment (field-independent basis, Debye-Ang**2):
  XXX=            -40.9700  YYY=             44.8587  ZZZ=              0.2559  XYY=            -14.0947
  XXY=            -10.5517  XXZ=            -44.9666  XZZ=            -23.5020  YZZ=              9.2913
  YYZ=            -24.1494  XYZ=              1.7488
 Hexadecapole moment (field-independent basis, Debye-Ang**3):
 XXXX=          -8106.2029 YYYY=          -4071.6555 ZZZZ=          -3256.1873 XXXY=             54.0461
 XXXZ=             -1.1399 YYYX=             20.0926 YYYZ=            -17.5660 ZZZX=             11.7204
 ZZZY=            -13.5683 XXYY=          -2034.2003 XXZZ=          -1909.4376 YYZZ=          -1201.7174
 XXYZ=             25.2661 YYXZ=             -4.8273 ZZXY=             38.1222
 N-N= 3.505370541864D+03 E-N=-1.023708318640D+04  KE= 1.374452539807D+03
 1\1\GINC-B0801\FOpt\RB3LYP\6-31G(d)\C26H34O5\CAOFEI\24-Mar-2021\0\\# o
 pt rb3lyp/6-31g(d) geom=connectivity\\Title Card Required\\0,1\C,0.016
 1566044,0.0123628381,0.1280609889\C,1.3533726906,-0.0110645503,0.09731
 84514\C,2.1645441769,1.2664326449,0.0414483289\C,1.3652989939,2.572111
 3846,-0.265394853\C,-0.1496712675,2.4635075491,-0.5950535017\C,-0.8138
 959709,1.265570193,0.1283290549\C,2.1837853662,3.2712943338,-1.3863577
 738\C,1.7650502311,2.848602554,-2.7750501995\C,0.5135820319,2.49255782
 65,-3.1325295076\C,-0.5231566311,2.3806596059,-2.1001022914\C,0.155804
 3282,2.0663512676,-4.5448615129\O,-0.0891470258,0.8973693786,-4.772423
 4264\C,0.1427380906,3.1524110492,-5.6185713768\C,-0.1832437136,2.59437
 54559,-7.0172898428\C,-0.763249256,4.3290082886,-5.194726383\O,-1.7008
 222166,2.2213897012,-2.4001075158\C,3.6127949697,2.6859883055,-1.37608
 54262\C,4.0934982212,2.9240741552,-2.8293354934\O,2.8250378184,2.82119
 51104,-3.6037711512\C,3.3435462766,1.221390803,-0.9754985673\O,2.09321
 40708,4.6822892456,-1.3108597715\C,-0.6948040662,3.8007175982,-0.02637
 22312\C,0.1444860398,3.9992245351,1.2316459236\O,1.4471569544,3.439673
 6044,0.8945720346\C,0.3512357992,5.4012160523,1.7666665561\C,1.2635904
 418,5.4922169044,2.966536886\C,-0.2564455431,6.4729282303,1.2483061172
 \C,4.6598862756,4.3294657188,-3.0444766579\C,5.0297982303,1.8660356486
 ,-3.4062235389\H,4.2550675091,3.194842566,-0.6505386551\H,2.5975030467
 ,1.4370757359,1.0376810447\C,2.1281331643,-1.3029343498,0.1849068364\H
 ,-0.5261343754,-0.9294384767,0.2005611089\H,-1.0399093108,1.5424747095
 ,1.169327381\H,-1.7814899641,1.0916857925,-0.352126574\H,1.1759632185,
 3.5353836869,-5.6396604758\H,0.0828691897,3.3649386169,-7.7540352139\H
 ,0.4735374978,1.7376680641,-7.2077082919\H,-0.7970773517,5.0804215262,
 -5.9918378821\H,-0.3840258289,4.8150021556,-4.2905550393\H,-1.78599756
 8,3.9972891262,-4.9917919905\H,4.2267555445,0.7290525434,-0.5584350833
 \H,3.0383829494,0.6430238221,-1.8543860798\H,2.0578012851,4.8675763402
 ,-0.3510228852\H,-1.7676956824,3.7462257078,0.1755600055\H,-0.51398474
 97,4.6108553348,-0.7384269048\H,-0.2617351142,3.38756444,2.05280461\H,
 0.8668856595,4.9017429307,3.8039656405\H,2.2547190434,5.0836220726,2.7
 387883454\H,1.3797546348,6.5263392044,3.3037121461\H,-0.9279540777,6.4
 148104521,0.3977335153\H,-0.1081127551,7.4618013833,1.6749969961\H,3.9
 83254625,5.0870840281,-2.6450345762\H,4.8113358981,4.5101851061,-4.113
 7984517\H,5.6296301345,4.4230538435,-2.5420711436\H,5.9759108124,1.864
 4544291,-2.8535759976\H,5.2492920881,2.0908370415,-4.4549137024\H,4.59
 65743877,0.86440766,-3.3579557115\H,1.4553370704,-2.1589578655,0.29413
 3114\H,2.7465718849,-1.4753716888,-0.7052393191\H,2.811608066,-1.29721
 24349,1.04618315\C,-1.6396374978,2.1654783292,-7.2363185727\H,-2.33389
 00459,3.006846652,-7.1304561491\H,-1.9298452062,1.3890768519,-6.523436
 1575\H,-1.7680401027,1.7613392307,-8.2472223562\\Version=EM64L-G09RevB
 .01\State=1-A\HF=-1387.3172173\RMSD=7.807e-09\RMSF=4.553e-06\Dipole=1.
 7333101,0.7177392,1.5304306\Quadrupole=0.8495247,-1.3447434,0.4952187,
 -5.3646121,-5.2986345,-3.7560398\PG=C01 [X(C26H34O5)]\\@


 TOWERING GENIUS DISDAINS A BEATEN PATH.  IT SEEKS 
 REGIONS HITHERTO UNEXPLORED.

                                -- ABRAHAM LINCOLN
 Job cpu time:  0 days  6 hours 25 minutes  6.3 seconds.
 File lengths (MBytes):  RWF=    186 Int=      0 D2E=      0 Chk=     20 Scr=      1
 Normal termination of Gaussian 09 at Wed Mar 24 13:34:08 2021.
