 Entering Gaussian System, Link 0=g09
 Initial command:
 /public/software/g09/g09/l1.exe /tmp/Gau-6351.inp -scrdir=/tmp/
 Entering Link 1 = /public/software/g09/g09/l1.exe PID=      6363.
  
 Copyright (c) 1988,1990,1992,1993,1995,1998,2003,2009,2010,
            Gaussian, Inc.  All Rights Reserved.
  
 This is part of the Gaussian(R) 09 program.  It is based on
 the Gaussian(R) 03 system (copyright 2003, Gaussian, Inc.),
 the Gaussian(R) 98 system (copyright 1998, Gaussian, Inc.),
 the Gaussian(R) 94 system (copyright 1995, Gaussian, Inc.),
 the Gaussian 92(TM) system (copyright 1992, Gaussian, Inc.),
 the Gaussian 90(TM) system (copyright 1990, Gaussian, Inc.),
 the Gaussian 88(TM) system (copyright 1988, Gaussian, Inc.),
 the Gaussian 86(TM) system (copyright 1986, Carnegie Mellon
 University), and the Gaussian 82(TM) system (copyright 1983,
 Carnegie Mellon University). Gaussian is a federally registered
 trademark of Gaussian, Inc.
  
 This software contains proprietary and confidential information,
 including trade secrets, belonging to Gaussian, Inc.
  
 This software is provided under written license and may be
 used, copied, transmitted, or stored only in accord with that
 written license.
  
 The following legend is applicable only to US Government
 contracts under FAR:
  
                    RESTRICTED RIGHTS LEGEND
  
 Use, reproduction and disclosure by the US Government is
 subject to restrictions as set forth in subparagraphs (a)
 and (c) of the Commercial Computer Software - Restricted
 Rights clause in FAR 52.227-19.
  
 Gaussian, Inc.
 340 Quinnipiac St., Bldg. 40, Wallingford CT 06492
  
  
 ---------------------------------------------------------------
 Warning -- This program may not be used in any manner that
 competes with the business of Gaussian, Inc. or will provide
 assistance to any competitor of Gaussian, Inc.  The licensee
 of this program is prohibited from giving any competitor of
 Gaussian, Inc. access to this program.  By using this program,
 the user acknowledges that Gaussian, Inc. is engaged in the
 business of creating and licensing software in the field of
 computational chemistry and represents and warrants to the
 licensee that it is not a competitor of Gaussian, Inc. and that
 it will not use this program in any manner prohibited above.
 ---------------------------------------------------------------
  

 Cite this work as:
 Gaussian 09, Revision B.01,
 M. J. Frisch, G. W. Trucks, H. B. Schlegel, G. E. Scuseria, 
 M. A. Robb, J. R. Cheeseman, G. Scalmani, V. Barone, B. Mennucci, 
 G. A. Petersson, H. Nakatsuji, M. Caricato, X. Li, H. P. Hratchian, 
 A. F. Izmaylov, J. Bloino, G. Zheng, J. L. Sonnenberg, M. Hada, 
 M. Ehara, K. Toyota, R. Fukuda, J. Hasegawa, M. Ishida, T. Nakajima, 
 Y. Honda, O. Kitao, H. Nakai, T. Vreven, J. A. Montgomery, Jr., 
 J. E. Peralta, F. Ogliaro, M. Bearpark, J. J. Heyd, E. Brothers, 
 K. N. Kudin, V. N. Staroverov, T. Keith, R. Kobayashi, J. Normand, 
 K. Raghavachari, A. Rendell, J. C. Burant, S. S. Iyengar, J. Tomasi, 
 M. Cossi, N. Rega, J. M. Millam, M. Klene, J. E. Knox, J. B. Cross, 
 V. Bakken, C. Adamo, J. Jaramillo, R. Gomperts, R. E. Stratmann, 
 O. Yazyev, A. J. Austin, R. Cammi, C. Pomelli, J. W. Ochterski, 
 R. L. Martin, K. Morokuma, V. G. Zakrzewski, G. A. Voth, 
 P. Salvador, J. J. Dannenberg, S. Dapprich, A. D. Daniels, 
 O. Farkas, J. B. Foresman, J. V. Ortiz, J. Cioslowski, 
 and D. J. Fox, Gaussian, Inc., Wallingford CT, 2010.
 
 ******************************************
 Gaussian 09:  EM64L-G09RevB.01 12-Aug-2010
                24-Mar-2021 
 ******************************************
 %mem=600MW
 %nprocshared=10
 Will use up to   10 processors via shared memory.
 ---------------------------------------
 # opt rb3lyp/6-31g(d) geom=connectivity
 ---------------------------------------
 1/14=-1,18=20,19=15,26=3,38=1,57=2/1,3;
 2/9=110,12=2,17=6,18=5,40=1/2;
 3/5=1,6=6,7=1,11=2,16=1,25=1,30=1,71=1,74=-5,116=1/1,2,3;
 4//1;
 5/5=2,38=5/2;
 6/7=2,8=2,9=2,10=2,28=1/1;
 7//1,2,3,16;
 1/14=-1,18=20,19=15/3(2);
 2/9=110/2;
 99//99;
 2/9=110/2;
 3/5=1,6=6,7=1,11=2,16=1,25=1,30=1,71=1,74=-5,116=1/1,2,3;
 4/5=5,16=3/1;
 5/5=2,38=5/2;
 7//1,2,3,16;
 1/14=-1,18=20,19=15/3(-5);
 2/9=110/2;
 6/7=2,8=2,9=2,10=2,19=2,28=1/1;
 99/9=1/99;
 -------------------
 Title Card Required
 -------------------
 Symbolic Z-matrix:
 Charge =  0 Multiplicity = 1
 C                     0.        0.        0. 
 C                     1.3417    0.        0. 
 C                     2.1312    1.2895    0. 
 C                     1.331     2.5785   -0.3515 
 C                    -0.1556    2.4355   -0.7079 
 C                    -0.824     1.2477    0.016 
 C                     2.1488    3.2586   -1.4643 
 C                     1.8116    2.8304   -2.852 
 C                     0.6064    2.3765   -3.2159 
 C                    -0.4808    2.332    -2.2075 
 C                     0.3817    1.9405   -4.6184 
 O                    -0.3864    2.5664   -5.3474 
 C                     1.1139    0.6852   -5.095 
 C                     0.1317   -0.4768   -5.3027 
 C                     1.8435    1.0054   -6.4006 
 O                    -1.6478    2.1839   -2.5743 
 C                     3.5629    2.7273   -1.378 
 C                     4.0854    2.9284   -2.8165 
 O                     2.9302    2.7652   -3.6794 
 C                     3.3285    1.2644   -0.9682 
 O                     2.0958    4.672    -1.3872 
 C                    -0.7289    3.7568   -0.1933 
 C                     0.0859    4.0178    1.0677 
 O                     1.3907    3.4614    0.8106 
 C                     0.2542    5.4451    1.5371 
 C                     1.1521    5.622     2.7355 
 C                    -0.3526    6.513     0.9909 
 C                     4.663     4.3329   -3.0515 
 C                     5.143     1.9      -3.233 
 H                     4.1782    3.2479   -0.6353 
 H                     2.542     1.4022    1.0142 
 C                     2.1114   -1.2899    0.1041 
 H                    -0.5471   -0.9396    0.0546 
 H                    -1.0382    1.4802    1.066 
 H                    -1.7983    1.0185   -0.433 
 H                     1.8643    0.3892   -4.3525 
 H                    -0.7149   -0.1595   -5.9237 
 H                     0.6371   -1.2874   -5.8421 
 H                     2.4454    0.1513   -6.7281 
 H                     2.5137    1.8625   -6.2773 
 H                     1.1394    1.2511   -7.2035 
 H                     4.2222    0.8437   -0.4935 
 H                     3.0972    0.6328   -1.8344 
 H                     2.141     4.8953   -0.4359 
 H                    -1.8045    3.7178    0.0129 
 H                    -0.5745    4.5409   -0.9446 
 H                    -0.341     3.4442    1.8997 
 H                     0.8035    4.9999    3.5663 
 H                     2.1804    5.3362    2.4921 
 H                     1.173     6.6591    3.0874 
 H                    -1.0252    6.4383    0.1434 
 H                    -0.1963    7.5134    1.3851 
 H                     3.9164    5.1209   -2.923 
 H                     5.0174    4.4354   -4.0841 
 H                     5.503     4.5346   -2.3788 
 H                     5.9998    1.9104   -2.5518 
 H                     5.5064    2.1074   -4.2466 
 H                     4.736     0.885    -3.2758 
 H                     1.4522   -2.1505    0.2609 
 H                     2.6829   -1.477    -0.81 
 H                     2.8054   -1.2499    0.95 
 C                    -0.3999   -1.0447   -3.9936 
 H                    -1.0237   -0.3191   -3.4663 
 H                     0.4189   -1.3448   -3.3321 
 H                    -1.016    -1.9278   -4.191 
 

 GradGradGradGradGradGradGradGradGradGradGradGradGradGradGradGradGradGrad
 Berny optimization.
 Initialization pass.
                           ----------------------------
                           !    Initial Parameters    !
                           ! (Angstroms and Degrees)  !
 --------------------------                            --------------------------
 ! Name  Definition              Value          Derivative Info.                !
 --------------------------------------------------------------------------------
 ! R1    R(1,2)                  1.3417         estimate D2E/DX2                !
 ! R2    R(1,6)                  1.4953         estimate D2E/DX2                !
 ! R3    R(1,33)                 1.0886         estimate D2E/DX2                !
 ! R4    R(2,3)                  1.512          estimate D2E/DX2                !
 ! R5    R(2,32)                 1.5057         estimate D2E/DX2                !
 ! R6    R(3,4)                  1.5574         estimate D2E/DX2                !
 ! R7    R(3,20)                 1.54           estimate D2E/DX2                !
 ! R8    R(3,31)                 1.1            estimate D2E/DX2                !
 ! R9    R(4,5)                  1.5354         estimate D2E/DX2                !
 ! R10   R(4,7)                  1.5394         estimate D2E/DX2                !
 ! R11   R(4,24)                 1.4607         estimate D2E/DX2                !
 ! R12   R(5,6)                  1.5433         estimate D2E/DX2                !
 ! R13   R(5,10)                 1.5379         estimate D2E/DX2                !
 ! R14   R(5,22)                 1.5295         estimate D2E/DX2                !
 ! R15   R(6,34)                 1.0966         estimate D2E/DX2                !
 ! R16   R(6,35)                 1.097          estimate D2E/DX2                !
 ! R17   R(7,8)                  1.4909         estimate D2E/DX2                !
 ! R18   R(7,17)                 1.5131         estimate D2E/DX2                !
 ! R19   R(7,21)                 1.4165         estimate D2E/DX2                !
 ! R20   R(8,9)                  1.3383         estimate D2E/DX2                !
 ! R21   R(8,19)                 1.3929         estimate D2E/DX2                !
 ! R22   R(9,10)                 1.4835         estimate D2E/DX2                !
 ! R23   R(9,11)                 1.4858         estimate D2E/DX2                !
 ! R24   R(10,16)                1.2322         estimate D2E/DX2                !
 ! R25   R(11,12)                1.2301         estimate D2E/DX2                !
 ! R26   R(11,13)                1.5294         estimate D2E/DX2                !
 ! R27   R(13,14)                1.5356         estimate D2E/DX2                !
 ! R28   R(13,15)                1.5295         estimate D2E/DX2                !
 ! R29   R(13,36)                1.0964         estimate D2E/DX2                !
 ! R30   R(14,37)                1.0968         estimate D2E/DX2                !
 ! R31   R(14,38)                1.097          estimate D2E/DX2                !
 ! R32   R(14,62)                1.5228         estimate D2E/DX2                !
 ! R33   R(15,39)                1.095          estimate D2E/DX2                !
 ! R34   R(15,40)                1.095          estimate D2E/DX2                !
 ! R35   R(15,41)                1.0958         estimate D2E/DX2                !
 ! R36   R(17,18)                1.5436         estimate D2E/DX2                !
 ! R37   R(17,20)                1.5372         estimate D2E/DX2                !
 ! R38   R(17,30)                1.096          estimate D2E/DX2                !
 ! R39   R(18,19)                1.4511         estimate D2E/DX2                !
 ! R40   R(18,28)                1.5367         estimate D2E/DX2                !
 ! R41   R(18,29)                1.5328         estimate D2E/DX2                !
 ! R42   R(20,42)                1.0959         estimate D2E/DX2                !
 ! R43   R(20,43)                1.0967         estimate D2E/DX2                !
 ! R44   R(21,44)                0.9782         estimate D2E/DX2                !
 ! R45   R(22,23)                1.5239         estimate D2E/DX2                !
 ! R46   R(22,45)                1.0959         estimate D2E/DX2                !
 ! R47   R(22,46)                1.0969         estimate D2E/DX2                !
 ! R48   R(23,24)                1.4416         estimate D2E/DX2                !
 ! R49   R(23,25)                1.5119         estimate D2E/DX2                !
 ! R50   R(23,47)                1.097          estimate D2E/DX2                !
 ! R51   R(25,26)                1.5079         estimate D2E/DX2                !
 ! R52   R(25,27)                1.3442         estimate D2E/DX2                !
 ! R53   R(26,48)                1.0949         estimate D2E/DX2                !
 ! R54   R(26,49)                1.0947         estimate D2E/DX2                !
 ! R55   R(26,50)                1.0954         estimate D2E/DX2                !
 ! R56   R(27,51)                1.0845         estimate D2E/DX2                !
 ! R57   R(27,52)                1.0866         estimate D2E/DX2                !
 ! R58   R(28,53)                1.0931         estimate D2E/DX2                !
 ! R59   R(28,54)                1.0965         estimate D2E/DX2                !
 ! R60   R(28,55)                1.0949         estimate D2E/DX2                !
 ! R61   R(29,56)                1.0946         estimate D2E/DX2                !
 ! R62   R(29,57)                1.0966         estimate D2E/DX2                !
 ! R63   R(29,58)                1.0944         estimate D2E/DX2                !
 ! R64   R(32,59)                1.0953         estimate D2E/DX2                !
 ! R65   R(32,60)                1.0942         estimate D2E/DX2                !
 ! R66   R(32,61)                1.0949         estimate D2E/DX2                !
 ! R67   R(62,63)                1.0926         estimate D2E/DX2                !
 ! R68   R(62,64)                1.0946         estimate D2E/DX2                !
 ! R69   R(62,65)                1.0947         estimate D2E/DX2                !
 ! A1    A(2,1,6)              123.4392         estimate D2E/DX2                !
 ! A2    A(2,1,33)             120.1689         estimate D2E/DX2                !
 ! A3    A(6,1,33)             116.2761         estimate D2E/DX2                !
 ! A4    A(1,2,3)              121.4772         estimate D2E/DX2                !
 ! A5    A(1,2,32)             120.7433         estimate D2E/DX2                !
 ! A6    A(3,2,32)             117.6258         estimate D2E/DX2                !
 ! A7    A(2,3,4)              115.9503         estimate D2E/DX2                !
 ! A8    A(2,3,20)             113.083          estimate D2E/DX2                !
 ! A9    A(2,3,31)             106.4019         estimate D2E/DX2                !
 ! A10   A(4,3,20)             105.7278         estimate D2E/DX2                !
 ! A11   A(4,3,31)             108.3715         estimate D2E/DX2                !
 ! A12   A(20,3,31)            106.9165         estimate D2E/DX2                !
 ! A13   A(3,4,5)              118.2155         estimate D2E/DX2                !
 ! A14   A(3,4,7)              104.8247         estimate D2E/DX2                !
 ! A15   A(3,4,24)             107.4409         estimate D2E/DX2                !
 ! A16   A(5,4,7)              112.8127         estimate D2E/DX2                !
 ! A17   A(5,4,24)             106.2926         estimate D2E/DX2                !
 ! A18   A(7,4,24)             106.6407         estimate D2E/DX2                !
 ! A19   A(4,5,6)              112.4666         estimate D2E/DX2                !
 ! A20   A(4,5,10)             115.9339         estimate D2E/DX2                !
 ! A21   A(4,5,22)             101.7922         estimate D2E/DX2                !
 ! A22   A(6,5,10)             108.3004         estimate D2E/DX2                !
 ! A23   A(6,5,22)             110.1661         estimate D2E/DX2                !
 ! A24   A(10,5,22)            107.8752         estimate D2E/DX2                !
 ! A25   A(1,6,5)              113.4862         estimate D2E/DX2                !
 ! A26   A(1,6,34)             107.1458         estimate D2E/DX2                !
 ! A27   A(1,6,35)             108.1017         estimate D2E/DX2                !
 ! A28   A(5,6,34)             111.7506         estimate D2E/DX2                !
 ! A29   A(5,6,35)             110.7007         estimate D2E/DX2                !
 ! A30   A(34,6,35)            105.2322         estimate D2E/DX2                !
 ! A31   A(4,7,8)              115.202          estimate D2E/DX2                !
 ! A32   A(4,7,17)             107.4659         estimate D2E/DX2                !
 ! A33   A(4,7,21)             112.4337         estimate D2E/DX2                !
 ! A34   A(8,7,17)              99.4168         estimate D2E/DX2                !
 ! A35   A(8,7,21)             109.1949         estimate D2E/DX2                !
 ! A36   A(17,7,21)            112.4723         estimate D2E/DX2                !
 ! A37   A(7,8,9)              123.6553         estimate D2E/DX2                !
 ! A38   A(7,8,19)             112.626          estimate D2E/DX2                !
 ! A39   A(9,8,19)             123.0815         estimate D2E/DX2                !
 ! A40   A(8,9,10)             119.0335         estimate D2E/DX2                !
 ! A41   A(8,9,11)             119.4983         estimate D2E/DX2                !
 ! A42   A(10,9,11)            121.4659         estimate D2E/DX2                !
 ! A43   A(5,10,9)             120.3848         estimate D2E/DX2                !
 ! A44   A(5,10,16)            119.9075         estimate D2E/DX2                !
 ! A45   A(9,10,16)            119.6913         estimate D2E/DX2                !
 ! A46   A(9,11,12)            120.3            estimate D2E/DX2                !
 ! A47   A(9,11,13)            117.5556         estimate D2E/DX2                !
 ! A48   A(12,11,13)           122.1332         estimate D2E/DX2                !
 ! A49   A(11,13,14)           110.9173         estimate D2E/DX2                !
 ! A50   A(11,13,15)           108.817          estimate D2E/DX2                !
 ! A51   A(11,13,36)           109.7691         estimate D2E/DX2                !
 ! A52   A(14,13,15)           110.3689         estimate D2E/DX2                !
 ! A53   A(14,13,36)           108.9706         estimate D2E/DX2                !
 ! A54   A(15,13,36)           107.9461         estimate D2E/DX2                !
 ! A55   A(13,14,37)           110.5708         estimate D2E/DX2                !
 ! A56   A(13,14,38)           109.3275         estimate D2E/DX2                !
 ! A57   A(13,14,62)           112.9056         estimate D2E/DX2                !
 ! A58   A(37,14,38)           106.9159         estimate D2E/DX2                !
 ! A59   A(37,14,62)           108.9752         estimate D2E/DX2                !
 ! A60   A(38,14,62)           107.9366         estimate D2E/DX2                !
 ! A61   A(13,15,39)           110.7453         estimate D2E/DX2                !
 ! A62   A(13,15,40)           111.0823         estimate D2E/DX2                !
 ! A63   A(13,15,41)           111.4616         estimate D2E/DX2                !
 ! A64   A(39,15,40)           107.9258         estimate D2E/DX2                !
 ! A65   A(39,15,41)           107.9955         estimate D2E/DX2                !
 ! A66   A(40,15,41)           107.4742         estimate D2E/DX2                !
 ! A67   A(7,17,18)            102.5594         estimate D2E/DX2                !
 ! A68   A(7,17,20)            101.9385         estimate D2E/DX2                !
 ! A69   A(7,17,30)            113.362          estimate D2E/DX2                !
 ! A70   A(18,17,20)           115.0896         estimate D2E/DX2                !
 ! A71   A(18,17,30)           112.3082         estimate D2E/DX2                !
 ! A72   A(20,17,30)           110.9158         estimate D2E/DX2                !
 ! A73   A(17,18,19)           105.6665         estimate D2E/DX2                !
 ! A74   A(17,18,28)           112.8805         estimate D2E/DX2                !
 ! A75   A(17,18,29)           113.538          estimate D2E/DX2                !
 ! A76   A(19,18,28)           108.1241         estimate D2E/DX2                !
 ! A77   A(19,18,29)           108.1939         estimate D2E/DX2                !
 ! A78   A(28,18,29)           108.1982         estimate D2E/DX2                !
 ! A79   A(8,19,18)            106.3093         estimate D2E/DX2                !
 ! A80   A(3,20,17)            105.7029         estimate D2E/DX2                !
 ! A81   A(3,20,42)            111.589          estimate D2E/DX2                !
 ! A82   A(3,20,43)            109.9978         estimate D2E/DX2                !
 ! A83   A(17,20,42)           110.8825         estimate D2E/DX2                !
 ! A84   A(17,20,43)           111.696          estimate D2E/DX2                !
 ! A85   A(42,20,43)           107.0394         estimate D2E/DX2                !
 ! A86   A(7,21,44)            106.1995         estimate D2E/DX2                !
 ! A87   A(5,22,23)            103.0593         estimate D2E/DX2                !
 ! A88   A(5,22,45)            113.6068         estimate D2E/DX2                !
 ! A89   A(5,22,46)            109.5323         estimate D2E/DX2                !
 ! A90   A(23,22,45)           112.0362         estimate D2E/DX2                !
 ! A91   A(23,22,46)           111.6601         estimate D2E/DX2                !
 ! A92   A(45,22,46)           107.0065         estimate D2E/DX2                !
 ! A93   A(22,23,24)           105.6804         estimate D2E/DX2                !
 ! A94   A(22,23,25)           118.5632         estimate D2E/DX2                !
 ! A95   A(22,23,47)           109.2664         estimate D2E/DX2                !
 ! A96   A(24,23,25)           108.6014         estimate D2E/DX2                !
 ! A97   A(24,23,47)           106.5987         estimate D2E/DX2                !
 ! A98   A(25,23,47)           107.5454         estimate D2E/DX2                !
 ! A99   A(4,24,23)            109.7667         estimate D2E/DX2                !
 ! A100  A(23,25,26)           115.074          estimate D2E/DX2                !
 ! A101  A(23,25,27)           125.0            estimate D2E/DX2                !
 ! A102  A(26,25,27)           119.9033         estimate D2E/DX2                !
 ! A103  A(25,26,48)           110.2928         estimate D2E/DX2                !
 ! A104  A(25,26,49)           110.6111         estimate D2E/DX2                !
 ! A105  A(25,26,50)           112.1952         estimate D2E/DX2                !
 ! A106  A(48,26,49)           108.6302         estimate D2E/DX2                !
 ! A107  A(48,26,50)           107.4734         estimate D2E/DX2                !
 ! A108  A(49,26,50)           107.4996         estimate D2E/DX2                !
 ! A109  A(25,27,51)           122.8714         estimate D2E/DX2                !
 ! A110  A(25,27,52)           121.2709         estimate D2E/DX2                !
 ! A111  A(51,27,52)           115.857          estimate D2E/DX2                !
 ! A112  A(18,28,53)           112.592          estimate D2E/DX2                !
 ! A113  A(18,28,54)           110.544          estimate D2E/DX2                !
 ! A114  A(18,28,55)           111.2708         estimate D2E/DX2                !
 ! A115  A(53,28,54)           105.3115         estimate D2E/DX2                !
 ! A116  A(53,28,55)           108.601          estimate D2E/DX2                !
 ! A117  A(54,28,55)           108.264          estimate D2E/DX2                !
 ! A118  A(18,29,56)           111.3818         estimate D2E/DX2                !
 ! A119  A(18,29,57)           110.6659         estimate D2E/DX2                !
 ! A120  A(18,29,58)           112.1029         estimate D2E/DX2                !
 ! A121  A(56,29,57)           108.3023         estimate D2E/DX2                !
 ! A122  A(56,29,58)           108.9194         estimate D2E/DX2                !
 ! A123  A(57,29,58)           105.219          estimate D2E/DX2                !
 ! A124  A(2,32,59)            112.0452         estimate D2E/DX2                !
 ! A125  A(2,32,60)            110.8385         estimate D2E/DX2                !
 ! A126  A(2,32,61)            110.2513         estimate D2E/DX2                !
 ! A127  A(59,32,60)           107.4326         estimate D2E/DX2                !
 ! A128  A(59,32,61)           107.4321         estimate D2E/DX2                !
 ! A129  A(60,32,61)           108.7005         estimate D2E/DX2                !
 ! A130  A(14,62,63)           111.503          estimate D2E/DX2                !
 ! A131  A(14,62,64)           111.14           estimate D2E/DX2                !
 ! A132  A(14,62,65)           110.0169         estimate D2E/DX2                !
 ! A133  A(63,62,64)           108.5129         estimate D2E/DX2                !
 ! A134  A(63,62,65)           107.5446         estimate D2E/DX2                !
 ! A135  A(64,62,65)           107.9873         estimate D2E/DX2                !
 ! D1    D(6,1,2,3)             -0.7347         estimate D2E/DX2                !
 ! D2    D(6,1,2,32)           174.6513         estimate D2E/DX2                !
 ! D3    D(33,1,2,3)          -176.6743         estimate D2E/DX2                !
 ! D4    D(33,1,2,32)           -1.2883         estimate D2E/DX2                !
 ! D5    D(2,1,6,5)             31.4772         estimate D2E/DX2                !
 ! D6    D(2,1,6,34)           -92.3637         estimate D2E/DX2                !
 ! D7    D(2,1,6,35)           154.6746         estimate D2E/DX2                !
 ! D8    D(33,1,6,5)          -152.4375         estimate D2E/DX2                !
 ! D9    D(33,1,6,34)           83.7216         estimate D2E/DX2                !
 ! D10   D(33,1,6,35)          -29.2401         estimate D2E/DX2                !
 ! D11   D(1,2,3,4)            -14.5373         estimate D2E/DX2                !
 ! D12   D(1,2,3,20)          -136.8884         estimate D2E/DX2                !
 ! D13   D(1,2,3,31)           106.0358         estimate D2E/DX2                !
 ! D14   D(32,2,3,4)           169.9383         estimate D2E/DX2                !
 ! D15   D(32,2,3,20)           47.5872         estimate D2E/DX2                !
 ! D16   D(32,2,3,31)          -69.4887         estimate D2E/DX2                !
 ! D17   D(1,2,32,59)           -4.9194         estimate D2E/DX2                !
 ! D18   D(1,2,32,60)          115.0788         estimate D2E/DX2                !
 ! D19   D(1,2,32,61)         -124.5169         estimate D2E/DX2                !
 ! D20   D(3,2,32,59)          170.6395         estimate D2E/DX2                !
 ! D21   D(3,2,32,60)          -69.3623         estimate D2E/DX2                !
 ! D22   D(3,2,32,61)           51.0421         estimate D2E/DX2                !
 ! D23   D(2,3,4,5)             -1.9268         estimate D2E/DX2                !
 ! D24   D(2,3,4,7)           -128.5938         estimate D2E/DX2                !
 ! D25   D(2,3,4,24)           118.2241         estimate D2E/DX2                !
 ! D26   D(20,3,4,5)           124.2327         estimate D2E/DX2                !
 ! D27   D(20,3,4,7)            -2.4343         estimate D2E/DX2                !
 ! D28   D(20,3,4,24)         -115.6164         estimate D2E/DX2                !
 ! D29   D(31,3,4,5)          -121.4334         estimate D2E/DX2                !
 ! D30   D(31,3,4,7)           111.8997         estimate D2E/DX2                !
 ! D31   D(31,3,4,24)           -1.2824         estimate D2E/DX2                !
 ! D32   D(2,3,20,17)          152.4441         estimate D2E/DX2                !
 ! D33   D(2,3,20,42)          -86.9282         estimate D2E/DX2                !
 ! D34   D(2,3,20,43)           31.7157         estimate D2E/DX2                !
 ! D35   D(4,3,20,17)           24.5506         estimate D2E/DX2                !
 ! D36   D(4,3,20,42)          145.1783         estimate D2E/DX2                !
 ! D37   D(4,3,20,43)          -96.1777         estimate D2E/DX2                !
 ! D38   D(31,3,20,17)         -90.7833         estimate D2E/DX2                !
 ! D39   D(31,3,20,42)          29.8444         estimate D2E/DX2                !
 ! D40   D(31,3,20,43)         148.4883         estimate D2E/DX2                !
 ! D41   D(3,4,5,6)             30.5799         estimate D2E/DX2                !
 ! D42   D(3,4,5,10)           -94.7959         estimate D2E/DX2                !
 ! D43   D(3,4,5,22)           148.4476         estimate D2E/DX2                !
 ! D44   D(7,4,5,6)            153.3104         estimate D2E/DX2                !
 ! D45   D(7,4,5,10)            27.9345         estimate D2E/DX2                !
 ! D46   D(7,4,5,22)           -88.8219         estimate D2E/DX2                !
 ! D47   D(24,4,5,6)           -90.1633         estimate D2E/DX2                !
 ! D48   D(24,4,5,10)          144.4608         estimate D2E/DX2                !
 ! D49   D(24,4,5,22)           27.7044         estimate D2E/DX2                !
 ! D50   D(3,4,7,8)             88.6652         estimate D2E/DX2                !
 ! D51   D(3,4,7,17)           -21.0681         estimate D2E/DX2                !
 ! D52   D(3,4,7,21)          -145.361          estimate D2E/DX2                !
 ! D53   D(5,4,7,8)            -41.2684         estimate D2E/DX2                !
 ! D54   D(5,4,7,17)          -151.0017         estimate D2E/DX2                !
 ! D55   D(5,4,7,21)            84.7055         estimate D2E/DX2                !
 ! D56   D(24,4,7,8)          -157.5876         estimate D2E/DX2                !
 ! D57   D(24,4,7,17)           92.6791         estimate D2E/DX2                !
 ! D58   D(24,4,7,21)          -31.6138         estimate D2E/DX2                !
 ! D59   D(3,4,24,23)         -135.731          estimate D2E/DX2                !
 ! D60   D(5,4,24,23)           -8.2765         estimate D2E/DX2                !
 ! D61   D(7,4,24,23)          112.3179         estimate D2E/DX2                !
 ! D62   D(4,5,6,1)            -44.3914         estimate D2E/DX2                !
 ! D63   D(4,5,6,34)            76.903          estimate D2E/DX2                !
 ! D64   D(4,5,6,35)          -166.1506         estimate D2E/DX2                !
 ! D65   D(10,5,6,1)            85.0455         estimate D2E/DX2                !
 ! D66   D(10,5,6,34)         -153.6601         estimate D2E/DX2                !
 ! D67   D(10,5,6,35)          -36.7137         estimate D2E/DX2                !
 ! D68   D(22,5,6,1)          -157.188          estimate D2E/DX2                !
 ! D69   D(22,5,6,34)          -35.8936         estimate D2E/DX2                !
 ! D70   D(22,5,6,35)           81.0528         estimate D2E/DX2                !
 ! D71   D(4,5,10,9)            -0.1954         estimate D2E/DX2                !
 ! D72   D(4,5,10,16)          178.3223         estimate D2E/DX2                !
 ! D73   D(6,5,10,9)          -127.6698         estimate D2E/DX2                !
 ! D74   D(6,5,10,16)           50.8479         estimate D2E/DX2                !
 ! D75   D(22,5,10,9)          113.1087         estimate D2E/DX2                !
 ! D76   D(22,5,10,16)         -68.3736         estimate D2E/DX2                !
 ! D77   D(4,5,22,23)          -35.9537         estimate D2E/DX2                !
 ! D78   D(4,5,22,45)         -157.4002         estimate D2E/DX2                !
 ! D79   D(4,5,22,46)           83.0143         estimate D2E/DX2                !
 ! D80   D(6,5,22,23)           83.5546         estimate D2E/DX2                !
 ! D81   D(6,5,22,45)          -37.8919         estimate D2E/DX2                !
 ! D82   D(6,5,22,46)         -157.4774         estimate D2E/DX2                !
 ! D83   D(10,5,22,23)        -158.4166         estimate D2E/DX2                !
 ! D84   D(10,5,22,45)          80.1369         estimate D2E/DX2                !
 ! D85   D(10,5,22,46)         -39.4486         estimate D2E/DX2                !
 ! D86   D(4,7,8,9)             27.5597         estimate D2E/DX2                !
 ! D87   D(4,7,8,19)          -143.5234         estimate D2E/DX2                !
 ! D88   D(17,7,8,9)           142.0346         estimate D2E/DX2                !
 ! D89   D(17,7,8,19)          -29.0485         estimate D2E/DX2                !
 ! D90   D(21,7,8,9)          -100.0605         estimate D2E/DX2                !
 ! D91   D(21,7,8,19)           88.8564         estimate D2E/DX2                !
 ! D92   D(4,7,17,18)          155.2858         estimate D2E/DX2                !
 ! D93   D(4,7,17,20)           35.8703         estimate D2E/DX2                !
 ! D94   D(4,7,17,30)          -83.3917         estimate D2E/DX2                !
 ! D95   D(8,7,17,18)           34.9762         estimate D2E/DX2                !
 ! D96   D(8,7,17,20)          -84.4394         estimate D2E/DX2                !
 ! D97   D(8,7,17,30)          156.2987         estimate D2E/DX2                !
 ! D98   D(21,7,17,18)         -80.4447         estimate D2E/DX2                !
 ! D99   D(21,7,17,20)         160.1398         estimate D2E/DX2                !
 ! D100  D(21,7,17,30)          40.8778         estimate D2E/DX2                !
 ! D101  D(4,7,21,44)           39.5847         estimate D2E/DX2                !
 ! D102  D(8,7,21,44)          168.7473         estimate D2E/DX2                !
 ! D103  D(17,7,21,44)         -81.8935         estimate D2E/DX2                !
 ! D104  D(7,8,9,10)             2.138          estimate D2E/DX2                !
 ! D105  D(7,8,9,11)          -178.3979         estimate D2E/DX2                !
 ! D106  D(19,8,9,10)          172.3065         estimate D2E/DX2                !
 ! D107  D(19,8,9,11)           -8.2294         estimate D2E/DX2                !
 ! D108  D(7,8,19,18)            9.4472         estimate D2E/DX2                !
 ! D109  D(9,8,19,18)         -161.695          estimate D2E/DX2                !
 ! D110  D(8,9,10,5)           -16.3158         estimate D2E/DX2                !
 ! D111  D(8,9,10,16)          165.1633         estimate D2E/DX2                !
 ! D112  D(11,9,10,5)          164.2311         estimate D2E/DX2                !
 ! D113  D(11,9,10,16)         -14.2898         estimate D2E/DX2                !
 ! D114  D(8,9,11,12)         -113.735          estimate D2E/DX2                !
 ! D115  D(8,9,11,13)           67.4581         estimate D2E/DX2                !
 ! D116  D(10,9,11,12)          65.7157         estimate D2E/DX2                !
 ! D117  D(10,9,11,13)        -113.0912         estimate D2E/DX2                !
 ! D118  D(9,11,13,14)         109.8568         estimate D2E/DX2                !
 ! D119  D(9,11,13,15)        -128.5489         estimate D2E/DX2                !
 ! D120  D(9,11,13,36)         -10.6197         estimate D2E/DX2                !
 ! D121  D(12,11,13,14)        -68.9267         estimate D2E/DX2                !
 ! D122  D(12,11,13,15)         52.6676         estimate D2E/DX2                !
 ! D123  D(12,11,13,36)        170.5967         estimate D2E/DX2                !
 ! D124  D(11,13,14,37)         50.5251         estimate D2E/DX2                !
 ! D125  D(11,13,14,38)        167.975          estimate D2E/DX2                !
 ! D126  D(11,13,14,62)        -71.8601         estimate D2E/DX2                !
 ! D127  D(15,13,14,37)        -70.1549         estimate D2E/DX2                !
 ! D128  D(15,13,14,38)         47.2951         estimate D2E/DX2                !
 ! D129  D(15,13,14,62)        167.46           estimate D2E/DX2                !
 ! D130  D(36,13,14,37)        171.4741         estimate D2E/DX2                !
 ! D131  D(36,13,14,38)        -71.0759         estimate D2E/DX2                !
 ! D132  D(36,13,14,62)         49.089          estimate D2E/DX2                !
 ! D133  D(11,13,15,39)        175.3934         estimate D2E/DX2                !
 ! D134  D(11,13,15,40)         55.4757         estimate D2E/DX2                !
 ! D135  D(11,13,15,41)        -64.3493         estimate D2E/DX2                !
 ! D136  D(14,13,15,39)        -62.6785         estimate D2E/DX2                !
 ! D137  D(14,13,15,40)        177.4038         estimate D2E/DX2                !
 ! D138  D(14,13,15,41)         57.5788         estimate D2E/DX2                !
 ! D139  D(36,13,15,39)         56.3176         estimate D2E/DX2                !
 ! D140  D(36,13,15,40)        -63.6001         estimate D2E/DX2                !
 ! D141  D(36,13,15,41)        176.5749         estimate D2E/DX2                !
 ! D142  D(13,14,62,63)         66.2401         estimate D2E/DX2                !
 ! D143  D(13,14,62,64)        -54.9737         estimate D2E/DX2                !
 ! D144  D(13,14,62,65)       -174.5274         estimate D2E/DX2                !
 ! D145  D(37,14,62,63)        -57.0342         estimate D2E/DX2                !
 ! D146  D(37,14,62,64)       -178.248          estimate D2E/DX2                !
 ! D147  D(37,14,62,65)         62.1983         estimate D2E/DX2                !
 ! D148  D(38,14,62,63)       -172.8008         estimate D2E/DX2                !
 ! D149  D(38,14,62,64)         65.9854         estimate D2E/DX2                !
 ! D150  D(38,14,62,65)        -53.5683         estimate D2E/DX2                !
 ! D151  D(7,17,18,19)         -31.9831         estimate D2E/DX2                !
 ! D152  D(7,17,18,28)          85.988          estimate D2E/DX2                !
 ! D153  D(7,17,18,29)        -150.3997         estimate D2E/DX2                !
 ! D154  D(20,17,18,19)         77.7916         estimate D2E/DX2                !
 ! D155  D(20,17,18,28)       -164.2372         estimate D2E/DX2                !
 ! D156  D(20,17,18,29)        -40.6249         estimate D2E/DX2                !
 ! D157  D(30,17,18,19)       -154.0247         estimate D2E/DX2                !
 ! D158  D(30,17,18,28)        -36.0535         estimate D2E/DX2                !
 ! D159  D(30,17,18,29)         87.5588         estimate D2E/DX2                !
 ! D160  D(7,17,20,3)          -36.9731         estimate D2E/DX2                !
 ! D161  D(7,17,20,42)        -158.0602         estimate D2E/DX2                !
 ! D162  D(7,17,20,43)          82.6429         estimate D2E/DX2                !
 ! D163  D(18,17,20,3)        -147.119          estimate D2E/DX2                !
 ! D164  D(18,17,20,42)         91.7938         estimate D2E/DX2                !
 ! D165  D(18,17,20,43)        -27.503          estimate D2E/DX2                !
 ! D166  D(30,17,20,3)          84.0046         estimate D2E/DX2                !
 ! D167  D(30,17,20,42)        -37.0826         estimate D2E/DX2                !
 ! D168  D(30,17,20,43)       -156.3794         estimate D2E/DX2                !
 ! D169  D(17,18,19,8)          14.3816         estimate D2E/DX2                !
 ! D170  D(28,18,19,8)        -106.729          estimate D2E/DX2                !
 ! D171  D(29,18,19,8)         136.3039         estimate D2E/DX2                !
 ! D172  D(17,18,28,53)        -62.2396         estimate D2E/DX2                !
 ! D173  D(17,18,28,54)       -179.7156         estimate D2E/DX2                !
 ! D174  D(17,18,28,55)         59.9504         estimate D2E/DX2                !
 ! D175  D(19,18,28,53)         54.2818         estimate D2E/DX2                !
 ! D176  D(19,18,28,54)        -63.1941         estimate D2E/DX2                !
 ! D177  D(19,18,28,55)        176.4719         estimate D2E/DX2                !
 ! D178  D(29,18,28,53)        171.2462         estimate D2E/DX2                !
 ! D179  D(29,18,28,54)         53.7703         estimate D2E/DX2                !
 ! D180  D(29,18,28,55)        -66.5638         estimate D2E/DX2                !
 ! D181  D(17,18,29,56)        -57.448          estimate D2E/DX2                !
 ! D182  D(17,18,29,57)       -177.9863         estimate D2E/DX2                !
 ! D183  D(17,18,29,58)         64.8845         estimate D2E/DX2                !
 ! D184  D(19,18,29,56)       -174.398          estimate D2E/DX2                !
 ! D185  D(19,18,29,57)         65.0637         estimate D2E/DX2                !
 ! D186  D(19,18,29,58)        -52.0655         estimate D2E/DX2                !
 ! D187  D(28,18,29,56)         68.6828         estimate D2E/DX2                !
 ! D188  D(28,18,29,57)        -51.8555         estimate D2E/DX2                !
 ! D189  D(28,18,29,58)       -168.9848         estimate D2E/DX2                !
 ! D190  D(5,22,23,24)          32.1843         estimate D2E/DX2                !
 ! D191  D(5,22,23,25)         154.1926         estimate D2E/DX2                !
 ! D192  D(5,22,23,47)         -82.1736         estimate D2E/DX2                !
 ! D193  D(45,22,23,24)        154.6895         estimate D2E/DX2                !
 ! D194  D(45,22,23,25)        -83.3021         estimate D2E/DX2                !
 ! D195  D(45,22,23,47)         40.3317         estimate D2E/DX2                !
 ! D196  D(46,22,23,24)        -85.2938         estimate D2E/DX2                !
 ! D197  D(46,22,23,25)         36.7145         estimate D2E/DX2                !
 ! D198  D(46,22,23,47)        160.3483         estimate D2E/DX2                !
 ! D199  D(22,23,24,4)         -15.0091         estimate D2E/DX2                !
 ! D200  D(25,23,24,4)        -143.213          estimate D2E/DX2                !
 ! D201  D(47,23,24,4)         101.1775         estimate D2E/DX2                !
 ! D202  D(22,23,25,26)       -175.9514         estimate D2E/DX2                !
 ! D203  D(22,23,25,27)          5.7898         estimate D2E/DX2                !
 ! D204  D(24,23,25,26)        -55.427          estimate D2E/DX2                !
 ! D205  D(24,23,25,27)        126.3143         estimate D2E/DX2                !
 ! D206  D(47,23,25,26)         59.5675         estimate D2E/DX2                !
 ! D207  D(47,23,25,27)       -118.6913         estimate D2E/DX2                !
 ! D208  D(23,25,26,48)        -55.3326         estimate D2E/DX2                !
 ! D209  D(23,25,26,49)         64.8634         estimate D2E/DX2                !
 ! D210  D(23,25,26,50)       -175.109          estimate D2E/DX2                !
 ! D211  D(27,25,26,48)        123.022          estimate D2E/DX2                !
 ! D212  D(27,25,26,49)       -116.782          estimate D2E/DX2                !
 ! D213  D(27,25,26,50)          3.2456         estimate D2E/DX2                !
 ! D214  D(23,25,27,51)         -0.3932         estimate D2E/DX2                !
 ! D215  D(23,25,27,52)        179.293          estimate D2E/DX2                !
 ! D216  D(26,25,27,51)       -178.5738         estimate D2E/DX2                !
 ! D217  D(26,25,27,52)          1.1124         estimate D2E/DX2                !
 --------------------------------------------------------------------------------
 Trust Radius=3.00D-01 FncErr=1.00D-07 GrdErr=1.00D-06
 Number of steps in this run=    390 maximum allowed number of steps=    390.
 GradGradGradGradGradGradGradGradGradGradGradGradGradGradGradGradGradGrad

 Stoichiometry    C26H34O5
 Framework group  C1[X(C26H34O5)]
 Deg. of freedom   189
 Full point group                 C1      NOp   1
 Largest Abelian subgroup         C1      NOp   1
 Largest concise Abelian subgroup C1      NOp   1
                         Standard orientation:                         
 ---------------------------------------------------------------------
 Center     Atomic      Atomic             Coordinates (Angstroms)
 Number     Number       Type             X           Y           Z
 ---------------------------------------------------------------------
      1          6           0       -0.318737   -2.564265    1.884878
      2          6           0       -0.198281   -1.408741    2.556007
      3          6           0       -0.821896   -0.129884    2.044393
      4          6           0       -1.293485   -0.147861    0.560252
      5          6           0       -1.051350   -1.421075   -0.263002
      6          6           0       -1.078103   -2.697731    0.603654
      7          6           0       -0.654070    1.101887   -0.071361
      8          6           0        0.708861    0.898862   -0.640544
      9          6           0        1.149988   -0.274850   -1.108266
     10          6           0        0.231530   -1.439874   -1.111019
     11          6           0        2.539619   -0.381555   -1.623174
     12          8           0        2.744305   -0.601991   -2.815936
     13          6           0        3.680718   -0.235665   -0.615378
     14          6           0        4.392371   -1.578420   -0.394788
     15          6           0        4.667572    0.810738   -1.135565
     16          8           0        0.513819   -2.438060   -1.776079
     17          6           0       -0.313267    2.055200    1.053119
     18          6           0        0.830479    2.895340    0.445881
     19          8           0        1.537582    2.002642   -0.453461
     20          6           0        0.110252    1.089345    2.171471
     21          8           0       -1.484647    1.696791   -1.052525
     22          6           0       -2.245564   -1.407299   -1.218503
     23          6           0       -3.369420   -0.844466   -0.356930
     24          8           0       -2.737218    0.073894    0.556919
     25          6           0       -4.516276   -0.133439   -1.038846
     26          6           0       -5.534932    0.474816   -0.108230
     27          6           0       -4.688306   -0.047379   -2.369241
     28          6           0        0.322781    4.093589   -0.371376
     29          6           0        1.828238    3.414462    1.487315
     30          1           0       -1.160628    2.673705    1.370377
     31          1           0       -1.695388    0.067042    2.683370
     32          6           0        0.478321   -1.366414    3.900453
     33          1           0        0.092450   -3.483109    2.299363
     34          1           0       -2.102221   -2.990823    0.863879
     35          1           0       -0.665970   -3.550666    0.050442
     36          1           0        3.285456    0.119964    0.343433
     37          1           0        4.665734   -2.032071   -1.355270
     38          1           0        5.326215   -1.408363    0.155185
     39          1           0        5.455982    0.999988   -0.399616
     40          1           0        4.162829    1.760585   -1.340540
     41          1           0        5.144683    0.484082   -2.066390
     42          1           0        0.019374    1.565716    3.154243
     43          1           0        1.155336    0.775478    2.061892
     44          1           0       -2.397833    1.643192   -0.705975
     45          1           0       -2.493876   -2.394297   -1.624866
     46          1           0       -2.024578   -0.755165   -2.072313
     47          1           0       -3.795851   -1.650167    0.253387
     48          1           0       -5.927206   -0.285729    0.574743
     49          1           0       -5.084771    1.277897    0.484004
     50          1           0       -6.386429    0.901906   -0.648965
     51          1           0       -3.998442   -0.486516   -3.081613
     52          1           0       -5.543320    0.470551   -2.795063
     53          1           0       -0.276302    3.790068   -1.233839
     54          1           0        1.164485    4.659428   -0.788183
     55          1           0       -0.274009    4.771941    0.247080
     56          1           0        1.328865    4.016680    2.252957
     57          1           0        2.598336    4.032854    1.010869
     58          1           0        2.374212    2.601350    1.975646
     59          1           0        0.751275   -2.366195    4.254994
     60          1           0        1.396212   -0.772550    3.855739
     61          1           0       -0.189592   -0.924634    4.647115
     62          6           0        3.553766   -2.570064    0.400345
     63          1           0        2.665209   -2.879074   -0.155215
     64          1           0        3.234714   -2.140721    1.355303
     65          1           0        4.139449   -3.470109    0.613199
 ---------------------------------------------------------------------
 Rotational constants (GHZ):      0.2151848      0.1336307      0.1216615
 Standard basis: 6-31G(d) (6D, 7F)
 There are   533 symmetry adapted basis functions of A   symmetry.
 Integral buffers will be    131072 words long.
 Raffenetti 2 integral format.
 Two-electron integral symmetry is turned on.
   533 basis functions,  1004 primitive gaussians,   533 cartesian basis functions
   115 alpha electrons      115 beta electrons
       nuclear repulsion energy      3562.0999538121 Hartrees.
 NAtoms=   65 NActive=   65 NUniq=   65 SFac= 1.00D+00 NAtFMM=   50 NAOKFM=T Big=T
 One-electron integrals computed using PRISM.
 NBasis=   533 RedAO= T  NBF=   533
 NBsUse=   533 1.00D-06 NBFU=   533
 Harris functional with IExCor=  402 diagonalized for initial guess.
 ExpMin= 1.61D-01 ExpMax= 5.48D+03 ExpMxC= 8.25D+02 IAcc=1 IRadAn=         1 AccDes= 0.00D+00
 HarFok:  IExCor=  402 AccDes= 0.00D+00 IRadAn=         1 IDoV= 1
 ScaDFX=  1.000000  1.000000  1.000000  1.000000
 FoFCou: FMM=F IPFlag=           0 FMFlag=      100000 FMFlg1=        2001
         NFxFlg=           0 DoJE=T BraDBF=F KetDBF=T FulRan=T
         Omega=  0.000000  0.000000  1.000000  0.000000  0.000000 ICntrl=     500 IOpCl=  0
         NMat0=    1 NMatS0=    1 NMatT0=    0 NMatD0=    1 NMtDS0=    0 NMtDT0=    0
         I1Cent=           4 NGrid=           0.
 Petite list used in FoFCou.
 Initial guess orbital symmetries:
       Occupied  (A) (A) (A) (A) (A) (A) (A) (A) (A) (A) (A) (A)
                 (A) (A) (A) (A) (A) (A) (A) (A) (A) (A) (A) (A)
                 (A) (A) (A) (A) (A) (A) (A) (A) (A) (A) (A) (A)
                 (A) (A) (A) (A) (A) (A) (A) (A) (A) (A) (A) (A)
                 (A) (A) (A) (A) (A) (A) (A) (A) (A) (A) (A) (A)
                 (A) (A) (A) (A) (A) (A) (A) (A) (A) (A) (A) (A)
                 (A) (A) (A) (A) (A) (A) (A) (A) (A) (A) (A) (A)
                 (A) (A) (A) (A) (A) (A) (A) (A) (A) (A) (A) (A)
                 (A) (A) (A) (A) (A) (A) (A) (A) (A) (A) (A) (A)
                 (A) (A) (A) (A) (A) (A) (A)
       Virtual   (A) (A) (A) (A) (A) (A) (A) (A) (A) (A) (A) (A)
                 (A) (A) (A) (A) (A) (A) (A) (A) (A) (A) (A) (A)
                 (A) (A) (A) (A) (A) (A) (A) (A) (A) (A) (A) (A)
                 (A) (A) (A) (A) (A) (A) (A) (A) (A) (A) (A) (A)
                 (A) (A) (A) (A) (A) (A) (A) (A) (A) (A) (A) (A)
                 (A) (A) (A) (A) (A) (A) (A) (A) (A) (A) (A) (A)
                 (A) (A) (A) (A) (A) (A) (A) (A) (A) (A) (A) (A)
                 (A) (A) (A) (A) (A) (A) (A) (A) (A) (A) (A) (A)
                 (A) (A) (A) (A) (A) (A) (A) (A) (A) (A) (A) (A)
                 (A) (A) (A) (A) (A) (A) (A) (A) (A) (A) (A) (A)
                 (A) (A) (A) (A) (A) (A) (A) (A) (A) (A) (A) (A)
                 (A) (A) (A) (A) (A) (A) (A) (A) (A) (A) (A) (A)
                 (A) (A) (A) (A) (A) (A) (A) (A) (A) (A) (A) (A)
                 (A) (A) (A) (A) (A) (A) (A) (A) (A) (A) (A) (A)
                 (A) (A) (A) (A) (A) (A) (A) (A) (A) (A) (A) (A)
                 (A) (A) (A) (A) (A) (A) (A) (A) (A) (A) (A) (A)
                 (A) (A) (A) (A) (A) (A) (A) (A) (A) (A) (A) (A)
                 (A) (A) (A) (A) (A) (A) (A) (A) (A) (A) (A) (A)
                 (A) (A) (A) (A) (A) (A) (A) (A) (A) (A) (A) (A)
                 (A) (A) (A) (A) (A) (A) (A) (A) (A) (A) (A) (A)
                 (A) (A) (A) (A) (A) (A) (A) (A) (A) (A) (A) (A)
                 (A) (A) (A) (A) (A) (A) (A) (A) (A) (A) (A) (A)
                 (A) (A) (A) (A) (A) (A) (A) (A) (A) (A) (A) (A)
                 (A) (A) (A) (A) (A) (A) (A) (A) (A) (A) (A) (A)
                 (A) (A) (A) (A) (A) (A) (A) (A) (A) (A) (A) (A)
                 (A) (A) (A) (A) (A) (A) (A) (A) (A) (A) (A) (A)
                 (A) (A) (A) (A) (A) (A) (A) (A) (A) (A) (A) (A)
                 (A) (A) (A) (A) (A) (A) (A) (A) (A) (A) (A) (A)
                 (A) (A) (A) (A) (A) (A) (A) (A) (A) (A) (A) (A)
                 (A) (A) (A) (A) (A) (A) (A) (A) (A) (A) (A) (A)
                 (A) (A) (A) (A) (A) (A) (A) (A) (A) (A) (A) (A)
                 (A) (A) (A) (A) (A) (A) (A) (A) (A) (A) (A) (A)
                 (A) (A) (A) (A) (A) (A) (A) (A) (A) (A) (A) (A)
                 (A) (A) (A) (A) (A) (A) (A) (A) (A) (A) (A) (A)
                 (A) (A) (A) (A) (A) (A) (A) (A) (A) (A)
 The electronic state of the initial guess is 1-A.
 Requested convergence on RMS density matrix=1.00D-08 within 128 cycles.
 Requested convergence on MAX density matrix=1.00D-06.
 Requested convergence on             energy=1.00D-06.
 No special actions if energy rises.
 Integral accuracy reduced to 1.0D-05 until final iterations.
 Initial convergence to 1.0D-05 achieved.  Increase integral accuracy.
 SCF Done:  E(RB3LYP) =  -1387.30221924     A.U. after   16 cycles
             Convg  =    0.6836D-08             -V/T =  2.0091

 **********************************************************************

            Population analysis using the SCF density.

 **********************************************************************

 Orbital symmetries:
       Occupied  (A) (A) (A) (A) (A) (A) (A) (A) (A) (A) (A) (A)
                 (A) (A) (A) (A) (A) (A) (A) (A) (A) (A) (A) (A)
                 (A) (A) (A) (A) (A) (A) (A) (A) (A) (A) (A) (A)
                 (A) (A) (A) (A) (A) (A) (A) (A) (A) (A) (A) (A)
                 (A) (A) (A) (A) (A) (A) (A) (A) (A) (A) (A) (A)
                 (A) (A) (A) (A) (A) (A) (A) (A) (A) (A) (A) (A)
                 (A) (A) (A) (A) (A) (A) (A) (A) (A) (A) (A) (A)
                 (A) (A) (A) (A) (A) (A) (A) (A) (A) (A) (A) (A)
                 (A) (A) (A) (A) (A) (A) (A) (A) (A) (A) (A) (A)
                 (A) (A) (A) (A) (A) (A) (A)
       Virtual   (A) (A) (A) (A) (A) (A) (A) (A) (A) (A) (A) (A)
                 (A) (A) (A) (A) (A) (A) (A) (A) (A) (A) (A) (A)
                 (A) (A) (A) (A) (A) (A) (A) (A) (A) (A) (A) (A)
                 (A) (A) (A) (A) (A) (A) (A) (A) (A) (A) (A) (A)
                 (A) (A) (A) (A) (A) (A) (A) (A) (A) (A) (A) (A)
                 (A) (A) (A) (A) (A) (A) (A) (A) (A) (A) (A) (A)
                 (A) (A) (A) (A) (A) (A) (A) (A) (A) (A) (A) (A)
                 (A) (A) (A) (A) (A) (A) (A) (A) (A) (A) (A) (A)
                 (A) (A) (A) (A) (A) (A) (A) (A) (A) (A) (A) (A)
                 (A) (A) (A) (A) (A) (A) (A) (A) (A) (A) (A) (A)
                 (A) (A) (A) (A) (A) (A) (A) (A) (A) (A) (A) (A)
                 (A) (A) (A) (A) (A) (A) (A) (A) (A) (A) (A) (A)
                 (A) (A) (A) (A) (A) (A) (A) (A) (A) (A) (A) (A)
                 (A) (A) (A) (A) (A) (A) (A) (A) (A) (A) (A) (A)
                 (A) (A) (A) (A) (A) (A) (A) (A) (A) (A) (A) (A)
                 (A) (A) (A) (A) (A) (A) (A) (A) (A) (A) (A) (A)
                 (A) (A) (A) (A) (A) (A) (A) (A) (A) (A) (A) (A)
                 (A) (A) (A) (A) (A) (A) (A) (A) (A) (A) (A) (A)
                 (A) (A) (A) (A) (A) (A) (A) (A) (A) (A) (A) (A)
                 (A) (A) (A) (A) (A) (A) (A) (A) (A) (A) (A) (A)
                 (A) (A) (A) (A) (A) (A) (A) (A) (A) (A) (A) (A)
                 (A) (A) (A) (A) (A) (A) (A) (A) (A) (A) (A) (A)
                 (A) (A) (A) (A) (A) (A) (A) (A) (A) (A) (A) (A)
                 (A) (A) (A) (A) (A) (A) (A) (A) (A) (A) (A) (A)
                 (A) (A) (A) (A) (A) (A) (A) (A) (A) (A) (A) (A)
                 (A) (A) (A) (A) (A) (A) (A) (A) (A) (A) (A) (A)
                 (A) (A) (A) (A) (A) (A) (A) (A) (A) (A) (A) (A)
                 (A) (A) (A) (A) (A) (A) (A) (A) (A) (A) (A) (A)
                 (A) (A) (A) (A) (A) (A) (A) (A) (A) (A) (A) (A)
                 (A) (A) (A) (A) (A) (A) (A) (A) (A) (A) (A) (A)
                 (A) (A) (A) (A) (A) (A) (A) (A) (A) (A) (A) (A)
                 (A) (A) (A) (A) (A) (A) (A) (A) (A) (A) (A) (A)
                 (A) (A) (A) (A) (A) (A) (A) (A) (A) (A) (A) (A)
                 (A) (A) (A) (A) (A) (A) (A) (A) (A) (A) (A) (A)
                 (A) (A) (A) (A) (A) (A) (A) (A) (A) (A)
 The electronic state is 1-A.
 Alpha  occ. eigenvalues --  -19.19908 -19.16818 -19.15347 -19.13229 -19.12967
 Alpha  occ. eigenvalues --  -10.27861 -10.27059 -10.26724 -10.26341 -10.25999
 Alpha  occ. eigenvalues --  -10.25602 -10.25046 -10.21607 -10.20609 -10.20540
 Alpha  occ. eigenvalues --  -10.20340 -10.19845 -10.19741 -10.19610 -10.19462
 Alpha  occ. eigenvalues --  -10.19139 -10.18962 -10.18775 -10.18723 -10.18687
 Alpha  occ. eigenvalues --  -10.18663 -10.18327 -10.17793 -10.17661 -10.16586
 Alpha  occ. eigenvalues --  -10.16420  -1.08710  -1.06052  -1.03155  -1.02355
 Alpha  occ. eigenvalues --   -1.01887  -0.87606  -0.84115  -0.82768  -0.81794
 Alpha  occ. eigenvalues --   -0.80615  -0.80063  -0.77098  -0.74529  -0.73836
 Alpha  occ. eigenvalues --   -0.72573  -0.71927  -0.69761  -0.69214  -0.68046
 Alpha  occ. eigenvalues --   -0.65276  -0.64564  -0.63340  -0.62002  -0.61075
 Alpha  occ. eigenvalues --   -0.59657  -0.59277  -0.57465  -0.55330  -0.53682
 Alpha  occ. eigenvalues --   -0.53038  -0.52373  -0.51120  -0.50578  -0.49321
 Alpha  occ. eigenvalues --   -0.48956  -0.48103  -0.46780  -0.46382  -0.45987
 Alpha  occ. eigenvalues --   -0.45186  -0.44551  -0.44359  -0.43738  -0.43223
 Alpha  occ. eigenvalues --   -0.42724  -0.42615  -0.42074  -0.41789  -0.41781
 Alpha  occ. eigenvalues --   -0.41070  -0.40951  -0.40746  -0.40657  -0.39885
 Alpha  occ. eigenvalues --   -0.39280  -0.38999  -0.38767  -0.38348  -0.38218
 Alpha  occ. eigenvalues --   -0.37649  -0.37455  -0.37169  -0.36971  -0.36707
 Alpha  occ. eigenvalues --   -0.36570  -0.35554  -0.34898  -0.34578  -0.34209
 Alpha  occ. eigenvalues --   -0.33843  -0.33438  -0.33227  -0.32845  -0.32561
 Alpha  occ. eigenvalues --   -0.31976  -0.31372  -0.31098  -0.27965  -0.26626
 Alpha  occ. eigenvalues --   -0.26033  -0.25633  -0.24421  -0.23641  -0.23026
 Alpha virt. eigenvalues --   -0.05357  -0.01642   0.00380   0.01819   0.04080
 Alpha virt. eigenvalues --    0.05846   0.07157   0.08566   0.08720   0.09996
 Alpha virt. eigenvalues --    0.10516   0.10953   0.11367   0.11694   0.12307
 Alpha virt. eigenvalues --    0.12728   0.13098   0.13189   0.13604   0.13878
 Alpha virt. eigenvalues --    0.14095   0.14340   0.14874   0.15151   0.15638
 Alpha virt. eigenvalues --    0.16082   0.16422   0.16805   0.17325   0.17584
 Alpha virt. eigenvalues --    0.17872   0.17968   0.18319   0.18861   0.19208
 Alpha virt. eigenvalues --    0.19267   0.19423   0.19581   0.20062   0.20180
 Alpha virt. eigenvalues --    0.20865   0.21006   0.21346   0.21960   0.22565
 Alpha virt. eigenvalues --    0.22977   0.23112   0.23971   0.24356   0.24521
 Alpha virt. eigenvalues --    0.25194   0.25630   0.25776   0.26295   0.26706
 Alpha virt. eigenvalues --    0.26945   0.27881   0.28090   0.28692   0.29417
 Alpha virt. eigenvalues --    0.30418   0.31868   0.32298   0.33380   0.33958
 Alpha virt. eigenvalues --    0.34388   0.36196   0.37219   0.38748   0.40091
 Alpha virt. eigenvalues --    0.41928   0.45067   0.46593   0.46790   0.48264
 Alpha virt. eigenvalues --    0.49293   0.50084   0.50365   0.51329   0.51781
 Alpha virt. eigenvalues --    0.52104   0.52463   0.52642   0.53455   0.53755
 Alpha virt. eigenvalues --    0.54314   0.54762   0.55010   0.55303   0.56708
 Alpha virt. eigenvalues --    0.56973   0.57247   0.57565   0.58584   0.58974
 Alpha virt. eigenvalues --    0.59340   0.60383   0.60817   0.61330   0.62037
 Alpha virt. eigenvalues --    0.62228   0.62682   0.63279   0.64029   0.64716
 Alpha virt. eigenvalues --    0.65244   0.65633   0.65823   0.66080   0.66947
 Alpha virt. eigenvalues --    0.67679   0.68310   0.68753   0.69112   0.69775
 Alpha virt. eigenvalues --    0.70020   0.71645   0.72041   0.72711   0.73908
 Alpha virt. eigenvalues --    0.74352   0.74653   0.75619   0.75862   0.76391
 Alpha virt. eigenvalues --    0.76695   0.78043   0.78870   0.79374   0.80330
 Alpha virt. eigenvalues --    0.80358   0.80983   0.81411   0.82063   0.82413
 Alpha virt. eigenvalues --    0.82773   0.83690   0.83826   0.84350   0.84458
 Alpha virt. eigenvalues --    0.85134   0.85518   0.86337   0.86717   0.86989
 Alpha virt. eigenvalues --    0.87224   0.88000   0.88245   0.88446   0.89149
 Alpha virt. eigenvalues --    0.89496   0.89959   0.90190   0.90411   0.90692
 Alpha virt. eigenvalues --    0.90995   0.91586   0.91749   0.91972   0.92461
 Alpha virt. eigenvalues --    0.93015   0.93379   0.94009   0.94258   0.94632
 Alpha virt. eigenvalues --    0.95119   0.95615   0.95884   0.96247   0.97216
 Alpha virt. eigenvalues --    0.97492   0.98004   0.98164   0.99327   0.99565
 Alpha virt. eigenvalues --    1.00293   1.01253   1.01996   1.03044   1.04191
 Alpha virt. eigenvalues --    1.04649   1.05793   1.06540   1.07431   1.08244
 Alpha virt. eigenvalues --    1.09070   1.09741   1.10895   1.11869   1.12469
 Alpha virt. eigenvalues --    1.13504   1.14119   1.15481   1.16461   1.16894
 Alpha virt. eigenvalues --    1.17850   1.18367   1.18757   1.19215   1.20576
 Alpha virt. eigenvalues --    1.21557   1.22961   1.24137   1.25494   1.26551
 Alpha virt. eigenvalues --    1.27292   1.29077   1.31020   1.31972   1.33684
 Alpha virt. eigenvalues --    1.35434   1.36658   1.36978   1.38591   1.38836
 Alpha virt. eigenvalues --    1.40682   1.41502   1.43601   1.44398   1.47102
 Alpha virt. eigenvalues --    1.47779   1.48771   1.49673   1.51299   1.53573
 Alpha virt. eigenvalues --    1.53832   1.55892   1.56385   1.57447   1.59058
 Alpha virt. eigenvalues --    1.59532   1.61222   1.62210   1.62518   1.62957
 Alpha virt. eigenvalues --    1.64528   1.65342   1.66242   1.66830   1.68490
 Alpha virt. eigenvalues --    1.70941   1.71758   1.73056   1.73117   1.73651
 Alpha virt. eigenvalues --    1.74888   1.75258   1.76411   1.77775   1.77823
 Alpha virt. eigenvalues --    1.79618   1.80626   1.80770   1.81439   1.82665
 Alpha virt. eigenvalues --    1.82958   1.83523   1.84426   1.84704   1.85680
 Alpha virt. eigenvalues --    1.86106   1.86653   1.87775   1.87929   1.88417
 Alpha virt. eigenvalues --    1.89121   1.89784   1.90438   1.90951   1.91367
 Alpha virt. eigenvalues --    1.92203   1.92330   1.93047   1.93958   1.94953
 Alpha virt. eigenvalues --    1.95324   1.96060   1.96500   1.97556   1.98277
 Alpha virt. eigenvalues --    1.99108   2.00087   2.00903   2.01121   2.02940
 Alpha virt. eigenvalues --    2.03216   2.03998   2.04979   2.05639   2.06166
 Alpha virt. eigenvalues --    2.07063   2.07222   2.08463   2.09043   2.09459
 Alpha virt. eigenvalues --    2.10378   2.11907   2.12978   2.13428   2.14351
 Alpha virt. eigenvalues --    2.14559   2.16067   2.16823   2.17045   2.18711
 Alpha virt. eigenvalues --    2.19438   2.20070   2.20947   2.22527   2.23212
 Alpha virt. eigenvalues --    2.23683   2.24498   2.25235   2.26071   2.27380
 Alpha virt. eigenvalues --    2.27710   2.28566   2.30125   2.30535   2.30837
 Alpha virt. eigenvalues --    2.31639   2.33312   2.33846   2.34844   2.35188
 Alpha virt. eigenvalues --    2.35888   2.37422   2.38323   2.38627   2.39689
 Alpha virt. eigenvalues --    2.40001   2.40470   2.41298   2.42734   2.43113
 Alpha virt. eigenvalues --    2.44179   2.44227   2.45310   2.47375   2.48368
 Alpha virt. eigenvalues --    2.49521   2.50130   2.51524   2.52533   2.54861
 Alpha virt. eigenvalues --    2.56975   2.57174   2.58246   2.58846   2.60333
 Alpha virt. eigenvalues --    2.61251   2.61787   2.62888   2.64534   2.66911
 Alpha virt. eigenvalues --    2.67221   2.68776   2.69890   2.71129   2.71506
 Alpha virt. eigenvalues --    2.72475   2.74220   2.74841   2.76677   2.78781
 Alpha virt. eigenvalues --    2.80185   2.80397   2.81409   2.83931   2.85903
 Alpha virt. eigenvalues --    2.87072   2.89431   2.92656   2.94207   2.95213
 Alpha virt. eigenvalues --    2.96070   2.99454   3.01246   3.01853   3.03142
 Alpha virt. eigenvalues --    3.04422   3.07172   3.12677   3.18655   3.21451
 Alpha virt. eigenvalues --    3.22819   3.29399   4.00538   4.07985   4.11437
 Alpha virt. eigenvalues --    4.13950   4.14525   4.16966   4.19692   4.22386
 Alpha virt. eigenvalues --    4.22816   4.25295   4.26732   4.28709   4.30847
 Alpha virt. eigenvalues --    4.32623   4.35544   4.38197   4.38770   4.43956
 Alpha virt. eigenvalues --    4.46221   4.47297   4.53442   4.59155   4.60845
 Alpha virt. eigenvalues --    4.64696   4.65353   4.72016   4.73705   4.82429
 Alpha virt. eigenvalues --    4.91212   5.02904   5.18043
          Condensed to atoms (all electrons):
 Mulliken atomic charges:
              1
     1  C   -0.192889
     2  C    0.184769
     3  C   -0.184900
     4  C    0.320057
     5  C   -0.049976
     6  C   -0.331631
     7  C    0.217839
     8  C    0.386160
     9  C   -0.077440
    10  C    0.436389
    11  C    0.413082
    12  O   -0.446821
    13  C   -0.135589
    14  C   -0.252401
    15  C   -0.454474
    16  O   -0.496638
    17  C   -0.162107
    18  C    0.311677
    19  O   -0.537753
    20  C   -0.320699
    21  O   -0.659354
    22  C   -0.326521
    23  C    0.104663
    24  O   -0.586191
    25  C    0.175613
    26  C   -0.504613
    27  C   -0.390876
    28  C   -0.462349
    29  C   -0.462693
    30  H    0.144770
    31  H    0.165240
    32  C   -0.517226
    33  H    0.124822
    34  H    0.152539
    35  H    0.180116
    36  H    0.126859
    37  H    0.159793
    38  H    0.131456
    39  H    0.134551
    40  H    0.155607
    41  H    0.165318
    42  H    0.148641
    43  H    0.161828
    44  H    0.411422
    45  H    0.169221
    46  H    0.176720
    47  H    0.136544
    48  H    0.154367
    49  H    0.165042
    50  H    0.154054
    51  H    0.152150
    52  H    0.143198
    53  H    0.189090
    54  H    0.150149
    55  H    0.139165
    56  H    0.151202
    57  H    0.159424
    58  H    0.154881
    59  H    0.159261
    60  H    0.156648
    61  H    0.150671
    62  C   -0.468246
    63  H    0.171860
    64  H    0.133573
    65  H    0.140951
 Sum of Mulliken atomic charges =   0.00000
 Mulliken charges with hydrogens summed into heavy atoms:
              1
     1  C   -0.068067
     2  C    0.184769
     3  C   -0.019660
     4  C    0.320057
     5  C   -0.049976
     6  C    0.001025
     7  C    0.217839
     8  C    0.386160
     9  C   -0.077440
    10  C    0.436389
    11  C    0.413082
    12  O   -0.446821
    13  C   -0.008729
    14  C    0.038849
    15  C    0.001002
    16  O   -0.496638
    17  C   -0.017337
    18  C    0.311677
    19  O   -0.537753
    20  C   -0.010229
    21  O   -0.247932
    22  C    0.019419
    23  C    0.241207
    24  O   -0.586191
    25  C    0.175613
    26  C   -0.031151
    27  C   -0.095527
    28  C    0.016056
    29  C    0.002814
    32  C   -0.050645
    62  C   -0.021862
 Sum of Mulliken charges with hydrogens summed into heavy atoms =   0.00000
 Electronic spatial extent (au):  <R**2>=          10848.2124
 Charge=              0.0000 electrons
 Dipole moment (field-independent basis, Debye):
    X=             -2.9983    Y=              2.2895    Z=              5.9375  Tot=              7.0346
 Quadrupole moment (field-independent basis, Debye-Ang):
   XX=           -176.8007   YY=           -181.1408   ZZ=           -193.9647
   XY=              3.5910   XZ=             11.5001   YZ=             -2.4899
 Traceless Quadrupole moment (field-independent basis, Debye-Ang):
   XX=              7.1681   YY=              2.8279   ZZ=             -9.9959
   XY=              3.5910   XZ=             11.5001   YZ=             -2.4899
 Octapole moment (field-independent basis, Debye-Ang**2):
  XXX=            -35.4265  YYY=             32.4819  ZZZ=             29.9500  XYY=             -5.1182
  XXY=              5.5577  XXZ=              0.8319  XZZ=            -33.4235  YZZ=             19.0699
  YYZ=             23.9115  XYZ=             -8.7531
 Hexadecapole moment (field-independent basis, Debye-Ang**3):
 XXXX=          -7541.1229 YYYY=          -3800.7035 ZZZZ=          -2901.2979 XXXY=            -84.3940
 XXXZ=             74.5632 YYYX=             17.3694 YYYZ=            -12.9692 ZZZX=             83.9608
 ZZZY=            -21.0730 XXYY=          -1923.0798 XXZZ=          -1825.1931 YYZZ=          -1142.2150
 XXYZ=            -22.1513 YYXZ=             -5.7946 ZZXY=             15.4439
 N-N= 3.562099953812D+03 E-N=-1.035022040951D+04  KE= 1.374770305163D+03
 Calling FoFJK, ICntrl=      2127 FMM=T ISym2X=0 I1Cent= 0 IOpClX= 0 NMat=1 NMatS=1 NMatT=0.
 ***** Axes restored to original set *****
 -------------------------------------------------------------------
 Center     Atomic                   Forces (Hartrees/Bohr)
 Number     Number              X              Y              Z
 -------------------------------------------------------------------
      1        6           0.008522075    0.000183336    0.000898541
      2        6          -0.012386697   -0.004810342    0.002335741
      3        6          -0.001021596   -0.007820670   -0.000722632
      4        6           0.002204525   -0.004060872    0.011174469
      5        6          -0.010106889   -0.004419425    0.001710377
      6        6          -0.004497509   -0.010172845   -0.000719439
      7        6           0.010984366    0.021238638    0.007931002
      8        6           0.009665101   -0.012254723   -0.013005810
      9        6          -0.000084156    0.003559860    0.008013581
     10        6          -0.013049165   -0.001758618   -0.020796978
     11        6          -0.022566026    0.007906384   -0.016628850
     12        8           0.013360988   -0.013261062    0.010058945
     13        6           0.002650152    0.002214173   -0.010542185
     14        6          -0.003695123   -0.004832724    0.004090240
     15        6           0.004526754    0.003901748   -0.007164478
     16        8           0.011893721   -0.001270063    0.009961280
     17        6           0.007951826   -0.011518602   -0.005887058
     18        6           0.032362420    0.007152069    0.000605022
     19        8          -0.028207772    0.002375546    0.024611652
     20        6           0.011660338   -0.004343538    0.001176952
     21        8          -0.006262931    0.007401689   -0.003074019
     22        6          -0.006747203    0.014148924    0.000596256
     23        6          -0.005313733    0.007939189    0.001041276
     24        8           0.001903440   -0.006591988   -0.009441617
     25        6          -0.002916844    0.015037204    0.000206978
     26        6           0.001469713    0.001704123    0.000320027
     27        6           0.000905347   -0.010078627   -0.001132361
     28        6          -0.003048387    0.007919336   -0.005170042
     29        6          -0.003233045   -0.006011707   -0.009085182
     30        1          -0.001837903    0.001084575   -0.001711167
     31        1          -0.003232403    0.005870953   -0.000151947
     32        6          -0.001021485    0.000894337   -0.001249429
     33        1           0.001666783   -0.001067172   -0.000123792
     34        1          -0.000033681    0.005764050    0.001642156
     35        1           0.001053541    0.007477269   -0.002236425
     36        1          -0.001822715    0.000545587    0.001901263
     37        1           0.002488261    0.002777094   -0.001686600
     38        1           0.002529527    0.001910086   -0.002342886
     39        1           0.000073914   -0.001214469    0.000338278
     40        1           0.000561862   -0.000303527    0.000067578
     41        1          -0.000961255   -0.000096738    0.001903790
     42        1          -0.001210234   -0.002164836   -0.001585317
     43        1           0.000140761    0.002734519   -0.000060823
     44        1          -0.001585933   -0.003844589   -0.002226042
     45        1           0.001479054   -0.002978670   -0.001062614
     46        1           0.002042410    0.000641052    0.003396933
     47        1          -0.001734605   -0.001226928    0.002968961
     48        1           0.002443088   -0.002627844    0.001942587
     49        1           0.000895125   -0.003232210    0.002491238
     50        1          -0.001368267   -0.000247421   -0.001733700
     51        1          -0.000161009   -0.000405396   -0.001352797
     52        1          -0.000046629   -0.000562631    0.001134233
     53        1          -0.001385221   -0.002870549    0.005501762
     54        1           0.002085830   -0.003793581    0.000447190
     55        1           0.000455152   -0.000978921    0.000194917
     56        1          -0.000710899    0.001139241    0.000570239
     57        1           0.000594358    0.002845304    0.001496414
     58        1          -0.000118493   -0.000145509    0.003879051
     59        1          -0.001142684    0.001773076   -0.000618203
     60        1           0.004641544   -0.001937925    0.000386063
     61        1           0.004076273   -0.001225254    0.000073774
     62        6          -0.004497825   -0.002965386    0.001198926
     63        1          -0.000793966    0.000784969    0.001856647
     64        1           0.000405929   -0.000613883    0.001839649
     65        1          -0.000891898   -0.001215086    0.001548407
 -------------------------------------------------------------------
 Cartesian Forces:  Max     0.032362420 RMS     0.006718787

 GradGradGradGradGradGradGradGradGradGradGradGradGradGradGradGradGradGrad
 Berny optimization.
 Internal  Forces:  Max     0.021051366 RMS     0.003450212
 Search for a local minimum.
 Step number   1 out of a maximum of  390
 All quantities printed in internal units (Hartrees-Bohrs-Radians)
 Mixed Optimization -- RFO/linear search
 Second derivative matrix not updated -- first step.
 ITU=  0
     Eigenvalues ---    0.00280   0.00295   0.00332   0.00375   0.00377
     Eigenvalues ---    0.00427   0.00465   0.00537   0.00604   0.00609
     Eigenvalues ---    0.00630   0.00662   0.00678   0.00691   0.00714
     Eigenvalues ---    0.00954   0.01077   0.01237   0.01244   0.01384
     Eigenvalues ---    0.01474   0.01599   0.01702   0.01786   0.01915
     Eigenvalues ---    0.02500   0.02827   0.02827   0.03038   0.03123
     Eigenvalues ---    0.03528   0.03603   0.03732   0.04035   0.04120
     Eigenvalues ---    0.04157   0.04324   0.04422   0.04577   0.04665
     Eigenvalues ---    0.04742   0.04844   0.04924   0.05099   0.05246
     Eigenvalues ---    0.05302   0.05382   0.05417   0.05485   0.05498
     Eigenvalues ---    0.05506   0.05515   0.05539   0.05550   0.05584
     Eigenvalues ---    0.05616   0.05702   0.05935   0.06277   0.06637
     Eigenvalues ---    0.06704   0.06858   0.07090   0.07117   0.07167
     Eigenvalues ---    0.07248   0.07249   0.07347   0.07612   0.08379
     Eigenvalues ---    0.08381   0.08812   0.09019   0.09157   0.09740
     Eigenvalues ---    0.10105   0.10656   0.10834   0.11625   0.12231
     Eigenvalues ---    0.13158   0.14677   0.15157   0.15964   0.16000
     Eigenvalues ---    0.16000   0.16000   0.16000   0.16000   0.16000
     Eigenvalues ---    0.16000   0.16000   0.16000   0.16000   0.16000
     Eigenvalues ---    0.16000   0.16000   0.16000   0.16000   0.16000
     Eigenvalues ---    0.16000   0.16000   0.16000   0.16000   0.16000
     Eigenvalues ---    0.16372   0.16493   0.17282   0.17668   0.18325
     Eigenvalues ---    0.19651   0.21527   0.21927   0.22724   0.23585
     Eigenvalues ---    0.24536   0.24912   0.24987   0.24989   0.24993
     Eigenvalues ---    0.24995   0.24999   0.25000   0.25890   0.27160
     Eigenvalues ---    0.27443   0.27705   0.27778   0.28244   0.28254
     Eigenvalues ---    0.28615   0.28813   0.28911   0.29163   0.29468
     Eigenvalues ---    0.29480   0.30101   0.30274   0.30484   0.31160
     Eigenvalues ---    0.31565   0.31687   0.31787   0.32890   0.33679
     Eigenvalues ---    0.33914   0.34012   0.34014   0.34017   0.34032
     Eigenvalues ---    0.34034   0.34051   0.34065   0.34066   0.34069
     Eigenvalues ---    0.34087   0.34128   0.34138   0.34142   0.34151
     Eigenvalues ---    0.34199   0.34203   0.34241   0.34243   0.34252
     Eigenvalues ---    0.34254   0.34255   0.34273   0.34277   0.34281
     Eigenvalues ---    0.34290   0.34309   0.34336   0.34457   0.34520
     Eigenvalues ---    0.34970   0.35213   0.35423   0.35451   0.36340
     Eigenvalues ---    0.37122   0.42993   0.43455   0.51736   0.53218
     Eigenvalues ---    0.54243   0.56268   0.90168   0.91041
 RFO step:  Lambda=-2.18178633D-02 EMin= 2.80390197D-03
 Linear search not attempted -- first point.
 Iteration  1 RMS(Cart)=  0.06846230 RMS(Int)=  0.00086680
 Iteration  2 RMS(Cart)=  0.00188420 RMS(Int)=  0.00024829
 Iteration  3 RMS(Cart)=  0.00000103 RMS(Int)=  0.00024829
 Iteration  4 RMS(Cart)=  0.00000000 RMS(Int)=  0.00024829
 Variable       Old X    -DE/DX   Delta X   Delta X   Delta X     New X
                                 (Linear)    (Quad)   (Total)
    R1        2.53545  -0.00205   0.00000  -0.00431  -0.00437   2.53108
    R2        2.82575   0.00814   0.00000   0.02455   0.02447   2.85022
    R3        2.05724   0.00008   0.00000   0.00021   0.00021   2.05745
    R4        2.85725   0.00350   0.00000   0.00752   0.00753   2.86478
    R5        2.84535   0.00368   0.00000   0.01083   0.01083   2.85618
    R6        2.94300   0.00482   0.00000   0.01119   0.01119   2.95419
    R7        2.91016   0.01104   0.00000   0.03811   0.03813   2.94828
    R8        2.07875  -0.00075   0.00000  -0.00208  -0.00208   2.07667
    R9        2.90148   0.00856   0.00000   0.02815   0.02794   2.92942
   R10        2.90899   0.00727   0.00000   0.02410   0.02407   2.93306
   R11        2.76026  -0.00463   0.00000  -0.01083  -0.01084   2.74943
   R12        2.91634  -0.00145   0.00000  -0.00220  -0.00227   2.91407
   R13        2.90629   0.00735   0.00000   0.01757   0.01747   2.92376
   R14        2.89030   0.01285   0.00000   0.04183   0.04179   2.93210
   R15        2.07219   0.00280   0.00000   0.00773   0.00773   2.07992
   R16        2.07302  -0.00158   0.00000  -0.00437  -0.00437   2.06864
   R17        2.81738   0.00830   0.00000   0.01760   0.01735   2.83473
   R18        2.85930   0.01581   0.00000   0.05580   0.05529   2.91459
   R19        2.67678   0.00355   0.00000   0.00787   0.00787   2.68465
   R20        2.52896   0.01148   0.00000   0.02006   0.02020   2.54916
   R21        2.63216  -0.01925   0.00000  -0.04586  -0.04572   2.58644
   R22        2.80346  -0.00158   0.00000  -0.00855  -0.00845   2.79501
   R23        2.80775   0.01541   0.00000   0.04270   0.04270   2.85045
   R24        2.32856  -0.01408   0.00000  -0.01524  -0.01524   2.31331
   R25        2.32457  -0.02105   0.00000  -0.02258  -0.02258   2.30199
   R26        2.89013   0.00172   0.00000   0.00543   0.00543   2.89557
   R27        2.90188   0.00512   0.00000   0.01645   0.01645   2.91834
   R28        2.89038   0.00663   0.00000   0.02093   0.02093   2.91131
   R29        2.07183  -0.00011   0.00000  -0.00030  -0.00030   2.07154
   R30        2.07272  -0.00016   0.00000  -0.00045  -0.00045   2.07227
   R31        2.07307   0.00091   0.00000   0.00250   0.00250   2.07557
   R32        2.87763   0.00905   0.00000   0.02805   0.02805   2.90568
   R33        2.06925   0.00089   0.00000   0.00243   0.00243   2.07168
   R34        2.06922   0.00011   0.00000   0.00031   0.00031   2.06953
   R35        2.07076  -0.00080   0.00000  -0.00220  -0.00220   2.06856
   R36        2.91700  -0.00060   0.00000   0.01028   0.01060   2.92760
   R37        2.90487   0.00436   0.00000   0.01522   0.01522   2.92009
[...]
     54          1           0        1.354743    4.431379   -1.013881
     55          1           0        0.009943    4.872965    0.056089
     56          1           0        1.407224    4.174414    2.127182
     57          1           0        2.727190    3.876736    0.981288
     58          1           0        2.242952    2.607715    2.118346
     59          1           0        0.047099   -2.030481    4.663841
     60          1           0        0.726551   -0.439404    4.286646
     61          1           0       -0.940173   -0.567655    4.840167
     62          6           0        4.035968   -2.487965    0.463434
     63          1           0        3.141828   -2.901340   -0.016131
     64          1           0        3.736294   -2.068373    1.432633
     65          1           0        4.721644   -3.319800    0.661288
 ---------------------------------------------------------------------
 Rotational constants (GHZ):      0.2074874      0.1282835      0.1198475

 **********************************************************************

            Population analysis using the SCF density.

 **********************************************************************

 Orbital symmetries:
       Occupied  (A) (A) (A) (A) (A) (A) (A) (A) (A) (A) (A) (A)
                 (A) (A) (A) (A) (A) (A) (A) (A) (A) (A) (A) (A)
                 (A) (A) (A) (A) (A) (A) (A) (A) (A) (A) (A) (A)
                 (A) (A) (A) (A) (A) (A) (A) (A) (A) (A) (A) (A)
                 (A) (A) (A) (A) (A) (A) (A) (A) (A) (A) (A) (A)
                 (A) (A) (A) (A) (A) (A) (A) (A) (A) (A) (A) (A)
                 (A) (A) (A) (A) (A) (A) (A) (A) (A) (A) (A) (A)
                 (A) (A) (A) (A) (A) (A) (A) (A) (A) (A) (A) (A)
                 (A) (A) (A) (A) (A) (A) (A) (A) (A) (A) (A) (A)
                 (A) (A) (A) (A) (A) (A) (A)
       Virtual   (A) (A) (A) (A) (A) (A) (A) (A) (A) (A) (A) (A)
                 (A) (A) (A) (A) (A) (A) (A) (A) (A) (A) (A) (A)
                 (A) (A) (A) (A) (A) (A) (A) (A) (A) (A) (A) (A)
                 (A) (A) (A) (A) (A) (A) (A) (A) (A) (A) (A) (A)
                 (A) (A) (A) (A) (A) (A) (A) (A) (A) (A) (A) (A)
                 (A) (A) (A) (A) (A) (A) (A) (A) (A) (A) (A) (A)
                 (A) (A) (A) (A) (A) (A) (A) (A) (A) (A) (A) (A)
                 (A) (A) (A) (A) (A) (A) (A) (A) (A) (A) (A) (A)
                 (A) (A) (A) (A) (A) (A) (A) (A) (A) (A) (A) (A)
                 (A) (A) (A) (A) (A) (A) (A) (A) (A) (A) (A) (A)
                 (A) (A) (A) (A) (A) (A) (A) (A) (A) (A) (A) (A)
                 (A) (A) (A) (A) (A) (A) (A) (A) (A) (A) (A) (A)
                 (A) (A) (A) (A) (A) (A) (A) (A) (A) (A) (A) (A)
                 (A) (A) (A) (A) (A) (A) (A) (A) (A) (A) (A) (A)
                 (A) (A) (A) (A) (A) (A) (A) (A) (A) (A) (A) (A)
                 (A) (A) (A) (A) (A) (A) (A) (A) (A) (A) (A) (A)
                 (A) (A) (A) (A) (A) (A) (A) (A) (A) (A) (A) (A)
                 (A) (A) (A) (A) (A) (A) (A) (A) (A) (A) (A) (A)
                 (A) (A) (A) (A) (A) (A) (A) (A) (A) (A) (A) (A)
                 (A) (A) (A) (A) (A) (A) (A) (A) (A) (A) (A) (A)
                 (A) (A) (A) (A) (A) (A) (A) (A) (A) (A) (A) (A)
                 (A) (A) (A) (A) (A) (A) (A) (A) (A) (A) (A) (A)
                 (A) (A) (A) (A) (A) (A) (A) (A) (A) (A) (A) (A)
                 (A) (A) (A) (A) (A) (A) (A) (A) (A) (A) (A) (A)
                 (A) (A) (A) (A) (A) (A) (A) (A) (A) (A) (A) (A)
                 (A) (A) (A) (A) (A) (A) (A) (A) (A) (A) (A) (A)
                 (A) (A) (A) (A) (A) (A) (A) (A) (A) (A) (A) (A)
                 (A) (A) (A) (A) (A) (A) (A) (A) (A) (A) (A) (A)
                 (A) (A) (A) (A) (A) (A) (A) (A) (A) (A) (A) (A)
                 (A) (A) (A) (A) (A) (A) (A) (A) (A) (A) (A) (A)
                 (A) (A) (A) (A) (A) (A) (A) (A) (A) (A) (A) (A)
                 (A) (A) (A) (A) (A) (A) (A) (A) (A) (A) (A) (A)
                 (A) (A) (A) (A) (A) (A) (A) (A) (A) (A) (A) (A)
                 (A) (A) (A) (A) (A) (A) (A) (A) (A) (A) (A) (A)
                 (A) (A) (A) (A) (A) (A) (A) (A) (A) (A)
 The electronic state is 1-A.
 Alpha  occ. eigenvalues --  -19.19965 -19.16672 -19.15791 -19.12453 -19.12445
 Alpha  occ. eigenvalues --  -10.27294 -10.27042 -10.27027 -10.26247 -10.25868
 Alpha  occ. eigenvalues --  -10.25820 -10.25144 -10.21268 -10.20826 -10.20750
 Alpha  occ. eigenvalues --  -10.20527 -10.20199 -10.19492 -10.19487 -10.19445
 Alpha  occ. eigenvalues --  -10.19343 -10.18886 -10.18848 -10.18720 -10.18630
 Alpha  occ. eigenvalues --  -10.18385 -10.18242 -10.18216 -10.17196 -10.16612
 Alpha  occ. eigenvalues --  -10.16010  -1.09306  -1.05876  -1.03114  -1.02446
 Alpha  occ. eigenvalues --   -1.01973  -0.86817  -0.83812  -0.82411  -0.81467
 Alpha  occ. eigenvalues --   -0.80309  -0.79339  -0.76818  -0.74302  -0.73280
 Alpha  occ. eigenvalues --   -0.71963  -0.71433  -0.70271  -0.69468  -0.67927
 Alpha  occ. eigenvalues --   -0.65112  -0.64113  -0.63181  -0.61692  -0.60744
 Alpha  occ. eigenvalues --   -0.59443  -0.58891  -0.56953  -0.55095  -0.53496
 Alpha  occ. eigenvalues --   -0.52624  -0.52287  -0.50628  -0.50373  -0.49275
 Alpha  occ. eigenvalues --   -0.48432  -0.48040  -0.46760  -0.46381  -0.45898
 Alpha  occ. eigenvalues --   -0.45322  -0.44453  -0.43788  -0.43511  -0.43344
 Alpha  occ. eigenvalues --   -0.42215  -0.42090  -0.41903  -0.41517  -0.41455
 Alpha  occ. eigenvalues --   -0.40991  -0.40764  -0.40680  -0.40302  -0.40092
 Alpha  occ. eigenvalues --   -0.39410  -0.39171  -0.38533  -0.38200  -0.37879
 Alpha  occ. eigenvalues --   -0.37694  -0.37626  -0.37408  -0.37068  -0.36621
 Alpha  occ. eigenvalues --   -0.36466  -0.35348  -0.35102  -0.34490  -0.34381
 Alpha  occ. eigenvalues --   -0.33807  -0.33551  -0.33073  -0.32781  -0.32068
 Alpha  occ. eigenvalues --   -0.31620  -0.31105  -0.30823  -0.28114  -0.26745
 Alpha  occ. eigenvalues --   -0.26245  -0.24922  -0.24116  -0.23492  -0.22401
 Alpha virt. eigenvalues --   -0.04616  -0.01059   0.00340   0.02077   0.05480
 Alpha virt. eigenvalues --    0.06476   0.07538   0.08905   0.09001   0.10134
 Alpha virt. eigenvalues --    0.10533   0.10873   0.11481   0.11858   0.12618
 Alpha virt. eigenvalues --    0.12855   0.13209   0.13442   0.13770   0.13938
 Alpha virt. eigenvalues --    0.14230   0.14556   0.14855   0.15168   0.15892
 Alpha virt. eigenvalues --    0.16222   0.16729   0.16849   0.17132   0.17288
 Alpha virt. eigenvalues --    0.17550   0.17848   0.18079   0.18477   0.18708
 Alpha virt. eigenvalues --    0.19116   0.19704   0.19814   0.19985   0.20307
 Alpha virt. eigenvalues --    0.20522   0.20971   0.21494   0.21844   0.22152
 Alpha virt. eigenvalues --    0.22464   0.22940   0.23727   0.23766   0.24317
 Alpha virt. eigenvalues --    0.24842   0.25534   0.25876   0.26539   0.26921
 Alpha virt. eigenvalues --    0.27101   0.27396   0.28210   0.28289   0.29352
 Alpha virt. eigenvalues --    0.29620   0.31573   0.32325   0.32801   0.33817
 Alpha virt. eigenvalues --    0.34014   0.36089   0.37594   0.38994   0.39711
 Alpha virt. eigenvalues --    0.41365   0.45426   0.46024   0.48071   0.48623
 Alpha virt. eigenvalues --    0.49196   0.49815   0.50320   0.51168   0.51359
 Alpha virt. eigenvalues --    0.51674   0.51923   0.52338   0.53278   0.53508
 Alpha virt. eigenvalues --    0.53707   0.53926   0.54686   0.55207   0.56770
 Alpha virt. eigenvalues --    0.57139   0.57254   0.57505   0.58390   0.58649
 Alpha virt. eigenvalues --    0.59675   0.60009   0.60755   0.60845   0.61512
 Alpha virt. eigenvalues --    0.61914   0.62654   0.63101   0.64651   0.64988
 Alpha virt. eigenvalues --    0.65319   0.66053   0.66352   0.66423   0.67360
 Alpha virt. eigenvalues --    0.67838   0.68108   0.68469   0.69325   0.69617
 Alpha virt. eigenvalues --    0.69750   0.71139   0.71642   0.72164   0.72945
 Alpha virt. eigenvalues --    0.74567   0.74704   0.75063   0.75675   0.76450
 Alpha virt. eigenvalues --    0.77300   0.77463   0.78765   0.79210   0.79533
 Alpha virt. eigenvalues --    0.79940   0.80517   0.81338   0.82068   0.82814
 Alpha virt. eigenvalues --    0.82918   0.83528   0.84011   0.84452   0.84774
 Alpha virt. eigenvalues --    0.85450   0.86048   0.86359   0.86662   0.87308
 Alpha virt. eigenvalues --    0.87620   0.87934   0.88173   0.88516   0.88800
 Alpha virt. eigenvalues --    0.89298   0.89934   0.90197   0.90489   0.90733
 Alpha virt. eigenvalues --    0.91161   0.91446   0.91766   0.92388   0.92558
 Alpha virt. eigenvalues --    0.92651   0.93316   0.93833   0.94401   0.94594
 Alpha virt. eigenvalues --    0.95131   0.95594   0.96106   0.96320   0.96581
 Alpha virt. eigenvalues --    0.97337   0.97595   0.98144   0.98924   0.99440
 Alpha virt. eigenvalues --    0.99825   1.01077   1.01954   1.02610   1.03194
 Alpha virt. eigenvalues --    1.04132   1.04496   1.06634   1.06825   1.07629
 Alpha virt. eigenvalues --    1.08837   1.10648   1.11659   1.12006   1.13009
 Alpha virt. eigenvalues --    1.14442   1.14871   1.15950   1.16470   1.16851
 Alpha virt. eigenvalues --    1.17779   1.17985   1.18607   1.19293   1.21015
 Alpha virt. eigenvalues --    1.22922   1.23760   1.25173   1.25217   1.27058
 Alpha virt. eigenvalues --    1.27731   1.28788   1.29087   1.32090   1.32296
 Alpha virt. eigenvalues --    1.34372   1.36404   1.38269   1.38876   1.40438
 Alpha virt. eigenvalues --    1.40507   1.41904   1.43426   1.44982   1.46501
 Alpha virt. eigenvalues --    1.48483   1.48993   1.50073   1.50331   1.52654
 Alpha virt. eigenvalues --    1.53674   1.54372   1.55317   1.57588   1.57972
 Alpha virt. eigenvalues --    1.58853   1.60537   1.61337   1.62523   1.63613
 Alpha virt. eigenvalues --    1.63862   1.64731   1.65824   1.67429   1.68288
 Alpha virt. eigenvalues --    1.70271   1.71057   1.72322   1.72709   1.73626
 Alpha virt. eigenvalues --    1.74517   1.75648   1.75904   1.76928   1.77666
 Alpha virt. eigenvalues --    1.78694   1.79814   1.80246   1.81064   1.81136
 Alpha virt. eigenvalues --    1.82575   1.83518   1.84151   1.84781   1.85841
 Alpha virt. eigenvalues --    1.85858   1.86545   1.86733   1.87505   1.88364
 Alpha virt. eigenvalues --    1.88721   1.89244   1.89979   1.90300   1.91467
 Alpha virt. eigenvalues --    1.91879   1.91952   1.92390   1.93040   1.94512
 Alpha virt. eigenvalues --    1.95142   1.95630   1.96093   1.97620   1.98534
 Alpha virt. eigenvalues --    1.99031   1.99406   1.99719   2.00411   2.01847
 Alpha virt. eigenvalues --    2.01948   2.03270   2.03823   2.03914   2.05368
 Alpha virt. eigenvalues --    2.05996   2.06813   2.08198   2.08750   2.09333
 Alpha virt. eigenvalues --    2.10450   2.10601   2.11616   2.12196   2.13891
 Alpha virt. eigenvalues --    2.14859   2.15585   2.16460   2.16789   2.17632
 Alpha virt. eigenvalues --    2.18036   2.19264   2.19654   2.21219   2.22372
 Alpha virt. eigenvalues --    2.23616   2.24416   2.25341   2.26264   2.26439
 Alpha virt. eigenvalues --    2.28268   2.28484   2.29671   2.30002   2.30196
 Alpha virt. eigenvalues --    2.32482   2.33321   2.33416   2.34256   2.34716
 Alpha virt. eigenvalues --    2.35379   2.36964   2.37894   2.38612   2.38877
 Alpha virt. eigenvalues --    2.40053   2.40606   2.40997   2.41939   2.42740
 Alpha virt. eigenvalues --    2.43453   2.44547   2.46510   2.46683   2.48432
 Alpha virt. eigenvalues --    2.49277   2.50070   2.51350   2.52066   2.54038
 Alpha virt. eigenvalues --    2.55372   2.56589   2.57216   2.59036   2.59740
 Alpha virt. eigenvalues --    2.61223   2.61699   2.62668   2.64147   2.66231
 Alpha virt. eigenvalues --    2.66414   2.68239   2.69129   2.70473   2.71350
 Alpha virt. eigenvalues --    2.71855   2.72671   2.74030   2.75622   2.76150
 Alpha virt. eigenvalues --    2.78049   2.78831   2.79865   2.83153   2.85633
 Alpha virt. eigenvalues --    2.86610   2.88957   2.90841   2.94755   2.95954
 Alpha virt. eigenvalues --    2.97088   2.99963   3.00865   3.01573   3.02835
 Alpha virt. eigenvalues --    3.05017   3.06667   3.12189   3.17966   3.21653
 Alpha virt. eigenvalues --    3.25331   3.27861   4.03803   4.06455   4.11266
 Alpha virt. eigenvalues --    4.12470   4.13404   4.15585   4.18813   4.20678
 Alpha virt. eigenvalues --    4.22841   4.24514   4.25650   4.28213   4.30364
 Alpha virt. eigenvalues --    4.31325   4.33806   4.37237   4.38202   4.44206
 Alpha virt. eigenvalues --    4.44939   4.48109   4.52989   4.56752   4.59784
 Alpha virt. eigenvalues --    4.64676   4.66644   4.69933   4.75258   4.82270
 Alpha virt. eigenvalues --    4.88962   5.01197   5.15023
          Condensed to atoms (all electrons):
 Mulliken atomic charges:
              1
     1  C   -0.187149
     2  C    0.190847
     3  C   -0.187705
     4  C    0.323257
     5  C   -0.058806
     6  C   -0.334057
     7  C    0.205331
     8  C    0.386902
     9  C   -0.089263
    10  C    0.435525
    11  C    0.423077
    12  O   -0.445286
    13  C   -0.134879
    14  C   -0.249286
    15  C   -0.457056
    16  O   -0.495489
    17  C   -0.164492
    18  C    0.305620
    19  O   -0.533672
    20  C   -0.320832
    21  O   -0.656289
    22  C   -0.326865
    23  C    0.096102
    24  O   -0.592153
    25  C    0.179645
    26  C   -0.508472
    27  C   -0.392028
    28  C   -0.468237
    29  C   -0.459888
    30  H    0.144714
    31  H    0.164865
    32  C   -0.519642
    33  H    0.122855
    34  H    0.145893
    35  H    0.187255
    36  H    0.120448
    37  H    0.157138
    38  H    0.125155
    39  H    0.136802
    40  H    0.152760
    41  H    0.165429
    42  H    0.151730
    43  H    0.160478
    44  H    0.414838
    45  H    0.169272
    46  H    0.175815
    47  H    0.138732
    48  H    0.156618
    49  H    0.170130
    50  H    0.154743
    51  H    0.156371
    52  H    0.142736
    53  H    0.195904
    54  H    0.157198
    55  H    0.143327
    56  H    0.152300
    57  H    0.164528
    58  H    0.160061
    59  H    0.158509
    60  H    0.154824
    61  H    0.150913
    62  C   -0.469535
    63  H    0.182184
    64  H    0.129487
    65  H    0.140763
 Sum of Mulliken atomic charges =   0.00000
 Mulliken charges with hydrogens summed into heavy atoms:
              1
     1  C   -0.064294
     2  C    0.190847
     3  C   -0.022840
     4  C    0.323257
     5  C   -0.058806
     6  C   -0.000908
     7  C    0.205331
     8  C    0.386902
     9  C   -0.089263
    10  C    0.435525
    11  C    0.423077
    12  O   -0.445286
    13  C   -0.014430
    14  C    0.033007
    15  C   -0.002065
    16  O   -0.495489
    17  C   -0.019778
    18  C    0.305620
    19  O   -0.533672
    20  C   -0.008624
    21  O   -0.241450
    22  C    0.018221
    23  C    0.234834
    24  O   -0.592153
    25  C    0.179645
    26  C   -0.026981
    27  C   -0.092921
    28  C    0.028192
    29  C    0.017000
    32  C   -0.055397
    62  C   -0.017101
 Sum of Mulliken charges with hydrogens summed into heavy atoms =   0.00000
 Electronic spatial extent (au):  <R**2>=          11163.0572
 Charge=              0.0000 electrons
 Dipole moment (field-independent basis, Debye):
    X=             -3.3944    Y=              3.9270    Z=              4.9108  Tot=              7.1455
 Quadrupole moment (field-independent basis, Debye-Ang):
   XX=           -177.2214   YY=           -182.8528   ZZ=           -188.9956
   XY=              7.5773   XZ=             11.0791   YZ=             -2.6025
 Traceless Quadrupole moment (field-independent basis, Debye-Ang):
   XX=              5.8019   YY=              0.1705   ZZ=             -5.9723
   XY=              7.5773   XZ=             11.0791   YZ=             -2.6025
 Octapole moment (field-independent basis, Debye-Ang**2):
  XXX=            -34.8753  YYY=             50.3282  ZZZ=             17.8142  XYY=            -10.3908
  XXY=             12.0055  XXZ=             -6.9658  XZZ=            -29.8398  YZZ=             17.1804
  YYZ=             25.5112  XYZ=            -11.6697
 Hexadecapole moment (field-independent basis, Debye-Ang**3):
 XXXX=          -7746.3033 YYYY=          -3770.9370 ZZZZ=          -3136.1251 XXXY=            -49.2418
 XXXZ=             81.1329 YYYX=             42.9753 YYYZ=            -10.0282 ZZZX=             71.6270
 ZZZY=            -18.3841 XXYY=          -1962.6954 XXZZ=          -1885.5870 YYZZ=          -1177.6902
 XXYZ=            -36.2777 YYXZ=             10.1087 ZZXY=             19.0370
 N-N= 3.529926176853D+03 E-N=-1.028594086295D+04  KE= 1.374448115679D+03
 1\1\GINC-B0606\FOpt\RB3LYP\6-31G(d)\C26H34O5\CAOFEI\24-Mar-2021\0\\# o
 pt rb3lyp/6-31g(d) geom=connectivity\\Title Card Required\\0,1\C,0.108
 4098299,-0.0123517595,0.3959271124\C,1.4462186769,0.0034154896,0.37837
 62207\C,2.2164467032,1.294893094,0.2038548271\C,1.3766400018,2.5349689
 283,-0.2369501719\C,-0.1204929408,2.3326514897,-0.5916887618\C,-0.7573
 613925,1.2092567249,0.2594947953\C,2.1977385298,3.163000899,-1.3945326
 245\C,1.8215440791,2.6195239326,-2.7547515448\C,0.5821118701,2.2193476
 672,-3.1237646646\C,-0.4550225437,2.0618626747,-2.0885577419\C,0.22516
 09812,1.892725373,-4.5538041368\O,-0.7248385295,2.4412251824,-5.079755
 934\C,1.0517303693,0.8522050184,-5.3226665073\C,0.1347757859,-0.323091
 5266,-5.7293819763\C,1.6897889749,1.5139186729,-6.5567595695\O,-1.5821
 566162,1.6725776569,-2.3641124755\C,3.643199621,2.627541653,-1.3080469
 166\C,4.1499542073,2.7724380585,-2.7637185817\O,2.9005047133,2.5848655
 623,-3.5561276598\C,3.4094461363,1.1937629949,-0.7923687587\O,2.070072
 3299,4.5713892315,-1.4431343544\C,-0.7205093947,3.7106095465,-0.204209
 4607\C,0.0633675264,4.0778530939,1.0534704792\O,1.3869848496,3.4995565
 801,0.8456885901\C,0.2322230217,5.5390671938,1.4177421202\C,1.07097892
 74,5.7888956062,2.6484563423\C,-0.3428736671,6.5319886213,0.7321558343
 \C,4.687629626,4.1715088366,-3.0710263889\C,5.1230012956,1.69881735,-3
 .2435677431\H,4.2500434029,3.2134942436,-0.6108926451\H,2.6309799662,1
 .5775441127,1.1823816184\C,2.260217627,-1.2468994382,0.6045279163\H,-0
 .405288874,-0.9587518324,0.5604531531\H,-0.9943295154,1.5914508652,1.2
 63599521\H,-1.7149177738,0.9555194761,-0.2038317259\H,1.8465412813,0.4
 729256495,-4.6693892777\H,-0.6794785372,0.0793679823,-6.3439369343\H,0
 .7152561405,-0.9992516002,-6.3717304862\H,2.2479446823,0.7741020485,-7
 .1421426064\H,2.3808738608,2.3110895452,-6.264445344\H,0.9132456798,1.
 9482062331,-7.1945419313\H,4.2998103171,0.7619174834,-0.3263987419\H,3
 .1309190321,0.5358143672,-1.6233440152\H,2.0011541555,4.8411406058,-0.
 5057780397\H,-1.7987892127,3.6490404279,-0.0343497424\H,-0.5327553504,
 4.4357665484,-1.0008209852\H,-0.370254943,3.5662605127,1.9265106854\H,
 0.6201921656,5.31424913,3.5310224351\H,2.0713725856,5.3549591837,2.537
 5375871\H,1.1743382733,6.8586388511,2.852750161\H,-0.9615966669,6.3626
 219838,-0.1430224312\H,-0.2189559731,7.5677304496,1.0385407293\H,3.986
 398714,4.939056774,-2.7392994651\H,4.8533068337,4.2780289965,-4.148101
 3924\H,5.646105582,4.3234507285,-2.5613657976\H,6.0577207909,1.7646887
 414,-2.6758342005\H,5.3565959012,1.8500898369,-4.3022179543\H,4.715828
 5922,0.6919820706,-3.1249313559\H,1.6137641932,-2.1097486281,0.7919135
 243\H,2.8988514966,-1.4875283216,-0.2553907519\H,2.9298915445,-1.13256
 0797,1.4690904643\C,-0.4479764142,-1.1058298269,-4.5471085631\H,-1.090
 6954324,-0.4734833459,-3.9246968178\H,0.3464787524,-1.5129030445,-3.90
 80928683\H,-1.0527658501,-1.9490038589,-4.9000040705\\Version=EM64L-G0
 9RevB.01\State=1-A\HF=-1387.3181744\RMSD=5.629e-09\RMSF=4.608e-06\Dipo
 le=2.1656728,-0.1443457,1.7866977\Quadrupole=-1.2427305,3.6111703,-2.3
 684399,-2.228788,-9.2450562,4.6865017\PG=C01 [X(C26H34O5)]\\@


 SOME PEOPLE TRY TO PULL THE WOOL OVER YOUR EYES
 USING THE WRONG YARN.
 Job cpu time:  0 days  4 hours 26 minutes 23.5 seconds.
 File lengths (MBytes):  RWF=    186 Int=      0 D2E=      0 Chk=     20 Scr=      1
 Normal termination of Gaussian 09 at Wed Mar 24 16:00:54 2021.
