 Entering Gaussian System, Link 0=g09
 Initial command:
 /public/software/g09/g09/l1.exe /tmp/Gau-12038.inp -scrdir=/tmp/
 Entering Link 1 = /public/software/g09/g09/l1.exe PID=     12039.
  
 Copyright (c) 1988,1990,1992,1993,1995,1998,2003,2009,2010,
            Gaussian, Inc.  All Rights Reserved.
  
 This is part of the Gaussian(R) 09 program.  It is based on
 the Gaussian(R) 03 system (copyright 2003, Gaussian, Inc.),
 the Gaussian(R) 98 system (copyright 1998, Gaussian, Inc.),
 the Gaussian(R) 94 system (copyright 1995, Gaussian, Inc.),
 the Gaussian 92(TM) system (copyright 1992, Gaussian, Inc.),
 the Gaussian 90(TM) system (copyright 1990, Gaussian, Inc.),
 the Gaussian 88(TM) system (copyright 1988, Gaussian, Inc.),
 the Gaussian 86(TM) system (copyright 1986, Carnegie Mellon
 University), and the Gaussian 82(TM) system (copyright 1983,
 Carnegie Mellon University). Gaussian is a federally registered
 trademark of Gaussian, Inc.
  
 This software contains proprietary and confidential information,
 including trade secrets, belonging to Gaussian, Inc.
  
 This software is provided under written license and may be
 used, copied, transmitted, or stored only in accord with that
 written license.
  
 The following legend is applicable only to US Government
 contracts under FAR:
  
                    RESTRICTED RIGHTS LEGEND
  
 Use, reproduction and disclosure by the US Government is
 subject to restrictions as set forth in subparagraphs (a)
 and (c) of the Commercial Computer Software - Restricted
 Rights clause in FAR 52.227-19.
  
 Gaussian, Inc.
 340 Quinnipiac St., Bldg. 40, Wallingford CT 06492
  
  
 ---------------------------------------------------------------
 Warning -- This program may not be used in any manner that
 competes with the business of Gaussian, Inc. or will provide
 assistance to any competitor of Gaussian, Inc.  The licensee
 of this program is prohibited from giving any competitor of
 Gaussian, Inc. access to this program.  By using this program,
 the user acknowledges that Gaussian, Inc. is engaged in the
 business of creating and licensing software in the field of
 computational chemistry and represents and warrants to the
 licensee that it is not a competitor of Gaussian, Inc. and that
 it will not use this program in any manner prohibited above.
 ---------------------------------------------------------------
  

 Cite this work as:
 Gaussian 09, Revision B.01,
 M. J. Frisch, G. W. Trucks, H. B. Schlegel, G. E. Scuseria, 
 M. A. Robb, J. R. Cheeseman, G. Scalmani, V. Barone, B. Mennucci, 
 G. A. Petersson, H. Nakatsuji, M. Caricato, X. Li, H. P. Hratchian, 
 A. F. Izmaylov, J. Bloino, G. Zheng, J. L. Sonnenberg, M. Hada, 
 M. Ehara, K. Toyota, R. Fukuda, J. Hasegawa, M. Ishida, T. Nakajima, 
 Y. Honda, O. Kitao, H. Nakai, T. Vreven, J. A. Montgomery, Jr., 
 J. E. Peralta, F. Ogliaro, M. Bearpark, J. J. Heyd, E. Brothers, 
 K. N. Kudin, V. N. Staroverov, T. Keith, R. Kobayashi, J. Normand, 
 K. Raghavachari, A. Rendell, J. C. Burant, S. S. Iyengar, J. Tomasi, 
 M. Cossi, N. Rega, J. M. Millam, M. Klene, J. E. Knox, J. B. Cross, 
 V. Bakken, C. Adamo, J. Jaramillo, R. Gomperts, R. E. Stratmann, 
 O. Yazyev, A. J. Austin, R. Cammi, C. Pomelli, J. W. Ochterski, 
 R. L. Martin, K. Morokuma, V. G. Zakrzewski, G. A. Voth, 
 P. Salvador, J. J. Dannenberg, S. Dapprich, A. D. Daniels, 
 O. Farkas, J. B. Foresman, J. V. Ortiz, J. Cioslowski, 
 and D. J. Fox, Gaussian, Inc., Wallingford CT, 2010.
 
 ******************************************
 Gaussian 09:  EM64L-G09RevB.01 12-Aug-2010
                24-Mar-2021 
 ******************************************
 %mem=600MW
 %nprocshared=10
 Will use up to   10 processors via shared memory.
 ---------------------------------------
 # opt rb3lyp/6-31g(d) geom=connectivity
 ---------------------------------------
 1/14=-1,18=20,19=15,26=3,38=1,57=2/1,3;
 2/9=110,12=2,17=6,18=5,40=1/2;
 3/5=1,6=6,7=1,11=2,16=1,25=1,30=1,71=1,74=-5,116=1/1,2,3;
 4//1;
 5/5=2,38=5/2;
 6/7=2,8=2,9=2,10=2,28=1/1;
 7//1,2,3,16;
 1/14=-1,18=20,19=15/3(2);
 2/9=110/2;
 99//99;
 2/9=110/2;
 3/5=1,6=6,7=1,11=2,16=1,25=1,30=1,71=1,74=-5,116=1/1,2,3;
 4/5=5,16=3/1;
 5/5=2,38=5/2;
 7//1,2,3,16;
 1/14=-1,18=20,19=15/3(-5);
 2/9=110/2;
 6/7=2,8=2,9=2,10=2,19=2,28=1/1;
 99/9=1/99;
 -------------------
 Title Card Required
 -------------------
 Symbolic Z-matrix:
 Charge =  0 Multiplicity = 1
 C                     0.        0.        0. 
 C                     1.3411    0.        0. 
 C                     2.136     1.2839    0. 
 C                     1.3391    2.5841   -0.3082 
 C                    -0.1631    2.4691   -0.6205 
 C                    -0.8344    1.2384    0.0222 
 C                     2.1289    3.2738   -1.4396 
 C                     1.7443    2.8699   -2.8213 
 C                     0.5117    2.47     -3.1465 
 C                    -0.5406    2.4957   -2.1096 
 C                     0.2294    1.9773   -4.5124 
 O                     0.0062    0.7793   -4.6821 
 C                     0.1889    3.005    -5.6396 
 C                     1.1536    2.632    -6.7778 
 C                    -1.254     3.205    -6.0925 
 O                    -1.7214    2.5676   -2.4581 
 C                     3.5401    2.7296   -1.404 
 C                     4.0162    2.9304   -2.8585 
 O                     2.8328    2.7671   -3.6827 
 C                     3.3075    1.2648   -0.999 
 O                     2.078     4.6865   -1.347 
 C                    -0.7115    3.7505    0.0141 
 C                     0.1548    3.9204    1.2517 
 O                     1.4574    3.4475    0.8678 
 C                     0.2131    5.3343    1.7884 
 C                    -1.1154    5.9613    2.1216 
 C                     1.3539    6.0094    2.0151 
 C                     4.5846    4.3361   -3.1116 
 C                     5.0622    1.9044   -3.3088 
 H                     4.1848    3.24     -0.6794 
 H                     2.5745    1.3764    1.0047 
 C                     2.1092   -1.2924    0.0923 
 H                    -0.5426   -0.943     0.0455 
 H                    -1.1016    1.4258    1.0694 
 H                    -1.7832    1.0137   -0.4816 
 H                     0.5397    3.9623   -5.2316 
 H                     1.3366    3.5282   -7.3841 
 H                     2.1229    2.34     -6.3559 
 H                    -1.3085    3.9164   -6.9228 
 H                    -1.8623    3.5995   -5.271 
 H                    -1.7174    2.2645   -6.4089 
 H                     3.0504    0.6421   -1.8645 
 H                     4.2115    0.8355   -0.5522 
 H                     2.1411    4.8923   -0.3931 
 H                    -0.5879    4.6034   -0.667 
 H                    -1.7781    3.6901    0.2596 
 H                    -0.1949    3.264     2.0577 
 H                    -1.6783    5.3163    2.8043 
 H                    -1.0017    6.9358    2.6086 
 H                    -1.709     6.1136    1.2148 
 H                     1.3455    7.018     2.4178 
 H                     2.3295    5.5735    1.8269 
 H                     4.9048    4.4394   -4.1553 
 H                     5.4457    4.5384   -2.4666 
 H                     3.8417    5.1233   -2.9585 
 H                     4.6572    0.8882   -3.3383 
 H                     5.3926    2.1127   -4.3334 
 H                     5.9404    1.9172   -2.6553 
 H                     1.4493   -2.1534    0.2439 
 H                     2.6794   -1.4735   -0.8236 
 H                     2.8045   -1.2599    0.9375 
 C                     0.682     1.5262   -7.7135 
 H                     1.4538    1.3216   -8.4631 
 H                     0.4871    0.594    -7.1773 
 H                    -0.226     1.8156   -8.2509 
 

 GradGradGradGradGradGradGradGradGradGradGradGradGradGradGradGradGradGrad
 Berny optimization.
 Initialization pass.
                           ----------------------------
                           !    Initial Parameters    !
                           ! (Angstroms and Degrees)  !
 --------------------------                            --------------------------
 ! Name  Definition              Value          Derivative Info.                !
 --------------------------------------------------------------------------------
 ! R1    R(1,2)                  1.3411         estimate D2E/DX2                !
 ! R2    R(1,6)                  1.4934         estimate D2E/DX2                !
 ! R3    R(1,33)                 1.0889         estimate D2E/DX2                !
 ! R4    R(2,3)                  1.5101         estimate D2E/DX2                !
 ! R5    R(2,32)                 1.5063         estimate D2E/DX2                !
 ! R6    R(3,4)                  1.5558         estimate D2E/DX2                !
 ! R7    R(3,20)                 1.5397         estimate D2E/DX2                !
 ! R8    R(3,31)                 1.1001         estimate D2E/DX2                !
 ! R9    R(4,5)                  1.5386         estimate D2E/DX2                !
 ! R10   R(4,7)                  1.5426         estimate D2E/DX2                !
 ! R11   R(4,24)                 1.4637         estimate D2E/DX2                !
 ! R12   R(5,6)                  1.5422         estimate D2E/DX2                !
 ! R13   R(5,10)                 1.5364         estimate D2E/DX2                !
 ! R14   R(5,22)                 1.5315         estimate D2E/DX2                !
 ! R15   R(6,34)                 1.0969         estimate D2E/DX2                !
 ! R16   R(6,35)                 1.0975         estimate D2E/DX2                !
 ! R17   R(7,8)                  1.49           estimate D2E/DX2                !
 ! R18   R(7,17)                 1.5129         estimate D2E/DX2                !
 ! R19   R(7,21)                 1.4166         estimate D2E/DX2                !
 ! R20   R(8,9)                  1.336          estimate D2E/DX2                !
 ! R21   R(8,19)                 1.3919         estimate D2E/DX2                !
 ! R22   R(9,10)                 1.4776         estimate D2E/DX2                !
 ! R23   R(9,11)                 1.4792         estimate D2E/DX2                !
 ! R24   R(10,16)                1.2333         estimate D2E/DX2                !
 ! R25   R(11,12)                1.2304         estimate D2E/DX2                !
 ! R26   R(11,13)                1.5259         estimate D2E/DX2                !
 ! R27   R(13,14)                1.5379         estimate D2E/DX2                !
 ! R28   R(13,15)                1.5255         estimate D2E/DX2                !
 ! R29   R(13,36)                1.0982         estimate D2E/DX2                !
 ! R30   R(14,37)                1.0974         estimate D2E/DX2                !
 ! R31   R(14,38)                1.0967         estimate D2E/DX2                !
 ! R32   R(14,62)                1.5234         estimate D2E/DX2                !
 ! R33   R(15,39)                1.0947         estimate D2E/DX2                !
 ! R34   R(15,40)                1.0957         estimate D2E/DX2                !
 ! R35   R(15,41)                1.0952         estimate D2E/DX2                !
 ! R36   R(17,18)                1.5436         estimate D2E/DX2                !
 ! R37   R(17,20)                1.5375         estimate D2E/DX2                !
 ! R38   R(17,30)                1.096          estimate D2E/DX2                !
 ! R39   R(18,19)                1.4513         estimate D2E/DX2                !
 ! R40   R(18,28)                1.5372         estimate D2E/DX2                !
 ! R41   R(18,29)                1.5328         estimate D2E/DX2                !
 ! R42   R(20,42)                1.0968         estimate D2E/DX2                !
 ! R43   R(20,43)                1.096          estimate D2E/DX2                !
 ! R44   R(21,44)                0.9779         estimate D2E/DX2                !
 ! R45   R(22,23)                1.5202         estimate D2E/DX2                !
 ! R46   R(22,45)                1.0985         estimate D2E/DX2                !
 ! R47   R(22,46)                1.0962         estimate D2E/DX2                !
 ! R48   R(23,24)                1.438          estimate D2E/DX2                !
 ! R49   R(23,25)                1.5135         estimate D2E/DX2                !
 ! R50   R(23,47)                1.0967         estimate D2E/DX2                !
 ! R51   R(25,26)                1.5063         estimate D2E/DX2                !
 ! R52   R(25,27)                1.3448         estimate D2E/DX2                !
 ! R53   R(26,48)                1.095          estimate D2E/DX2                !
 ! R54   R(26,49)                1.0953         estimate D2E/DX2                !
 ! R55   R(26,50)                1.0945         estimate D2E/DX2                !
 ! R56   R(27,51)                1.0861         estimate D2E/DX2                !
 ! R57   R(27,52)                1.085          estimate D2E/DX2                !
 ! R58   R(28,53)                1.0966         estimate D2E/DX2                !
 ! R59   R(28,54)                1.0947         estimate D2E/DX2                !
 ! R60   R(28,55)                1.0932         estimate D2E/DX2                !
 ! R61   R(29,56)                1.0943         estimate D2E/DX2                !
 ! R62   R(29,57)                1.0965         estimate D2E/DX2                !
 ! R63   R(29,58)                1.0947         estimate D2E/DX2                !
 ! R64   R(32,59)                1.0953         estimate D2E/DX2                !
 ! R65   R(32,60)                1.094          estimate D2E/DX2                !
 ! R66   R(32,61)                1.0949         estimate D2E/DX2                !
 ! R67   R(62,63)                1.0952         estimate D2E/DX2                !
 ! R68   R(62,64)                1.0929         estimate D2E/DX2                !
 ! R69   R(62,65)                1.0941         estimate D2E/DX2                !
 ! A1    A(2,1,6)              123.9667         estimate D2E/DX2                !
 ! A2    A(2,1,33)             119.8872         estimate D2E/DX2                !
 ! A3    A(6,1,33)             116.0457         estimate D2E/DX2                !
 ! A4    A(1,2,3)              121.7629         estimate D2E/DX2                !
 ! A5    A(1,2,32)             120.6599         estimate D2E/DX2                !
 ! A6    A(3,2,32)             117.4572         estimate D2E/DX2                !
 ! A7    A(2,3,4)              116.1623         estimate D2E/DX2                !
 ! A8    A(2,3,20)             112.9524         estimate D2E/DX2                !
 ! A9    A(2,3,31)             106.3384         estimate D2E/DX2                !
 ! A10   A(4,3,20)             105.7566         estimate D2E/DX2                !
 ! A11   A(4,3,31)             108.3493         estimate D2E/DX2                !
 ! A12   A(20,3,31)            106.8767         estimate D2E/DX2                !
 ! A13   A(3,4,5)              118.5437         estimate D2E/DX2                !
 ! A14   A(3,4,7)              104.874          estimate D2E/DX2                !
 ! A15   A(3,4,24)             107.0019         estimate D2E/DX2                !
 ! A16   A(5,4,7)              112.6082         estimate D2E/DX2                !
 ! A17   A(5,4,24)             106.6231         estimate D2E/DX2                !
 ! A18   A(7,4,24)             106.5089         estimate D2E/DX2                !
 ! A19   A(4,5,6)              113.581          estimate D2E/DX2                !
 ! A20   A(4,5,10)             115.8049         estimate D2E/DX2                !
 ! A21   A(4,5,22)             101.7103         estimate D2E/DX2                !
 ! A22   A(6,5,10)             108.1058         estimate D2E/DX2                !
 ! A23   A(6,5,22)             109.8252         estimate D2E/DX2                !
 ! A24   A(10,5,22)            107.4058         estimate D2E/DX2                !
 ! A25   A(1,6,5)              114.3524         estimate D2E/DX2                !
 ! A26   A(1,6,34)             106.9757         estimate D2E/DX2                !
 ! A27   A(1,6,35)             107.8431         estimate D2E/DX2                !
 ! A28   A(5,6,34)             111.5657         estimate D2E/DX2                !
 ! A29   A(5,6,35)             110.389          estimate D2E/DX2                !
 ! A30   A(34,6,35)            105.2265         estimate D2E/DX2                !
 ! A31   A(4,7,8)              115.2631         estimate D2E/DX2                !
 ! A32   A(4,7,17)             107.4272         estimate D2E/DX2                !
 ! A33   A(4,7,21)             112.3043         estimate D2E/DX2                !
 ! A34   A(8,7,17)              99.5019         estimate D2E/DX2                !
 ! A35   A(8,7,21)             108.7631         estimate D2E/DX2                !
 ! A36   A(17,7,21)            112.9967         estimate D2E/DX2                !
 ! A37   A(7,8,9)              123.0237         estimate D2E/DX2                !
 ! A38   A(7,8,19)             113.0816         estimate D2E/DX2                !
 ! A39   A(9,8,19)             123.2804         estimate D2E/DX2                !
 ! A40   A(8,9,10)             118.753          estimate D2E/DX2                !
 ! A41   A(8,9,11)             120.0346         estimate D2E/DX2                !
 ! A42   A(10,9,11)            121.1901         estimate D2E/DX2                !
 ! A43   A(5,10,9)             120.3223         estimate D2E/DX2                !
 ! A44   A(5,10,16)            120.673          estimate D2E/DX2                !
 ! A45   A(9,10,16)            118.9866         estimate D2E/DX2                !
 ! A46   A(9,11,12)            119.0972         estimate D2E/DX2                !
 ! A47   A(9,11,13)            117.5711         estimate D2E/DX2                !
 ! A48   A(12,11,13)           123.3038         estimate D2E/DX2                !
 ! A49   A(11,13,14)           111.5128         estimate D2E/DX2                !
 ! A50   A(11,13,15)           109.434          estimate D2E/DX2                !
 ! A51   A(11,13,36)           107.7089         estimate D2E/DX2                !
 ! A52   A(14,13,15)           113.9153         estimate D2E/DX2                !
 ! A53   A(14,13,36)           106.6192         estimate D2E/DX2                !
 ! A54   A(15,13,36)           107.3475         estimate D2E/DX2                !
 ! A55   A(13,14,37)           108.3864         estimate D2E/DX2                !
 ! A56   A(13,14,38)           109.5274         estimate D2E/DX2                !
 ! A57   A(13,14,62)           115.8767         estimate D2E/DX2                !
 ! A58   A(37,14,38)           106.4148         estimate D2E/DX2                !
 ! A59   A(37,14,62)           107.7625         estimate D2E/DX2                !
 ! A60   A(38,14,62)           108.4589         estimate D2E/DX2                !
 ! A61   A(13,15,39)           110.9444         estimate D2E/DX2                !
 ! A62   A(13,15,40)           110.471          estimate D2E/DX2                !
 ! A63   A(13,15,41)           111.9261         estimate D2E/DX2                !
 ! A64   A(39,15,40)           107.881          estimate D2E/DX2                !
 ! A65   A(39,15,41)           108.5345         estimate D2E/DX2                !
 ! A66   A(40,15,41)           106.9117         estimate D2E/DX2                !
 ! A67   A(7,17,18)            102.6351         estimate D2E/DX2                !
 ! A68   A(7,17,20)            101.9926         estimate D2E/DX2                !
 ! A69   A(7,17,30)            113.3741         estimate D2E/DX2                !
 ! A70   A(18,17,20)           114.7608         estimate D2E/DX2                !
 ! A71   A(18,17,30)           112.394          estimate D2E/DX2                !
 ! A72   A(20,17,30)           111.0097         estimate D2E/DX2                !
 ! A73   A(17,18,19)           105.6039         estimate D2E/DX2                !
 ! A74   A(17,18,28)           112.8395         estimate D2E/DX2                !
 ! A75   A(17,18,29)           113.5924         estimate D2E/DX2                !
 ! A76   A(19,18,28)           108.1121         estimate D2E/DX2                !
 ! A77   A(19,18,29)           108.317          estimate D2E/DX2                !
 ! A78   A(28,18,29)           108.1428         estimate D2E/DX2                !
 ! A79   A(8,19,18)            106.1343         estimate D2E/DX2                !
 ! A80   A(3,20,17)            105.9144         estimate D2E/DX2                !
 ! A81   A(3,20,42)            109.9186         estimate D2E/DX2                !
 ! A82   A(3,20,43)            111.5881         estimate D2E/DX2                !
 ! A83   A(17,20,42)           111.6238         estimate D2E/DX2                !
 ! A84   A(17,20,43)           110.8425         estimate D2E/DX2                !
 ! A85   A(42,20,43)           107.0177         estimate D2E/DX2                !
 ! A86   A(7,21,44)            105.7423         estimate D2E/DX2                !
 ! A87   A(5,22,23)            103.1084         estimate D2E/DX2                !
 ! A88   A(5,22,45)            110.6365         estimate D2E/DX2                !
 ! A89   A(5,22,46)            113.2741         estimate D2E/DX2                !
 ! A90   A(23,22,45)           110.7253         estimate D2E/DX2                !
 ! A91   A(23,22,46)           112.2299         estimate D2E/DX2                !
 ! A92   A(45,22,46)           106.9263         estimate D2E/DX2                !
 ! A93   A(22,23,24)           105.1955         estimate D2E/DX2                !
 ! A94   A(22,23,25)           114.523          estimate D2E/DX2                !
 ! A95   A(22,23,47)           110.4693         estimate D2E/DX2                !
 ! A96   A(24,23,25)           111.5313         estimate D2E/DX2                !
 ! A97   A(24,23,47)           106.7511         estimate D2E/DX2                !
 ! A98   A(25,23,47)           108.108          estimate D2E/DX2                !
 ! A99   A(4,24,23)            109.589          estimate D2E/DX2                !
 ! A100  A(23,25,26)           115.6789         estimate D2E/DX2                !
 ! A101  A(23,25,27)           124.1546         estimate D2E/DX2                !
 ! A102  A(26,25,27)           120.1255         estimate D2E/DX2                !
 ! A103  A(25,26,48)           110.2496         estimate D2E/DX2                !
 ! A104  A(25,26,49)           112.1556         estimate D2E/DX2                !
 ! A105  A(25,26,50)           110.6701         estimate D2E/DX2                !
 ! A106  A(48,26,49)           107.4713         estimate D2E/DX2                !
 ! A107  A(48,26,50)           108.6468         estimate D2E/DX2                !
 ! A108  A(49,26,50)           107.5102         estimate D2E/DX2                !
 ! A109  A(25,27,51)           121.4758         estimate D2E/DX2                !
 ! A110  A(25,27,52)           122.1295         estimate D2E/DX2                !
 ! A111  A(51,27,52)           116.3831         estimate D2E/DX2                !
 ! A112  A(18,28,53)           110.5369         estimate D2E/DX2                !
 ! A113  A(18,28,54)           111.2732         estimate D2E/DX2                !
 ! A114  A(18,28,55)           112.5909         estimate D2E/DX2                !
 ! A115  A(53,28,54)           108.2811         estimate D2E/DX2                !
 ! A116  A(53,28,55)           105.3014         estimate D2E/DX2                !
 ! A117  A(54,28,55)           108.6001         estimate D2E/DX2                !
 ! A118  A(18,29,56)           112.1438         estimate D2E/DX2                !
 ! A119  A(18,29,57)           110.6689         estimate D2E/DX2                !
 ! A120  A(18,29,58)           111.3601         estimate D2E/DX2                !
 ! A121  A(56,29,57)           105.2319         estimate D2E/DX2                !
 ! A122  A(56,29,58)           108.895          estimate D2E/DX2                !
 ! A123  A(57,29,58)           108.2916         estimate D2E/DX2                !
 ! A124  A(2,32,59)            112.0686         estimate D2E/DX2                !
 ! A125  A(2,32,60)            110.8869         estimate D2E/DX2                !
 ! A126  A(2,32,61)            110.2219         estimate D2E/DX2                !
 ! A127  A(59,32,60)           107.4432         estimate D2E/DX2                !
 ! A128  A(59,32,61)           107.4017         estimate D2E/DX2                !
 ! A129  A(60,32,61)           108.675          estimate D2E/DX2                !
 ! A130  A(14,62,63)           109.7458         estimate D2E/DX2                !
 ! A131  A(14,62,64)           111.9003         estimate D2E/DX2                !
 ! A132  A(14,62,65)           111.5068         estimate D2E/DX2                !
 ! A133  A(63,62,64)           107.5852         estimate D2E/DX2                !
 ! A134  A(63,62,65)           107.3425         estimate D2E/DX2                !
 ! A135  A(64,62,65)           108.5781         estimate D2E/DX2                !
 ! D1    D(6,1,2,3)             -1.027          estimate D2E/DX2                !
 ! D2    D(6,1,2,32)           174.888          estimate D2E/DX2                !
 ! D3    D(33,1,2,3)          -177.2376         estimate D2E/DX2                !
 ! D4    D(33,1,2,32)           -1.3226         estimate D2E/DX2                !
 ! D5    D(2,1,6,5)             28.234          estimate D2E/DX2                !
 ! D6    D(2,1,6,34)           -95.8229         estimate D2E/DX2                !
 ! D7    D(2,1,6,35)           151.4254         estimate D2E/DX2                !
 ! D8    D(33,1,6,5)          -155.4226         estimate D2E/DX2                !
 ! D9    D(33,1,6,34)           80.5205         estimate D2E/DX2                !
 ! D10   D(33,1,6,35)          -32.2312         estimate D2E/DX2                !
 ! D11   D(1,2,3,4)            -12.7506         estimate D2E/DX2                !
 ! D12   D(1,2,3,20)          -135.203          estimate D2E/DX2                !
 ! D13   D(1,2,3,31)           107.8807         estimate D2E/DX2                !
 ! D14   D(32,2,3,4)           171.2092         estimate D2E/DX2                !
 ! D15   D(32,2,3,20)           48.7568         estimate D2E/DX2                !
 ! D16   D(32,2,3,31)          -68.1595         estimate D2E/DX2                !
 ! D17   D(1,2,32,59)           -5.0799         estimate D2E/DX2                !
 ! D18   D(1,2,32,60)          114.9809         estimate D2E/DX2                !
 ! D19   D(1,2,32,61)         -124.6345         estimate D2E/DX2                !
 ! D20   D(3,2,32,59)          171.0063         estimate D2E/DX2                !
 ! D21   D(3,2,32,60)          -68.9329         estimate D2E/DX2                !
 ! D22   D(3,2,32,61)           51.4517         estimate D2E/DX2                !
 ! D23   D(2,3,4,5)             -1.5291         estimate D2E/DX2                !
 ! D24   D(2,3,4,7)           -128.2029         estimate D2E/DX2                !
 ! D25   D(2,3,4,24)           118.9258         estimate D2E/DX2                !
 ! D26   D(20,3,4,5)           124.6313         estimate D2E/DX2                !
 ! D27   D(20,3,4,7)            -2.0424         estimate D2E/DX2                !
 ! D28   D(20,3,4,24)         -114.9137         estimate D2E/DX2                !
 ! D29   D(31,3,4,5)          -121.0765         estimate D2E/DX2                !
 ! D30   D(31,3,4,7)           112.2497         estimate D2E/DX2                !
 ! D31   D(31,3,4,24)           -0.6215         estimate D2E/DX2                !
 ! D32   D(2,3,20,17)          152.122          estimate D2E/DX2                !
 ! D33   D(2,3,20,42)           31.3982         estimate D2E/DX2                !
 ! D34   D(2,3,20,43)          -87.1667         estimate D2E/DX2                !
 ! D35   D(4,3,20,17)           24.0239         estimate D2E/DX2                !
 ! D36   D(4,3,20,42)          -96.6999         estimate D2E/DX2                !
 ! D37   D(4,3,20,43)          144.7352         estimate D2E/DX2                !
 ! D38   D(31,3,20,17)         -91.2801         estimate D2E/DX2                !
 ! D39   D(31,3,20,42)         147.9961         estimate D2E/DX2                !
 ! D40   D(31,3,20,43)          29.4312         estimate D2E/DX2                !
 ! D41   D(3,4,5,6)             26.9509         estimate D2E/DX2                !
 ! D42   D(3,4,5,10)           -99.0433         estimate D2E/DX2                !
 ! D43   D(3,4,5,22)           144.8811         estimate D2E/DX2                !
 ! D44   D(7,4,5,6)            149.8423         estimate D2E/DX2                !
 ! D45   D(7,4,5,10)            23.8481         estimate D2E/DX2                !
 ! D46   D(7,4,5,22)           -92.2275         estimate D2E/DX2                !
 ! D47   D(24,4,5,6)           -93.6979         estimate D2E/DX2                !
 ! D48   D(24,4,5,10)          140.3079         estimate D2E/DX2                !
 ! D49   D(24,4,5,22)           24.2322         estimate D2E/DX2                !
 ! D50   D(3,4,7,8)             88.677          estimate D2E/DX2                !
 ! D51   D(3,4,7,17)           -21.1666         estimate D2E/DX2                !
 ! D52   D(3,4,7,21)          -146.0114         estimate D2E/DX2                !
 ! D53   D(5,4,7,8)            -41.5748         estimate D2E/DX2                !
 ! D54   D(5,4,7,17)          -151.4185         estimate D2E/DX2                !
 ! D55   D(5,4,7,21)            83.7367         estimate D2E/DX2                !
 ! D56   D(24,4,7,8)          -158.1028         estimate D2E/DX2                !
 ! D57   D(24,4,7,17)           92.0536         estimate D2E/DX2                !
 ! D58   D(24,4,7,21)          -32.7912         estimate D2E/DX2                !
 ! D59   D(3,4,24,23)         -130.733          estimate D2E/DX2                !
 ! D60   D(5,4,24,23)           -2.9446         estimate D2E/DX2                !
 ! D61   D(7,4,24,23)          117.515          estimate D2E/DX2                !
 ! D62   D(4,5,6,1)            -39.3728         estimate D2E/DX2                !
 ! D63   D(4,5,6,34)            82.1942         estimate D2E/DX2                !
 ! D64   D(4,5,6,35)          -161.1788         estimate D2E/DX2                !
 ! D65   D(10,5,6,1)            90.6007         estimate D2E/DX2                !
 ! D66   D(10,5,6,34)         -147.8324         estimate D2E/DX2                !
 ! D67   D(10,5,6,35)          -31.2053         estimate D2E/DX2                !
 ! D68   D(22,5,6,1)          -152.5            estimate D2E/DX2                !
 ! D69   D(22,5,6,34)          -30.933          estimate D2E/DX2                !
 ! D70   D(22,5,6,35)           85.694          estimate D2E/DX2                !
 ! D71   D(4,5,10,9)             6.9797         estimate D2E/DX2                !
 ! D72   D(4,5,10,16)         -171.4578         estimate D2E/DX2                !
 ! D73   D(6,5,10,9)          -121.7465         estimate D2E/DX2                !
 ! D74   D(6,5,10,16)           59.8161         estimate D2E/DX2                !
 ! D75   D(22,5,10,9)          119.8001         estimate D2E/DX2                !
 ! D76   D(22,5,10,16)         -58.6373         estimate D2E/DX2                !
 ! D77   D(4,5,22,23)          -35.5415         estimate D2E/DX2                !
 ! D78   D(4,5,22,45)           82.8807         estimate D2E/DX2                !
 ! D79   D(4,5,22,46)         -157.0763         estimate D2E/DX2                !
 ! D80   D(6,5,22,23)           85.0568         estimate D2E/DX2                !
 ! D81   D(6,5,22,45)         -156.521          estimate D2E/DX2                !
 ! D82   D(6,5,22,46)          -36.478          estimate D2E/DX2                !
 ! D83   D(10,5,22,23)        -157.6061         estimate D2E/DX2                !
 ! D84   D(10,5,22,45)         -39.1839         estimate D2E/DX2                !
 ! D85   D(10,5,22,46)          80.8591         estimate D2E/DX2                !
 ! D86   D(4,7,8,9)             29.4537         estimate D2E/DX2                !
 ! D87   D(4,7,8,19)          -141.818          estimate D2E/DX2                !
 ! D88   D(17,7,8,9)           143.958          estimate D2E/DX2                !
 ! D89   D(17,7,8,19)          -27.3137         estimate D2E/DX2                !
 ! D90   D(21,7,8,9)           -97.6694         estimate D2E/DX2                !
 ! D91   D(21,7,8,19)           91.0589         estimate D2E/DX2                !
 ! D92   D(4,7,17,18)          154.7022         estimate D2E/DX2                !
 ! D93   D(4,7,17,20)           35.5966         estimate D2E/DX2                !
 ! D94   D(4,7,17,30)          -83.8165         estimate D2E/DX2                !
 ! D95   D(8,7,17,18)           34.2997         estimate D2E/DX2                !
 ! D96   D(8,7,17,20)          -84.8059         estimate D2E/DX2                !
 ! D97   D(8,7,17,30)          155.781          estimate D2E/DX2                !
 ! D98   D(21,7,17,18)         -80.8713         estimate D2E/DX2                !
 ! D99   D(21,7,17,20)         160.0231         estimate D2E/DX2                !
 ! D100  D(21,7,17,30)          40.61           estimate D2E/DX2                !
 ! D101  D(4,7,21,44)           39.0753         estimate D2E/DX2                !
 ! D102  D(8,7,21,44)          167.8702         estimate D2E/DX2                !
 ! D103  D(17,7,21,44)         -82.6441         estimate D2E/DX2                !
 ! D104  D(7,8,9,10)             3.3684         estimate D2E/DX2                !
 ! D105  D(7,8,9,11)          -174.9365         estimate D2E/DX2                !
 ! D106  D(19,8,9,10)          173.7556         estimate D2E/DX2                !
 ! D107  D(19,8,9,11)           -4.5493         estimate D2E/DX2                !
 ! D108  D(7,8,19,18)            7.3193         estimate D2E/DX2                !
 ! D109  D(9,8,19,18)         -163.9266         estimate D2E/DX2                !
 ! D110  D(8,9,10,5)           -22.2818         estimate D2E/DX2                !
 ! D111  D(8,9,10,16)          156.1818         estimate D2E/DX2                !
 ! D112  D(11,9,10,5)          156.0027         estimate D2E/DX2                !
 ! D113  D(11,9,10,16)         -25.5336         estimate D2E/DX2                !
 ! D114  D(8,9,11,12)          109.2163         estimate D2E/DX2                !
 ! D115  D(8,9,11,13)          -72.6408         estimate D2E/DX2                !
 ! D116  D(10,9,11,12)         -69.0465         estimate D2E/DX2                !
 ! D117  D(10,9,11,13)         109.0964         estimate D2E/DX2                !
 ! D118  D(9,11,13,14)         125.1443         estimate D2E/DX2                !
 ! D119  D(9,11,13,15)        -107.9042         estimate D2E/DX2                !
 ! D120  D(9,11,13,36)           8.4916         estimate D2E/DX2                !
 ! D121  D(12,11,13,14)        -56.7974         estimate D2E/DX2                !
 ! D122  D(12,11,13,15)         70.1542         estimate D2E/DX2                !
 ! D123  D(12,11,13,36)       -173.45           estimate D2E/DX2                !
 ! D124  D(11,13,14,37)       -161.6729         estimate D2E/DX2                !
 ! D125  D(11,13,14,38)        -45.9608         estimate D2E/DX2                !
 ! D126  D(11,13,14,62)         77.0926         estimate D2E/DX2                !
 ! D127  D(15,13,14,37)         73.8538         estimate D2E/DX2                !
 ! D128  D(15,13,14,38)       -170.434          estimate D2E/DX2                !
 ! D129  D(15,13,14,62)        -47.3807         estimate D2E/DX2                !
 ! D130  D(36,13,14,37)        -44.3592         estimate D2E/DX2                !
 ! D131  D(36,13,14,38)         71.353          estimate D2E/DX2                !
 ! D132  D(36,13,14,62)       -165.5937         estimate D2E/DX2                !
 ! D133  D(11,13,15,39)       -178.2785         estimate D2E/DX2                !
 ! D134  D(11,13,15,40)         62.1303         estimate D2E/DX2                !
 ! D135  D(11,13,15,41)        -56.8811         estimate D2E/DX2                !
 ! D136  D(14,13,15,39)        -52.6979         estimate D2E/DX2                !
 ! D137  D(14,13,15,40)       -172.2891         estimate D2E/DX2                !
 ! D138  D(14,13,15,41)         68.6995         estimate D2E/DX2                !
 ! D139  D(36,13,15,39)         65.0968         estimate D2E/DX2                !
 ! D140  D(36,13,15,40)        -54.4943         estimate D2E/DX2                !
 ! D141  D(36,13,15,41)       -173.5057         estimate D2E/DX2                !
 ! D142  D(13,14,62,63)       -178.2848         estimate D2E/DX2                !
 ! D143  D(13,14,62,64)        -58.9267         estimate D2E/DX2                !
 ! D144  D(13,14,62,65)         62.9088         estimate D2E/DX2                !
 ! D145  D(37,14,62,63)         60.1471         estimate D2E/DX2                !
 ! D146  D(37,14,62,64)        179.5052         estimate D2E/DX2                !
 ! D147  D(37,14,62,65)        -58.6593         estimate D2E/DX2                !
 ! D148  D(38,14,62,63)        -54.6723         estimate D2E/DX2                !
 ! D149  D(38,14,62,64)         64.6857         estimate D2E/DX2                !
 ! D150  D(38,14,62,65)       -173.4787         estimate D2E/DX2                !
 ! D151  D(7,17,18,19)         -32.5391         estimate D2E/DX2                !
 ! D152  D(7,17,18,28)          85.3561         estimate D2E/DX2                !
 ! D153  D(7,17,18,29)        -151.096          estimate D2E/DX2                !
 ! D154  D(20,17,18,19)         77.2096         estimate D2E/DX2                !
 ! D155  D(20,17,18,28)       -164.8951         estimate D2E/DX2                !
 ! D156  D(20,17,18,29)        -41.3473         estimate D2E/DX2                !
 ! D157  D(30,17,18,19)       -154.6873         estimate D2E/DX2                !
 ! D158  D(30,17,18,28)        -36.792          estimate D2E/DX2                !
 ! D159  D(30,17,18,29)         86.7559         estimate D2E/DX2                !
 ! D160  D(7,17,20,3)          -36.5318         estimate D2E/DX2                !
 ! D161  D(7,17,20,42)          83.0793         estimate D2E/DX2                !
 ! D162  D(7,17,20,43)        -157.7257         estimate D2E/DX2                !
 ! D163  D(18,17,20,3)        -146.667          estimate D2E/DX2                !
 ! D164  D(18,17,20,42)        -27.056          estimate D2E/DX2                !
 ! D165  D(18,17,20,43)         92.1391         estimate D2E/DX2                !
 ! D166  D(30,17,20,3)          84.536          estimate D2E/DX2                !
 ! D167  D(30,17,20,42)       -155.853          estimate D2E/DX2                !
 ! D168  D(30,17,20,43)        -36.658          estimate D2E/DX2                !
 ! D169  D(17,18,19,8)          15.9686         estimate D2E/DX2                !
 ! D170  D(28,18,19,8)        -105.053          estimate D2E/DX2                !
 ! D171  D(29,18,19,8)         137.9859         estimate D2E/DX2                !
 ! D172  D(17,18,28,53)       -179.6446         estimate D2E/DX2                !
 ! D173  D(17,18,28,54)         60.003          estimate D2E/DX2                !
 ! D174  D(17,18,28,55)        -62.1868         estimate D2E/DX2                !
 ! D175  D(19,18,28,53)        -63.2313         estimate D2E/DX2                !
 ! D176  D(19,18,28,54)        176.4163         estimate D2E/DX2                !
 ! D177  D(19,18,28,55)         54.2265         estimate D2E/DX2                !
 ! D178  D(29,18,28,53)         53.8423         estimate D2E/DX2                !
 ! D179  D(29,18,28,54)        -66.5101         estimate D2E/DX2                !
 ! D180  D(29,18,28,55)        171.3001         estimate D2E/DX2                !
 ! D181  D(17,18,29,56)         64.8746         estimate D2E/DX2                !
 ! D182  D(17,18,29,57)       -177.9522         estimate D2E/DX2                !
 ! D183  D(17,18,29,58)        -57.4398         estimate D2E/DX2                !
 ! D184  D(19,18,29,56)        -52.1109         estimate D2E/DX2                !
 ! D185  D(19,18,29,57)         65.0624         estimate D2E/DX2                !
 ! D186  D(19,18,29,58)       -174.4252         estimate D2E/DX2                !
 ! D187  D(28,18,29,56)       -169.0522         estimate D2E/DX2                !
 ! D188  D(28,18,29,57)        -51.8789         estimate D2E/DX2                !
 ! D189  D(28,18,29,58)         68.6335         estimate D2E/DX2                !
 ! D190  D(5,22,23,24)          35.0327         estimate D2E/DX2                !
 ! D191  D(5,22,23,25)         157.8475         estimate D2E/DX2                !
 ! D192  D(5,22,23,47)         -79.8126         estimate D2E/DX2                !
 ! D193  D(45,22,23,24)        -83.3275         estimate D2E/DX2                !
 ! D194  D(45,22,23,25)         39.4872         estimate D2E/DX2                !
 ! D195  D(45,22,23,47)        161.8272         estimate D2E/DX2                !
 ! D196  D(46,22,23,24)        157.2714         estimate D2E/DX2                !
 ! D197  D(46,22,23,25)        -79.9138         estimate D2E/DX2                !
 ! D198  D(46,22,23,47)         42.4261         estimate D2E/DX2                !
 ! D199  D(22,23,24,4)         -20.0743         estimate D2E/DX2                !
 ! D200  D(25,23,24,4)        -144.7912         estimate D2E/DX2                !
 ! D201  D(47,23,24,4)          97.3247         estimate D2E/DX2                !
 ! D202  D(22,23,25,26)         56.2244         estimate D2E/DX2                !
 ! D203  D(22,23,25,27)       -126.1116         estimate D2E/DX2                !
 ! D204  D(24,23,25,26)        175.5458         estimate D2E/DX2                !
 ! D205  D(24,23,25,27)         -6.7902         estimate D2E/DX2                !
 ! D206  D(47,23,25,26)        -67.3893         estimate D2E/DX2                !
 ! D207  D(47,23,25,27)        110.2746         estimate D2E/DX2                !
 ! D208  D(23,25,26,48)         53.8327         estimate D2E/DX2                !
 ! D209  D(23,25,26,49)        173.5508         estimate D2E/DX2                !
 ! D210  D(23,25,26,50)        -66.3941         estimate D2E/DX2                !
 ! D211  D(27,25,26,48)       -123.9324         estimate D2E/DX2                !
 ! D212  D(27,25,26,49)         -4.2142         estimate D2E/DX2                !
 ! D213  D(27,25,26,50)        115.8409         estimate D2E/DX2                !
 ! D214  D(23,25,27,51)       -178.9296         estimate D2E/DX2                !
 ! D215  D(23,25,27,52)         -0.2127         estimate D2E/DX2                !
 ! D216  D(26,25,27,51)         -1.3638         estimate D2E/DX2                !
 ! D217  D(26,25,27,52)        177.3531         estimate D2E/DX2                !
 --------------------------------------------------------------------------------
 Trust Radius=3.00D-01 FncErr=1.00D-07 GrdErr=1.00D-06
 Number of steps in this run=    390 maximum allowed number of steps=    390.
 GradGradGradGradGradGradGradGradGradGradGradGradGradGradGradGradGradGrad

 Stoichiometry    C26H34O5
 Framework group  C1[X(C26H34O5)]
 Deg. of freedom   189
 Full point group                 C1      NOp   1
 Largest Abelian subgroup         C1      NOp   1
 Largest concise Abelian subgroup C1      NOp   1
                         Standard orientation:                         
 ---------------------------------------------------------------------
 Center     Atomic      Atomic             Coordinates (Angstroms)
 Number     Number       Type             X           Y           Z
 ---------------------------------------------------------------------
      1          6           0       -1.308547   -0.178059    3.214671
      2          6           0       -1.198508    1.104253    2.837689
      3          6           0       -1.430614    1.535580    1.409281
      4          6           0       -1.498351    0.396914    0.351259
      5          6           0       -1.292249   -1.054371    0.818865
      6          6           0       -1.685322   -1.289807    2.291411
      7          6           0       -0.496548    0.814726   -0.744806
      8          6           0        0.904781    0.354053   -0.534552
      9          6           0        1.211486   -0.768337    0.122067
     10          6           0        0.114074   -1.633741    0.601566
     11          6           0        2.626457   -1.106213    0.390072
     12          8           0        3.050077   -1.037010    1.543144
     13          6           0        3.477787   -1.568249   -0.788974
     14          6           0        4.746635   -0.712078   -0.938205
     15          6           0        3.752096   -3.063465   -0.661850
     16          8           0        0.338354   -2.830713    0.796162
     17          6           0       -0.289238    2.308460   -0.623618
     18          6           0        1.113243    2.505587   -1.237419
     19          8           0        1.852898    1.298750   -0.916694
     20          6           0       -0.361688    2.518654    0.897676
     21          8           0       -0.917642    0.417510   -2.037782
     22          6           0       -2.249145   -1.816640   -0.102407
     23          6           0       -3.417075   -0.855947   -0.257335
     24          8           0       -2.828547    0.456080   -0.256613
     25          6           0       -4.259976   -1.085948   -1.493125
     26          6           0       -4.837170   -2.469400   -1.641354
     27          6           0       -4.542464   -0.135793   -2.401961
     28          6           0        1.079688    2.653190   -2.767196
     29          6           0        1.873170    3.704441   -0.658781
     30          1           0       -1.056929    2.897186   -1.138636
     31          1           0       -2.389960    2.073947    1.400570
     32          6           0       -0.925658    2.182704    3.853214
     33          1           0       -1.178792   -0.448964    4.261337
     34          1           0       -2.765747   -1.444463    2.400526
     35          1           0       -1.222778   -2.211076    2.668031
     36          1           0        2.889382   -1.419954   -1.704253
     37          1           0        5.141822   -0.852720   -1.952261
     38          1           0        4.484821    0.349449   -0.852070
     39          1           0        4.387727   -3.415712   -1.480601
     40          1           0        2.814505   -3.629369   -0.696455
     41          1           0        4.238579   -3.310710    0.287673
     42          1           0        0.600395    2.309268    1.380895
     43          1           0       -0.621200    3.556437    1.136016
     44          1           0       -1.884786    0.560705   -2.057483
     45          1           0       -1.776296   -2.013621   -1.074120
     46          1           0       -2.560648   -2.786133    0.303304
     47          1           0       -4.075053   -0.907718    0.618548
     48          1           0       -5.395761   -2.745465   -0.740951
     49          1           0       -5.525591   -2.540989   -2.490293
     50          1           0       -4.042141   -3.204834   -1.799172
     51          1           0       -5.167084   -0.344840   -3.265478
     52          1           0       -4.179036    0.881905   -2.304822
     53          1           0        2.093747    2.784591   -3.163334
     54          1           0        0.478263    3.516404   -3.069840
     55          1           0        0.688022    1.763058   -3.266482
     56          1           0        2.103869    3.573189    0.402873
     57          1           0        2.845236    3.821424   -1.152502
     58          1           0        1.308794    4.633732   -0.786680
     59          1           0       -0.927365    1.793723    4.877159
     60          1           0        0.050894    2.644124    3.679329
     61          1           0       -1.695428    2.959310    3.796661
     62          6           0        5.871043   -1.012845    0.044638
     63          1           0        6.708376   -0.329013   -0.130531
     64          1           0        5.551167   -0.884325    1.081776
     65          1           0        6.250448   -2.031507   -0.079437
 ---------------------------------------------------------------------
 Rotational constants (GHZ):      0.2071599      0.1223687      0.1150303
 Standard basis: 6-31G(d) (6D, 7F)
 There are   533 symmetry adapted basis functions of A   symmetry.
 Integral buffers will be    131072 words long.
 Raffenetti 2 integral format.
 Two-electron integral symmetry is turned on.
   533 basis functions,  1004 primitive gaussians,   533 cartesian basis functions
   115 alpha electrons      115 beta electrons
       nuclear repulsion energy      3515.7397461510 Hartrees.
 NAtoms=   65 NActive=   65 NUniq=   65 SFac= 1.00D+00 NAtFMM=   50 NAOKFM=T Big=T
 One-electron integrals computed using PRISM.
 NBasis=   533 RedAO= T  NBF=   533
 NBsUse=   533 1.00D-06 NBFU=   533
 Harris functional with IExCor=  402 diagonalized for initial guess.
 ExpMin= 1.61D-01 ExpMax= 5.48D+03 ExpMxC= 8.25D+02 IAcc=1 IRadAn=         1 AccDes= 0.00D+00
 HarFok:  IExCor=  402 AccDes= 0.00D+00 IRadAn=         1 IDoV= 1
 ScaDFX=  1.000000  1.000000  1.000000  1.000000
 FoFCou: FMM=F IPFlag=           0 FMFlag=      100000 FMFlg1=        2001
         NFxFlg=           0 DoJE=T BraDBF=F KetDBF=T FulRan=T
         Omega=  0.000000  0.000000  1.000000  0.000000  0.000000 ICntrl=     500 IOpCl=  0
         NMat0=    1 NMatS0=    1 NMatT0=    0 NMatD0=    1 NMtDS0=    0 NMtDT0=    0
         I1Cent=           4 NGrid=           0.
 Petite list used in FoFCou.
 Initial guess orbital symmetries:
       Occupied  (A) (A) (A) (A) (A) (A) (A) (A) (A) (A) (A) (A)
                 (A) (A) (A) (A) (A) (A) (A) (A) (A) (A) (A) (A)
                 (A) (A) (A) (A) (A) (A) (A) (A) (A) (A) (A) (A)
                 (A) (A) (A) (A) (A) (A) (A) (A) (A) (A) (A) (A)
                 (A) (A) (A) (A) (A) (A) (A) (A) (A) (A) (A) (A)
                 (A) (A) (A) (A) (A) (A) (A) (A) (A) (A) (A) (A)
                 (A) (A) (A) (A) (A) (A) (A) (A) (A) (A) (A) (A)
                 (A) (A) (A) (A) (A) (A) (A) (A) (A) (A) (A) (A)
                 (A) (A) (A) (A) (A) (A) (A) (A) (A) (A) (A) (A)
                 (A) (A) (A) (A) (A) (A) (A)
       Virtual   (A) (A) (A) (A) (A) (A) (A) (A) (A) (A) (A) (A)
                 (A) (A) (A) (A) (A) (A) (A) (A) (A) (A) (A) (A)
                 (A) (A) (A) (A) (A) (A) (A) (A) (A) (A) (A) (A)
                 (A) (A) (A) (A) (A) (A) (A) (A) (A) (A) (A) (A)
                 (A) (A) (A) (A) (A) (A) (A) (A) (A) (A) (A) (A)
                 (A) (A) (A) (A) (A) (A) (A) (A) (A) (A) (A) (A)
                 (A) (A) (A) (A) (A) (A) (A) (A) (A) (A) (A) (A)
                 (A) (A) (A) (A) (A) (A) (A) (A) (A) (A) (A) (A)
                 (A) (A) (A) (A) (A) (A) (A) (A) (A) (A) (A) (A)
                 (A) (A) (A) (A) (A) (A) (A) (A) (A) (A) (A) (A)
                 (A) (A) (A) (A) (A) (A) (A) (A) (A) (A) (A) (A)
                 (A) (A) (A) (A) (A) (A) (A) (A) (A) (A) (A) (A)
                 (A) (A) (A) (A) (A) (A) (A) (A) (A) (A) (A) (A)
                 (A) (A) (A) (A) (A) (A) (A) (A) (A) (A) (A) (A)
                 (A) (A) (A) (A) (A) (A) (A) (A) (A) (A) (A) (A)
                 (A) (A) (A) (A) (A) (A) (A) (A) (A) (A) (A) (A)
                 (A) (A) (A) (A) (A) (A) (A) (A) (A) (A) (A) (A)
                 (A) (A) (A) (A) (A) (A) (A) (A) (A) (A) (A) (A)
                 (A) (A) (A) (A) (A) (A) (A) (A) (A) (A) (A) (A)
                 (A) (A) (A) (A) (A) (A) (A) (A) (A) (A) (A) (A)
                 (A) (A) (A) (A) (A) (A) (A) (A) (A) (A) (A) (A)
                 (A) (A) (A) (A) (A) (A) (A) (A) (A) (A) (A) (A)
                 (A) (A) (A) (A) (A) (A) (A) (A) (A) (A) (A) (A)
                 (A) (A) (A) (A) (A) (A) (A) (A) (A) (A) (A) (A)
                 (A) (A) (A) (A) (A) (A) (A) (A) (A) (A) (A) (A)
                 (A) (A) (A) (A) (A) (A) (A) (A) (A) (A) (A) (A)
                 (A) (A) (A) (A) (A) (A) (A) (A) (A) (A) (A) (A)
                 (A) (A) (A) (A) (A) (A) (A) (A) (A) (A) (A) (A)
                 (A) (A) (A) (A) (A) (A) (A) (A) (A) (A) (A) (A)
                 (A) (A) (A) (A) (A) (A) (A) (A) (A) (A) (A) (A)
                 (A) (A) (A) (A) (A) (A) (A) (A) (A) (A) (A) (A)
                 (A) (A) (A) (A) (A) (A) (A) (A) (A) (A) (A) (A)
                 (A) (A) (A) (A) (A) (A) (A) (A) (A) (A) (A) (A)
                 (A) (A) (A) (A) (A) (A) (A) (A) (A) (A) (A) (A)
                 (A) (A) (A) (A) (A) (A) (A) (A) (A) (A)
 The electronic state of the initial guess is 1-A.
 Requested convergence on RMS density matrix=1.00D-08 within 128 cycles.
 Requested convergence on MAX density matrix=1.00D-06.
 Requested convergence on             energy=1.00D-06.
 No special actions if energy rises.
 Integral accuracy reduced to 1.0D-05 until final iterations.
 Initial convergence to 1.0D-05 achieved.  Increase integral accuracy.
 SCF Done:  E(RB3LYP) =  -1387.30147637     A.U. after   16 cycles
             Convg  =    0.3738D-08             -V/T =  2.0091

 **********************************************************************

            Population analysis using the SCF density.

 **********************************************************************

 Orbital symmetries:
       Occupied  (A) (A) (A) (A) (A) (A) (A) (A) (A) (A) (A) (A)
                 (A) (A) (A) (A) (A) (A) (A) (A) (A) (A) (A) (A)
                 (A) (A) (A) (A) (A) (A) (A) (A) (A) (A) (A) (A)
                 (A) (A) (A) (A) (A) (A) (A) (A) (A) (A) (A) (A)
                 (A) (A) (A) (A) (A) (A) (A) (A) (A) (A) (A) (A)
                 (A) (A) (A) (A) (A) (A) (A) (A) (A) (A) (A) (A)
                 (A) (A) (A) (A) (A) (A) (A) (A) (A) (A) (A) (A)
                 (A) (A) (A) (A) (A) (A) (A) (A) (A) (A) (A) (A)
                 (A) (A) (A) (A) (A) (A) (A) (A) (A) (A) (A) (A)
                 (A) (A) (A) (A) (A) (A) (A)
       Virtual   (A) (A) (A) (A) (A) (A) (A) (A) (A) (A) (A) (A)
                 (A) (A) (A) (A) (A) (A) (A) (A) (A) (A) (A) (A)
                 (A) (A) (A) (A) (A) (A) (A) (A) (A) (A) (A) (A)
                 (A) (A) (A) (A) (A) (A) (A) (A) (A) (A) (A) (A)
                 (A) (A) (A) (A) (A) (A) (A) (A) (A) (A) (A) (A)
                 (A) (A) (A) (A) (A) (A) (A) (A) (A) (A) (A) (A)
                 (A) (A) (A) (A) (A) (A) (A) (A) (A) (A) (A) (A)
                 (A) (A) (A) (A) (A) (A) (A) (A) (A) (A) (A) (A)
                 (A) (A) (A) (A) (A) (A) (A) (A) (A) (A) (A) (A)
                 (A) (A) (A) (A) (A) (A) (A) (A) (A) (A) (A) (A)
                 (A) (A) (A) (A) (A) (A) (A) (A) (A) (A) (A) (A)
                 (A) (A) (A) (A) (A) (A) (A) (A) (A) (A) (A) (A)
                 (A) (A) (A) (A) (A) (A) (A) (A) (A) (A) (A) (A)
                 (A) (A) (A) (A) (A) (A) (A) (A) (A) (A) (A) (A)
                 (A) (A) (A) (A) (A) (A) (A) (A) (A) (A) (A) (A)
                 (A) (A) (A) (A) (A) (A) (A) (A) (A) (A) (A) (A)
                 (A) (A) (A) (A) (A) (A) (A) (A) (A) (A) (A) (A)
                 (A) (A) (A) (A) (A) (A) (A) (A) (A) (A) (A) (A)
                 (A) (A) (A) (A) (A) (A) (A) (A) (A) (A) (A) (A)
                 (A) (A) (A) (A) (A) (A) (A) (A) (A) (A) (A) (A)
                 (A) (A) (A) (A) (A) (A) (A) (A) (A) (A) (A) (A)
                 (A) (A) (A) (A) (A) (A) (A) (A) (A) (A) (A) (A)
                 (A) (A) (A) (A) (A) (A) (A) (A) (A) (A) (A) (A)
                 (A) (A) (A) (A) (A) (A) (A) (A) (A) (A) (A) (A)
                 (A) (A) (A) (A) (A) (A) (A) (A) (A) (A) (A) (A)
                 (A) (A) (A) (A) (A) (A) (A) (A) (A) (A) (A) (A)
                 (A) (A) (A) (A) (A) (A) (A) (A) (A) (A) (A) (A)
                 (A) (A) (A) (A) (A) (A) (A) (A) (A) (A) (A) (A)
                 (A) (A) (A) (A) (A) (A) (A) (A) (A) (A) (A) (A)
                 (A) (A) (A) (A) (A) (A) (A) (A) (A) (A) (A) (A)
                 (A) (A) (A) (A) (A) (A) (A) (A) (A) (A) (A) (A)
                 (A) (A) (A) (A) (A) (A) (A) (A) (A) (A) (A) (A)
                 (A) (A) (A) (A) (A) (A) (A) (A) (A) (A) (A) (A)
                 (A) (A) (A) (A) (A) (A) (A) (A) (A) (A) (A) (A)
                 (A) (A) (A) (A) (A) (A) (A) (A) (A) (A)
 The electronic state is 1-A.
 Alpha  occ. eigenvalues --  -19.19714 -19.16799 -19.15227 -19.13460 -19.13200
 Alpha  occ. eigenvalues --  -10.27930 -10.26824 -10.26763 -10.26141 -10.25950
 Alpha  occ. eigenvalues --  -10.25467 -10.25183 -10.21664 -10.20733 -10.20175
 Alpha  occ. eigenvalues --  -10.20075 -10.19652 -10.19421 -10.19411 -10.19247
 Alpha  occ. eigenvalues --  -10.19216 -10.19111 -10.18668 -10.18398 -10.18311
 Alpha  occ. eigenvalues --  -10.18306 -10.17996 -10.17721 -10.17183 -10.16674
 Alpha  occ. eigenvalues --  -10.15479  -1.08518  -1.05956  -1.03303  -1.02300
 Alpha  occ. eigenvalues --   -1.02218  -0.87352  -0.84052  -0.82753  -0.81777
 Alpha  occ. eigenvalues --   -0.80418  -0.79736  -0.76998  -0.74448  -0.73681
 Alpha  occ. eigenvalues --   -0.72211  -0.71364  -0.69555  -0.69263  -0.68101
 Alpha  occ. eigenvalues --   -0.65455  -0.64543  -0.63245  -0.62235  -0.60899
 Alpha  occ. eigenvalues --   -0.59399  -0.58643  -0.57277  -0.55012  -0.53650
 Alpha  occ. eigenvalues --   -0.52990  -0.52268  -0.50841  -0.50478  -0.49133
 Alpha  occ. eigenvalues --   -0.48240  -0.47871  -0.46787  -0.46254  -0.45779
 Alpha  occ. eigenvalues --   -0.45053  -0.44650  -0.44552  -0.43853  -0.43378
 Alpha  occ. eigenvalues --   -0.42975  -0.42233  -0.42141  -0.42068  -0.41605
 Alpha  occ. eigenvalues --   -0.41292  -0.40882  -0.40431  -0.39872  -0.39119
 Alpha  occ. eigenvalues --   -0.39000  -0.38732  -0.38483  -0.38370  -0.38118
 Alpha  occ. eigenvalues --   -0.37221  -0.37047  -0.36979  -0.36813  -0.36690
 Alpha  occ. eigenvalues --   -0.36117  -0.35930  -0.35052  -0.34412  -0.34375
 Alpha  occ. eigenvalues --   -0.33946  -0.33591  -0.32891  -0.32543  -0.32221
 Alpha  occ. eigenvalues --   -0.31468  -0.31340  -0.31184  -0.28072  -0.26626
 Alpha  occ. eigenvalues --   -0.25629  -0.25081  -0.24399  -0.23262  -0.23224
 Alpha virt. eigenvalues --   -0.05157  -0.02045   0.01099   0.02329   0.04151
 Alpha virt. eigenvalues --    0.07190   0.08045   0.08855   0.09062   0.10061
 Alpha virt. eigenvalues --    0.10242   0.10883   0.11473   0.11954   0.12755
 Alpha virt. eigenvalues --    0.12823   0.13183   0.13574   0.13810   0.14075
 Alpha virt. eigenvalues --    0.14342   0.14699   0.15406   0.15577   0.16071
 Alpha virt. eigenvalues --    0.16278   0.16599   0.16807   0.17278   0.17509
 Alpha virt. eigenvalues --    0.17961   0.18085   0.18380   0.18831   0.18931
 Alpha virt. eigenvalues --    0.19205   0.19337   0.19831   0.20056   0.20245
 Alpha virt. eigenvalues --    0.20743   0.21018   0.21404   0.21493   0.22265
 Alpha virt. eigenvalues --    0.22625   0.23022   0.23916   0.24238   0.24490
 Alpha virt. eigenvalues --    0.24816   0.25237   0.25754   0.26442   0.26510
 Alpha virt. eigenvalues --    0.27672   0.27915   0.28268   0.29299   0.30422
 Alpha virt. eigenvalues --    0.30833   0.31600   0.32306   0.33168   0.34535
 Alpha virt. eigenvalues --    0.34847   0.35826   0.36960   0.38932   0.40417
 Alpha virt. eigenvalues --    0.42444   0.45375   0.46308   0.48087   0.48455
 Alpha virt. eigenvalues --    0.50001   0.51380   0.51601   0.51693   0.52405
 Alpha virt. eigenvalues --    0.52641   0.52755   0.53167   0.53628   0.53942
 Alpha virt. eigenvalues --    0.54151   0.55143   0.55193   0.55826   0.56645
 Alpha virt. eigenvalues --    0.57128   0.57422   0.57619   0.58217   0.58654
 Alpha virt. eigenvalues --    0.59473   0.60985   0.61495   0.61697   0.61884
 Alpha virt. eigenvalues --    0.62218   0.62435   0.62648   0.63666   0.64616
 Alpha virt. eigenvalues --    0.64803   0.65233   0.66073   0.66606   0.67259
 Alpha virt. eigenvalues --    0.67596   0.67995   0.68455   0.69060   0.69439
 Alpha virt. eigenvalues --    0.70232   0.70523   0.71326   0.72238   0.73280
 Alpha virt. eigenvalues --    0.74251   0.75126   0.75633   0.76212   0.76426
 Alpha virt. eigenvalues --    0.77226   0.77751   0.78359   0.79265   0.79969
 Alpha virt. eigenvalues --    0.80582   0.80822   0.81304   0.81608   0.81856
 Alpha virt. eigenvalues --    0.82394   0.83208   0.83306   0.84288   0.84732
 Alpha virt. eigenvalues --    0.85466   0.85760   0.86112   0.86481   0.87105
 Alpha virt. eigenvalues --    0.87517   0.87980   0.88349   0.88445   0.89014
 Alpha virt. eigenvalues --    0.89430   0.89635   0.89955   0.90230   0.90429
 Alpha virt. eigenvalues --    0.90745   0.91096   0.91508   0.91943   0.92297
 Alpha virt. eigenvalues --    0.92444   0.93072   0.93488   0.94081   0.94781
 Alpha virt. eigenvalues --    0.95216   0.95802   0.96065   0.96302   0.96795
 Alpha virt. eigenvalues --    0.97207   0.97670   0.98595   0.98685   1.00038
 Alpha virt. eigenvalues --    1.00111   1.00877   1.02127   1.02939   1.03055
 Alpha virt. eigenvalues --    1.04652   1.05172   1.05863   1.06488   1.07701
 Alpha virt. eigenvalues --    1.08501   1.09978   1.10324   1.11318   1.11594
 Alpha virt. eigenvalues --    1.12916   1.13675   1.15283   1.16489   1.18062
 Alpha virt. eigenvalues --    1.18688   1.18877   1.19158   1.20435   1.21321
 Alpha virt. eigenvalues --    1.21698   1.23247   1.24187   1.24587   1.25944
 Alpha virt. eigenvalues --    1.27650   1.29057   1.30813   1.31026   1.32130
 Alpha virt. eigenvalues --    1.33698   1.36155   1.37293   1.38789   1.39574
 Alpha virt. eigenvalues --    1.40904   1.41812   1.42813   1.44572   1.45555
 Alpha virt. eigenvalues --    1.46757   1.48258   1.50570   1.51486   1.52781
 Alpha virt. eigenvalues --    1.54668   1.55101   1.55930   1.57007   1.58859
 Alpha virt. eigenvalues --    1.60583   1.61006   1.61996   1.62903   1.63651
 Alpha virt. eigenvalues --    1.66321   1.66918   1.67371   1.67786   1.69598
 Alpha virt. eigenvalues --    1.70581   1.71074   1.72238   1.73256   1.73771
 Alpha virt. eigenvalues --    1.74881   1.75311   1.76086   1.77869   1.78916
 Alpha virt. eigenvalues --    1.79305   1.80227   1.80712   1.81816   1.82348
 Alpha virt. eigenvalues --    1.82745   1.83021   1.83420   1.83840   1.85434
 Alpha virt. eigenvalues --    1.85787   1.86425   1.87239   1.87561   1.87900
 Alpha virt. eigenvalues --    1.88768   1.89844   1.90302   1.90836   1.91702
 Alpha virt. eigenvalues --    1.92026   1.92565   1.93301   1.94266   1.95615
 Alpha virt. eigenvalues --    1.95969   1.96913   1.97733   1.98014   1.98313
 Alpha virt. eigenvalues --    1.98918   1.99263   1.99707   2.00720   2.01374
 Alpha virt. eigenvalues --    2.02939   2.03366   2.05106   2.05650   2.06594
 Alpha virt. eigenvalues --    2.07014   2.08001   2.08392   2.09877   2.10500
 Alpha virt. eigenvalues --    2.10906   2.12010   2.12360   2.12754   2.13428
 Alpha virt. eigenvalues --    2.14310   2.15618   2.16097   2.17222   2.18588
 Alpha virt. eigenvalues --    2.19729   2.20451   2.21651   2.22744   2.23313
 Alpha virt. eigenvalues --    2.23558   2.24124   2.25816   2.25855   2.26831
 Alpha virt. eigenvalues --    2.28047   2.28967   2.29476   2.31664   2.31944
 Alpha virt. eigenvalues --    2.32629   2.33393   2.33786   2.34991   2.35158
 Alpha virt. eigenvalues --    2.35916   2.36738   2.37551   2.37938   2.38925
 Alpha virt. eigenvalues --    2.40566   2.41137   2.42362   2.43167   2.44464
 Alpha virt. eigenvalues --    2.45063   2.45864   2.46837   2.48570   2.49179
 Alpha virt. eigenvalues --    2.50508   2.50706   2.52091   2.54234   2.54452
 Alpha virt. eigenvalues --    2.56380   2.57366   2.58094   2.58337   2.60731
 Alpha virt. eigenvalues --    2.61963   2.63399   2.64407   2.65480   2.65765
 Alpha virt. eigenvalues --    2.66368   2.68632   2.69321   2.69910   2.71077
 Alpha virt. eigenvalues --    2.71816   2.73541   2.75809   2.76281   2.78260
 Alpha virt. eigenvalues --    2.78911   2.80634   2.81227   2.82752   2.84731
 Alpha virt. eigenvalues --    2.86119   2.91274   2.92740   2.93947   2.95952
 Alpha virt. eigenvalues --    2.98137   2.99592   3.00520   3.02609   3.03175
 Alpha virt. eigenvalues --    3.04763   3.07355   3.13114   3.17174   3.21049
 Alpha virt. eigenvalues --    3.22288   3.29016   4.02787   4.09629   4.12218
 Alpha virt. eigenvalues --    4.14093   4.14969   4.17106   4.18859   4.21898
 Alpha virt. eigenvalues --    4.24071   4.24344   4.26470   4.28875   4.30159
 Alpha virt. eigenvalues --    4.32099   4.35905   4.37932   4.40010   4.42551
 Alpha virt. eigenvalues --    4.46213   4.48729   4.52341   4.55077   4.60006
 Alpha virt. eigenvalues --    4.61564   4.64808   4.70257   4.72036   4.81629
 Alpha virt. eigenvalues --    4.91705   4.99049   5.18546
          Condensed to atoms (all electrons):
 Mulliken atomic charges:
              1
     1  C   -0.189415
     2  C    0.191132
     3  C   -0.187491
     4  C    0.319988
     5  C   -0.042476
     6  C   -0.333743
     7  C    0.208889
     8  C    0.397155
     9  C   -0.087254
    10  C    0.424521
    11  C    0.419539
    12  O   -0.457649
    13  C   -0.140090
    14  C   -0.259288
    15  C   -0.458987
    16  O   -0.499028
    17  C   -0.160755
    18  C    0.312005
    19  O   -0.541257
    20  C   -0.319985
    21  O   -0.664163
    22  C   -0.321648
    23  C    0.108745
    24  O   -0.589237
    25  C    0.189031
    26  C   -0.519024
    27  C   -0.404087
    28  C   -0.461924
    29  C   -0.463870
    30  H    0.143620
    31  H    0.164544
    32  C   -0.517220
    33  H    0.124572
    34  H    0.150760
    35  H    0.180907
    36  H    0.136276
    37  H    0.128778
    38  H    0.146626
    39  H    0.142772
    40  H    0.165877
    41  H    0.168313
    42  H    0.169605
    43  H    0.147799
    44  H    0.413715
    45  H    0.173214
    46  H    0.167958
    47  H    0.144443
    48  H    0.156469
    49  H    0.161154
    50  H    0.169224
    51  H    0.139965
    52  H    0.144539
    53  H    0.148460
    54  H    0.139955
    55  H    0.185368
    56  H    0.160647
    57  H    0.157561
    58  H    0.150464
    59  H    0.158677
    60  H    0.160972
    61  H    0.148474
    62  C   -0.450837
    63  H    0.131341
    64  H    0.175532
    65  H    0.139845
 Sum of Mulliken atomic charges =   0.00000
 Mulliken charges with hydrogens summed into heavy atoms:
              1
     1  C   -0.064843
     2  C    0.191132
     3  C   -0.022947
     4  C    0.319988
     5  C   -0.042476
     6  C   -0.002076
     7  C    0.208889
     8  C    0.397155
     9  C   -0.087254
    10  C    0.424521
    11  C    0.419539
    12  O   -0.457649
    13  C   -0.003815
    14  C    0.016115
    15  C    0.017975
    16  O   -0.499028
    17  C   -0.017135
    18  C    0.312005
    19  O   -0.541257
    20  C   -0.002581
    21  O   -0.250448
    22  C    0.019524
    23  C    0.253187
    24  O   -0.589237
    25  C    0.189031
    26  C   -0.032177
    27  C   -0.119584
    28  C    0.011859
    29  C    0.004803
    32  C   -0.049097
    62  C   -0.004119
 Sum of Mulliken charges with hydrogens summed into heavy atoms =   0.00000
 Electronic spatial extent (au):  <R**2>=          11578.8532
 Charge=              0.0000 electrons
 Dipole moment (field-independent basis, Debye):
    X=             -3.7656    Y=              3.2408    Z=             -1.3373  Tot=              5.1449
 Quadrupole moment (field-independent basis, Debye-Ang):
   XX=           -183.1125   YY=           -179.1162   ZZ=           -184.2750
   XY=              8.2887   XZ=             -7.0626   YZ=              3.5933
 Traceless Quadrupole moment (field-independent basis, Debye-Ang):
   XX=             -0.9445   YY=              3.0517   ZZ=             -2.1071
   XY=              8.2887   XZ=             -7.0626   YZ=              3.5933
 Octapole moment (field-independent basis, Debye-Ang**2):
  XXX=            -34.4553  YYY=             47.9204  ZZZ=              6.7388  XYY=            -10.7178
  XXY=            -27.7453  XXZ=            -40.6395  XZZ=            -22.9152  YZZ=              5.5202
  YYZ=            -18.5192  XYZ=              6.8772
 Hexadecapole moment (field-independent basis, Debye-Ang**3):
 XXXX=          -8546.2957 YYYY=          -3909.5431 ZZZZ=          -3113.4515 XXXY=            128.7445
 XXXZ=              7.2259 YYYX=             13.6127 YYYZ=             -8.6543 ZZZX=             17.5788
 ZZZY=            -25.1956 XXYY=          -1980.3698 XXZZ=          -1913.2517 YYZZ=          -1157.0373
 XXYZ=             37.9525 YYXZ=             -5.8143 ZZXY=             21.5959
 N-N= 3.515739746151D+03 E-N=-1.025781469655D+04  KE= 1.374788931843D+03
 Calling FoFJK, ICntrl=      2127 FMM=T ISym2X=0 I1Cent= 0 IOpClX= 0 NMat=1 NMatS=1 NMatT=0.
 ***** Axes restored to original set *****
 -------------------------------------------------------------------
 Center     Atomic                   Forces (Hartrees/Bohr)
 Number     Number              X              Y              Z
 -------------------------------------------------------------------
      1        6           0.009689436   -0.000720784    0.000303484
      2        6          -0.012564419   -0.005283943    0.002037208
      3        6          -0.000726844   -0.007877387   -0.000555234
      4        6           0.003509517   -0.004416463    0.010227295
      5        6          -0.011416283    0.000691122    0.000551678
      6        6          -0.004726757   -0.011188907   -0.001078967
      7        6           0.011790915    0.019234310    0.008123868
      8        6           0.008494466   -0.012210201   -0.013733146
      9        6           0.001598330    0.004210110    0.009830554
     10        6          -0.010538320    0.001766306   -0.020215358
     11        6          -0.015161093   -0.020221778   -0.012485141
     12        8           0.002874983    0.016601983   -0.000473246
     13        6           0.007898528    0.002376664    0.001945567
     14        6           0.003677601   -0.002914036   -0.006343579
     15        6          -0.010427846    0.000067391    0.000909988
     16        8           0.010503716   -0.004645035    0.010517471
     17        6           0.008153903   -0.011060892   -0.005450179
     18        6           0.032446333    0.007485463   -0.000674462
     19        8          -0.026767807    0.003178788    0.025984748
     20        6           0.011535514   -0.004881016   -0.000155251
     21        8          -0.006093268    0.006396177   -0.002071721
     22        6          -0.010407461    0.010590892    0.000968043
     23        6           0.007561767    0.009207686    0.003556462
     24        8          -0.003846830   -0.003551018   -0.008802325
     25        6           0.009701815    0.011289691    0.006534913
     26        6          -0.000225283   -0.000135945   -0.000012252
     27        6          -0.003489687   -0.009312743   -0.003786079
     28        6          -0.003353035    0.007604371   -0.005046027
     29        6          -0.003819898   -0.006320750   -0.008854965
     30        1          -0.001687397    0.001083040   -0.001813380
     31        1          -0.003380535    0.006146795   -0.000108609
     32        6          -0.001106563    0.000933958   -0.000948276
     33        1           0.001380104   -0.000651940   -0.000091496
     34        1          -0.000738019    0.005515486    0.001962236
     35        1           0.000271668    0.007315493   -0.000900014
     36        1           0.000012968   -0.001502777    0.001615915
     37        1           0.000112937    0.002485213    0.001604683
     38        1           0.000085753    0.002345002    0.001894158
     39        1           0.000804916    0.000593271   -0.001022665
     40        1           0.000019369   -0.000166435    0.000238421
     41        1           0.001649823    0.000233464   -0.000475441
     42        1           0.000035956    0.002769874   -0.000157997
     43        1          -0.001262510   -0.001974626   -0.001452445
     44        1          -0.001861831   -0.002260814   -0.001323490
     45        1           0.002147586   -0.001040434    0.002572415
     46        1           0.001548380   -0.002710500   -0.001864168
     47        1          -0.003794115   -0.001183722    0.002647122
     48        1          -0.004179981   -0.000889699   -0.000408025
     49        1           0.001970497   -0.001305538   -0.000719989
     50        1          -0.003936161   -0.001087405   -0.000040422
     51        1          -0.001143469    0.000062184   -0.000250706
     52        1           0.000476299   -0.000925707   -0.000153942
     53        1           0.002146775   -0.003853729    0.000410107
     54        1           0.000473436   -0.000796691    0.000222724
     55        1          -0.001105718   -0.002611971    0.005639483
     56        1          -0.000224609    0.000074229    0.003781750
     57        1           0.000706432    0.002825111    0.001369630
     58        1          -0.000817756    0.001210383    0.000594657
     59        1          -0.001150609    0.001805186   -0.000660198
     60        1           0.004283117   -0.001706460    0.000209361
     61        1           0.004073875   -0.001111008    0.000160860
     62        6           0.000279314   -0.005134804   -0.003377374
     63        1           0.000474932   -0.000018819   -0.001433481
     64        1          -0.001278830    0.000471465    0.001016376
     65        1          -0.001158024   -0.000897130   -0.000491129
 -------------------------------------------------------------------
 Cartesian Forces:  Max     0.032446333 RMS     0.006595148

 GradGradGradGradGradGradGradGradGradGradGradGradGradGradGradGradGradGrad
 Berny optimization.
 Internal  Forces:  Max     0.019404939 RMS     0.003409199
 Search for a local minimum.
 Step number   1 out of a maximum of  390
 All quantities printed in internal units (Hartrees-Bohrs-Radians)
 Mixed Optimization -- RFO/linear search
 Second derivative matrix not updated -- first step.
 ITU=  0
     Eigenvalues ---    0.00264   0.00273   0.00332   0.00423   0.00427
     Eigenvalues ---    0.00429   0.00456   0.00555   0.00588   0.00604
     Eigenvalues ---    0.00660   0.00682   0.00683   0.00702   0.00764
     Eigenvalues ---    0.01041   0.01086   0.01235   0.01254   0.01427
     Eigenvalues ---    0.01472   0.01634   0.01715   0.01825   0.01931
     Eigenvalues ---    0.02515   0.02819   0.02820   0.03030   0.03125
     Eigenvalues ---    0.03241   0.03596   0.03606   0.03855   0.04036
     Eigenvalues ---    0.04099   0.04320   0.04379   0.04626   0.04730
     Eigenvalues ---    0.04767   0.04843   0.04952   0.05088   0.05242
     Eigenvalues ---    0.05302   0.05385   0.05429   0.05438   0.05454
     Eigenvalues ---    0.05485   0.05502   0.05548   0.05632   0.05636
     Eigenvalues ---    0.05714   0.05917   0.05938   0.06269   0.06617
     Eigenvalues ---    0.06692   0.06878   0.07105   0.07107   0.07200
     Eigenvalues ---    0.07246   0.07259   0.07353   0.07713   0.08382
     Eigenvalues ---    0.08461   0.08865   0.09009   0.09193   0.09863
     Eigenvalues ---    0.10083   0.10650   0.10960   0.11634   0.12582
     Eigenvalues ---    0.13156   0.14645   0.15206   0.15969   0.16000
     Eigenvalues ---    0.16000   0.16000   0.16000   0.16000   0.16000
     Eigenvalues ---    0.16000   0.16000   0.16000   0.16000   0.16000
     Eigenvalues ---    0.16000   0.16000   0.16000   0.16000   0.16000
     Eigenvalues ---    0.16000   0.16000   0.16000   0.16000   0.16000
     Eigenvalues ---    0.16110   0.17230   0.17403   0.18154   0.18367
     Eigenvalues ---    0.19754   0.21545   0.21976   0.22718   0.23477
     Eigenvalues ---    0.24440   0.24932   0.24977   0.24985   0.24988
     Eigenvalues ---    0.24988   0.24993   0.25000   0.25904   0.27295
     Eigenvalues ---    0.27345   0.27752   0.27815   0.28043   0.28314
     Eigenvalues ---    0.28702   0.28764   0.28771   0.29164   0.29805
     Eigenvalues ---    0.29845   0.30042   0.30497   0.30519   0.31005
     Eigenvalues ---    0.31721   0.31730   0.31879   0.33420   0.33669
     Eigenvalues ---    0.33853   0.33887   0.33959   0.33972   0.34030
     Eigenvalues ---    0.34040   0.34047   0.34048   0.34062   0.34070
     Eigenvalues ---    0.34111   0.34130   0.34132   0.34164   0.34203
     Eigenvalues ---    0.34204   0.34220   0.34222   0.34244   0.34250
     Eigenvalues ---    0.34270   0.34270   0.34271   0.34302   0.34317
     Eigenvalues ---    0.34345   0.34356   0.34449   0.34476   0.34658
     Eigenvalues ---    0.34938   0.35101   0.35273   0.35397   0.36317
     Eigenvalues ---    0.37442   0.42969   0.43611   0.51798   0.53402
     Eigenvalues ---    0.54618   0.56135   0.89745   0.90931
 RFO step:  Lambda=-2.13273019D-02 EMin= 2.64009952D-03
 Linear search not attempted -- first point.
 Iteration  1 RMS(Cart)=  0.05671396 RMS(Int)=  0.00078875
 Iteration  2 RMS(Cart)=  0.00127783 RMS(Int)=  0.00024012
 Iteration  3 RMS(Cart)=  0.00000069 RMS(Int)=  0.00024012
 Variable       Old X    -DE/DX   Delta X   Delta X   Delta X     New X
                                 (Linear)    (Quad)   (Total)
    R1        2.53431  -0.00253   0.00000  -0.00508  -0.00513   2.52918
    R2        2.82218   0.00865   0.00000   0.02583   0.02575   2.84793
    R3        2.05775  -0.00013   0.00000  -0.00034  -0.00034   2.05741
    R4        2.85359   0.00383   0.00000   0.00851   0.00855   2.86214
    R5        2.84640   0.00311   0.00000   0.00919   0.00919   2.85559
    R6        2.94006   0.00507   0.00000   0.01165   0.01159   2.95165
    R7        2.90967   0.01129   0.00000   0.03876   0.03875   2.94843
    R8        2.07892  -0.00093   0.00000  -0.00260  -0.00260   2.07633
    R9        2.90758   0.00893   0.00000   0.02968   0.02947   2.93705
   R10        2.91504   0.00628   0.00000   0.02091   0.02101   2.93606
   R11        2.76600  -0.00478   0.00000  -0.01254  -0.01255   2.75345
   R12        2.91430   0.00080   0.00000   0.00554   0.00548   2.91978
   R13        2.90344   0.00646   0.00000   0.01504   0.01496   2.91840
   R14        2.89409   0.01082   0.00000   0.03669   0.03669   2.93078
   R15        2.07280   0.00299   0.00000   0.00828   0.00828   2.08108
   R16        2.07399  -0.00132   0.00000  -0.00366  -0.00366   2.07034
   R17        2.81572   0.00930   0.00000   0.02012   0.01975   2.83547
   R18        2.85899   0.01592   0.00000   0.05646   0.05592   2.91492
   R19        2.67707   0.00419   0.00000   0.00929   0.00929   2.68636
   R20        2.52473   0.01224   0.00000   0.02113   0.02117   2.54590
   R21        2.63033  -0.01931   0.00000  -0.04593  -0.04572   2.58461
   R22        2.79217  -0.00036   0.00000  -0.00495  -0.00478   2.78739
   R23        2.79534   0.01940   0.00000   0.05274   0.05274   2.84809
   R24        2.33051  -0.01330   0.00000  -0.01448  -0.01448   2.31603
   R25        2.32507  -0.01662   0.00000  -0.01786  -0.01786   2.30721
   R26        2.88354   0.00146   0.00000   0.00459   0.00459   2.88813
   R27        2.90629   0.00755   0.00000   0.02447   0.02447   2.93076
   R28        2.88273   0.00772   0.00000   0.02415   0.02415   2.90688
   R29        2.07522  -0.00070   0.00000  -0.00196  -0.00196   2.07326
   R30        2.07377   0.00116   0.00000   0.00323   0.00323   2.07699
   R31        2.07251   0.00018   0.00000   0.00050   0.00050   2.07301
   R32        2.87880   0.00719   0.00000   0.02236   0.02236   2.90116
   R33        2.06876   0.00112   0.00000   0.00308   0.00308   2.07184
   R34        2.07054   0.00011   0.00000   0.00030   0.00030   2.07084
   R35        2.06956  -0.00076   0.00000  -0.00209  -0.00209   2.06747
   R36        2.91690  -0.00090   0.00000   0.00920   0.00947   2.92637
   R37        2.90537   0.00433   0.00000   0.01536   0.01542   2.92079
   R38        2.07112  -0.00169   0.00000  -0.00465  -0.00465   2.06647
[...]
     55          1           0        0.422059    2.003232   -3.094666
     56          1           0        2.194561    3.411701    0.593722
     57          1           0        3.016221    3.601542   -0.963592
     58          1           0        1.597436    4.595348   -0.588189
     59          1           0       -0.697084    1.415105    4.998715
     60          1           0        0.184285    2.391247    3.814246
     61          1           0       -1.527399    2.696081    4.095574
     62          6           0        5.755639   -0.879417    0.370288
     63          1           0        6.547859   -0.141825    0.546339
     64          1           0        5.261209   -1.091484    1.321522
     65          1           0        6.236916   -1.804059    0.033084
 ---------------------------------------------------------------------
 Rotational constants (GHZ):      0.2075685      0.1209294      0.1155970

 **********************************************************************

            Population analysis using the SCF density.

 **********************************************************************

 Orbital symmetries:
       Occupied  (A) (A) (A) (A) (A) (A) (A) (A) (A) (A) (A) (A)
                 (A) (A) (A) (A) (A) (A) (A) (A) (A) (A) (A) (A)
                 (A) (A) (A) (A) (A) (A) (A) (A) (A) (A) (A) (A)
                 (A) (A) (A) (A) (A) (A) (A) (A) (A) (A) (A) (A)
                 (A) (A) (A) (A) (A) (A) (A) (A) (A) (A) (A) (A)
                 (A) (A) (A) (A) (A) (A) (A) (A) (A) (A) (A) (A)
                 (A) (A) (A) (A) (A) (A) (A) (A) (A) (A) (A) (A)
                 (A) (A) (A) (A) (A) (A) (A) (A) (A) (A) (A) (A)
                 (A) (A) (A) (A) (A) (A) (A) (A) (A) (A) (A) (A)
                 (A) (A) (A) (A) (A) (A) (A)
       Virtual   (A) (A) (A) (A) (A) (A) (A) (A) (A) (A) (A) (A)
                 (A) (A) (A) (A) (A) (A) (A) (A) (A) (A) (A) (A)
                 (A) (A) (A) (A) (A) (A) (A) (A) (A) (A) (A) (A)
                 (A) (A) (A) (A) (A) (A) (A) (A) (A) (A) (A) (A)
                 (A) (A) (A) (A) (A) (A) (A) (A) (A) (A) (A) (A)
                 (A) (A) (A) (A) (A) (A) (A) (A) (A) (A) (A) (A)
                 (A) (A) (A) (A) (A) (A) (A) (A) (A) (A) (A) (A)
                 (A) (A) (A) (A) (A) (A) (A) (A) (A) (A) (A) (A)
                 (A) (A) (A) (A) (A) (A) (A) (A) (A) (A) (A) (A)
                 (A) (A) (A) (A) (A) (A) (A) (A) (A) (A) (A) (A)
                 (A) (A) (A) (A) (A) (A) (A) (A) (A) (A) (A) (A)
                 (A) (A) (A) (A) (A) (A) (A) (A) (A) (A) (A) (A)
                 (A) (A) (A) (A) (A) (A) (A) (A) (A) (A) (A) (A)
                 (A) (A) (A) (A) (A) (A) (A) (A) (A) (A) (A) (A)
                 (A) (A) (A) (A) (A) (A) (A) (A) (A) (A) (A) (A)
                 (A) (A) (A) (A) (A) (A) (A) (A) (A) (A) (A) (A)
                 (A) (A) (A) (A) (A) (A) (A) (A) (A) (A) (A) (A)
                 (A) (A) (A) (A) (A) (A) (A) (A) (A) (A) (A) (A)
                 (A) (A) (A) (A) (A) (A) (A) (A) (A) (A) (A) (A)
                 (A) (A) (A) (A) (A) (A) (A) (A) (A) (A) (A) (A)
                 (A) (A) (A) (A) (A) (A) (A) (A) (A) (A) (A) (A)
                 (A) (A) (A) (A) (A) (A) (A) (A) (A) (A) (A) (A)
                 (A) (A) (A) (A) (A) (A) (A) (A) (A) (A) (A) (A)
                 (A) (A) (A) (A) (A) (A) (A) (A) (A) (A) (A) (A)
                 (A) (A) (A) (A) (A) (A) (A) (A) (A) (A) (A) (A)
                 (A) (A) (A) (A) (A) (A) (A) (A) (A) (A) (A) (A)
                 (A) (A) (A) (A) (A) (A) (A) (A) (A) (A) (A) (A)
                 (A) (A) (A) (A) (A) (A) (A) (A) (A) (A) (A) (A)
                 (A) (A) (A) (A) (A) (A) (A) (A) (A) (A) (A) (A)
                 (A) (A) (A) (A) (A) (A) (A) (A) (A) (A) (A) (A)
                 (A) (A) (A) (A) (A) (A) (A) (A) (A) (A) (A) (A)
                 (A) (A) (A) (A) (A) (A) (A) (A) (A) (A) (A) (A)
                 (A) (A) (A) (A) (A) (A) (A) (A) (A) (A) (A) (A)
                 (A) (A) (A) (A) (A) (A) (A) (A) (A) (A) (A) (A)
                 (A) (A) (A) (A) (A) (A) (A) (A) (A) (A)
 The electronic state is 1-A.
 Alpha  occ. eigenvalues --  -19.19998 -19.16672 -19.15883 -19.12335 -19.12239
 Alpha  occ. eigenvalues --  -10.27278 -10.27003 -10.26872 -10.26133 -10.25913
 Alpha  occ. eigenvalues --  -10.25753 -10.25224 -10.21166 -10.20865 -10.20784
 Alpha  occ. eigenvalues --  -10.20340 -10.19996 -10.19571 -10.19371 -10.19336
 Alpha  occ. eigenvalues --  -10.19325 -10.19230 -10.18797 -10.18481 -10.18449
 Alpha  occ. eigenvalues --  -10.18396 -10.18131 -10.18060 -10.17339 -10.16537
 Alpha  occ. eigenvalues --  -10.15565  -1.09345  -1.06067  -1.03021  -1.02646
 Alpha  occ. eigenvalues --   -1.01770  -0.86744  -0.83797  -0.82475  -0.81374
 Alpha  occ. eigenvalues --   -0.80233  -0.79105  -0.76767  -0.74261  -0.73214
 Alpha  occ. eigenvalues --   -0.71866  -0.71133  -0.70209  -0.69547  -0.67996
 Alpha  occ. eigenvalues --   -0.65086  -0.64556  -0.63073  -0.61752  -0.60667
 Alpha  occ. eigenvalues --   -0.59374  -0.58519  -0.56787  -0.54950  -0.53781
 Alpha  occ. eigenvalues --   -0.52675  -0.52221  -0.50470  -0.50241  -0.49246
 Alpha  occ. eigenvalues --   -0.47879  -0.47505  -0.46871  -0.46409  -0.45899
 Alpha  occ. eigenvalues --   -0.44985  -0.44499  -0.44311  -0.43782  -0.43266
 Alpha  occ. eigenvalues --   -0.42744  -0.42313  -0.42062  -0.41765  -0.41366
 Alpha  occ. eigenvalues --   -0.41039  -0.40798  -0.40607  -0.40233  -0.39330
 Alpha  occ. eigenvalues --   -0.39132  -0.38705  -0.38464  -0.37964  -0.37586
 Alpha  occ. eigenvalues --   -0.37459  -0.37344  -0.37195  -0.36963  -0.36484
 Alpha  occ. eigenvalues --   -0.36314  -0.35864  -0.35212  -0.34642  -0.34411
 Alpha  occ. eigenvalues --   -0.34022  -0.33663  -0.33087  -0.32833  -0.31903
 Alpha  occ. eigenvalues --   -0.31288  -0.31103  -0.30805  -0.28332  -0.26611
 Alpha  occ. eigenvalues --   -0.25893  -0.24546  -0.24172  -0.23350  -0.22095
 Alpha virt. eigenvalues --   -0.04739  -0.01450   0.00974   0.02249   0.05887
 Alpha virt. eigenvalues --    0.07427   0.08297   0.08534   0.09311   0.09915
 Alpha virt. eigenvalues --    0.10450   0.10769   0.11093   0.11907   0.12767
 Alpha virt. eigenvalues --    0.12809   0.13107   0.13869   0.13981   0.14230
 Alpha virt. eigenvalues --    0.14435   0.14770   0.15214   0.15674   0.16212
 Alpha virt. eigenvalues --    0.16351   0.16531   0.16709   0.17107   0.17352
 Alpha virt. eigenvalues --    0.17490   0.17813   0.18259   0.18535   0.18851
 Alpha virt. eigenvalues --    0.19109   0.19126   0.19413   0.19892   0.20421
 Alpha virt. eigenvalues --    0.20640   0.21031   0.21237   0.21527   0.22175
 Alpha virt. eigenvalues --    0.22572   0.22828   0.23713   0.23983   0.24119
 Alpha virt. eigenvalues --    0.24596   0.25104   0.25213   0.26360   0.26535
 Alpha virt. eigenvalues --    0.27546   0.27720   0.28424   0.29084   0.29875
 Alpha virt. eigenvalues --    0.30008   0.31586   0.32038   0.32655   0.33881
 Alpha virt. eigenvalues --    0.34628   0.35692   0.36790   0.39356   0.40138
 Alpha virt. eigenvalues --    0.42063   0.45362   0.46306   0.48131   0.48628
 Alpha virt. eigenvalues --    0.49172   0.50571   0.51336   0.51408   0.51857
 Alpha virt. eigenvalues --    0.52048   0.52740   0.53194   0.53238   0.53525
 Alpha virt. eigenvalues --    0.53865   0.54383   0.55322   0.55609   0.56628
 Alpha virt. eigenvalues --    0.56860   0.57039   0.57819   0.58204   0.59125
 Alpha virt. eigenvalues --    0.59164   0.60579   0.61167   0.61573   0.62160
 Alpha virt. eigenvalues --    0.62250   0.62664   0.62870   0.63941   0.64186
 Alpha virt. eigenvalues --    0.64841   0.65341   0.65716   0.67180   0.67285
 Alpha virt. eigenvalues --    0.67667   0.68190   0.68370   0.68808   0.69383
 Alpha virt. eigenvalues --    0.69899   0.70796   0.71521   0.72383   0.73072
 Alpha virt. eigenvalues --    0.73464   0.74351   0.75033   0.75918   0.76181
 Alpha virt. eigenvalues --    0.76745   0.77660   0.78181   0.78831   0.79864
 Alpha virt. eigenvalues --    0.80166   0.80775   0.81351   0.81941   0.82106
 Alpha virt. eigenvalues --    0.82330   0.83512   0.84010   0.84073   0.85110
 Alpha virt. eigenvalues --    0.85750   0.85965   0.86230   0.86493   0.87041
 Alpha virt. eigenvalues --    0.87654   0.88106   0.88385   0.88690   0.88799
 Alpha virt. eigenvalues --    0.89037   0.89620   0.89662   0.90040   0.90449
 Alpha virt. eigenvalues --    0.90920   0.91032   0.91526   0.91770   0.92759
 Alpha virt. eigenvalues --    0.93010   0.93389   0.93748   0.94162   0.94484
 Alpha virt. eigenvalues --    0.95028   0.95708   0.96215   0.96387   0.97204
 Alpha virt. eigenvalues --    0.97580   0.97687   0.98429   0.98899   0.99779
 Alpha virt. eigenvalues --    1.00739   1.01231   1.01596   1.02545   1.03249
 Alpha virt. eigenvalues --    1.04908   1.05712   1.05910   1.07710   1.08647
 Alpha virt. eigenvalues --    1.08831   1.10540   1.11364   1.12520   1.13516
 Alpha virt. eigenvalues --    1.14177   1.15200   1.15615   1.15979   1.16885
 Alpha virt. eigenvalues --    1.17628   1.18643   1.19680   1.19970   1.20697
 Alpha virt. eigenvalues --    1.22786   1.23301   1.24414   1.25287   1.26371
 Alpha virt. eigenvalues --    1.29072   1.29348   1.30245   1.31949   1.32669
 Alpha virt. eigenvalues --    1.33631   1.36116   1.37926   1.38799   1.39288
 Alpha virt. eigenvalues --    1.40974   1.41684   1.42619   1.43651   1.45668
 Alpha virt. eigenvalues --    1.46977   1.47063   1.49505   1.50985   1.51811
 Alpha virt. eigenvalues --    1.54519   1.55057   1.55798   1.56988   1.59013
 Alpha virt. eigenvalues --    1.59137   1.60355   1.62165   1.62364   1.63365
 Alpha virt. eigenvalues --    1.65037   1.65408   1.66897   1.67717   1.68540
 Alpha virt. eigenvalues --    1.70375   1.71447   1.72238   1.73090   1.73666
 Alpha virt. eigenvalues --    1.74008   1.74255   1.75435   1.77127   1.77722
 Alpha virt. eigenvalues --    1.77807   1.79410   1.79793   1.80849   1.81549
 Alpha virt. eigenvalues --    1.82010   1.82480   1.83294   1.83540   1.84851
 Alpha virt. eigenvalues --    1.85536   1.85799   1.86411   1.87145   1.87410
 Alpha virt. eigenvalues --    1.88416   1.88947   1.89612   1.90216   1.91737
 Alpha virt. eigenvalues --    1.92070   1.92606   1.93927   1.94301   1.94783
 Alpha virt. eigenvalues --    1.96252   1.96744   1.97331   1.97655   1.97869
 Alpha virt. eigenvalues --    1.98378   1.98615   1.99325   1.99648   2.00891
 Alpha virt. eigenvalues --    2.01544   2.02859   2.04174   2.05380   2.06053
 Alpha virt. eigenvalues --    2.06389   2.07357   2.08537   2.09518   2.10058
 Alpha virt. eigenvalues --    2.10571   2.11805   2.12135   2.12532   2.13551
 Alpha virt. eigenvalues --    2.13791   2.14953   2.15856   2.16904   2.17880
 Alpha virt. eigenvalues --    2.18833   2.19281   2.20978   2.21705   2.22525
 Alpha virt. eigenvalues --    2.23759   2.24581   2.25148   2.25925   2.27033
 Alpha virt. eigenvalues --    2.27207   2.27881   2.29335   2.30956   2.31579
 Alpha virt. eigenvalues --    2.32604   2.33116   2.34017   2.34739   2.34997
 Alpha virt. eigenvalues --    2.35492   2.35966   2.36776   2.38274   2.38838
 Alpha virt. eigenvalues --    2.39794   2.41235   2.41317   2.42289   2.43068
 Alpha virt. eigenvalues --    2.44912   2.45739   2.46990   2.47806   2.48936
 Alpha virt. eigenvalues --    2.49500   2.50505   2.51624   2.53386   2.54033
 Alpha virt. eigenvalues --    2.54460   2.56984   2.57393   2.59107   2.59795
 Alpha virt. eigenvalues --    2.60751   2.62120   2.63916   2.65702   2.65895
 Alpha virt. eigenvalues --    2.66316   2.67701   2.68496   2.69612   2.70226
 Alpha virt. eigenvalues --    2.71369   2.72479   2.73368   2.75682   2.76810
 Alpha virt. eigenvalues --    2.77084   2.78568   2.79508   2.81561   2.83645
 Alpha virt. eigenvalues --    2.85309   2.90520   2.92141   2.93569   2.97991
 Alpha virt. eigenvalues --    2.98277   2.99948   3.00813   3.02078   3.03133
 Alpha virt. eigenvalues --    3.05174   3.06597   3.12220   3.18422   3.21558
 Alpha virt. eigenvalues --    3.25764   3.27909   4.04567   4.07567   4.09363
 Alpha virt. eigenvalues --    4.12660   4.13002   4.15489   4.17645   4.19953
 Alpha virt. eigenvalues --    4.23376   4.23911   4.26396   4.27512   4.30405
 Alpha virt. eigenvalues --    4.31384   4.34752   4.37801   4.38130   4.43917
 Alpha virt. eigenvalues --    4.45025   4.48768   4.52239   4.55531   4.58468
 Alpha virt. eigenvalues --    4.63565   4.65380   4.69669   4.72779   4.81365
 Alpha virt. eigenvalues --    4.89168   5.00840   5.16370
          Condensed to atoms (all electrons):
 Mulliken atomic charges:
              1
     1  C   -0.185105
     2  C    0.192186
     3  C   -0.189408
     4  C    0.320994
     5  C   -0.051082
     6  C   -0.334599
     7  C    0.200521
     8  C    0.386537
     9  C   -0.089637
    10  C    0.428974
    11  C    0.423482
    12  O   -0.450835
    13  C   -0.142761
    14  C   -0.261481
    15  C   -0.453732
    16  O   -0.486436
    17  C   -0.163288
    18  C    0.305517
    19  O   -0.536043
    20  C   -0.323093
    21  O   -0.661438
    22  C   -0.322958
    23  C    0.104962
    24  O   -0.590759
    25  C    0.187456
    26  C   -0.519564
    27  C   -0.407718
    28  C   -0.469301
    29  C   -0.461424
    30  H    0.144449
    31  H    0.166461
    32  C   -0.519334
    33  H    0.124937
    34  H    0.145003
    35  H    0.186167
    36  H    0.133885
    37  H    0.127545
    38  H    0.139741
    39  H    0.138519
    40  H    0.150724
    41  H    0.172710
    42  H    0.165959
    43  H    0.151477
    44  H    0.416556
    45  H    0.170496
    46  H    0.167609
    47  H    0.144550
    48  H    0.158960
    49  H    0.161447
    50  H    0.170664
    51  H    0.139093
    52  H    0.151826
    53  H    0.156156
    54  H    0.144302
    55  H    0.194557
    56  H    0.162883
    57  H    0.164314
    58  H    0.152446
    59  H    0.159358
    60  H    0.156441
    61  H    0.150065
    62  C   -0.447853
    63  H    0.129910
    64  H    0.176378
    65  H    0.141629
 Sum of Mulliken atomic charges =   0.00000
 Mulliken charges with hydrogens summed into heavy atoms:
              1
     1  C   -0.060169
     2  C    0.192186
     3  C   -0.022947
     4  C    0.320994
     5  C   -0.051082
     6  C   -0.003430
     7  C    0.200521
     8  C    0.386537
     9  C   -0.089637
    10  C    0.428974
    11  C    0.423482
    12  O   -0.450835
    13  C   -0.008877
    14  C    0.005805
    15  C    0.008221
    16  O   -0.486436
    17  C   -0.018838
    18  C    0.305517
    19  O   -0.536043
    20  C   -0.005656
    21  O   -0.244881
    22  C    0.015146
    23  C    0.249512
    24  O   -0.590759
    25  C    0.187456
    26  C   -0.028492
    27  C   -0.116799
    28  C    0.025715
    29  C    0.018219
    32  C   -0.053470
    62  C    0.000064
 Sum of Mulliken charges with hydrogens summed into heavy atoms =   0.00000
 Electronic spatial extent (au):  <R**2>=          11589.5171
 Charge=              0.0000 electrons
 Dipole moment (field-independent basis, Debye):
    X=             -3.5381    Y=              4.9733    Z=             -1.6088  Tot=              6.3119
 Quadrupole moment (field-independent basis, Debye-Ang):
   XX=           -181.6976   YY=           -182.5990   ZZ=           -182.8668
   XY=             13.4361   XZ=             -4.9058   YZ=              5.8977
 Traceless Quadrupole moment (field-independent basis, Debye-Ang):
   XX=              0.6902   YY=             -0.2112   ZZ=             -0.4790
   XY=             13.4361   XZ=             -4.9058   YZ=              5.8977
 Octapole moment (field-independent basis, Debye-Ang**2):
  XXX=            -34.3670  YYY=             61.7252  ZZZ=              7.3440  XYY=            -20.2714
  XXY=            -17.0329  XXZ=            -41.5850  XZZ=            -17.4480  YZZ=              7.6694
  YYZ=            -26.1611  XYZ=              9.9671
 Hexadecapole moment (field-independent basis, Debye-Ang**3):
 XXXX=          -8564.3727 YYYY=          -3748.9591 ZZZZ=          -3225.6436 XXXY=            149.1464
 XXXZ=             32.0571 YYYX=             48.2079 YYYZ=             -0.1741 ZZZX=             30.6229
 ZZZY=            -31.0784 XXYY=          -2004.0822 XXZZ=          -1926.2900 YYZZ=          -1156.0234
 XXYZ=             42.8842 YYXZ=            -26.6275 ZZXY=             26.7777
 N-N= 3.508222111829D+03 E-N=-1.024264847895D+04  KE= 1.374444410626D+03
 1\1\GINC-B0604\FOpt\RB3LYP\6-31G(d)\C26H34O5\CAOFEI\24-Mar-2021\0\\# o
 pt rb3lyp/6-31g(d) geom=connectivity\\Title Card Required\\0,1\C,0.040
 1470579,-0.0628990016,0.041195477\C,1.3759208603,-0.0473806395,-0.0334
 83293\C,2.14866023,1.2559548756,-0.0320479343\C,1.3052414306,2.5476975
 383,-0.2672836875\C,-0.2130478442,2.413027459,-0.5487045942\C,-0.81690
 14255,1.1675714072,0.1467057435\C,2.0570586162,3.3057816045,-1.3936273
 356\C,1.6146354292,2.891023126,-2.7818000972\C,0.3578204691,2.51547349
 7,-3.1201552617\C,-0.6466032255,2.3848632263,-2.042173912\C,-0.0433141
 361,2.1317976436,-4.5219049105\O,-0.7354496103,1.1456526924,-4.7083251
 905\C,0.3930089436,3.0291072831,-5.6870316909\C,1.3272894667,2.2838450
 779,-6.6776205771\C,-0.8664345718,3.5996485405,-6.3659461184\O,-1.8382
 877941,2.2666953641,-2.2824028175\C,3.5107214261,2.7848168385,-1.43011
 42251\C,3.9409438114,3.0671440523,-2.8886984314\O,2.6587971802,2.89396
 03542,-3.6280354551\C,3.3176798741,1.2995286577,-1.0601494527\O,1.9005
 941774,4.7090613262,-1.2971226211\C,-0.7734855927,3.7067605265,0.09540
 52417\C,0.12788081,3.892073493,1.3235073486\O,1.4088470183,3.370466263
 1,0.9236052983\C,0.2457631613,5.310886657,1.8376082238\C,-1.0649097056
 ,5.9843598452,2.1630297013\C,1.4279797266,5.9038985548,2.0335684434\C,
 4.4182676016,4.5052211773,-3.1050965603\C,4.9228638889,2.0739458902,-3
 .5042232975\H,4.1481532978,3.3069440181,-0.7100684015\H,2.5829158858,1
 .3906387402,0.9686793917\C,2.185843606,-1.3204241792,-0.0454374179\H,-
 0.475847159,-1.0214779403,0.0721825347\H,-0.9904757056,1.3904482808,1.
 21077343\H,-1.8048772951,0.9958689374,-0.2907084808\H,0.9700190302,3.8
 649626868,-5.2773021172\H,1.7272688022,3.0396961888,-7.368411315\H,2.1
 886473166,1.9023322111,-6.1151038413\H,-0.5883765394,4.2114179887,-7.2
 324917856\H,-1.4337918856,4.2312609994,-5.6731231699\H,-1.52779608,2.7
 963997458,-6.7014788429\H,3.0325675343,0.7293735927,-1.9507881676\H,4.
 2293151468,0.8418752821,-0.6655623244\H,1.9049635073,4.9007801325,-0.3
 385954864\H,-0.6589177558,4.5555158041,-0.586219779\H,-1.8321886435,3.
 6044908476,0.3460220803\H,-0.2463383049,3.2670953638,2.1514223473\H,-1
 .6540398773,5.3830779513,2.8690656576\H,-0.9021060014,6.9681567884,2.6
 120244422\H,-1.6860487086,6.1168987642,1.2679355256\H,1.4903740304,6.9
 193887134,2.4153385632\H,2.3644395473,5.3890221164,1.8451961925\H,4.53
 37453881,4.7019857434,-4.1760481501\H,5.3929051846,4.6506564585,-2.624
 9795614\H,3.7098542395,5.2202063135,-2.6832276976\H,4.5548978643,1.046
 6003125,-3.4556706986\H,5.0993149139,2.3235984667,-4.5553418082\H,5.88
 22468583,2.1255227052,-2.9775860123\H,1.5378994939,-2.1994227797,0.024
 7063451\H,2.7879932447,-1.4214943899,-0.957498205\H,2.8890411413,-1.35
 07530176,0.7994071401\C,0.6975015288,1.1450031839,-7.4875071698\H,1.45
 41315893,0.6757535062,-8.1277911692\H,0.2715062636,0.378874945,-6.8349
 307504\H,-0.1043287322,1.5089421881,-8.1393593122\\Version=EM64L-G09Re
 vB.01\State=1-A\HF=-1387.3173873\RMSD=7.339e-09\RMSF=4.430e-06\Dipole=
 1.9148617,0.6077609,1.4597125\Quadrupole=0.0222866,0.2014178,-0.223704
 4,-6.2620855,-9.3507781,-2.4144951\PG=C01 [X(C26H34O5)]\\@


 THERE IS MUCH PLEASURE TO BE GAINED FROM USELESS KNOWLEDGE

                                       -- BERTRAND RUSSELL
 Job cpu time:  0 days  7 hours  6 minutes 58.0 seconds.
 File lengths (MBytes):  RWF=    186 Int=      0 D2E=      0 Chk=     20 Scr=      1
 Normal termination of Gaussian 09 at Wed Mar 24 15:57:04 2021.
