 Entering Gaussian System, Link 0=g09
 Initial command:
 /public/software/g09/g09/l1.exe /tmp/Gau-27562.inp -scrdir=/tmp/
 Entering Link 1 = /public/software/g09/g09/l1.exe PID=     27563.
  
 Copyright (c) 1988,1990,1992,1993,1995,1998,2003,2009,2010,
            Gaussian, Inc.  All Rights Reserved.
  
 This is part of the Gaussian(R) 09 program.  It is based on
 the Gaussian(R) 03 system (copyright 2003, Gaussian, Inc.),
 the Gaussian(R) 98 system (copyright 1998, Gaussian, Inc.),
 the Gaussian(R) 94 system (copyright 1995, Gaussian, Inc.),
 the Gaussian 92(TM) system (copyright 1992, Gaussian, Inc.),
 the Gaussian 90(TM) system (copyright 1990, Gaussian, Inc.),
 the Gaussian 88(TM) system (copyright 1988, Gaussian, Inc.),
 the Gaussian 86(TM) system (copyright 1986, Carnegie Mellon
 University), and the Gaussian 82(TM) system (copyright 1983,
 Carnegie Mellon University). Gaussian is a federally registered
 trademark of Gaussian, Inc.
  
 This software contains proprietary and confidential information,
 including trade secrets, belonging to Gaussian, Inc.
  
 This software is provided under written license and may be
 used, copied, transmitted, or stored only in accord with that
 written license.
  
 The following legend is applicable only to US Government
 contracts under FAR:
  
                    RESTRICTED RIGHTS LEGEND
  
 Use, reproduction and disclosure by the US Government is
 subject to restrictions as set forth in subparagraphs (a)
 and (c) of the Commercial Computer Software - Restricted
 Rights clause in FAR 52.227-19.
  
 Gaussian, Inc.
 340 Quinnipiac St., Bldg. 40, Wallingford CT 06492
  
  
 ---------------------------------------------------------------
 Warning -- This program may not be used in any manner that
 competes with the business of Gaussian, Inc. or will provide
 assistance to any competitor of Gaussian, Inc.  The licensee
 of this program is prohibited from giving any competitor of
 Gaussian, Inc. access to this program.  By using this program,
 the user acknowledges that Gaussian, Inc. is engaged in the
 business of creating and licensing software in the field of
 computational chemistry and represents and warrants to the
 licensee that it is not a competitor of Gaussian, Inc. and that
 it will not use this program in any manner prohibited above.
 ---------------------------------------------------------------
  

 Cite this work as:
 Gaussian 09, Revision B.01,
 M. J. Frisch, G. W. Trucks, H. B. Schlegel, G. E. Scuseria, 
 M. A. Robb, J. R. Cheeseman, G. Scalmani, V. Barone, B. Mennucci, 
 G. A. Petersson, H. Nakatsuji, M. Caricato, X. Li, H. P. Hratchian, 
 A. F. Izmaylov, J. Bloino, G. Zheng, J. L. Sonnenberg, M. Hada, 
 M. Ehara, K. Toyota, R. Fukuda, J. Hasegawa, M. Ishida, T. Nakajima, 
 Y. Honda, O. Kitao, H. Nakai, T. Vreven, J. A. Montgomery, Jr., 
 J. E. Peralta, F. Ogliaro, M. Bearpark, J. J. Heyd, E. Brothers, 
 K. N. Kudin, V. N. Staroverov, T. Keith, R. Kobayashi, J. Normand, 
 K. Raghavachari, A. Rendell, J. C. Burant, S. S. Iyengar, J. Tomasi, 
 M. Cossi, N. Rega, J. M. Millam, M. Klene, J. E. Knox, J. B. Cross, 
 V. Bakken, C. Adamo, J. Jaramillo, R. Gomperts, R. E. Stratmann, 
 O. Yazyev, A. J. Austin, R. Cammi, C. Pomelli, J. W. Ochterski, 
 R. L. Martin, K. Morokuma, V. G. Zakrzewski, G. A. Voth, 
 P. Salvador, J. J. Dannenberg, S. Dapprich, A. D. Daniels, 
 O. Farkas, J. B. Foresman, J. V. Ortiz, J. Cioslowski, 
 and D. J. Fox, Gaussian, Inc., Wallingford CT, 2010.
 
 ******************************************
 Gaussian 09:  EM64L-G09RevB.01 12-Aug-2010
                24-Mar-2021 
 ******************************************
 %mem=600MW
 %nprocshared=10
 Will use up to   10 processors via shared memory.
 ---------------------------------------
 # opt rb3lyp/6-31g(d) geom=connectivity
 ---------------------------------------
 1/14=-1,18=20,19=15,26=3,38=1,57=2/1,3;
 2/9=110,12=2,17=6,18=5,40=1/2;
 3/5=1,6=6,7=1,11=2,16=1,25=1,30=1,71=1,74=-5,116=1/1,2,3;
 4//1;
 5/5=2,38=5/2;
 6/7=2,8=2,9=2,10=2,28=1/1;
 7//1,2,3,16;
 1/14=-1,18=20,19=15/3(2);
 2/9=110/2;
 99//99;
 2/9=110/2;
 3/5=1,6=6,7=1,11=2,16=1,25=1,30=1,71=1,74=-5,116=1/1,2,3;
 4/5=5,16=3/1;
 5/5=2,38=5/2;
 7//1,2,3,16;
 1/14=-1,18=20,19=15/3(-5);
 2/9=110/2;
 6/7=2,8=2,9=2,10=2,19=2,28=1/1;
 99/9=1/99;
 -------------------
 Title Card Required
 -------------------
 Symbolic Z-matrix:
 Charge =  0 Multiplicity = 1
 C                     0.        0.        0. 
 C                     1.3409    0.        0. 
 C                     2.1171    1.2916    0. 
 C                     1.3926    2.5336    0.6005 
 C                    -0.134     2.4202    0.794 
 C                    -0.798     1.2649    0.0085 
 C                     1.8493    3.7071   -0.3067 
 C                     0.8261    4.218    -1.2598 
 C                    -0.4752    4.2745   -0.962 
 C                    -0.8827    3.6811    0.3336 
 C                    -1.4773    4.7381   -1.9446 
 O                    -2.3489    3.9548   -2.3222 
 C                    -1.4119    6.1929   -2.401 
 C                    -1.8138    6.3405   -3.8763 
 C                    -2.3424    7.0123   -1.5074 
 O                    -1.8594    4.1312    0.9281 
 C                     2.8983    3.184    -1.2682 
 C                     2.7228    4.086    -2.5055 
 O                     1.3343    4.4986   -2.5192 
 C                     2.5012    1.7135   -1.4253 
 O                     2.3461    4.8096    0.4387 
 C                    -0.2791    2.1853    2.3005 
 C                     0.9782    2.7565    2.9353 
 O                     1.9839    2.7656    1.912 
 C                     0.9626    4.1315    3.5712 
 C                     2.2536    4.5312    4.2454 
 C                    -0.0893    4.9655    3.6186 
 C                     3.5842    5.3562   -2.4249 
 C                     3.0215    3.3779   -3.8297 
 H                     3.9155    3.2526   -0.8626 
 H                     3.0412    1.1279    0.5737 
 C                     2.1373   -1.2727   -0.0399 
 H                    -0.5535   -0.9354   -0.0416 
 H                    -1.7833    1.0542    0.4463 
 H                    -0.9924    1.5371   -1.0367 
 H                    -0.3916    6.5734   -2.2757 
 H                    -2.8022    5.8993   -4.0536 
 H                    -1.893     7.4055   -4.1268 
 H                    -3.3798    6.6699   -1.5921 
 H                    -2.3096    8.0729   -1.7776 
 H                    -2.0521    6.9246   -0.4548 
 H                     1.65      1.5892   -2.1061 
 H                     3.3311    1.1169   -1.8192 
 H                     2.5848    4.4471    1.3163 
 H                    -1.2072    2.5627    2.7383 
 H                    -0.2843    1.1068    2.509 
 H                     1.3135    2.0554    3.7106 
 H                     3.0722    4.5865    3.5217 
 H                     2.5202    3.7994    5.0152 
 H                     2.1812    5.5093    4.7333 
 H                    -0.0212    5.9324    4.1096 
 H                    -1.0542    4.7298    3.1871 
 H                     3.3371    5.9681   -1.5526 
 H                     4.6509    5.1124   -2.3872 
 H                     3.4072    5.9982   -3.296 
 H                     2.3128    2.5671   -4.0265 
 H                     4.0382    2.9726   -3.8466 
 H                     2.9125    4.0708   -4.6726 
 H                     1.4948   -2.1593   -0.0573 
 H                     2.7683   -1.3013   -0.9337 
 H                     2.78     -1.3451    0.8433 
 C                    -0.8086    5.7019   -4.8259 
 H                    -1.1146    5.8679   -5.8638 
 H                    -0.7367    4.6217   -4.6675 
 H                     0.1867    6.1379   -4.6941 
 

 GradGradGradGradGradGradGradGradGradGradGradGradGradGradGradGradGradGrad
 Berny optimization.
 Initialization pass.
                           ----------------------------
                           !    Initial Parameters    !
                           ! (Angstroms and Degrees)  !
 --------------------------                            --------------------------
 ! Name  Definition              Value          Derivative Info.                !
 --------------------------------------------------------------------------------
 ! R1    R(1,2)                  1.3409         estimate D2E/DX2                !
 ! R2    R(1,6)                  1.4956         estimate D2E/DX2                !
 ! R3    R(1,33)                 1.0877         estimate D2E/DX2                !
 ! R4    R(2,3)                  1.5069         estimate D2E/DX2                !
 ! R5    R(2,32)                 1.5019         estimate D2E/DX2                !
 ! R6    R(3,4)                  1.5582         estimate D2E/DX2                !
 ! R7    R(3,20)                 1.5353         estimate D2E/DX2                !
 ! R8    R(3,31)                 1.1            estimate D2E/DX2                !
 ! R9    R(4,5)                  1.543          estimate D2E/DX2                !
 ! R10   R(4,7)                  1.552          estimate D2E/DX2                !
 ! R11   R(4,24)                 1.4572         estimate D2E/DX2                !
 ! R12   R(5,6)                  1.5468         estimate D2E/DX2                !
 ! R13   R(5,10)                 1.537          estimate D2E/DX2                !
 ! R14   R(5,22)                 1.5316         estimate D2E/DX2                !
 ! R15   R(6,34)                 1.0986         estimate D2E/DX2                !
 ! R16   R(6,35)                 1.0974         estimate D2E/DX2                !
 ! R17   R(7,8)                  1.4887         estimate D2E/DX2                !
 ! R18   R(7,17)                 1.5161         estimate D2E/DX2                !
 ! R19   R(7,21)                 1.4205         estimate D2E/DX2                !
 ! R20   R(8,9)                  1.3361         estimate D2E/DX2                !
 ! R21   R(8,19)                 1.3868         estimate D2E/DX2                !
 ! R22   R(9,10)                 1.4821         estimate D2E/DX2                !
 ! R23   R(9,11)                 1.4781         estimate D2E/DX2                !
 ! R24   R(10,16)                1.2288         estimate D2E/DX2                !
 ! R25   R(11,12)                1.2312         estimate D2E/DX2                !
 ! R26   R(11,13)                1.5261         estimate D2E/DX2                !
 ! R27   R(13,14)                1.5362         estimate D2E/DX2                !
 ! R28   R(13,15)                1.5283         estimate D2E/DX2                !
 ! R29   R(13,36)                1.0961         estimate D2E/DX2                !
 ! R30   R(14,37)                1.0968         estimate D2E/DX2                !
 ! R31   R(14,38)                1.0969         estimate D2E/DX2                !
 ! R32   R(14,62)                1.5231         estimate D2E/DX2                !
 ! R33   R(15,39)                1.0957         estimate D2E/DX2                !
 ! R34   R(15,40)                1.095          estimate D2E/DX2                !
 ! R35   R(15,41)                1.0954         estimate D2E/DX2                !
 ! R36   R(17,18)                1.5412         estimate D2E/DX2                !
 ! R37   R(17,20)                1.5313         estimate D2E/DX2                !
 ! R38   R(17,30)                1.0972         estimate D2E/DX2                !
 ! R39   R(18,19)                1.4486         estimate D2E/DX2                !
 ! R40   R(18,28)                1.5369         estimate D2E/DX2                !
 ! R41   R(18,29)                1.5311         estimate D2E/DX2                !
 ! R42   R(20,42)                1.097          estimate D2E/DX2                !
 ! R43   R(20,43)                1.0954         estimate D2E/DX2                !
 ! R44   R(21,44)                0.9791         estimate D2E/DX2                !
 ! R45   R(22,23)                1.5199         estimate D2E/DX2                !
 ! R46   R(22,45)                1.0934         estimate D2E/DX2                !
 ! R47   R(22,46)                1.0985         estimate D2E/DX2                !
 ! R48   R(23,24)                1.4348         estimate D2E/DX2                !
 ! R49   R(23,25)                1.515          estimate D2E/DX2                !
 ! R50   R(23,47)                1.0978         estimate D2E/DX2                !
 ! R51   R(24,44)                1.8824         estimate D2E/DX2                !
 ! R52   R(25,26)                1.5103         estimate D2E/DX2                !
 ! R53   R(25,27)                1.3432         estimate D2E/DX2                !
 ! R54   R(26,48)                1.094          estimate D2E/DX2                !
 ! R55   R(26,49)                1.0951         estimate D2E/DX2                !
 ! R56   R(26,50)                1.0954         estimate D2E/DX2                !
 ! R57   R(27,51)                1.0866         estimate D2E/DX2                !
 ! R58   R(27,52)                1.0829         estimate D2E/DX2                !
 ! R59   R(28,53)                1.0938         estimate D2E/DX2                !
 ! R60   R(28,54)                1.0949         estimate D2E/DX2                !
 ! R61   R(28,55)                1.0965         estimate D2E/DX2                !
 ! R62   R(29,56)                1.0947         estimate D2E/DX2                !
 ! R63   R(29,57)                1.0946         estimate D2E/DX2                !
 ! R64   R(29,58)                1.0966         estimate D2E/DX2                !
 ! R65   R(32,59)                1.0951         estimate D2E/DX2                !
 ! R66   R(32,60)                1.0945         estimate D2E/DX2                !
 ! R67   R(32,61)                1.0947         estimate D2E/DX2                !
 ! R68   R(62,63)                1.0947         estimate D2E/DX2                !
 ! R69   R(62,64)                1.0941         estimate D2E/DX2                !
 ! R70   R(62,65)                1.0946         estimate D2E/DX2                !
 ! A1    A(2,1,6)              122.2464         estimate D2E/DX2                !
 ! A2    A(2,1,33)             120.5891         estimate D2E/DX2                !
 ! A3    A(6,1,33)             117.1311         estimate D2E/DX2                !
 ! A4    A(1,2,3)              121.0042         estimate D2E/DX2                !
 ! A5    A(1,2,32)             122.0239         estimate D2E/DX2                !
 ! A6    A(3,2,32)             116.949          estimate D2E/DX2                !
 ! A7    A(2,3,4)              116.3394         estimate D2E/DX2                !
 ! A8    A(2,3,20)             111.3717         estimate D2E/DX2                !
 ! A9    A(2,3,31)             107.7695         estimate D2E/DX2                !
 ! A10   A(4,3,20)             104.7771         estimate D2E/DX2                !
 ! A11   A(4,3,31)             107.9534         estimate D2E/DX2                !
 ! A12   A(20,3,31)            108.3562         estimate D2E/DX2                !
 ! A13   A(3,4,5)              116.7285         estimate D2E/DX2                !
 ! A14   A(3,4,7)              103.9214         estimate D2E/DX2                !
 ! A15   A(3,4,24)             106.5631         estimate D2E/DX2                !
 ! A16   A(5,4,7)              114.8356         estimate D2E/DX2                !
 ! A17   A(5,4,24)             107.4755         estimate D2E/DX2                !
 ! A18   A(7,4,24)             106.6365         estimate D2E/DX2                !
 ! A19   A(4,5,6)              114.5772         estimate D2E/DX2                !
 ! A20   A(4,5,10)             112.587          estimate D2E/DX2                !
 ! A21   A(4,5,22)             103.2003         estimate D2E/DX2                !
 ! A22   A(6,5,10)             104.5664         estimate D2E/DX2                !
 ! A23   A(6,5,22)             110.1379         estimate D2E/DX2                !
 ! A24   A(10,5,22)            111.9814         estimate D2E/DX2                !
 ! A25   A(1,6,5)              113.9238         estimate D2E/DX2                !
 ! A26   A(1,6,34)             108.5783         estimate D2E/DX2                !
 ! A27   A(1,6,35)             107.3903         estimate D2E/DX2                !
 ! A28   A(5,6,34)             109.019          estimate D2E/DX2                !
 ! A29   A(5,6,35)             111.9898         estimate D2E/DX2                !
 ! A30   A(34,6,35)            105.56           estimate D2E/DX2                !
 ! A31   A(4,7,8)              115.5603         estimate D2E/DX2                !
 ! A32   A(4,7,17)             108.2662         estimate D2E/DX2                !
 ! A33   A(4,7,21)             112.5212         estimate D2E/DX2                !
 ! A34   A(8,7,17)             100.8323         estimate D2E/DX2                !
 ! A35   A(8,7,21)             108.0565         estimate D2E/DX2                !
 ! A36   A(17,7,21)            111.0135         estimate D2E/DX2                !
 ! A37   A(7,8,9)              122.7649         estimate D2E/DX2                !
 ! A38   A(7,8,19)             113.5144         estimate D2E/DX2                !
 ! A39   A(9,8,19)             123.4198         estimate D2E/DX2                !
 ! A40   A(8,9,10)             116.4662         estimate D2E/DX2                !
 ! A41   A(8,9,11)             121.6955         estimate D2E/DX2                !
 ! A42   A(10,9,11)            121.352          estimate D2E/DX2                !
 ! A43   A(5,10,9)             117.1524         estimate D2E/DX2                !
 ! A44   A(5,10,16)            122.8709         estimate D2E/DX2                !
 ! A45   A(9,10,16)            119.656          estimate D2E/DX2                !
 ! A46   A(9,11,12)            118.9671         estimate D2E/DX2                !
 ! A47   A(9,11,13)            117.9538         estimate D2E/DX2                !
 ! A48   A(12,11,13)           123.0316         estimate D2E/DX2                !
 ! A49   A(11,13,14)           111.5672         estimate D2E/DX2                !
 ! A50   A(11,13,15)           108.0677         estimate D2E/DX2                !
 ! A51   A(11,13,36)           109.6707         estimate D2E/DX2                !
 ! A52   A(14,13,15)           110.5316         estimate D2E/DX2                !
 ! A53   A(14,13,36)           108.6602         estimate D2E/DX2                !
 ! A54   A(15,13,36)           108.2866         estimate D2E/DX2                !
 ! A55   A(13,14,37)           110.6314         estimate D2E/DX2                !
 ! A56   A(13,14,38)           109.3594         estimate D2E/DX2                !
 ! A57   A(13,14,62)           112.6934         estimate D2E/DX2                !
 ! A58   A(37,14,38)           106.772          estimate D2E/DX2                !
 ! A59   A(37,14,62)           108.9827         estimate D2E/DX2                !
 ! A60   A(38,14,62)           108.2001         estimate D2E/DX2                !
 ! A61   A(13,15,39)           111.3273         estimate D2E/DX2                !
 ! A62   A(13,15,40)           110.9035         estimate D2E/DX2                !
 ! A63   A(13,15,41)           110.9508         estimate D2E/DX2                !
 ! A64   A(39,15,40)           108.1777         estimate D2E/DX2                !
 ! A65   A(39,15,41)           107.4677         estimate D2E/DX2                !
 ! A66   A(40,15,41)           107.8623         estimate D2E/DX2                !
 ! A67   A(7,17,18)            103.2041         estimate D2E/DX2                !
 ! A68   A(7,17,20)            102.5315         estimate D2E/DX2                !
 ! A69   A(7,17,30)            112.6709         estimate D2E/DX2                !
 ! A70   A(18,17,20)           116.7527         estimate D2E/DX2                !
 ! A71   A(18,17,30)           111.4532         estimate D2E/DX2                !
 ! A72   A(20,17,30)           109.7783         estimate D2E/DX2                !
 ! A73   A(17,18,19)           106.4658         estimate D2E/DX2                !
 ! A74   A(17,18,28)           112.1964         estimate D2E/DX2                !
 ! A75   A(17,18,29)           113.6692         estimate D2E/DX2                !
 ! A76   A(19,18,28)           107.598          estimate D2E/DX2                !
 ! A77   A(19,18,29)           108.0928         estimate D2E/DX2                !
 ! A78   A(28,18,29)           108.5575         estimate D2E/DX2                !
 ! A79   A(8,19,18)            106.5617         estimate D2E/DX2                !
 ! A80   A(3,20,17)            103.5054         estimate D2E/DX2                !
 ! A81   A(3,20,42)            110.541          estimate D2E/DX2                !
 ! A82   A(3,20,43)            111.9457         estimate D2E/DX2                !
 ! A83   A(17,20,42)           111.9438         estimate D2E/DX2                !
 ! A84   A(17,20,43)           111.313          estimate D2E/DX2                !
 ! A85   A(42,20,43)           107.6372         estimate D2E/DX2                !
 ! A86   A(7,21,44)            105.5606         estimate D2E/DX2                !
 ! A87   A(5,22,23)            105.9508         estimate D2E/DX2                !
 ! A88   A(5,22,45)            114.9186         estimate D2E/DX2                !
 ! A89   A(5,22,46)            109.7384         estimate D2E/DX2                !
 ! A90   A(23,22,45)           113.9056         estimate D2E/DX2                !
 ! A91   A(23,22,46)           107.075          estimate D2E/DX2                !
 ! A92   A(45,22,46)           105.0031         estimate D2E/DX2                !
 ! A93   A(22,23,24)           106.5195         estimate D2E/DX2                !
 ! A94   A(22,23,25)           120.5226         estimate D2E/DX2                !
 ! A95   A(22,23,47)           107.9164         estimate D2E/DX2                !
 ! A96   A(24,23,25)           107.5066         estimate D2E/DX2                !
 ! A97   A(24,23,47)           107.0773         estimate D2E/DX2                !
 ! A98   A(25,23,47)           106.6396         estimate D2E/DX2                !
 ! A99   A(4,24,23)            110.8824         estimate D2E/DX2                !
 ! A100  A(23,25,26)           114.7565         estimate D2E/DX2                !
 ! A101  A(23,25,27)           125.9009         estimate D2E/DX2                !
 ! A102  A(26,25,27)           119.2965         estimate D2E/DX2                !
 ! A103  A(25,26,48)           110.9578         estimate D2E/DX2                !
 ! A104  A(25,26,49)           110.185          estimate D2E/DX2                !
 ! A105  A(25,26,50)           112.2491         estimate D2E/DX2                !
 ! A106  A(48,26,49)           108.459          estimate D2E/DX2                !
 ! A107  A(48,26,50)           107.3945         estimate D2E/DX2                !
 ! A108  A(49,26,50)           107.4383         estimate D2E/DX2                !
 ! A109  A(25,27,51)           121.2903         estimate D2E/DX2                !
 ! A110  A(25,27,52)           123.2674         estimate D2E/DX2                !
 ! A111  A(51,27,52)           115.4405         estimate D2E/DX2                !
 ! A112  A(18,28,53)           112.1831         estimate D2E/DX2                !
 ! A113  A(18,28,54)           111.3366         estimate D2E/DX2                !
 ! A114  A(18,28,55)           110.5957         estimate D2E/DX2                !
 ! A115  A(53,28,54)           108.4944         estimate D2E/DX2                !
 ! A116  A(53,28,55)           105.6375         estimate D2E/DX2                !
 ! A117  A(54,28,55)           108.3611         estimate D2E/DX2                !
 ! A118  A(18,29,56)           111.8224         estimate D2E/DX2                !
 ! A119  A(18,29,57)           111.4567         estimate D2E/DX2                !
 ! A120  A(18,29,58)           110.6822         estimate D2E/DX2                !
 ! A121  A(56,29,57)           108.9222         estimate D2E/DX2                !
 ! A122  A(56,29,58)           105.3947         estimate D2E/DX2                !
 ! A123  A(57,29,58)           108.3255         estimate D2E/DX2                !
 ! A124  A(2,32,59)            112.0484         estimate D2E/DX2                !
 ! A125  A(2,32,60)            110.4605         estimate D2E/DX2                !
 ! A126  A(2,32,61)            110.2391         estimate D2E/DX2                !
 ! A127  A(59,32,60)           107.7061         estimate D2E/DX2                !
 ! A128  A(59,32,61)           107.6825         estimate D2E/DX2                !
 ! A129  A(60,32,61)           108.582          estimate D2E/DX2                !
 ! A130  A(14,62,63)           110.062          estimate D2E/DX2                !
 ! A131  A(14,62,64)           111.5332         estimate D2E/DX2                !
 ! A132  A(14,62,65)           110.9786         estimate D2E/DX2                !
 ! A133  A(63,62,64)           107.7783         estimate D2E/DX2                !
 ! A134  A(63,62,65)           107.9346         estimate D2E/DX2                !
 ! A135  A(64,62,65)           108.4257         estimate D2E/DX2                !
 ! D1    D(6,1,2,3)             -0.385          estimate D2E/DX2                !
 ! D2    D(6,1,2,32)          -178.5893         estimate D2E/DX2                !
 ! D3    D(33,1,2,3)           177.4536         estimate D2E/DX2                !
 ! D4    D(33,1,2,32)           -0.7508         estimate D2E/DX2                !
 ! D5    D(2,1,6,5)            -33.3701         estimate D2E/DX2                !
 ! D6    D(2,1,6,34)          -155.0534         estimate D2E/DX2                !
 ! D7    D(2,1,6,35)            91.2547         estimate D2E/DX2                !
 ! D8    D(33,1,6,5)           148.7205         estimate D2E/DX2                !
 ! D9    D(33,1,6,34)           27.0372         estimate D2E/DX2                !
 ! D10   D(33,1,6,35)          -86.6547         estimate D2E/DX2                !
 ! D11   D(1,2,3,4)             25.4687         estimate D2E/DX2                !
 ! D12   D(1,2,3,20)           -94.4892         estimate D2E/DX2                !
 ! D13   D(1,2,3,31)           146.7907         estimate D2E/DX2                !
 ! D14   D(32,2,3,4)          -156.2391         estimate D2E/DX2                !
 ! D15   D(32,2,3,20)           83.803          estimate D2E/DX2                !
 ! D16   D(32,2,3,31)          -34.9171         estimate D2E/DX2                !
 ! D17   D(1,2,32,59)           -0.5865         estimate D2E/DX2                !
 ! D18   D(1,2,32,60)          119.5018         estimate D2E/DX2                !
 ! D19   D(1,2,32,61)         -120.494          estimate D2E/DX2                !
 ! D20   D(3,2,32,59)         -178.86           estimate D2E/DX2                !
 ! D21   D(3,2,32,60)          -58.7716         estimate D2E/DX2                !
 ! D22   D(3,2,32,61)           61.2326         estimate D2E/DX2                !
 ! D23   D(2,3,4,5)            -15.2662         estimate D2E/DX2                !
 ! D24   D(2,3,4,7)           -142.8063         estimate D2E/DX2                !
 ! D25   D(2,3,4,24)           104.7701         estimate D2E/DX2                !
 ! D26   D(20,3,4,5)           108.179          estimate D2E/DX2                !
 ! D27   D(20,3,4,7)           -19.3612         estimate D2E/DX2                !
 ! D28   D(20,3,4,24)         -131.7848         estimate D2E/DX2                !
 ! D29   D(31,3,4,5)          -136.4906         estimate D2E/DX2                !
 ! D30   D(31,3,4,7)            95.9692         estimate D2E/DX2                !
 ! D31   D(31,3,4,24)          -16.4544         estimate D2E/DX2                !
 ! D32   D(2,3,20,17)          164.2755         estimate D2E/DX2                !
 ! D33   D(2,3,20,42)           44.2482         estimate D2E/DX2                !
 ! D34   D(2,3,20,43)          -75.7394         estimate D2E/DX2                !
 ! D35   D(4,3,20,17)           37.6934         estimate D2E/DX2                !
 ! D36   D(4,3,20,42)          -82.3338         estimate D2E/DX2                !
 ! D37   D(4,3,20,43)          157.6785         estimate D2E/DX2                !
 ! D38   D(31,3,20,17)         -77.3561         estimate D2E/DX2                !
 ! D39   D(31,3,20,42)         162.6166         estimate D2E/DX2                !
 ! D40   D(31,3,20,43)          42.6289         estimate D2E/DX2                !
 ! D41   D(3,4,5,6)            -16.5714         estimate D2E/DX2                !
 ! D42   D(3,4,5,10)          -135.8983         estimate D2E/DX2                !
 ! D43   D(3,4,5,22)           103.1727         estimate D2E/DX2                !
 ! D44   D(7,4,5,6)            105.4264         estimate D2E/DX2                !
 ! D45   D(7,4,5,10)           -13.9004         estimate D2E/DX2                !
 ! D46   D(7,4,5,22)          -134.8294         estimate D2E/DX2                !
 ! D47   D(24,4,5,6)          -136.1198         estimate D2E/DX2                !
 ! D48   D(24,4,5,10)          104.5534         estimate D2E/DX2                !
 ! D49   D(24,4,5,22)          -16.3757         estimate D2E/DX2                !
 ! D50   D(3,4,7,8)            106.0823         estimate D2E/DX2                !
 ! D51   D(3,4,7,17)            -6.0804         estimate D2E/DX2                !
 ! D52   D(3,4,7,21)          -129.1495         estimate D2E/DX2                !
 ! D53   D(5,4,7,8)            -22.6231         estimate D2E/DX2                !
 ! D54   D(5,4,7,17)          -134.7858         estimate D2E/DX2                !
 ! D55   D(5,4,7,21)           102.1451         estimate D2E/DX2                !
 ! D56   D(24,4,7,8)          -141.5472         estimate D2E/DX2                !
 ! D57   D(24,4,7,17)          106.2901         estimate D2E/DX2                !
 ! D58   D(24,4,7,21)          -16.779          estimate D2E/DX2                !
 ! D59   D(3,4,24,23)         -123.4843         estimate D2E/DX2                !
 ! D60   D(5,4,24,23)            2.3592         estimate D2E/DX2                !
 ! D61   D(7,4,24,23)          125.977          estimate D2E/DX2                !
 ! D62   D(4,5,6,1)             40.1793         estimate D2E/DX2                !
 ! D63   D(4,5,6,34)           161.6184         estimate D2E/DX2                !
 ! D64   D(4,5,6,35)           -81.946          estimate D2E/DX2                !
 ! D65   D(10,5,6,1)           163.9054         estimate D2E/DX2                !
 ! D66   D(10,5,6,34)          -74.6555         estimate D2E/DX2                !
 ! D67   D(10,5,6,35)           41.7801         estimate D2E/DX2                !
 ! D68   D(22,5,6,1)           -75.6166         estimate D2E/DX2                !
 ! D69   D(22,5,6,34)           45.8225         estimate D2E/DX2                !
 ! D70   D(22,5,6,35)          162.2581         estimate D2E/DX2                !
 ! D71   D(4,5,10,9)            44.4623         estimate D2E/DX2                !
 ! D72   D(4,5,10,16)         -142.0725         estimate D2E/DX2                !
 ! D73   D(6,5,10,9)           -80.5345         estimate D2E/DX2                !
 ! D74   D(6,5,10,16)           92.9307         estimate D2E/DX2                !
 ! D75   D(22,5,10,9)          160.2241         estimate D2E/DX2                !
 ! D76   D(22,5,10,16)         -26.3107         estimate D2E/DX2                !
 ! D77   D(4,5,22,23)           23.8062         estimate D2E/DX2                !
 ! D78   D(4,5,22,45)          150.4976         estimate D2E/DX2                !
 ! D79   D(4,5,22,46)          -91.4709         estimate D2E/DX2                !
 ! D80   D(6,5,22,23)          146.5603         estimate D2E/DX2                !
 ! D81   D(6,5,22,45)          -86.7483         estimate D2E/DX2                !
 ! D82   D(6,5,22,46)           31.2832         estimate D2E/DX2                !
 ! D83   D(10,5,22,23)         -97.5337         estimate D2E/DX2                !
 ! D84   D(10,5,22,45)          29.1577         estimate D2E/DX2                !
 ! D85   D(10,5,22,46)         147.1892         estimate D2E/DX2                !
 ! D86   D(4,7,8,9)             35.3935         estimate D2E/DX2                !
 ! D87   D(4,7,8,19)          -138.4996         estimate D2E/DX2                !
 ! D88   D(17,7,8,9)           151.8329         estimate D2E/DX2                !
 ! D89   D(17,7,8,19)          -22.0601         estimate D2E/DX2                !
 ! D90   D(21,7,8,9)           -91.6551         estimate D2E/DX2                !
 ! D91   D(21,7,8,19)           94.4519         estimate D2E/DX2                !
 ! D92   D(4,7,17,18)          150.7589         estimate D2E/DX2                !
 ! D93   D(4,7,17,20)           29.037          estimate D2E/DX2                !
 ! D94   D(4,7,17,30)          -88.9007         estimate D2E/DX2                !
 ! D95   D(8,7,17,18)           29.0399         estimate D2E/DX2                !
 ! D96   D(8,7,17,20)          -92.682          estimate D2E/DX2                !
 ! D97   D(8,7,17,30)          149.3803         estimate D2E/DX2                !
 ! D98   D(21,7,17,18)         -85.2631         estimate D2E/DX2                !
 ! D99   D(21,7,17,20)         153.0149         estimate D2E/DX2                !
 ! D100  D(21,7,17,30)          35.0773         estimate D2E/DX2                !
 ! D101  D(4,7,21,44)           20.2418         estimate D2E/DX2                !
 ! D102  D(8,7,21,44)          149.0308         estimate D2E/DX2                !
 ! D103  D(17,7,21,44)        -101.2759         estimate D2E/DX2                !
 ! D104  D(7,8,9,10)            -5.5405         estimate D2E/DX2                !
 ! D105  D(7,8,9,11)          -177.6395         estimate D2E/DX2                !
 ! D106  D(19,8,9,10)          167.7478         estimate D2E/DX2                !
 ! D107  D(19,8,9,11)           -4.3513         estimate D2E/DX2                !
 ! D108  D(7,8,19,18)            4.4072         estimate D2E/DX2                !
 ! D109  D(9,8,19,18)         -169.4401         estimate D2E/DX2                !
 ! D110  D(8,9,10,5)           -35.8392         estimate D2E/DX2                !
 ! D111  D(8,9,10,16)          150.4758         estimate D2E/DX2                !
 ! D112  D(11,9,10,5)          136.2891         estimate D2E/DX2                !
 ! D113  D(11,9,10,16)         -37.3959         estimate D2E/DX2                !
 ! D114  D(8,9,11,12)          117.156          estimate D2E/DX2                !
 ! D115  D(8,9,11,13)          -65.2741         estimate D2E/DX2                !
 ! D116  D(10,9,11,12)         -54.5592         estimate D2E/DX2                !
 ! D117  D(10,9,11,13)         123.0107         estimate D2E/DX2                !
 ! D118  D(9,11,13,14)         145.0897         estimate D2E/DX2                !
 ! D119  D(9,11,13,15)         -93.1993         estimate D2E/DX2                !
 ! D120  D(9,11,13,36)          24.648          estimate D2E/DX2                !
 ! D121  D(12,11,13,14)        -37.4463         estimate D2E/DX2                !
 ! D122  D(12,11,13,15)         84.2647         estimate D2E/DX2                !
 ! D123  D(12,11,13,36)       -157.888          estimate D2E/DX2                !
 ! D124  D(11,13,14,37)         54.6743         estimate D2E/DX2                !
 ! D125  D(11,13,14,38)        172.0038         estimate D2E/DX2                !
 ! D126  D(11,13,14,62)        -67.6141         estimate D2E/DX2                !
 ! D127  D(15,13,14,37)        -65.6001         estimate D2E/DX2                !
 ! D128  D(15,13,14,38)         51.7294         estimate D2E/DX2                !
 ! D129  D(15,13,14,62)        172.1115         estimate D2E/DX2                !
 ! D130  D(36,13,14,37)        175.7067         estimate D2E/DX2                !
 ! D131  D(36,13,14,38)        -66.9639         estimate D2E/DX2                !
 ! D132  D(36,13,14,62)         53.4182         estimate D2E/DX2                !
 ! D133  D(11,13,15,39)        -61.089          estimate D2E/DX2                !
 ! D134  D(11,13,15,40)        178.406          estimate D2E/DX2                !
 ! D135  D(11,13,15,41)         58.5502         estimate D2E/DX2                !
 ! D136  D(14,13,15,39)         61.2591         estimate D2E/DX2                !
 ! D137  D(14,13,15,40)        -59.2459         estimate D2E/DX2                !
 ! D138  D(14,13,15,41)       -179.1017         estimate D2E/DX2                !
 ! D139  D(36,13,15,39)       -179.8207         estimate D2E/DX2                !
 ! D140  D(36,13,15,40)         59.6742         estimate D2E/DX2                !
 ! D141  D(36,13,15,41)        -60.1815         estimate D2E/DX2                !
 ! D142  D(13,14,62,63)       -177.6573         estimate D2E/DX2                !
 ! D143  D(13,14,62,64)         62.7687         estimate D2E/DX2                !
 ! D144  D(13,14,62,65)        -58.2427         estimate D2E/DX2                !
 ! D145  D(37,14,62,63)         59.131          estimate D2E/DX2                !
 ! D146  D(37,14,62,64)        -60.4431         estimate D2E/DX2                !
 ! D147  D(37,14,62,65)        178.5455         estimate D2E/DX2                !
 ! D148  D(38,14,62,63)        -56.6117         estimate D2E/DX2                !
 ! D149  D(38,14,62,64)       -176.1857         estimate D2E/DX2                !
 ! D150  D(38,14,62,65)         62.8029         estimate D2E/DX2                !
 ! D151  D(7,17,18,19)         -28.5325         estimate D2E/DX2                !
 ! D152  D(7,17,18,28)          88.9253         estimate D2E/DX2                !
 ! D153  D(7,17,18,29)        -147.4228         estimate D2E/DX2                !
 ! D154  D(20,17,18,19)         83.0511         estimate D2E/DX2                !
 ! D155  D(20,17,18,28)       -159.4912         estimate D2E/DX2                !
 ! D156  D(20,17,18,29)        -35.8393         estimate D2E/DX2                !
 ! D157  D(30,17,18,19)       -149.7022         estimate D2E/DX2                !
 ! D158  D(30,17,18,28)        -32.2445         estimate D2E/DX2                !
 ! D159  D(30,17,18,29)         91.4074         estimate D2E/DX2                !
 ! D160  D(7,17,20,3)          -40.8728         estimate D2E/DX2                !
 ! D161  D(7,17,20,42)          78.1924         estimate D2E/DX2                !
 ! D162  D(7,17,20,43)        -161.289          estimate D2E/DX2                !
 ! D163  D(18,17,20,3)        -152.841          estimate D2E/DX2                !
 ! D164  D(18,17,20,42)        -33.7758         estimate D2E/DX2                !
 ! D165  D(18,17,20,43)         86.7428         estimate D2E/DX2                !
 ! D166  D(30,17,20,3)          79.0957         estimate D2E/DX2                !
 ! D167  D(30,17,20,42)       -161.8391         estimate D2E/DX2                !
 ! D168  D(30,17,20,43)        -41.3205         estimate D2E/DX2                !
 ! D169  D(17,18,19,8)          15.3128         estimate D2E/DX2                !
 ! D170  D(28,18,19,8)        -105.1532         estimate D2E/DX2                !
 ! D171  D(29,18,19,8)         137.7899         estimate D2E/DX2                !
 ! D172  D(17,18,28,53)        -59.9177         estimate D2E/DX2                !
 ! D173  D(17,18,28,54)         61.8887         estimate D2E/DX2                !
 ! D174  D(17,18,28,55)       -177.5762         estimate D2E/DX2                !
 ! D175  D(19,18,28,53)         56.8628         estimate D2E/DX2                !
 ! D176  D(19,18,28,54)        178.6692         estimate D2E/DX2                !
 ! D177  D(19,18,28,55)        -60.7957         estimate D2E/DX2                !
 ! D178  D(29,18,28,53)        173.6163         estimate D2E/DX2                !
 ! D179  D(29,18,28,54)        -64.5772         estimate D2E/DX2                !
 ! D180  D(29,18,28,55)         55.9579         estimate D2E/DX2                !
 ! D181  D(17,18,29,56)         64.6029         estimate D2E/DX2                !
 ! D182  D(17,18,29,57)        -57.5858         estimate D2E/DX2                !
 ! D183  D(17,18,29,58)       -178.2149         estimate D2E/DX2                !
 ! D184  D(19,18,29,56)        -53.3523         estimate D2E/DX2                !
 ! D185  D(19,18,29,57)       -175.541          estimate D2E/DX2                !
 ! D186  D(19,18,29,58)         63.83           estimate D2E/DX2                !
 ! D187  D(28,18,29,56)       -169.7877         estimate D2E/DX2                !
 ! D188  D(28,18,29,57)         68.0236         estimate D2E/DX2                !
 ! D189  D(28,18,29,58)        -52.6054         estimate D2E/DX2                !
 ! D190  D(5,22,23,24)         -23.2371         estimate D2E/DX2                !
 ! D191  D(5,22,23,25)          99.3853         estimate D2E/DX2                !
 ! D192  D(5,22,23,47)        -137.9331         estimate D2E/DX2                !
 ! D193  D(45,22,23,24)       -150.5387         estimate D2E/DX2                !
 ! D194  D(45,22,23,25)        -27.9163         estimate D2E/DX2                !
 ! D195  D(45,22,23,47)         94.7653         estimate D2E/DX2                !
 ! D196  D(46,22,23,24)         93.8432         estimate D2E/DX2                !
 ! D197  D(46,22,23,25)       -143.5345         estimate D2E/DX2                !
 ! D198  D(46,22,23,47)        -20.8528         estimate D2E/DX2                !
 ! D199  D(22,23,24,4)          13.0103         estimate D2E/DX2                !
 ! D200  D(25,23,24,4)        -117.4577         estimate D2E/DX2                !
 ! D201  D(47,23,24,4)         128.2741         estimate D2E/DX2                !
 ! D202  D(22,23,25,26)        175.9928         estimate D2E/DX2                !
 ! D203  D(22,23,25,27)         -1.5032         estimate D2E/DX2                !
 ! D204  D(24,23,25,26)        -61.861          estimate D2E/DX2                !
 ! D205  D(24,23,25,27)        120.643          estimate D2E/DX2                !
 ! D206  D(47,23,25,26)         52.6994         estimate D2E/DX2                !
 ! D207  D(47,23,25,27)       -124.7967         estimate D2E/DX2                !
 ! D208  D(23,25,26,48)         62.6755         estimate D2E/DX2                !
 ! D209  D(23,25,26,49)        -57.4603         estimate D2E/DX2                !
 ! D210  D(23,25,26,50)       -177.1544         estimate D2E/DX2                !
 ! D211  D(27,25,26,48)       -119.6501         estimate D2E/DX2                !
 ! D212  D(27,25,26,49)        120.214          estimate D2E/DX2                !
 ! D213  D(27,25,26,50)          0.52           estimate D2E/DX2                !
 ! D214  D(23,25,27,51)        179.0248         estimate D2E/DX2                !
 ! D215  D(23,25,27,52)         -0.467          estimate D2E/DX2                !
 ! D216  D(26,25,27,51)          1.6322         estimate D2E/DX2                !
 ! D217  D(26,25,27,52)       -177.8596         estimate D2E/DX2                !
 --------------------------------------------------------------------------------
 Trust Radius=3.00D-01 FncErr=1.00D-07 GrdErr=1.00D-06
 Number of steps in this run=    390 maximum allowed number of steps=    390.
 GradGradGradGradGradGradGradGradGradGradGradGradGradGradGradGradGradGrad

 Stoichiometry    C26H34O5
 Framework group  C1[X(C26H34O5)]
 Deg. of freedom   189
 Full point group                 C1      NOp   1
 Largest Abelian subgroup         C1      NOp   1
 Largest concise Abelian subgroup C1      NOp   1
                         Standard orientation:                         
 ---------------------------------------------------------------------
 Center     Atomic      Atomic             Coordinates (Angstroms)
 Number     Number       Type             X           Y           Z
 ---------------------------------------------------------------------
      1          6           0        2.043187    1.219576   -2.740050
      2          6           0        2.450068    2.031848   -1.753808
      3          6           0        1.989078    1.821101   -0.334726
      4          6           0        1.571198    0.369592    0.048106
      5          6           0        1.321129   -0.610693   -1.116934
      6          6           0        1.125600    0.064243   -2.494923
      7          6           0        0.364281    0.568167    1.003412
      8          6           0       -0.970433    0.246949    0.427465
      9          6           0       -1.161824   -0.748581   -0.442907
     10          6           0        0.052306   -1.454634   -0.916336
     11          6           0       -2.487803   -1.014501   -1.039313
     12          8           0       -2.626501   -0.904512   -2.257711
     13          6           0       -3.611018   -1.469898   -0.111939
     14          6           0       -4.971512   -0.912038   -0.556538
     15          6           0       -3.633262   -2.998055   -0.109280
     16          8           0       -0.019768   -2.637846   -1.240031
     17          6           0        0.209358    2.052358    1.271168
     18          6           0       -1.302297    2.207812    1.528168
     19          8           0       -1.956886    1.157343    0.775582
     20          6           0        0.758444    2.680684   -0.012751
     21          8           0        0.506048   -0.156321    2.217066
     22          6           0        2.587230   -1.472473   -1.126786
     23          6           0        3.159391   -1.390263    0.278887
     24          8           0        2.655782   -0.176056    0.853984
     25          6           0        2.912705   -2.503558    1.276362
     26          6           0        3.618528   -2.333996    2.600767
     27          6           0        2.181004   -3.608702    1.058261
     28          6           0       -1.662577    2.011929    3.009297
     29          6           0       -1.870051    3.551163    1.062126
     30          1           0        0.799648    2.390679    2.131988
     31          1           0        2.808444    2.125325    0.333090
     32          6           0        3.346709    3.209036   -2.010468
     33          1           0        2.346986    1.402225   -3.768356
     34          1           0        1.284167   -0.682421   -3.285004
     35          1           0        0.098749    0.425812   -2.633385
     36          1           0       -3.408180   -1.127104    0.909257
     37          1           0       -5.172787   -1.172520   -1.602800
     38          1           0       -5.766650   -1.372219    0.042827
     39          1           0       -3.829941   -3.395488   -1.111265
     40          1           0       -4.407517   -3.376331    0.566288
     41          1           0       -2.670993   -3.403211    0.222110
     42          1           0        0.032374    2.636278   -0.833928
     43          1           0        1.022561    3.732668    0.140205
     44          1           0        1.463376   -0.343574    2.300874
     45          1           0        2.446009   -2.494539   -1.488598
     46          1           0        3.331043   -1.031274   -1.804094
     47          1           0        4.248264   -1.279525    0.194337
     48          1           0        3.268587   -1.436017    3.118532
     49          1           0        4.698790   -2.245412    2.444611
     50          1           0        3.452378   -3.184257    3.271155
     51          1           0        2.065962   -4.369795    1.825149
     52          1           0        1.676349   -3.811811    0.121859
     53          1           0       -1.382285    1.019840    3.374789
     54          1           0       -1.177809    2.764168    3.640047
     55          1           0       -2.746803    2.085330    3.155499
     56          1           0       -1.802459    3.666591   -0.024378
     57          1           0       -1.356255    4.390794    1.540944
     58          1           0       -2.938939    3.622117    1.296468
     59          1           0        3.616197    3.297623   -3.068153
     60          1           0        2.851463    4.138969   -1.714136
     61          1           0        4.274585    3.110232   -1.438076
     62          6           0       -5.068093    0.599421   -0.394860
     63          1           0       -6.065803    0.945026   -0.683928
     64          1           0       -4.339324    1.118076   -1.024928
     65          1           0       -4.897663    0.893938    0.645478
 ---------------------------------------------------------------------
 Rotational constants (GHZ):      0.2011362      0.1395285      0.1197106
 Standard basis: 6-31G(d) (6D, 7F)
 There are   533 symmetry adapted basis functions of A   symmetry.
 Integral buffers will be    131072 words long.
 Raffenetti 2 integral format.
 Two-electron integral symmetry is turned on.
   533 basis functions,  1004 primitive gaussians,   533 cartesian basis functions
   115 alpha electrons      115 beta electrons
       nuclear repulsion energy      3554.2402283400 Hartrees.
 NAtoms=   65 NActive=   65 NUniq=   65 SFac= 1.00D+00 NAtFMM=   50 NAOKFM=T Big=T
 One-electron integrals computed using PRISM.
 NBasis=   533 RedAO= T  NBF=   533
 NBsUse=   533 1.00D-06 NBFU=   533
 Harris functional with IExCor=  402 diagonalized for initial guess.
 ExpMin= 1.61D-01 ExpMax= 5.48D+03 ExpMxC= 8.25D+02 IAcc=1 IRadAn=         1 AccDes= 0.00D+00
 HarFok:  IExCor=  402 AccDes= 0.00D+00 IRadAn=         1 IDoV= 1
 ScaDFX=  1.000000  1.000000  1.000000  1.000000
 FoFCou: FMM=F IPFlag=           0 FMFlag=      100000 FMFlg1=        2001
         NFxFlg=           0 DoJE=T BraDBF=F KetDBF=T FulRan=T
         Omega=  0.000000  0.000000  1.000000  0.000000  0.000000 ICntrl=     500 IOpCl=  0
         NMat0=    1 NMatS0=    1 NMatT0=    0 NMatD0=    1 NMtDS0=    0 NMtDT0=    0
         I1Cent=           4 NGrid=           0.
 Petite list used in FoFCou.
 Initial guess orbital symmetries:
       Occupied  (A) (A) (A) (A) (A) (A) (A) (A) (A) (A) (A) (A)
                 (A) (A) (A) (A) (A) (A) (A) (A) (A) (A) (A) (A)
                 (A) (A) (A) (A) (A) (A) (A) (A) (A) (A) (A) (A)
                 (A) (A) (A) (A) (A) (A) (A) (A) (A) (A) (A) (A)
                 (A) (A) (A) (A) (A) (A) (A) (A) (A) (A) (A) (A)
                 (A) (A) (A) (A) (A) (A) (A) (A) (A) (A) (A) (A)
                 (A) (A) (A) (A) (A) (A) (A) (A) (A) (A) (A) (A)
                 (A) (A) (A) (A) (A) (A) (A) (A) (A) (A) (A) (A)
                 (A) (A) (A) (A) (A) (A) (A) (A) (A) (A) (A) (A)
                 (A) (A) (A) (A) (A) (A) (A)
       Virtual   (A) (A) (A) (A) (A) (A) (A) (A) (A) (A) (A) (A)
                 (A) (A) (A) (A) (A) (A) (A) (A) (A) (A) (A) (A)
                 (A) (A) (A) (A) (A) (A) (A) (A) (A) (A) (A) (A)
                 (A) (A) (A) (A) (A) (A) (A) (A) (A) (A) (A) (A)
                 (A) (A) (A) (A) (A) (A) (A) (A) (A) (A) (A) (A)
                 (A) (A) (A) (A) (A) (A) (A) (A) (A) (A) (A) (A)
                 (A) (A) (A) (A) (A) (A) (A) (A) (A) (A) (A) (A)
                 (A) (A) (A) (A) (A) (A) (A) (A) (A) (A) (A) (A)
                 (A) (A) (A) (A) (A) (A) (A) (A) (A) (A) (A) (A)
                 (A) (A) (A) (A) (A) (A) (A) (A) (A) (A) (A) (A)
                 (A) (A) (A) (A) (A) (A) (A) (A) (A) (A) (A) (A)
                 (A) (A) (A) (A) (A) (A) (A) (A) (A) (A) (A) (A)
                 (A) (A) (A) (A) (A) (A) (A) (A) (A) (A) (A) (A)
                 (A) (A) (A) (A) (A) (A) (A) (A) (A) (A) (A) (A)
                 (A) (A) (A) (A) (A) (A) (A) (A) (A) (A) (A) (A)
                 (A) (A) (A) (A) (A) (A) (A) (A) (A) (A) (A) (A)
                 (A) (A) (A) (A) (A) (A) (A) (A) (A) (A) (A) (A)
                 (A) (A) (A) (A) (A) (A) (A) (A) (A) (A) (A) (A)
                 (A) (A) (A) (A) (A) (A) (A) (A) (A) (A) (A) (A)
                 (A) (A) (A) (A) (A) (A) (A) (A) (A) (A) (A) (A)
                 (A) (A) (A) (A) (A) (A) (A) (A) (A) (A) (A) (A)
                 (A) (A) (A) (A) (A) (A) (A) (A) (A) (A) (A) (A)
                 (A) (A) (A) (A) (A) (A) (A) (A) (A) (A) (A) (A)
                 (A) (A) (A) (A) (A) (A) (A) (A) (A) (A) (A) (A)
                 (A) (A) (A) (A) (A) (A) (A) (A) (A) (A) (A) (A)
                 (A) (A) (A) (A) (A) (A) (A) (A) (A) (A) (A) (A)
                 (A) (A) (A) (A) (A) (A) (A) (A) (A) (A) (A) (A)
                 (A) (A) (A) (A) (A) (A) (A) (A) (A) (A) (A) (A)
                 (A) (A) (A) (A) (A) (A) (A) (A) (A) (A) (A) (A)
                 (A) (A) (A) (A) (A) (A) (A) (A) (A) (A) (A) (A)
                 (A) (A) (A) (A) (A) (A) (A) (A) (A) (A) (A) (A)
                 (A) (A) (A) (A) (A) (A) (A) (A) (A) (A) (A) (A)
                 (A) (A) (A) (A) (A) (A) (A) (A) (A) (A) (A) (A)
                 (A) (A) (A) (A) (A) (A) (A) (A) (A) (A) (A) (A)
                 (A) (A) (A) (A) (A) (A) (A) (A) (A) (A)
 The electronic state of the initial guess is 1-A.
 Requested convergence on RMS density matrix=1.00D-08 within 128 cycles.
 Requested convergence on MAX density matrix=1.00D-06.
 Requested convergence on             energy=1.00D-06.
 No special actions if energy rises.
 Integral accuracy reduced to 1.0D-05 until final iterations.
 Initial convergence to 1.0D-05 achieved.  Increase integral accuracy.
 SCF Done:  E(RB3LYP) =  -1387.30310935     A.U. after   16 cycles
             Convg  =    0.4393D-08             -V/T =  2.0090

 **********************************************************************

            Population analysis using the SCF density.

 **********************************************************************

 Orbital symmetries:
       Occupied  (A) (A) (A) (A) (A) (A) (A) (A) (A) (A) (A) (A)
                 (A) (A) (A) (A) (A) (A) (A) (A) (A) (A) (A) (A)
                 (A) (A) (A) (A) (A) (A) (A) (A) (A) (A) (A) (A)
                 (A) (A) (A) (A) (A) (A) (A) (A) (A) (A) (A) (A)
                 (A) (A) (A) (A) (A) (A) (A) (A) (A) (A) (A) (A)
                 (A) (A) (A) (A) (A) (A) (A) (A) (A) (A) (A) (A)
                 (A) (A) (A) (A) (A) (A) (A) (A) (A) (A) (A) (A)
                 (A) (A) (A) (A) (A) (A) (A) (A) (A) (A) (A) (A)
                 (A) (A) (A) (A) (A) (A) (A) (A) (A) (A) (A) (A)
                 (A) (A) (A) (A) (A) (A) (A)
       Virtual   (A) (A) (A) (A) (A) (A) (A) (A) (A) (A) (A) (A)
                 (A) (A) (A) (A) (A) (A) (A) (A) (A) (A) (A) (A)
                 (A) (A) (A) (A) (A) (A) (A) (A) (A) (A) (A) (A)
                 (A) (A) (A) (A) (A) (A) (A) (A) (A) (A) (A) (A)
                 (A) (A) (A) (A) (A) (A) (A) (A) (A) (A) (A) (A)
                 (A) (A) (A) (A) (A) (A) (A) (A) (A) (A) (A) (A)
                 (A) (A) (A) (A) (A) (A) (A) (A) (A) (A) (A) (A)
                 (A) (A) (A) (A) (A) (A) (A) (A) (A) (A) (A) (A)
                 (A) (A) (A) (A) (A) (A) (A) (A) (A) (A) (A) (A)
                 (A) (A) (A) (A) (A) (A) (A) (A) (A) (A) (A) (A)
                 (A) (A) (A) (A) (A) (A) (A) (A) (A) (A) (A) (A)
                 (A) (A) (A) (A) (A) (A) (A) (A) (A) (A) (A) (A)
                 (A) (A) (A) (A) (A) (A) (A) (A) (A) (A) (A) (A)
                 (A) (A) (A) (A) (A) (A) (A) (A) (A) (A) (A) (A)
                 (A) (A) (A) (A) (A) (A) (A) (A) (A) (A) (A) (A)
                 (A) (A) (A) (A) (A) (A) (A) (A) (A) (A) (A) (A)
                 (A) (A) (A) (A) (A) (A) (A) (A) (A) (A) (A) (A)
                 (A) (A) (A) (A) (A) (A) (A) (A) (A) (A) (A) (A)
                 (A) (A) (A) (A) (A) (A) (A) (A) (A) (A) (A) (A)
                 (A) (A) (A) (A) (A) (A) (A) (A) (A) (A) (A) (A)
                 (A) (A) (A) (A) (A) (A) (A) (A) (A) (A) (A) (A)
                 (A) (A) (A) (A) (A) (A) (A) (A) (A) (A) (A) (A)
                 (A) (A) (A) (A) (A) (A) (A) (A) (A) (A) (A) (A)
                 (A) (A) (A) (A) (A) (A) (A) (A) (A) (A) (A) (A)
                 (A) (A) (A) (A) (A) (A) (A) (A) (A) (A) (A) (A)
                 (A) (A) (A) (A) (A) (A) (A) (A) (A) (A) (A) (A)
                 (A) (A) (A) (A) (A) (A) (A) (A) (A) (A) (A) (A)
                 (A) (A) (A) (A) (A) (A) (A) (A) (A) (A) (A) (A)
                 (A) (A) (A) (A) (A) (A) (A) (A) (A) (A) (A) (A)
                 (A) (A) (A) (A) (A) (A) (A) (A) (A) (A) (A) (A)
                 (A) (A) (A) (A) (A) (A) (A) (A) (A) (A) (A) (A)
                 (A) (A) (A) (A) (A) (A) (A) (A) (A) (A) (A) (A)
                 (A) (A) (A) (A) (A) (A) (A) (A) (A) (A) (A) (A)
                 (A) (A) (A) (A) (A) (A) (A) (A) (A) (A) (A) (A)
                 (A) (A) (A) (A) (A) (A) (A) (A) (A) (A)
 The electronic state is 1-A.
 Alpha  occ. eigenvalues --  -19.19677 -19.16931 -19.14411 -19.13707 -19.13240
 Alpha  occ. eigenvalues --  -10.27757 -10.26913 -10.26567 -10.26361 -10.26048
 Alpha  occ. eigenvalues --  -10.25383 -10.24565 -10.21842 -10.20306 -10.19843
 Alpha  occ. eigenvalues --  -10.19754 -10.19661 -10.19596 -10.19382 -10.19052
 Alpha  occ. eigenvalues --  -10.19016 -10.18799 -10.18702 -10.18519 -10.18439
 Alpha  occ. eigenvalues --  -10.18218 -10.17780 -10.17297 -10.16934 -10.16898
 Alpha  occ. eigenvalues --  -10.15913  -1.08581  -1.06105  -1.03500  -1.02296
 Alpha  occ. eigenvalues --   -1.01702  -0.87692  -0.84095  -0.82558  -0.81285
 Alpha  occ. eigenvalues --   -0.80190  -0.79717  -0.77111  -0.74397  -0.73554
 Alpha  occ. eigenvalues --   -0.72595  -0.71850  -0.69676  -0.68693  -0.67879
 Alpha  occ. eigenvalues --   -0.65336  -0.64042  -0.63209  -0.61992  -0.61154
 Alpha  occ. eigenvalues --   -0.59525  -0.58811  -0.56906  -0.54745  -0.53518
 Alpha  occ. eigenvalues --   -0.53157  -0.51932  -0.50849  -0.50206  -0.49325
 Alpha  occ. eigenvalues --   -0.48802  -0.47292  -0.47095  -0.46535  -0.45865
 Alpha  occ. eigenvalues --   -0.44659  -0.44598  -0.44033  -0.43451  -0.43037
 Alpha  occ. eigenvalues --   -0.42626  -0.42480  -0.42059  -0.41715  -0.41362
 Alpha  occ. eigenvalues --   -0.41003  -0.40690  -0.40474  -0.40092  -0.39941
 Alpha  occ. eigenvalues --   -0.39322  -0.38894  -0.38623  -0.38549  -0.38135
 Alpha  occ. eigenvalues --   -0.37640  -0.37593  -0.37017  -0.36327  -0.35839
 Alpha  occ. eigenvalues --   -0.35744  -0.35186  -0.34990  -0.34722  -0.34153
 Alpha  occ. eigenvalues --   -0.33966  -0.33249  -0.32914  -0.32653  -0.32418
 Alpha  occ. eigenvalues --   -0.31887  -0.31596  -0.30955  -0.27343  -0.26949
 Alpha  occ. eigenvalues --   -0.25106  -0.24842  -0.24345  -0.23678  -0.23322
 Alpha virt. eigenvalues --   -0.04770  -0.02385   0.01273   0.01787   0.04073
 Alpha virt. eigenvalues --    0.06522   0.08196   0.08852   0.09487   0.10171
 Alpha virt. eigenvalues --    0.10786   0.10806   0.11219   0.11462   0.12696
 Alpha virt. eigenvalues --    0.13119   0.13346   0.13587   0.13928   0.13973
 Alpha virt. eigenvalues --    0.14268   0.14755   0.15217   0.15498   0.15708
 Alpha virt. eigenvalues --    0.16253   0.16416   0.16719   0.17251   0.17870
 Alpha virt. eigenvalues --    0.18251   0.18546   0.18613   0.19390   0.19410
 Alpha virt. eigenvalues --    0.19583   0.19673   0.19984   0.20124   0.20416
 Alpha virt. eigenvalues --    0.20963   0.21065   0.21619   0.22123   0.22329
 Alpha virt. eigenvalues --    0.23901   0.24117   0.24203   0.24499   0.25167
 Alpha virt. eigenvalues --    0.25242   0.25465   0.25964   0.26019   0.26707
 Alpha virt. eigenvalues --    0.26997   0.27120   0.27933   0.28077   0.30659
 Alpha virt. eigenvalues --    0.31558   0.31906   0.32857   0.33701   0.34731
 Alpha virt. eigenvalues --    0.35053   0.36426   0.37374   0.38942   0.40060
 Alpha virt. eigenvalues --    0.42264   0.43969   0.45699   0.47512   0.48611
 Alpha virt. eigenvalues --    0.49008   0.49823   0.50279   0.51388   0.51989
 Alpha virt. eigenvalues --    0.52016   0.52411   0.52715   0.53348   0.54137
 Alpha virt. eigenvalues --    0.54209   0.54510   0.54748   0.55606   0.55932
 Alpha virt. eigenvalues --    0.56769   0.57213   0.58504   0.58851   0.59178
 Alpha virt. eigenvalues --    0.59774   0.60102   0.61019   0.61146   0.61419
 Alpha virt. eigenvalues --    0.62663   0.63418   0.64229   0.64562   0.64907
 Alpha virt. eigenvalues --    0.65102   0.65988   0.66541   0.66960   0.67435
 Alpha virt. eigenvalues --    0.67623   0.68370   0.69228   0.69644   0.70316
 Alpha virt. eigenvalues --    0.70844   0.71664   0.72675   0.73333   0.73511
 Alpha virt. eigenvalues --    0.74253   0.75487   0.75693   0.76124   0.76582
 Alpha virt. eigenvalues --    0.76859   0.77759   0.77920   0.78740   0.79317
 Alpha virt. eigenvalues --    0.79587   0.80197   0.80544   0.81624   0.82291
 Alpha virt. eigenvalues --    0.82672   0.83098   0.83963   0.84453   0.84779
 Alpha virt. eigenvalues --    0.85397   0.85733   0.86324   0.86772   0.86856
 Alpha virt. eigenvalues --    0.87654   0.87942   0.88891   0.89091   0.89300
 Alpha virt. eigenvalues --    0.89658   0.90038   0.90264   0.90443   0.90759
 Alpha virt. eigenvalues --    0.91124   0.91235   0.91842   0.92097   0.92390
 Alpha virt. eigenvalues --    0.92462   0.92833   0.93309   0.93684   0.94476
 Alpha virt. eigenvalues --    0.94845   0.95483   0.95942   0.96762   0.97429
 Alpha virt. eigenvalues --    0.97729   0.98108   0.98356   0.99322   0.99580
 Alpha virt. eigenvalues --    1.00029   1.01167   1.01690   1.02600   1.03442
 Alpha virt. eigenvalues --    1.03958   1.05094   1.05561   1.07364   1.08528
 Alpha virt. eigenvalues --    1.09367   1.10650   1.11307   1.12235   1.13160
 Alpha virt. eigenvalues --    1.14138   1.15031   1.15382   1.16331   1.17402
 Alpha virt. eigenvalues --    1.17858   1.18584   1.19177   1.19638   1.21227
 Alpha virt. eigenvalues --    1.22000   1.23415   1.25591   1.26472   1.27344
 Alpha virt. eigenvalues --    1.29390   1.30213   1.31074   1.32934   1.34421
 Alpha virt. eigenvalues --    1.34761   1.35402   1.38258   1.39379   1.40345
 Alpha virt. eigenvalues --    1.41769   1.43821   1.44235   1.45085   1.46282
 Alpha virt. eigenvalues --    1.47487   1.49710   1.49970   1.51975   1.53105
 Alpha virt. eigenvalues --    1.53403   1.55467   1.55771   1.57332   1.58174
 Alpha virt. eigenvalues --    1.60032   1.60698   1.62455   1.63331   1.65577
 Alpha virt. eigenvalues --    1.66087   1.67093   1.67837   1.68768   1.69272
 Alpha virt. eigenvalues --    1.71020   1.72218   1.72814   1.73340   1.74842
 Alpha virt. eigenvalues --    1.75889   1.76676   1.77093   1.78668   1.78812
 Alpha virt. eigenvalues --    1.79727   1.80024   1.80650   1.81279   1.82002
 Alpha virt. eigenvalues --    1.82405   1.84167   1.84775   1.85156   1.86571
 Alpha virt. eigenvalues --    1.87058   1.87693   1.87976   1.88435   1.88704
 Alpha virt. eigenvalues --    1.89272   1.89818   1.90613   1.91348   1.91920
 Alpha virt. eigenvalues --    1.92696   1.92896   1.93398   1.94161   1.94669
 Alpha virt. eigenvalues --    1.95858   1.96178   1.96901   1.97849   1.98609
 Alpha virt. eigenvalues --    1.98938   2.00119   2.00578   2.00996   2.01857
 Alpha virt. eigenvalues --    2.02679   2.03351   2.04450   2.04964   2.05702
 Alpha virt. eigenvalues --    2.06270   2.07165   2.07420   2.09030   2.09969
 Alpha virt. eigenvalues --    2.10777   2.11198   2.12165   2.12982   2.13551
 Alpha virt. eigenvalues --    2.13737   2.15624   2.16334   2.17986   2.18836
 Alpha virt. eigenvalues --    2.19528   2.20459   2.21638   2.22333   2.22512
 Alpha virt. eigenvalues --    2.23034   2.24119   2.26572   2.26980   2.27738
 Alpha virt. eigenvalues --    2.28309   2.28423   2.28805   2.30488   2.31280
 Alpha virt. eigenvalues --    2.31852   2.33099   2.33804   2.34510   2.34849
 Alpha virt. eigenvalues --    2.35983   2.36566   2.37564   2.38182   2.39768
 Alpha virt. eigenvalues --    2.40324   2.40909   2.41366   2.42339   2.43734
 Alpha virt. eigenvalues --    2.45114   2.45537   2.46872   2.46934   2.48466
 Alpha virt. eigenvalues --    2.49983   2.51121   2.52626   2.52935   2.55119
 Alpha virt. eigenvalues --    2.55462   2.56276   2.57616   2.60931   2.61005
 Alpha virt. eigenvalues --    2.62138   2.63426   2.63528   2.66105   2.66458
 Alpha virt. eigenvalues --    2.67856   2.68116   2.69761   2.70145   2.72593
 Alpha virt. eigenvalues --    2.72960   2.75474   2.76088   2.76624   2.77883
 Alpha virt. eigenvalues --    2.79017   2.79217   2.80842   2.81881   2.85276
 Alpha virt. eigenvalues --    2.88693   2.91135   2.92874   2.93847   2.94868
 Alpha virt. eigenvalues --    2.97170   2.98686   2.99777   3.01227   3.03490
 Alpha virt. eigenvalues --    3.05811   3.07189   3.11437   3.18028   3.20518
 Alpha virt. eigenvalues --    3.23099   3.27876   4.01071   4.10064   4.13445
 Alpha virt. eigenvalues --    4.15111   4.15981   4.17798   4.19075   4.21630
 Alpha virt. eigenvalues --    4.23546   4.25404   4.26172   4.27672   4.29887
 Alpha virt. eigenvalues --    4.33146   4.33837   4.37918   4.40965   4.43398
 Alpha virt. eigenvalues --    4.46688   4.47589   4.54711   4.56356   4.61648
 Alpha virt. eigenvalues --    4.65565   4.68020   4.70524   4.71754   4.77745
 Alpha virt. eigenvalues --    4.89644   4.92915   5.25584
          Condensed to atoms (all electrons):
 Mulliken atomic charges:
              1
     1  C   -0.200178
     2  C    0.201439
     3  C   -0.199659
     4  C    0.317740
     5  C   -0.043698
     6  C   -0.327291
     7  C    0.210252
     8  C    0.409145
     9  C   -0.094143
    10  C    0.421321
    11  C    0.425668
    12  O   -0.470412
    13  C   -0.149126
    14  C   -0.248447
    15  C   -0.456094
    16  O   -0.488162
    17  C   -0.152141
    18  C    0.305606
    19  O   -0.535880
    20  C   -0.306135
    21  O   -0.677727
    22  C   -0.328078
    23  C    0.091243
    24  O   -0.581483
    25  C    0.184802
    26  C   -0.509782
    27  C   -0.403763
    28  C   -0.460509
    29  C   -0.464060
    30  H    0.145280
    31  H    0.150545
    32  C   -0.519111
    33  H    0.126372
    34  H    0.165701
    35  H    0.181953
    36  H    0.143244
    37  H    0.153903
    38  H    0.124764
    39  H    0.162413
    40  H    0.146700
    41  H    0.163670
    42  H    0.161763
    43  H    0.149241
    44  H    0.431313
    45  H    0.186803
    46  H    0.152681
    47  H    0.134455
    48  H    0.155219
    49  H    0.151717
    50  H    0.157543
    51  H    0.136259
    52  H    0.175638
    53  H    0.184596
    54  H    0.140924
    55  H    0.149071
    56  H    0.158057
    57  H    0.149945
    58  H    0.159501
    59  H    0.157603
    60  H    0.155505
    61  H    0.155872
    62  C   -0.447669
    63  H    0.134149
    64  H    0.155474
    65  H    0.138455
 Sum of Mulliken atomic charges =   0.00000
 Mulliken charges with hydrogens summed into heavy atoms:
              1
     1  C   -0.073806
     2  C    0.201439
     3  C   -0.049114
     4  C    0.317740
     5  C   -0.043698
     6  C    0.020363
     7  C    0.210252
     8  C    0.409145
     9  C   -0.094143
    10  C    0.421321
    11  C    0.425668
    12  O   -0.470412
    13  C   -0.005882
    14  C    0.030220
    15  C    0.016689
    16  O   -0.488162
    17  C   -0.006861
    18  C    0.305606
    19  O   -0.535880
    20  C    0.004869
    21  O   -0.246414
    22  C    0.011406
    23  C    0.225698
    24  O   -0.581483
    25  C    0.184802
    26  C   -0.045303
    27  C   -0.091866
    28  C    0.014082
    29  C    0.003443
    32  C   -0.050132
    62  C   -0.019590
 Sum of Mulliken charges with hydrogens summed into heavy atoms =   0.00000
 Electronic spatial extent (au):  <R**2>=          10950.7109
 Charge=              0.0000 electrons
 Dipole moment (field-independent basis, Debye):
    X=              3.1174    Y=              3.7784    Z=              2.0071  Tot=              5.2937
 Quadrupole moment (field-independent basis, Debye-Ang):
   XX=           -179.1474   YY=           -180.1165   ZZ=           -187.5380
   XY=             -0.5659   XZ=             -8.4163   YZ=             -2.9968
 Traceless Quadrupole moment (field-independent basis, Debye-Ang):
   XX=              3.1199   YY=              2.1508   ZZ=             -5.2708
   XY=             -0.5659   XZ=             -8.4163   YZ=             -2.9968
 Octapole moment (field-independent basis, Debye-Ang**2):
  XXX=              9.1164  YYY=             30.2565  ZZZ=             10.7445  XYY=              2.5957
  XXY=            -12.9626  XXZ=             18.4031  XZZ=             29.9162  YZZ=             10.5735
  YYZ=             27.6718  XYZ=             -2.5511
 Hexadecapole moment (field-independent basis, Debye-Ang**3):
 XXXX=          -7383.5734 YYYY=          -4455.0580 ZZZZ=          -2738.7072 XXXY=             29.5034
 XXXZ=            -19.9644 YYYX=             18.4665 YYYZ=             -6.9493 ZZZX=            -41.9055
 ZZZY=             -5.5135 XXYY=          -1957.6669 XXZZ=          -1711.3260 YYZZ=          -1176.8761
 XXYZ=            -22.0983 YYXZ=              7.1809 ZZXY=            -31.6881
 N-N= 3.554240228340D+03 E-N=-1.033501950495D+04  KE= 1.374864654592D+03
 Calling FoFJK, ICntrl=      2127 FMM=T ISym2X=0 I1Cent= 0 IOpClX= 0 NMat=1 NMatS=1 NMatT=0.
 ***** Axes restored to original set *****
 -------------------------------------------------------------------
 Center     Atomic                   Forces (Hartrees/Bohr)
 Number     Number              X              Y              Z
 -------------------------------------------------------------------
      1        6           0.009646829    0.000710276    0.001760846
      2        6          -0.009981536   -0.005811926    0.004542478
      3        6          -0.005720243   -0.009338665   -0.003263244
      4        6           0.012652625   -0.005929336    0.007470811
      5        6          -0.007230216    0.002883443    0.005304194
      6        6          -0.006601008   -0.008749640   -0.005109285
      7        6           0.022432650    0.016003016    0.006361966
      8        6          -0.005287919   -0.000843781   -0.024331121
      9        6           0.004444336   -0.003145780    0.006291876
     10        6          -0.017164002    0.017376536    0.001452043
     11        6          -0.019050040   -0.007086044   -0.005966620
     12        8           0.008838028    0.012393813    0.003221902
     13        6          -0.005125362    0.000555581   -0.011212341
     14        6           0.001424590   -0.001087235   -0.003853678
     15        6          -0.003567746    0.002181451    0.010917141
     16        8           0.007467854   -0.010116364   -0.001119328
     17        6           0.002039622   -0.006463275   -0.011772263
     18        6           0.029608005    0.005052117   -0.015628036
     19        8          -0.008790064   -0.009249571    0.034223615
     20        6           0.009162856   -0.001706107   -0.006363670
     21        8          -0.005136248    0.005431619    0.004154981
     22        6          -0.002759702   -0.007718037    0.008191501
     23        6          -0.000958761    0.006358361    0.016639724
     24        8          -0.004580660   -0.008472813   -0.013876113
     25        6          -0.011615240    0.015327462    0.008092237
     26        6          -0.000140899    0.001115029   -0.001079041
     27        6           0.001083002   -0.008801374   -0.001584211
     28        6          -0.001765856    0.008435495    0.001891788
     29        6          -0.008951473   -0.000312779   -0.006877458
     30        1          -0.003216831    0.002233236    0.000467557
     31        1          -0.001862236    0.005593886    0.000745276
     32        6          -0.002524916   -0.000385154    0.000168570
     33        1           0.000684922   -0.001005106   -0.000041935
     34        1           0.000471890    0.004964564   -0.000252954
     35        1          -0.002175527    0.005974099   -0.000068927
     36        1           0.000853346   -0.002343684    0.001131127
     37        1          -0.000170490    0.000120924    0.003877884
     38        1          -0.000995569    0.001566385    0.002708493
     39        1           0.000493520   -0.000590254   -0.001055577
     40        1           0.000943768    0.000136033   -0.001083605
     41        1          -0.001125986    0.000262012    0.001125799
     42        1           0.000127998    0.000338962    0.001194813
     43        1          -0.002242554   -0.001748692   -0.001332158
     44        1          -0.002827929   -0.001314260   -0.002732557
     45        1           0.000872995    0.005000098   -0.005736543
     46        1           0.000886722    0.000949756   -0.004430617
     47        1           0.004471689   -0.000192888    0.000423870
     48        1           0.004238713   -0.002062330    0.001335362
     49        1           0.003802084   -0.002081508    0.000155393
     50        1          -0.001874058   -0.000788298   -0.001520984
     51        1           0.001773800   -0.000017734    0.000521168
     52        1          -0.000697323   -0.000794280   -0.002613424
     53        1           0.000576803   -0.004524731    0.003345010
     54        1           0.000042858   -0.000835792   -0.000400542
     55        1           0.000385675   -0.003311983   -0.002278818
     56        1           0.001530828   -0.001854784    0.002532656
     57        1          -0.000009318    0.000656544    0.001348980
     58        1           0.002074855    0.001442636    0.001730310
     59        1          -0.000658497    0.000823981   -0.000345446
     60        1           0.004159419   -0.001572509   -0.000204106
     61        1           0.004169447   -0.001138863    0.000089539
     62        6           0.000245792   -0.000837932   -0.005335104
     63        1           0.000726952   -0.000561059   -0.001794606
     64        1           0.000998084   -0.000188948    0.000127558
     65        1           0.001475647   -0.000903803   -0.000282157
 -------------------------------------------------------------------
 Cartesian Forces:  Max     0.034223615 RMS     0.006772531

 GradGradGradGradGradGradGradGradGradGradGradGradGradGradGradGradGradGrad
 Berny optimization.
 Internal  Forces:  Max     0.018029507 RMS     0.003529823
 Search for a local minimum.
 Step number   1 out of a maximum of  390
 All quantities printed in internal units (Hartrees-Bohrs-Radians)
 Mixed Optimization -- RFO/linear search
 Second derivative matrix not updated -- first step.
 ITU=  0
     Eigenvalues ---    0.00278   0.00287   0.00355   0.00391   0.00421
     Eigenvalues ---    0.00460   0.00530   0.00567   0.00568   0.00596
     Eigenvalues ---    0.00630   0.00667   0.00692   0.00741   0.00816
     Eigenvalues ---    0.01056   0.01123   0.01226   0.01276   0.01458
     Eigenvalues ---    0.01513   0.01707   0.01725   0.01822   0.02070
     Eigenvalues ---    0.02565   0.02840   0.02840   0.03134   0.03159
     Eigenvalues ---    0.03537   0.03662   0.03879   0.04079   0.04152
     Eigenvalues ---    0.04278   0.04346   0.04456   0.04458   0.04629
     Eigenvalues ---    0.04714   0.04839   0.04946   0.05122   0.05285
     Eigenvalues ---    0.05308   0.05335   0.05399   0.05502   0.05503
     Eigenvalues ---    0.05525   0.05555   0.05555   0.05572   0.05606
     Eigenvalues ---    0.05647   0.05696   0.05842   0.05927   0.06143
     Eigenvalues ---    0.06574   0.06852   0.07045   0.07074   0.07157
     Eigenvalues ---    0.07217   0.07319   0.07347   0.07577   0.08095
     Eigenvalues ---    0.08347   0.08356   0.08741   0.09121   0.09616
     Eigenvalues ---    0.09767   0.10338   0.11509   0.11878   0.12208
     Eigenvalues ---    0.12582   0.13310   0.14493   0.15318   0.15989
     Eigenvalues ---    0.16000   0.16000   0.16000   0.16000   0.16000
     Eigenvalues ---    0.16000   0.16000   0.16000   0.16000   0.16000
     Eigenvalues ---    0.16000   0.16000   0.16000   0.16000   0.16000
     Eigenvalues ---    0.16000   0.16000   0.16000   0.16000   0.16000
     Eigenvalues ---    0.16358   0.16407   0.17002   0.17709   0.18142
     Eigenvalues ---    0.19429   0.20794   0.21916   0.22084   0.22733
     Eigenvalues ---    0.23249   0.24679   0.24841   0.24973   0.24980
     Eigenvalues ---    0.24985   0.24987   0.25000   0.26103   0.26592
     Eigenvalues ---    0.26882   0.27461   0.27845   0.28275   0.28308
     Eigenvalues ---    0.28800   0.28854   0.28861   0.29326   0.29579
     Eigenvalues ---    0.29785   0.30065   0.30280   0.30547   0.30853
     Eigenvalues ---    0.31321   0.31665   0.32182   0.32992   0.33688
     Eigenvalues ---    0.33840   0.33851   0.33932   0.33969   0.33990
     Eigenvalues ---    0.34012   0.34024   0.34036   0.34064   0.34072
     Eigenvalues ---    0.34114   0.34159   0.34193   0.34194   0.34200
     Eigenvalues ---    0.34232   0.34234   0.34245   0.34257   0.34272
     Eigenvalues ---    0.34274   0.34276   0.34282   0.34290   0.34302
     Eigenvalues ---    0.34341   0.34351   0.34378   0.34425   0.34794
     Eigenvalues ---    0.35081   0.35213   0.35640   0.35947   0.36579
     Eigenvalues ---    0.37909   0.41023   0.44515   0.50544   0.53386
     Eigenvalues ---    0.54303   0.56485   0.90593   0.91586
 RFO step:  Lambda=-2.36233858D-02 EMin= 2.78464878D-03
 Linear search not attempted -- first point.
 Iteration  1 RMS(Cart)=  0.09104676 RMS(Int)=  0.00206378
 Iteration  2 RMS(Cart)=  0.00407768 RMS(Int)=  0.00025449
 Iteration  3 RMS(Cart)=  0.00000890 RMS(Int)=  0.00025445
 Iteration  4 RMS(Cart)=  0.00000000 RMS(Int)=  0.00025445
 Variable       Old X    -DE/DX   Delta X   Delta X   Delta X     New X
                                 (Linear)    (Quad)   (Total)
    R1        2.53393  -0.00257   0.00000  -0.00486  -0.00491   2.52903
    R2        2.82629   0.00792   0.00000   0.02304   0.02292   2.84921
    R3        2.05543   0.00052   0.00000   0.00138   0.00138   2.05681
    R4        2.84761   0.00449   0.00000   0.01167   0.01174   2.85935
    R5        2.83812   0.00467   0.00000   0.01351   0.01351   2.85163
    R6        2.94462   0.00577   0.00000   0.01365   0.01361   2.95823
    R7        2.90121   0.01019   0.00000   0.03404   0.03400   2.93521
    R8        2.07860  -0.00201   0.00000  -0.00557  -0.00557   2.07304
    R9        2.91582   0.01077   0.00000   0.03024   0.03023   2.94606
   R10        2.93285   0.01011   0.00000   0.03658   0.03689   2.96974
   R11        2.75375  -0.00330   0.00000  -0.00776  -0.00772   2.74603
   R12        2.92305   0.00375   0.00000   0.01337   0.01333   2.93637
   R13        2.90452   0.00629   0.00000   0.01362   0.01328   2.91780
   R14        2.89429   0.00412   0.00000   0.01168   0.01152   2.90581
   R15        2.07602  -0.00148   0.00000  -0.00408  -0.00408   2.07193
   R16        2.07382   0.00193   0.00000   0.00532   0.00532   2.07914
   R17        2.81332   0.01118   0.00000   0.02639   0.02610   2.83942
   R18        2.86499   0.01478   0.00000   0.05138   0.05088   2.91586
   R19        2.68443   0.00066   0.00000   0.00183   0.00191   2.68634
   R20        2.52493   0.01480   0.00000   0.02602   0.02615   2.55108
   R21        2.62059  -0.01803   0.00000  -0.04154  -0.04128   2.57931
   R22        2.80085   0.00286   0.00000   0.00366   0.00382   2.80467
   R23        2.79311   0.01563   0.00000   0.04207   0.04207   2.83518
   R24        2.32211  -0.01018   0.00000  -0.01084  -0.01084   2.31127
   R25        2.32661  -0.01513   0.00000  -0.01627  -0.01627   2.31034
   R26        2.88394  -0.00038   0.00000  -0.00118  -0.00118   2.88275
   R27        2.90294   0.00323   0.00000   0.01033   0.01033   2.91327
   R28        2.88811   0.00884   0.00000   0.02766   0.02766   2.91577
   R29        2.07138   0.00011   0.00000   0.00030   0.00030   2.07167
   R30        2.07270  -0.00052   0.00000  -0.00143  -0.00143   2.07127
   R31        2.07289   0.00097   0.00000   0.00267   0.00267   2.07556
   R32        2.87833   0.00787   0.00000   0.02426   0.02426   2.90259
   R33        2.07062  -0.00020   0.00000  -0.00054  -0.00054   2.07008
   R34        2.06919   0.00042   0.00000   0.00116   0.00116   2.07035
   R35        2.07003   0.00076   0.00000   0.00208   0.00208   2.07211
   R36        2.91246  -0.00022   0.00000   0.01086   0.01102   2.92348
[...]
     56          1           0       -1.807643    3.715686    0.168725
     57          1           0       -1.479757    4.398179    1.776028
     58          1           0       -2.986404    3.512870    1.475654
     59          1           0        3.531528    3.269482   -3.208020
     60          1           0        2.863188    4.156178   -1.826219
     61          1           0        4.250612    3.098034   -1.593172
     62          6           0       -5.237080    0.460261   -1.135621
     63          1           0       -6.222654    0.611129   -1.590807
     64          1           0       -4.481997    0.720836   -1.884683
     65          1           0       -5.142170    1.166004   -0.300875
 ---------------------------------------------------------------------
 Rotational constants (GHZ):      0.1993056      0.1349249      0.1176318

 **********************************************************************

            Population analysis using the SCF density.

 **********************************************************************

 Orbital symmetries:
       Occupied  (A) (A) (A) (A) (A) (A) (A) (A) (A) (A) (A) (A)
                 (A) (A) (A) (A) (A) (A) (A) (A) (A) (A) (A) (A)
                 (A) (A) (A) (A) (A) (A) (A) (A) (A) (A) (A) (A)
                 (A) (A) (A) (A) (A) (A) (A) (A) (A) (A) (A) (A)
                 (A) (A) (A) (A) (A) (A) (A) (A) (A) (A) (A) (A)
                 (A) (A) (A) (A) (A) (A) (A) (A) (A) (A) (A) (A)
                 (A) (A) (A) (A) (A) (A) (A) (A) (A) (A) (A) (A)
                 (A) (A) (A) (A) (A) (A) (A) (A) (A) (A) (A) (A)
                 (A) (A) (A) (A) (A) (A) (A) (A) (A) (A) (A) (A)
                 (A) (A) (A) (A) (A) (A) (A)
       Virtual   (A) (A) (A) (A) (A) (A) (A) (A) (A) (A) (A) (A)
                 (A) (A) (A) (A) (A) (A) (A) (A) (A) (A) (A) (A)
                 (A) (A) (A) (A) (A) (A) (A) (A) (A) (A) (A) (A)
                 (A) (A) (A) (A) (A) (A) (A) (A) (A) (A) (A) (A)
                 (A) (A) (A) (A) (A) (A) (A) (A) (A) (A) (A) (A)
                 (A) (A) (A) (A) (A) (A) (A) (A) (A) (A) (A) (A)
                 (A) (A) (A) (A) (A) (A) (A) (A) (A) (A) (A) (A)
                 (A) (A) (A) (A) (A) (A) (A) (A) (A) (A) (A) (A)
                 (A) (A) (A) (A) (A) (A) (A) (A) (A) (A) (A) (A)
                 (A) (A) (A) (A) (A) (A) (A) (A) (A) (A) (A) (A)
                 (A) (A) (A) (A) (A) (A) (A) (A) (A) (A) (A) (A)
                 (A) (A) (A) (A) (A) (A) (A) (A) (A) (A) (A) (A)
                 (A) (A) (A) (A) (A) (A) (A) (A) (A) (A) (A) (A)
                 (A) (A) (A) (A) (A) (A) (A) (A) (A) (A) (A) (A)
                 (A) (A) (A) (A) (A) (A) (A) (A) (A) (A) (A) (A)
                 (A) (A) (A) (A) (A) (A) (A) (A) (A) (A) (A) (A)
                 (A) (A) (A) (A) (A) (A) (A) (A) (A) (A) (A) (A)
                 (A) (A) (A) (A) (A) (A) (A) (A) (A) (A) (A) (A)
                 (A) (A) (A) (A) (A) (A) (A) (A) (A) (A) (A) (A)
                 (A) (A) (A) (A) (A) (A) (A) (A) (A) (A) (A) (A)
                 (A) (A) (A) (A) (A) (A) (A) (A) (A) (A) (A) (A)
                 (A) (A) (A) (A) (A) (A) (A) (A) (A) (A) (A) (A)
                 (A) (A) (A) (A) (A) (A) (A) (A) (A) (A) (A) (A)
                 (A) (A) (A) (A) (A) (A) (A) (A) (A) (A) (A) (A)
                 (A) (A) (A) (A) (A) (A) (A) (A) (A) (A) (A) (A)
                 (A) (A) (A) (A) (A) (A) (A) (A) (A) (A) (A) (A)
                 (A) (A) (A) (A) (A) (A) (A) (A) (A) (A) (A) (A)
                 (A) (A) (A) (A) (A) (A) (A) (A) (A) (A) (A) (A)
                 (A) (A) (A) (A) (A) (A) (A) (A) (A) (A) (A) (A)
                 (A) (A) (A) (A) (A) (A) (A) (A) (A) (A) (A) (A)
                 (A) (A) (A) (A) (A) (A) (A) (A) (A) (A) (A) (A)
                 (A) (A) (A) (A) (A) (A) (A) (A) (A) (A) (A) (A)
                 (A) (A) (A) (A) (A) (A) (A) (A) (A) (A) (A) (A)
                 (A) (A) (A) (A) (A) (A) (A) (A) (A) (A) (A) (A)
                 (A) (A) (A) (A) (A) (A) (A) (A) (A) (A)
 The electronic state is 1-A.
 Alpha  occ. eigenvalues --  -19.19852 -19.16690 -19.14916 -19.13096 -19.12445
 Alpha  occ. eigenvalues --  -10.27075 -10.26955 -10.26829 -10.26311 -10.26079
 Alpha  occ. eigenvalues --  -10.25750 -10.24671 -10.21303 -10.20496 -10.20294
 Alpha  occ. eigenvalues --  -10.20185 -10.19731 -10.19575 -10.19514 -10.19299
 Alpha  occ. eigenvalues --  -10.18943 -10.18854 -10.18619 -10.18558 -10.18425
 Alpha  occ. eigenvalues --  -10.18406 -10.18095 -10.17487 -10.17001 -10.16837
 Alpha  occ. eigenvalues --  -10.16161  -1.09168  -1.05726  -1.03395  -1.02085
 Alpha  occ. eigenvalues --   -1.01944  -0.86840  -0.83841  -0.81952  -0.81134
 Alpha  occ. eigenvalues --   -0.79885  -0.79357  -0.76818  -0.74006  -0.73026
 Alpha  occ. eigenvalues --   -0.72223  -0.71528  -0.70233  -0.68695  -0.68020
 Alpha  occ. eigenvalues --   -0.64813  -0.64083  -0.63126  -0.61864  -0.60728
 Alpha  occ. eigenvalues --   -0.59215  -0.58745  -0.56517  -0.54497  -0.53216
 Alpha  occ. eigenvalues --   -0.52868  -0.51739  -0.50644  -0.49903  -0.48983
 Alpha  occ. eigenvalues --   -0.48297  -0.47545  -0.47017  -0.46423  -0.46029
 Alpha  occ. eigenvalues --   -0.44868  -0.44234  -0.44024  -0.43188  -0.42733
 Alpha  occ. eigenvalues --   -0.42467  -0.42191  -0.41934  -0.41686  -0.41186
 Alpha  occ. eigenvalues --   -0.40900  -0.40710  -0.40400  -0.40072  -0.39926
 Alpha  occ. eigenvalues --   -0.39268  -0.39027  -0.38716  -0.38452  -0.37992
 Alpha  occ. eigenvalues --   -0.37600  -0.37489  -0.37167  -0.36577  -0.35977
 Alpha  occ. eigenvalues --   -0.35735  -0.35324  -0.35152  -0.34588  -0.34560
 Alpha  occ. eigenvalues --   -0.33611  -0.33323  -0.32886  -0.32697  -0.32185
 Alpha  occ. eigenvalues --   -0.31632  -0.31363  -0.30885  -0.27420  -0.27190
 Alpha  occ. eigenvalues --   -0.25303  -0.24578  -0.24272  -0.23394  -0.22668
 Alpha virt. eigenvalues --   -0.04319  -0.01736   0.00978   0.01538   0.05442
 Alpha virt. eigenvalues --    0.07201   0.08388   0.08677   0.09477   0.10341
 Alpha virt. eigenvalues --    0.10655   0.11040   0.11176   0.11677   0.12764
 Alpha virt. eigenvalues --    0.13045   0.13263   0.13283   0.13805   0.14104
 Alpha virt. eigenvalues --    0.14427   0.15107   0.15221   0.15391   0.15879
 Alpha virt. eigenvalues --    0.16262   0.16494   0.16762   0.17062   0.17372
 Alpha virt. eigenvalues --    0.17982   0.18279   0.18621   0.19072   0.19439
 Alpha virt. eigenvalues --    0.19463   0.19666   0.19860   0.19948   0.20310
 Alpha virt. eigenvalues --    0.20404   0.20856   0.21107   0.21754   0.22211
 Alpha virt. eigenvalues --    0.23011   0.23533   0.24126   0.24426   0.24674
 Alpha virt. eigenvalues --    0.24812   0.24993   0.25730   0.25921   0.26435
 Alpha virt. eigenvalues --    0.26749   0.27486   0.27734   0.28019   0.30050
 Alpha virt. eigenvalues --    0.30918   0.31583   0.32689   0.33391   0.34656
 Alpha virt. eigenvalues --    0.34827   0.36588   0.37592   0.38927   0.39559
 Alpha virt. eigenvalues --    0.42563   0.44024   0.45763   0.47199   0.48207
 Alpha virt. eigenvalues --    0.49299   0.49757   0.49989   0.50667   0.51059
 Alpha virt. eigenvalues --    0.51768   0.52034   0.52589   0.53090   0.53543
 Alpha virt. eigenvalues --    0.53878   0.54141   0.54369   0.55180   0.55628
 Alpha virt. eigenvalues --    0.56860   0.57309   0.57780   0.58741   0.59054
 Alpha virt. eigenvalues --    0.59628   0.60089   0.60522   0.61061   0.61398
 Alpha virt. eigenvalues --    0.62179   0.63285   0.64063   0.64674   0.64959
 Alpha virt. eigenvalues --    0.65178   0.65569   0.66757   0.66940   0.67388
 Alpha virt. eigenvalues --    0.67921   0.68372   0.68595   0.69546   0.70264
 Alpha virt. eigenvalues --    0.70914   0.71119   0.72470   0.72937   0.73280
 Alpha virt. eigenvalues --    0.74221   0.74854   0.75224   0.75864   0.76270
 Alpha virt. eigenvalues --    0.76384   0.77288   0.77905   0.78001   0.78774
 Alpha virt. eigenvalues --    0.79260   0.80223   0.80862   0.81651   0.82156
 Alpha virt. eigenvalues --    0.83258   0.83606   0.84241   0.84516   0.84934
 Alpha virt. eigenvalues --    0.85482   0.85808   0.85909   0.86622   0.87124
 Alpha virt. eigenvalues --    0.87436   0.87902   0.88497   0.88659   0.88963
 Alpha virt. eigenvalues --    0.89407   0.89540   0.90184   0.90600   0.90809
 Alpha virt. eigenvalues --    0.91052   0.91193   0.91611   0.92098   0.92276
 Alpha virt. eigenvalues --    0.92645   0.92989   0.93280   0.94164   0.94350
 Alpha virt. eigenvalues --    0.94924   0.95074   0.95787   0.96395   0.96656
 Alpha virt. eigenvalues --    0.97103   0.97354   0.98689   0.98845   0.99176
 Alpha virt. eigenvalues --    0.99960   1.01348   1.01984   1.02521   1.03425
 Alpha virt. eigenvalues --    1.03605   1.04922   1.05128   1.09000   1.09466
 Alpha virt. eigenvalues --    1.10029   1.10630   1.12226   1.12617   1.12819
 Alpha virt. eigenvalues --    1.13828   1.14414   1.14711   1.16216   1.16321
 Alpha virt. eigenvalues --    1.17052   1.17855   1.19247   1.19979   1.21021
 Alpha virt. eigenvalues --    1.23206   1.24025   1.25471   1.25969   1.27778
 Alpha virt. eigenvalues --    1.28854   1.30038   1.30288   1.32584   1.35065
 Alpha virt. eigenvalues --    1.35577   1.36195   1.38247   1.39500   1.40088
 Alpha virt. eigenvalues --    1.41192   1.43487   1.44312   1.45390   1.46222
 Alpha virt. eigenvalues --    1.46941   1.48003   1.49263   1.51078   1.53011
 Alpha virt. eigenvalues --    1.53530   1.55050   1.56429   1.56569   1.58155
 Alpha virt. eigenvalues --    1.60596   1.61542   1.61875   1.62327   1.64149
 Alpha virt. eigenvalues --    1.64990   1.66497   1.67259   1.68090   1.68893
 Alpha virt. eigenvalues --    1.69993   1.71786   1.72328   1.72710   1.74555
 Alpha virt. eigenvalues --    1.75209   1.75649   1.76939   1.77316   1.78041
 Alpha virt. eigenvalues --    1.78625   1.79531   1.79753   1.80830   1.81676
 Alpha virt. eigenvalues --    1.82153   1.83489   1.84116   1.84217   1.85426
 Alpha virt. eigenvalues --    1.86252   1.87002   1.87324   1.87802   1.87926
 Alpha virt. eigenvalues --    1.88631   1.89344   1.90031   1.91372   1.92191
 Alpha virt. eigenvalues --    1.92289   1.92544   1.93582   1.93860   1.94747
 Alpha virt. eigenvalues --    1.94954   1.95630   1.96301   1.97541   1.97815
 Alpha virt. eigenvalues --    1.98879   1.99254   1.99703   2.00297   2.01580
 Alpha virt. eigenvalues --    2.01832   2.02276   2.03660   2.04209   2.04595
 Alpha virt. eigenvalues --    2.05803   2.06714   2.07482   2.07881   2.08946
 Alpha virt. eigenvalues --    2.10835   2.11029   2.11478   2.11891   2.12870
 Alpha virt. eigenvalues --    2.13544   2.14196   2.15817   2.17033   2.17890
 Alpha virt. eigenvalues --    2.18248   2.19901   2.21013   2.21586   2.22362
 Alpha virt. eigenvalues --    2.22789   2.23311   2.25384   2.26219   2.27054
 Alpha virt. eigenvalues --    2.27389   2.28219   2.28897   2.29965   2.30597
 Alpha virt. eigenvalues --    2.32458   2.32753   2.33051   2.34155   2.34378
 Alpha virt. eigenvalues --    2.36198   2.36976   2.37447   2.38273   2.38938
 Alpha virt. eigenvalues --    2.39851   2.40376   2.41816   2.42091   2.42828
 Alpha virt. eigenvalues --    2.43902   2.44262   2.46065   2.47144   2.48384
 Alpha virt. eigenvalues --    2.48987   2.50292   2.51801   2.52175   2.54171
 Alpha virt. eigenvalues --    2.54663   2.56638   2.57191   2.59206   2.61178
 Alpha virt. eigenvalues --    2.61653   2.62589   2.63600   2.64794   2.66072
 Alpha virt. eigenvalues --    2.66579   2.67495   2.68453   2.69143   2.70819
 Alpha virt. eigenvalues --    2.72355   2.74196   2.74963   2.76584   2.76927
 Alpha virt. eigenvalues --    2.77418   2.78598   2.79571   2.80817   2.85107
 Alpha virt. eigenvalues --    2.87356   2.88789   2.91719   2.94613   2.96164
 Alpha virt. eigenvalues --    2.97624   2.98041   3.00104   3.01264   3.02389
 Alpha virt. eigenvalues --    3.05577   3.06825   3.11024   3.15379   3.17472
 Alpha virt. eigenvalues --    3.25025   3.26232   4.01817   4.08752   4.11865
 Alpha virt. eigenvalues --    4.12745   4.14436   4.16653   4.18191   4.19844
 Alpha virt. eigenvalues --    4.23030   4.24599   4.26224   4.28445   4.29954
 Alpha virt. eigenvalues --    4.31780   4.33985   4.35891   4.39780   4.42491
 Alpha virt. eigenvalues --    4.46730   4.48097   4.54793   4.56233   4.60799
 Alpha virt. eigenvalues --    4.66986   4.67581   4.70059   4.73280   4.76067
 Alpha virt. eigenvalues --    4.88368   4.93500   5.23316
          Condensed to atoms (all electrons):
 Mulliken atomic charges:
              1
     1  C   -0.197218
     2  C    0.204211
     3  C   -0.200372
     4  C    0.322907
     5  C   -0.050247
     6  C   -0.325766
     7  C    0.203161
     8  C    0.401006
     9  C   -0.096059
    10  C    0.420735
    11  C    0.429057
    12  O   -0.464719
    13  C   -0.164391
    14  C   -0.243579
    15  C   -0.455929
    16  O   -0.482267
    17  C   -0.156005
    18  C    0.298619
    19  O   -0.533837
    20  C   -0.308400
    21  O   -0.671033
    22  C   -0.332940
    23  C    0.094234
    24  O   -0.589842
    25  C    0.181200
    26  C   -0.514056
    27  C   -0.405092
    28  C   -0.467148
    29  C   -0.461371
    30  H    0.145895
    31  H    0.149921
    32  C   -0.520871
    33  H    0.125488
    34  H    0.168341
    35  H    0.173572
    36  H    0.147077
    37  H    0.154509
    38  H    0.122576
    39  H    0.162359
    40  H    0.146012
    41  H    0.160150
    42  H    0.160241
    43  H    0.150698
    44  H    0.430245
    45  H    0.189696
    46  H    0.151342
    47  H    0.135382
    48  H    0.159777
    49  H    0.154187
    50  H    0.157280
    51  H    0.136486
    52  H    0.185314
    53  H    0.195302
    54  H    0.145202
    55  H    0.155408
    56  H    0.162243
    57  H    0.151849
    58  H    0.163210
    59  H    0.157638
    60  H    0.153985
    61  H    0.156553
    62  C   -0.452300
    63  H    0.138818
    64  H    0.156838
    65  H    0.134720
 Sum of Mulliken atomic charges =   0.00000
 Mulliken charges with hydrogens summed into heavy atoms:
              1
     1  C   -0.071729
     2  C    0.204211
     3  C   -0.050451
     4  C    0.322907
     5  C   -0.050247
     6  C    0.016147
     7  C    0.203161
     8  C    0.401006
     9  C   -0.096059
    10  C    0.420735
    11  C    0.429057
    12  O   -0.464719
    13  C   -0.017314
    14  C    0.033506
    15  C    0.012591
    16  O   -0.482267
    17  C   -0.010110
    18  C    0.298619
    19  O   -0.533837
    20  C    0.002540
    21  O   -0.240789
    22  C    0.008098
    23  C    0.229617
    24  O   -0.589842
    25  C    0.181200
    26  C   -0.042812
    27  C   -0.083291
    28  C    0.028764
    29  C    0.015931
    32  C   -0.052696
    62  C   -0.021924
 Sum of Mulliken charges with hydrogens summed into heavy atoms =   0.00000
 Electronic spatial extent (au):  <R**2>=          11168.9352
 Charge=              0.0000 electrons
 Dipole moment (field-independent basis, Debye):
    X=              2.9688    Y=              4.8090    Z=              2.4731  Tot=              6.1690
 Quadrupole moment (field-independent basis, Debye-Ang):
   XX=           -178.9862   YY=           -180.8016   ZZ=           -186.4858
   XY=             -3.7667   XZ=             -8.7879   YZ=             -4.1373
 Traceless Quadrupole moment (field-independent basis, Debye-Ang):
   XX=              3.1050   YY=              1.2896   ZZ=             -4.3946
   XY=             -3.7667   XZ=             -8.7879   YZ=             -4.1373
 Octapole moment (field-independent basis, Debye-Ang**2):
  XXX=             13.8501  YYY=             35.4657  ZZZ=             10.9908  XYY=              7.3499
  XXY=             -6.4880  XXZ=             22.6331  XZZ=             25.4244  YZZ=             17.2319
  YYZ=             36.0127  XYZ=             -2.0652
 Hexadecapole moment (field-independent basis, Debye-Ang**3):
 XXXX=          -7624.6941 YYYY=          -4378.6545 ZZZZ=          -2840.2002 XXXY=              5.9253
 XXXZ=            -22.3588 YYYX=              8.9308 YYYZ=             -2.8270 ZZZX=            -42.9724
 ZZZY=              3.6876 XXYY=          -1999.0782 XXZZ=          -1764.3916 YYZZ=          -1191.2142
 XXYZ=            -34.1991 YYXZ=             -6.5612 ZZXY=            -44.6633
 N-N= 3.530012298731D+03 E-N=-1.028643120143D+04  KE= 1.374463741669D+03
 1\1\GINC-B0801\FOpt\RB3LYP\6-31G(d)\C26H34O5\CAOFEI\24-Mar-2021\0\\# o
 pt rb3lyp/6-31g(d) geom=connectivity\\Title Card Required\\0,1\C,0.031
 17482,0.0219261767,-0.0590350252\C,1.3687896403,0.0044892218,-0.023666
 2635\C,2.1443774252,1.300934881,-0.0277164854\C,1.4223161458,2.5334895
 506,0.6048882346\C,-0.1260492298,2.4380150312,0.7678495068\C,-0.769595
 9471,1.2958442202,-0.0798685921\C,1.9048534482,3.7490766728,-0.2693970
 192\C,0.8612449688,4.2248206801,-1.2639789856\C,-0.4587055201,4.315576
 0607,-0.9760080129\C,-0.890010427,3.7133064129,0.3097528581\C,-1.51679
 25691,4.8286735966,-1.9094633141\O,-2.5623333239,4.210491551,-2.031758
 2451\C,-1.2830336485,6.163152456,-2.6199939032\C,-2.0411342191,6.24582
 54925,-3.953964136\C,-1.7221009652,7.278083031,-1.6429282591\O,-1.8829
 068406,4.0921581964,0.9094869191\C,2.9975575228,3.2383142291,-1.236163
 2031\C,2.8708724659,4.1869673409,-2.448562796\O,1.4243787207,4.5342817
 076,-2.4422795893\C,2.5937815132,1.766225446,-1.4379015386\O,2.2733898
 439,4.8530548627,0.5275481958\C,-0.3190325124,2.1650031698,2.271699495
 1\C,0.9381513544,2.6866976451,2.972107111\O,1.9597223635,2.7275208044,
 1.9264266494\C,0.9046265931,4.0308580892,3.6829523617\C,2.1569372937,4
 .3339691634,4.4743091191\C,-0.1275679627,4.8783515752,3.6420813491\C,3
 .6567269277,5.4857895402,-2.2536316433\C,3.1484981808,3.5701647193,-3.
 8154928722\H,3.9883114612,3.3127457232,-0.7777922692\H,3.0521276621,1.
 1751177129,0.5773239626\C,2.1710850473,-1.270645941,-0.0177993861\H,-0
 .5204813821,-0.9166715615,-0.0893985241\H,-1.7793008383,1.1241741075,0
 .3097191595\H,-0.9151857945,1.6368405959,-1.1147202589\H,-0.208440677,
 6.2757923894,-2.8030173585\H,-3.1042142775,6.0586281947,-3.7641483331\
 H,-1.9598065884,7.274292208,-4.3309819417\H,-2.7964236547,7.2091650086
 ,-1.4395682533\H,-1.515310911,8.2627336492,-2.0771840227\H,-1.19203834
 79,7.2087400111,-0.6869081874\H,1.7514494594,1.6833470804,-2.135265990
 7\H,3.4050090646,1.1502109726,-1.8380815768\H,2.3996848681,4.471924936
 2,1.4212437496\H,-1.2438829749,2.6220435842,2.6252807705\H,-0.39023337
 61,1.0857474569,2.4347209\H,1.3035528278,1.9441610831,3.6938910284\H,3
 .0558192153,4.2751760965,3.8471394529\H,2.2966245595,3.6009122799,5.28
 14746605\H,2.1178826361,5.3307235061,4.9229251256\H,-0.0840300997,5.82
 59812826,4.174197227\H,-1.0327100376,4.6843069998,3.0773975951\H,3.446
 5114739,5.9229002279,-1.2748296699\H,4.7324078029,5.2873354125,-2.3228
 286778\H,3.3902228046,6.2055761697,-3.0345482007\H,2.5213320263,2.6947
 615066,-4.000890662\H,4.1991414915,3.2672562849,-3.8828437574\H,2.9543
 597115,4.3027291369,-4.6055422657\H,1.5246985547,-2.1534548283,-0.0499
 699663\H,2.8528497344,-1.3213466708,-0.8781558321\H,2.7992100437,-1.33
 94840933,0.8813088548\C,-1.5291376537,5.2679334075,-5.0170750497\H,-2.
 0727420194,5.3930484825,-5.9605540983\H,-1.6620665324,4.2306235848,-4.
 6923275188\H,-0.4625113422,5.4235124783,-5.2219826019\\Version=EM64L-G
 09RevB.01\State=1-A\HF=-1387.3192217\RMSD=4.659e-09\RMSF=3.241e-06\Dip
 ole=2.2458526,-0.9197639,-0.0289786\Quadrupole=-7.8714566,4.6519776,3.
 2194791,-0.0702863,-4.0628707,-2.2267227\PG=C01 [X(C26H34O5)]\\@


 EVERYBODY NEEDS BEAUTY AS WELL AS BREAD, PLACES TO PLAY IN AND PRAY IN,
 WHERE NATURE MAY HEAL AND CHEER AND GIVE STRENGTH TO BODY AND SOUL ALIKE.

                                    -- JOHN MUIR
 Job cpu time:  0 days  4 hours 58 minutes  9.6 seconds.
 File lengths (MBytes):  RWF=    186 Int=      0 D2E=      0 Chk=     20 Scr=      1
 Normal termination of Gaussian 09 at Wed Mar 24 14:46:14 2021.
