 Entering Gaussian System, Link 0=g09
 Initial command:
 /public/software/g09/g09/l1.exe /tmp/Gau-16029.inp -scrdir=/tmp/
 Entering Link 1 = /public/software/g09/g09/l1.exe PID=     16030.
  
 Copyright (c) 1988,1990,1992,1993,1995,1998,2003,2009,2010,
            Gaussian, Inc.  All Rights Reserved.
  
 This is part of the Gaussian(R) 09 program.  It is based on
 the Gaussian(R) 03 system (copyright 2003, Gaussian, Inc.),
 the Gaussian(R) 98 system (copyright 1998, Gaussian, Inc.),
 the Gaussian(R) 94 system (copyright 1995, Gaussian, Inc.),
 the Gaussian 92(TM) system (copyright 1992, Gaussian, Inc.),
 the Gaussian 90(TM) system (copyright 1990, Gaussian, Inc.),
 the Gaussian 88(TM) system (copyright 1988, Gaussian, Inc.),
 the Gaussian 86(TM) system (copyright 1986, Carnegie Mellon
 University), and the Gaussian 82(TM) system (copyright 1983,
 Carnegie Mellon University). Gaussian is a federally registered
 trademark of Gaussian, Inc.
  
 This software contains proprietary and confidential information,
 including trade secrets, belonging to Gaussian, Inc.
  
 This software is provided under written license and may be
 used, copied, transmitted, or stored only in accord with that
 written license.
  
 The following legend is applicable only to US Government
 contracts under FAR:
  
                    RESTRICTED RIGHTS LEGEND
  
 Use, reproduction and disclosure by the US Government is
 subject to restrictions as set forth in subparagraphs (a)
 and (c) of the Commercial Computer Software - Restricted
 Rights clause in FAR 52.227-19.
  
 Gaussian, Inc.
 340 Quinnipiac St., Bldg. 40, Wallingford CT 06492
  
  
 ---------------------------------------------------------------
 Warning -- This program may not be used in any manner that
 competes with the business of Gaussian, Inc. or will provide
 assistance to any competitor of Gaussian, Inc.  The licensee
 of this program is prohibited from giving any competitor of
 Gaussian, Inc. access to this program.  By using this program,
 the user acknowledges that Gaussian, Inc. is engaged in the
 business of creating and licensing software in the field of
 computational chemistry and represents and warrants to the
 licensee that it is not a competitor of Gaussian, Inc. and that
 it will not use this program in any manner prohibited above.
 ---------------------------------------------------------------
  

 Cite this work as:
 Gaussian 09, Revision B.01,
 M. J. Frisch, G. W. Trucks, H. B. Schlegel, G. E. Scuseria, 
 M. A. Robb, J. R. Cheeseman, G. Scalmani, V. Barone, B. Mennucci, 
 G. A. Petersson, H. Nakatsuji, M. Caricato, X. Li, H. P. Hratchian, 
 A. F. Izmaylov, J. Bloino, G. Zheng, J. L. Sonnenberg, M. Hada, 
 M. Ehara, K. Toyota, R. Fukuda, J. Hasegawa, M. Ishida, T. Nakajima, 
 Y. Honda, O. Kitao, H. Nakai, T. Vreven, J. A. Montgomery, Jr., 
 J. E. Peralta, F. Ogliaro, M. Bearpark, J. J. Heyd, E. Brothers, 
 K. N. Kudin, V. N. Staroverov, T. Keith, R. Kobayashi, J. Normand, 
 K. Raghavachari, A. Rendell, J. C. Burant, S. S. Iyengar, J. Tomasi, 
 M. Cossi, N. Rega, J. M. Millam, M. Klene, J. E. Knox, J. B. Cross, 
 V. Bakken, C. Adamo, J. Jaramillo, R. Gomperts, R. E. Stratmann, 
 O. Yazyev, A. J. Austin, R. Cammi, C. Pomelli, J. W. Ochterski, 
 R. L. Martin, K. Morokuma, V. G. Zakrzewski, G. A. Voth, 
 P. Salvador, J. J. Dannenberg, S. Dapprich, A. D. Daniels, 
 O. Farkas, J. B. Foresman, J. V. Ortiz, J. Cioslowski, 
 and D. J. Fox, Gaussian, Inc., Wallingford CT, 2010.
 
 ******************************************
 Gaussian 09:  EM64L-G09RevB.01 12-Aug-2010
                24-Mar-2021 
 ******************************************
 %mem=600MW
 %nprocshared=10
 Will use up to   10 processors via shared memory.
 ---------------------------------------
 # opt rb3lyp/6-31g(d) geom=connectivity
 ---------------------------------------
 1/14=-1,18=20,19=15,26=3,38=1,57=2/1,3;
 2/9=110,12=2,17=6,18=5,40=1/2;
 3/5=1,6=6,7=1,11=2,16=1,25=1,30=1,71=1,74=-5,116=1/1,2,3;
 4//1;
 5/5=2,38=5/2;
 6/7=2,8=2,9=2,10=2,28=1/1;
 7//1,2,3,16;
 1/14=-1,18=20,19=15/3(2);
 2/9=110/2;
 99//99;
 2/9=110/2;
 3/5=1,6=6,7=1,11=2,16=1,25=1,30=1,71=1,74=-5,116=1/1,2,3;
 4/5=5,16=3/1;
 5/5=2,38=5/2;
 7//1,2,3,16;
 1/14=-1,18=20,19=15/3(-5);
 2/9=110/2;
 6/7=2,8=2,9=2,10=2,19=2,28=1/1;
 99/9=1/99;
 -------------------
 Title Card Required
 -------------------
 Symbolic Z-matrix:
 Charge =  0 Multiplicity = 1
 C                     0.        0.        0. 
 C                     1.3414    0.        0. 
 C                     2.1357    1.2844    0. 
 C                     1.3374    2.5829   -0.3106 
 C                    -0.1606    2.4615   -0.6374 
 C                    -0.8339    1.2395    0.018 
 C                     2.1382    3.2845   -1.4263 
 C                     1.7671    2.8952   -2.8161 
 C                     0.5439    2.4783   -3.157 
 C                    -0.5205    2.4668   -2.1314 
 C                     0.2893    1.9907   -4.5308 
 O                     0.0358    0.7997   -4.7118 
 C                     0.3241    3.01     -5.6644 
 C                     1.2196    2.4831   -6.7956 
 C                    -1.1081    3.279    -6.1204 
 O                    -1.6989    2.5017   -2.4932 
 C                     3.5484    2.7368   -1.3833 
 C                     4.04      2.9548   -2.83 
 O                     2.8648    2.809    -3.6686 
 C                     3.3092    1.2682   -0.9962 
 O                     2.0926    4.6967   -1.314 
 C                    -0.7154    3.7545   -0.031 
 C                     0.1362    3.9449    1.216 
 O                     1.4389    3.4421    0.8681 
 C                     0.2927    5.3417    1.7725 
 C                     1.2376    5.4613    2.9416 
 C                    -0.3614    6.4274    1.3251 
 C                     4.6174    4.3609   -3.0583 
 C                     5.0851    1.9294   -3.2834 
 H                     4.1866    3.2376   -0.6463 
 H                     2.5719    1.3783    1.0056 
 C                     2.11     -1.2919    0.092 
 H                    -0.5432   -0.9426    0.0461 
 H                    -1.0955    1.4356    1.0649 
 H                    -1.7852    1.0133   -0.48 
 H                     0.748     3.9477   -5.2846 
 H                     0.7648    1.6      -7.2615 
 H                     2.1773    2.1494   -6.3769 
 H                    -1.1459    4.0833   -6.8611 
 H                    -1.7363    3.579    -5.2743 
 H                    -1.5602    2.3844   -6.5627 
 H                     4.21      0.8301   -0.5515 
 H                     3.0509    0.6558   -1.8687 
 H                     2.1532    4.8909   -0.3563 
 H                    -0.5776    4.5808   -0.7399 
 H                    -1.7848    3.7065    0.2032 
 H                    -0.2457    3.3046    2.0208 
 H                     0.9396    4.7763    3.7422 
 H                     2.2607    5.219     2.6368 
 H                     1.2498    6.4728    3.3618 
 H                    -1.0692    6.3907    0.5041 
 H                    -0.2111    7.4031    1.7791 
 H                     3.8767    5.1493   -2.9011 
 H                     4.9478    4.477    -4.0975 
 H                     5.4734    4.5501   -2.4027 
 H                     5.9571    1.9293   -2.6216 
 H                     5.4261    2.1488   -4.3022 
 H                     4.675     0.9158   -3.3293 
 H                     1.4504   -2.1536    0.241 
 H                     2.6821   -1.471    -0.8232 
 H                     2.8038   -1.2601    0.9385 
 C                     1.5024    3.524    -7.8688 
 H                     0.5903    3.8114   -8.3996 
 H                     1.9498    4.4238   -7.4348 
 H                     2.2029    3.1207   -8.6072 
 

 GradGradGradGradGradGradGradGradGradGradGradGradGradGradGradGradGradGrad
 Berny optimization.
 Initialization pass.
                           ----------------------------
                           !    Initial Parameters    !
                           ! (Angstroms and Degrees)  !
 --------------------------                            --------------------------
 ! Name  Definition              Value          Derivative Info.                !
 --------------------------------------------------------------------------------
 ! R1    R(1,2)                  1.3414         estimate D2E/DX2                !
 ! R2    R(1,6)                  1.494          estimate D2E/DX2                !
 ! R3    R(1,33)                 1.0889         estimate D2E/DX2                !
 ! R4    R(2,3)                  1.5102         estimate D2E/DX2                !
 ! R5    R(2,32)                 1.5061         estimate D2E/DX2                !
 ! R6    R(3,4)                  1.5556         estimate D2E/DX2                !
 ! R7    R(3,20)                 1.5394         estimate D2E/DX2                !
 ! R8    R(3,31)                 1.1001         estimate D2E/DX2                !
 ! R9    R(4,5)                  1.538          estimate D2E/DX2                !
 ! R10   R(4,7)                  1.5422         estimate D2E/DX2                !
 ! R11   R(4,24)                 1.4621         estimate D2E/DX2                !
 ! R12   R(5,6)                  1.5415         estimate D2E/DX2                !
 ! R13   R(5,10)                 1.5367         estimate D2E/DX2                !
 ! R14   R(5,22)                 1.5321         estimate D2E/DX2                !
 ! R15   R(6,34)                 1.0968         estimate D2E/DX2                !
 ! R16   R(6,35)                 1.0973         estimate D2E/DX2                !
 ! R17   R(7,8)                  1.4902         estimate D2E/DX2                !
 ! R18   R(7,17)                 1.5134         estimate D2E/DX2                !
 ! R19   R(7,21)                 1.4174         estimate D2E/DX2                !
 ! R20   R(8,9)                  1.3365         estimate D2E/DX2                !
 ! R21   R(8,19)                 1.3925         estimate D2E/DX2                !
 ! R22   R(9,10)                 1.4782         estimate D2E/DX2                !
 ! R23   R(9,11)                 1.4798         estimate D2E/DX2                !
 ! R24   R(10,16)                1.2332         estimate D2E/DX2                !
 ! R25   R(11,12)                1.2311         estimate D2E/DX2                !
 ! R26   R(11,13)                1.5249         estimate D2E/DX2                !
 ! R27   R(13,14)                1.536          estimate D2E/DX2                !
 ! R28   R(13,15)                1.5269         estimate D2E/DX2                !
 ! R29   R(13,36)                1.0969         estimate D2E/DX2                !
 ! R30   R(14,37)                1.0972         estimate D2E/DX2                !
 ! R31   R(14,38)                1.0972         estimate D2E/DX2                !
 ! R32   R(14,62)                1.5216         estimate D2E/DX2                !
 ! R33   R(15,39)                1.0941         estimate D2E/DX2                !
 ! R34   R(15,40)                1.0957         estimate D2E/DX2                !
 ! R35   R(15,41)                1.0956         estimate D2E/DX2                !
 ! R36   R(17,18)                1.5434         estimate D2E/DX2                !
 ! R37   R(17,20)                1.5375         estimate D2E/DX2                !
 ! R38   R(17,30)                1.096          estimate D2E/DX2                !
 ! R39   R(18,19)                1.4511         estimate D2E/DX2                !
 ! R40   R(18,28)                1.5371         estimate D2E/DX2                !
 ! R41   R(18,29)                1.5327         estimate D2E/DX2                !
 ! R42   R(20,42)                1.096          estimate D2E/DX2                !
 ! R43   R(20,43)                1.0968         estimate D2E/DX2                !
 ! R44   R(21,44)                0.9791         estimate D2E/DX2                !
 ! R45   R(22,23)                1.522          estimate D2E/DX2                !
 ! R46   R(22,45)                1.0974         estimate D2E/DX2                !
 ! R47   R(22,46)                1.0958         estimate D2E/DX2                !
 ! R48   R(23,24)                1.4391         estimate D2E/DX2                !
 ! R49   R(23,25)                1.5117         estimate D2E/DX2                !
 ! R50   R(23,47)                1.0971         estimate D2E/DX2                !
 ! R51   R(25,26)                1.508          estimate D2E/DX2                !
 ! R52   R(25,27)                1.3442         estimate D2E/DX2                !
 ! R53   R(26,48)                1.095          estimate D2E/DX2                !
 ! R54   R(26,49)                1.0947         estimate D2E/DX2                !
 ! R55   R(26,50)                1.0954         estimate D2E/DX2                !
 ! R56   R(27,51)                1.0846         estimate D2E/DX2                !
 ! R57   R(27,52)                1.0866         estimate D2E/DX2                !
 ! R58   R(28,53)                1.0931         estimate D2E/DX2                !
 ! R59   R(28,54)                1.0966         estimate D2E/DX2                !
 ! R60   R(28,55)                1.0947         estimate D2E/DX2                !
 ! R61   R(29,56)                1.0947         estimate D2E/DX2                !
 ! R62   R(29,57)                1.0965         estimate D2E/DX2                !
 ! R63   R(29,58)                1.0944         estimate D2E/DX2                !
 ! R64   R(32,59)                1.0954         estimate D2E/DX2                !
 ! R65   R(32,60)                1.0941         estimate D2E/DX2                !
 ! R66   R(32,61)                1.095          estimate D2E/DX2                !
 ! R67   R(62,63)                1.0937         estimate D2E/DX2                !
 ! R68   R(62,64)                1.0946         estimate D2E/DX2                !
 ! R69   R(62,65)                1.0948         estimate D2E/DX2                !
 ! A1    A(2,1,6)              123.9287         estimate D2E/DX2                !
 ! A2    A(2,1,33)             119.9243         estimate D2E/DX2                !
 ! A3    A(6,1,33)             116.0548         estimate D2E/DX2                !
 ! A4    A(1,2,3)              121.7335         estimate D2E/DX2                !
 ! A5    A(1,2,32)             120.6864         estimate D2E/DX2                !
 ! A6    A(3,2,32)             117.4607         estimate D2E/DX2                !
 ! A7    A(2,3,4)              116.1055         estimate D2E/DX2                !
 ! A8    A(2,3,20)             113.0789         estimate D2E/DX2                !
 ! A9    A(2,3,31)             106.328          estimate D2E/DX2                !
 ! A10   A(4,3,20)             105.7104         estimate D2E/DX2                !
 ! A11   A(4,3,31)             108.3448         estimate D2E/DX2                !
 ! A12   A(20,3,31)            106.868          estimate D2E/DX2                !
 ! A13   A(3,4,5)              118.4481         estimate D2E/DX2                !
 ! A14   A(3,4,7)              104.9352         estimate D2E/DX2                !
 ! A15   A(3,4,24)             107.0933         estimate D2E/DX2                !
 ! A16   A(5,4,7)              112.8264         estimate D2E/DX2                !
 ! A17   A(5,4,24)             106.5758         estimate D2E/DX2                !
 ! A18   A(7,4,24)             106.25           estimate D2E/DX2                !
 ! A19   A(4,5,6)              113.4314         estimate D2E/DX2                !
 ! A20   A(4,5,10)             115.7469         estimate D2E/DX2                !
 ! A21   A(4,5,22)             101.6526         estimate D2E/DX2                !
 ! A22   A(6,5,10)             108.2877         estimate D2E/DX2                !
 ! A23   A(6,5,22)             110.0337         estimate D2E/DX2                !
 ! A24   A(10,5,22)            107.2815         estimate D2E/DX2                !
 ! A25   A(1,6,5)              114.1279         estimate D2E/DX2                !
 ! A26   A(1,6,34)             107.036          estimate D2E/DX2                !
 ! A27   A(1,6,35)             107.9022         estimate D2E/DX2                !
 ! A28   A(5,6,34)             111.61           estimate D2E/DX2                !
 ! A29   A(5,6,35)             110.4333         estimate D2E/DX2                !
 ! A30   A(34,6,35)            105.2644         estimate D2E/DX2                !
 ! A31   A(4,7,8)              115.2485         estimate D2E/DX2                !
 ! A32   A(4,7,17)             107.3766         estimate D2E/DX2                !
 ! A33   A(4,7,21)             112.2872         estimate D2E/DX2                !
 ! A34   A(8,7,17)              99.4387         estimate D2E/DX2                !
 ! A35   A(8,7,21)             109.0356         estimate D2E/DX2                !
 ! A36   A(17,7,21)            112.8483         estimate D2E/DX2                !
 ! A37   A(7,8,9)              123.1803         estimate D2E/DX2                !
 ! A38   A(7,8,19)             113.0048         estimate D2E/DX2                !
 ! A39   A(9,8,19)             123.0924         estimate D2E/DX2                !
 ! A40   A(8,9,10)             118.9792         estimate D2E/DX2                !
 ! A41   A(8,9,11)             119.8041         estimate D2E/DX2                !
 ! A42   A(10,9,11)            121.1763         estimate D2E/DX2                !
 ! A43   A(5,10,9)             120.3927         estimate D2E/DX2                !
 ! A44   A(5,10,16)            120.6049         estimate D2E/DX2                !
 ! A45   A(9,10,16)            118.9676         estimate D2E/DX2                !
 ! A46   A(9,11,12)            119.3864         estimate D2E/DX2                !
 ! A47   A(9,11,13)            117.7725         estimate D2E/DX2                !
 ! A48   A(12,11,13)           122.8265         estimate D2E/DX2                !
 ! A49   A(11,13,14)           109.36           estimate D2E/DX2                !
 ! A50   A(11,13,15)           108.5642         estimate D2E/DX2                !
 ! A51   A(11,13,36)           108.8351         estimate D2E/DX2                !
 ! A52   A(14,13,15)           112.7897         estimate D2E/DX2                !
 ! A53   A(14,13,36)           108.8411         estimate D2E/DX2                !
 ! A54   A(15,13,36)           108.3775         estimate D2E/DX2                !
 ! A55   A(13,14,37)           110.3146         estimate D2E/DX2                !
 ! A56   A(13,14,38)           109.4013         estimate D2E/DX2                !
 ! A57   A(13,14,62)           113.1501         estimate D2E/DX2                !
 ! A58   A(37,14,38)           106.2045         estimate D2E/DX2                !
 ! A59   A(37,14,62)           109.1569         estimate D2E/DX2                !
 ! A60   A(38,14,62)           108.3598         estimate D2E/DX2                !
 ! A61   A(13,15,39)           111.3525         estimate D2E/DX2                !
 ! A62   A(13,15,40)           110.8177         estimate D2E/DX2                !
 ! A63   A(13,15,41)           111.3316         estimate D2E/DX2                !
 ! A64   A(39,15,40)           107.5602         estimate D2E/DX2                !
 ! A65   A(39,15,41)           108.2225         estimate D2E/DX2                !
 ! A66   A(40,15,41)           107.3812         estimate D2E/DX2                !
 ! A67   A(7,17,18)            102.6527         estimate D2E/DX2                !
 ! A68   A(7,17,20)            101.9973         estimate D2E/DX2                !
 ! A69   A(7,17,30)            113.348          estimate D2E/DX2                !
 ! A70   A(18,17,20)           114.8642         estimate D2E/DX2                !
 ! A71   A(18,17,30)           112.3516         estimate D2E/DX2                !
 ! A72   A(20,17,30)           110.9617         estimate D2E/DX2                !
 ! A73   A(17,18,19)           105.6376         estimate D2E/DX2                !
 ! A74   A(17,18,28)           112.835          estimate D2E/DX2                !
 ! A75   A(17,18,29)           113.5759         estimate D2E/DX2                !
 ! A76   A(19,18,28)           108.0778         estimate D2E/DX2                !
 ! A77   A(19,18,29)           108.3035         estimate D2E/DX2                !
 ! A78   A(28,18,29)           108.175          estimate D2E/DX2                !
 ! A79   A(8,19,18)            106.1645         estimate D2E/DX2                !
 ! A80   A(3,20,17)            105.7523         estimate D2E/DX2                !
 ! A81   A(3,20,42)            111.6037         estimate D2E/DX2                !
 ! A82   A(3,20,43)            109.9461         estimate D2E/DX2                !
 ! A83   A(17,20,42)           110.862          estimate D2E/DX2                !
 ! A84   A(17,20,43)           111.6961         estimate D2E/DX2                !
 ! A85   A(42,20,43)           107.0466         estimate D2E/DX2                !
 ! A86   A(7,21,44)            105.8509         estimate D2E/DX2                !
 ! A87   A(5,22,23)            103.1347         estimate D2E/DX2                !
 ! A88   A(5,22,45)            109.53           estimate D2E/DX2                !
 ! A89   A(5,22,46)            113.6416         estimate D2E/DX2                !
 ! A90   A(23,22,45)           111.3957         estimate D2E/DX2                !
 ! A91   A(23,22,46)           112.1121         estimate D2E/DX2                !
 ! A92   A(45,22,46)           107.0729         estimate D2E/DX2                !
 ! A93   A(22,23,24)           105.3507         estimate D2E/DX2                !
 ! A94   A(22,23,25)           118.3678         estimate D2E/DX2                !
 ! A95   A(22,23,47)           109.4666         estimate D2E/DX2                !
 ! A96   A(24,23,25)           108.5493         estimate D2E/DX2                !
 ! A97   A(24,23,47)           106.7715         estimate D2E/DX2                !
 ! A98   A(25,23,47)           107.7744         estimate D2E/DX2                !
 ! A99   A(4,24,23)            109.7165         estimate D2E/DX2                !
 ! A100  A(23,25,26)           115.0596         estimate D2E/DX2                !
 ! A101  A(23,25,27)           124.9888         estimate D2E/DX2                !
 ! A102  A(26,25,27)           119.9282         estimate D2E/DX2                !
 ! A103  A(25,26,48)           110.2859         estimate D2E/DX2                !
 ! A104  A(25,26,49)           110.6225         estimate D2E/DX2                !
 ! A105  A(25,26,50)           112.1868         estimate D2E/DX2                !
 ! A106  A(48,26,49)           108.6305         estimate D2E/DX2                !
 ! A107  A(48,26,50)           107.4714         estimate D2E/DX2                !
 ! A108  A(49,26,50)           107.5053         estimate D2E/DX2                !
 ! A109  A(25,27,51)           122.8326         estimate D2E/DX2                !
 ! A110  A(25,27,52)           121.2586         estimate D2E/DX2                !
 ! A111  A(51,27,52)           115.9076         estimate D2E/DX2                !
 ! A112  A(18,28,53)           112.574          estimate D2E/DX2                !
 ! A113  A(18,28,54)           110.5349         estimate D2E/DX2                !
 ! A114  A(18,28,55)           111.278          estimate D2E/DX2                !
 ! A115  A(53,28,54)           105.3119         estimate D2E/DX2                !
 ! A116  A(53,28,55)           108.6069         estimate D2E/DX2                !
 ! A117  A(54,28,55)           108.2787         estimate D2E/DX2                !
 ! A118  A(18,29,56)           111.3689         estimate D2E/DX2                !
 ! A119  A(18,29,57)           110.6728         estimate D2E/DX2                !
 ! A120  A(18,29,58)           112.1179         estimate D2E/DX2                !
 ! A121  A(56,29,57)           108.3003         estimate D2E/DX2                !
 ! A122  A(56,29,58)           108.8911         estimate D2E/DX2                !
 ! A123  A(57,29,58)           105.2412         estimate D2E/DX2                !
 ! A124  A(2,32,59)            112.0747         estimate D2E/DX2                !
 ! A125  A(2,32,60)            110.8662         estimate D2E/DX2                !
 ! A126  A(2,32,61)            110.2233         estimate D2E/DX2                !
 ! A127  A(59,32,60)           107.4514         estimate D2E/DX2                !
 ! A128  A(59,32,61)           107.4123         estimate D2E/DX2                !
 ! A129  A(60,32,61)           108.6703         estimate D2E/DX2                !
 ! A130  A(14,62,63)           111.5344         estimate D2E/DX2                !
 ! A131  A(14,62,64)           111.0179         estimate D2E/DX2                !
 ! A132  A(14,62,65)           110.037          estimate D2E/DX2                !
 ! A133  A(63,62,64)           108.4977         estimate D2E/DX2                !
 ! A134  A(63,62,65)           107.6414         estimate D2E/DX2                !
 ! A135  A(64,62,65)           107.9816         estimate D2E/DX2                !
 ! D1    D(6,1,2,3)             -0.832          estimate D2E/DX2                !
 ! D2    D(6,1,2,32)           175.0947         estimate D2E/DX2                !
 ! D3    D(33,1,2,3)          -177.2001         estimate D2E/DX2                !
 ! D4    D(33,1,2,32)           -1.2734         estimate D2E/DX2                !
 ! D5    D(2,1,6,5)             28.5836         estimate D2E/DX2                !
 ! D6    D(2,1,6,34)           -95.4244         estimate D2E/DX2                !
 ! D7    D(2,1,6,35)           151.7238         estimate D2E/DX2                !
 ! D8    D(33,1,6,5)          -154.9201         estimate D2E/DX2                !
 ! D9    D(33,1,6,34)           81.072          estimate D2E/DX2                !
 ! D10   D(33,1,6,35)          -31.7799         estimate D2E/DX2                !
 ! D11   D(1,2,3,4)            -12.8471         estimate D2E/DX2                !
 ! D12   D(1,2,3,20)          -135.2971         estimate D2E/DX2                !
 ! D13   D(1,2,3,31)           107.7348         estimate D2E/DX2                !
 ! D14   D(32,2,3,4)           171.1005         estimate D2E/DX2                !
 ! D15   D(32,2,3,20)           48.6504         estimate D2E/DX2                !
 ! D16   D(32,2,3,31)          -68.3176         estimate D2E/DX2                !
 ! D17   D(1,2,32,59)           -4.9403         estimate D2E/DX2                !
 ! D18   D(1,2,32,60)          115.1208         estimate D2E/DX2                !
 ! D19   D(1,2,32,61)         -124.5131         estimate D2E/DX2                !
 ! D20   D(3,2,32,59)          171.1557         estimate D2E/DX2                !
 ! D21   D(3,2,32,60)          -68.7832         estimate D2E/DX2                !
 ! D22   D(3,2,32,61)           51.5829         estimate D2E/DX2                !
 ! D23   D(2,3,4,5)             -2.099          estimate D2E/DX2                !
 ! D24   D(2,3,4,7)           -129.052          estimate D2E/DX2                !
 ! D25   D(2,3,4,24)           118.303          estimate D2E/DX2                !
 ! D26   D(20,3,4,5)           124.1506         estimate D2E/DX2                !
 ! D27   D(20,3,4,7)            -2.8023         estimate D2E/DX2                !
 ! D28   D(20,3,4,24)         -115.4474         estimate D2E/DX2                !
 ! D29   D(31,3,4,5)          -121.5921         estimate D2E/DX2                !
 ! D30   D(31,3,4,7)           111.455          estimate D2E/DX2                !
 ! D31   D(31,3,4,24)           -1.1901         estimate D2E/DX2                !
 ! D32   D(2,3,20,17)          152.8435         estimate D2E/DX2                !
 ! D33   D(2,3,20,42)          -86.5146         estimate D2E/DX2                !
 ! D34   D(2,3,20,43)           32.114          estimate D2E/DX2                !
 ! D35   D(4,3,20,17)           24.7663         estimate D2E/DX2                !
 ! D36   D(4,3,20,42)          145.4083         estimate D2E/DX2                !
 ! D37   D(4,3,20,43)          -95.9632         estimate D2E/DX2                !
 ! D38   D(31,3,20,17)         -90.507          estimate D2E/DX2                !
 ! D39   D(31,3,20,42)          30.135          estimate D2E/DX2                !
 ! D40   D(31,3,20,43)         148.7635         estimate D2E/DX2                !
 ! D41   D(3,4,5,6)             28.0627         estimate D2E/DX2                !
 ! D42   D(3,4,5,10)           -98.002          estimate D2E/DX2                !
 ! D43   D(3,4,5,22)           146.1357         estimate D2E/DX2                !
 ! D44   D(7,4,5,6)            151.1603         estimate D2E/DX2                !
 ! D45   D(7,4,5,10)            25.0956         estimate D2E/DX2                !
 ! D46   D(7,4,5,22)           -90.7667         estimate D2E/DX2                !
 ! D47   D(24,4,5,6)           -92.6047         estimate D2E/DX2                !
 ! D48   D(24,4,5,10)          141.3306         estimate D2E/DX2                !
 ! D49   D(24,4,5,22)           25.4683         estimate D2E/DX2                !
 ! D50   D(3,4,7,8)             89.0828         estimate D2E/DX2                !
 ! D51   D(3,4,7,17)           -20.6457         estimate D2E/DX2                !
 ! D52   D(3,4,7,21)          -145.2545         estimate D2E/DX2                !
 ! D53   D(5,4,7,8)            -41.2466         estimate D2E/DX2                !
 ! D54   D(5,4,7,17)          -150.9751         estimate D2E/DX2                !
 ! D55   D(5,4,7,21)            84.4161         estimate D2E/DX2                !
 ! D56   D(24,4,7,8)          -157.6755         estimate D2E/DX2                !
 ! D57   D(24,4,7,17)           92.596          estimate D2E/DX2                !
 ! D58   D(24,4,7,21)          -32.0128         estimate D2E/DX2                !
 ! D59   D(3,4,24,23)         -132.5767         estimate D2E/DX2                !
 ! D60   D(5,4,24,23)           -4.8773         estimate D2E/DX2                !
 ! D61   D(7,4,24,23)          115.6775         estimate D2E/DX2                !
 ! D62   D(4,5,6,1)            -40.3531         estimate D2E/DX2                !
 ! D63   D(4,5,6,34)            81.1615         estimate D2E/DX2                !
 ! D64   D(4,5,6,35)          -162.1094         estimate D2E/DX2                !
 ! D65   D(10,5,6,1)            89.5767         estimate D2E/DX2                !
 ! D66   D(10,5,6,34)         -148.9086         estimate D2E/DX2                !
 ! D67   D(10,5,6,35)          -32.1795         estimate D2E/DX2                !
 ! D68   D(22,5,6,1)          -153.4532         estimate D2E/DX2                !
 ! D69   D(22,5,6,34)          -31.9385         estimate D2E/DX2                !
 ! D70   D(22,5,6,35)           84.7906         estimate D2E/DX2                !
 ! D71   D(4,5,10,9)             4.7222         estimate D2E/DX2                !
 ! D72   D(4,5,10,16)         -173.1095         estimate D2E/DX2                !
 ! D73   D(6,5,10,9)          -123.9121         estimate D2E/DX2                !
 ! D74   D(6,5,10,16)           58.2562         estimate D2E/DX2                !
 ! D75   D(22,5,10,9)          117.3587         estimate D2E/DX2                !
 ! D76   D(22,5,10,16)         -60.473          estimate D2E/DX2                !
 ! D77   D(4,5,22,23)          -35.6707         estimate D2E/DX2                !
 ! D78   D(4,5,22,45)           83.0308         estimate D2E/DX2                !
 ! D79   D(4,5,22,46)         -157.2779         estimate D2E/DX2                !
 ! D80   D(6,5,22,23)           84.818          estimate D2E/DX2                !
 ! D81   D(6,5,22,45)         -156.4805         estimate D2E/DX2                !
 ! D82   D(6,5,22,46)          -36.7892         estimate D2E/DX2                !
 ! D83   D(10,5,22,23)        -157.5861         estimate D2E/DX2                !
 ! D84   D(10,5,22,45)         -38.8847         estimate D2E/DX2                !
 ! D85   D(10,5,22,46)          80.8066         estimate D2E/DX2                !
 ! D86   D(4,7,8,9)             28.3726         estimate D2E/DX2                !
 ! D87   D(4,7,8,19)          -142.1476         estimate D2E/DX2                !
 ! D88   D(17,7,8,9)           142.7741         estimate D2E/DX2                !
 ! D89   D(17,7,8,19)          -27.7462         estimate D2E/DX2                !
 ! D90   D(21,7,8,9)           -98.948          estimate D2E/DX2                !
 ! D91   D(21,7,8,19)           90.5318         estimate D2E/DX2                !
 ! D92   D(4,7,17,18)          154.7705         estimate D2E/DX2                !
 ! D93   D(4,7,17,20)           35.544          estimate D2E/DX2                !
 ! D94   D(4,7,17,30)          -83.802          estimate D2E/DX2                !
 ! D95   D(8,7,17,18)           34.4325         estimate D2E/DX2                !
 ! D96   D(8,7,17,20)          -84.7939         estimate D2E/DX2                !
 ! D97   D(8,7,17,30)          155.8601         estimate D2E/DX2                !
 ! D98   D(21,7,17,18)         -80.9608         estimate D2E/DX2                !
 ! D99   D(21,7,17,20)         159.8127         estimate D2E/DX2                !
 ! D100  D(21,7,17,30)          40.4667         estimate D2E/DX2                !
 ! D101  D(4,7,21,44)           39.2927         estimate D2E/DX2                !
 ! D102  D(8,7,21,44)          168.2737         estimate D2E/DX2                !
 ! D103  D(17,7,21,44)         -82.2373         estimate D2E/DX2                !
 ! D104  D(7,8,9,10)             3.3952         estimate D2E/DX2                !
 ! D105  D(7,8,9,11)          -174.3199         estimate D2E/DX2                !
 ! D106  D(19,8,9,10)          172.9699         estimate D2E/DX2                !
 ! D107  D(19,8,9,11)           -4.7452         estimate D2E/DX2                !
 ! D108  D(7,8,19,18)            7.8992         estimate D2E/DX2                !
 ! D109  D(9,8,19,18)         -162.6306         estimate D2E/DX2                !
 ! D110  D(8,9,10,5)           -20.5945         estimate D2E/DX2                !
 ! D111  D(8,9,10,16)          157.2724         estimate D2E/DX2                !
 ! D112  D(11,9,10,5)          157.0881         estimate D2E/DX2                !
 ! D113  D(11,9,10,16)         -25.0449         estimate D2E/DX2                !
 ! D114  D(8,9,11,12)          112.051          estimate D2E/DX2                !
 ! D115  D(8,9,11,13)          -69.3007         estimate D2E/DX2                !
 ! D116  D(10,9,11,12)         -65.6128         estimate D2E/DX2                !
 ! D117  D(10,9,11,13)         113.0355         estimate D2E/DX2                !
 ! D118  D(9,11,13,14)         130.4843         estimate D2E/DX2                !
 ! D119  D(9,11,13,15)        -106.0729         estimate D2E/DX2                !
 ! D120  D(9,11,13,36)          11.6993         estimate D2E/DX2                !
 ! D121  D(12,11,13,14)        -50.9173         estimate D2E/DX2                !
 ! D122  D(12,11,13,15)         72.5255         estimate D2E/DX2                !
 ! D123  D(12,11,13,36)       -169.7023         estimate D2E/DX2                !
 ! D124  D(11,13,14,37)         66.9161         estimate D2E/DX2                !
 ! D125  D(11,13,14,38)        -49.5628         estimate D2E/DX2                !
 ! D126  D(11,13,14,62)       -170.4783         estimate D2E/DX2                !
 ! D127  D(15,13,14,37)        -53.9911         estimate D2E/DX2                !
 ! D128  D(15,13,14,38)       -170.4701         estimate D2E/DX2                !
 ! D129  D(15,13,14,62)         68.6144         estimate D2E/DX2                !
 ! D130  D(36,13,14,37)       -174.3026         estimate D2E/DX2                !
 ! D131  D(36,13,14,38)         69.2184         estimate D2E/DX2                !
 ! D132  D(36,13,14,62)        -51.6971         estimate D2E/DX2                !
 ! D133  D(11,13,15,39)        173.9669         estimate D2E/DX2                !
 ! D134  D(11,13,15,40)         54.2831         estimate D2E/DX2                !
 ! D135  D(11,13,15,41)        -65.1614         estimate D2E/DX2                !
 ! D136  D(14,13,15,39)        -64.6731         estimate D2E/DX2                !
 ! D137  D(14,13,15,40)        175.643          estimate D2E/DX2                !
 ! D138  D(14,13,15,41)         56.1986         estimate D2E/DX2                !
 ! D139  D(36,13,15,39)         55.904          estimate D2E/DX2                !
 ! D140  D(36,13,15,40)        -63.7798         estimate D2E/DX2                !
 ! D141  D(36,13,15,41)        176.7757         estimate D2E/DX2                !
 ! D142  D(13,14,62,63)        -64.8695         estimate D2E/DX2                !
 ! D143  D(13,14,62,64)         56.2617         estimate D2E/DX2                !
 ! D144  D(13,14,62,65)        175.7436         estimate D2E/DX2                !
 ! D145  D(37,14,62,63)         58.3774         estimate D2E/DX2                !
 ! D146  D(37,14,62,64)        179.5086         estimate D2E/DX2                !
 ! D147  D(37,14,62,65)        -61.0095         estimate D2E/DX2                !
 ! D148  D(38,14,62,63)        173.627          estimate D2E/DX2                !
 ! D149  D(38,14,62,64)        -65.2418         estimate D2E/DX2                !
 ! D150  D(38,14,62,65)         54.2401         estimate D2E/DX2                !
 ! D151  D(7,17,18,19)         -32.3533         estimate D2E/DX2                !
 ! D152  D(7,17,18,28)          85.5191         estimate D2E/DX2                !
 ! D153  D(7,17,18,29)        -150.9063         estimate D2E/DX2                !
 ! D154  D(20,17,18,19)         77.4529         estimate D2E/DX2                !
 ! D155  D(20,17,18,28)       -164.6748         estimate D2E/DX2                !
 ! D156  D(20,17,18,29)        -41.1002         estimate D2E/DX2                !
 ! D157  D(30,17,18,19)       -154.4589         estimate D2E/DX2                !
 ! D158  D(30,17,18,28)        -36.5865         estimate D2E/DX2                !
 ! D159  D(30,17,18,29)         86.9881         estimate D2E/DX2                !
 ! D160  D(7,17,20,3)          -36.969          estimate D2E/DX2                !
 ! D161  D(7,17,20,42)        -158.0928         estimate D2E/DX2                !
 ! D162  D(7,17,20,43)          82.615          estimate D2E/DX2                !
 ! D163  D(18,17,20,3)        -147.1685         estimate D2E/DX2                !
 ! D164  D(18,17,20,42)         91.7077         estimate D2E/DX2                !
 ! D165  D(18,17,20,43)        -27.5845         estimate D2E/DX2                !
 ! D166  D(30,17,20,3)          84.0478         estimate D2E/DX2                !
 ! D167  D(30,17,20,42)        -37.076          estimate D2E/DX2                !
 ! D168  D(30,17,20,43)       -156.3682         estimate D2E/DX2                !
 ! D169  D(17,18,19,8)          15.5153         estimate D2E/DX2                !
 ! D170  D(28,18,19,8)        -105.5015         estimate D2E/DX2                !
 ! D171  D(29,18,19,8)         137.5249         estimate D2E/DX2                !
 ! D172  D(17,18,28,53)        -62.1374         estimate D2E/DX2                !
 ! D173  D(17,18,28,54)       -179.5963         estimate D2E/DX2                !
 ! D174  D(17,18,28,55)         60.0526         estimate D2E/DX2                !
 ! D175  D(19,18,28,53)         54.293          estimate D2E/DX2                !
 ! D176  D(19,18,28,54)        -63.1658         estimate D2E/DX2                !
 ! D177  D(19,18,28,55)        176.4831         estimate D2E/DX2                !
 ! D178  D(29,18,28,53)        171.3496         estimate D2E/DX2                !
 ! D179  D(29,18,28,54)         53.8908         estimate D2E/DX2                !
 ! D180  D(29,18,28,55)        -66.4604         estimate D2E/DX2                !
 ! D181  D(17,18,29,56)        -57.492          estimate D2E/DX2                !
 ! D182  D(17,18,29,57)       -178.024          estimate D2E/DX2                !
 ! D183  D(17,18,29,58)         64.805          estimate D2E/DX2                !
 ! D184  D(19,18,29,56)       -174.5006         estimate D2E/DX2                !
 ! D185  D(19,18,29,57)         64.9675         estimate D2E/DX2                !
 ! D186  D(19,18,29,58)        -52.2035         estimate D2E/DX2                !
 ! D187  D(28,18,29,56)         68.5884         estimate D2E/DX2                !
 ! D188  D(28,18,29,57)        -51.9435         estimate D2E/DX2                !
 ! D189  D(28,18,29,58)       -169.1145         estimate D2E/DX2                !
 ! D190  D(5,22,23,24)          34.0035         estimate D2E/DX2                !
 ! D191  D(5,22,23,25)         155.5469         estimate D2E/DX2                !
 ! D192  D(5,22,23,47)         -80.4784         estimate D2E/DX2                !
 ! D193  D(45,22,23,24)        -83.3913         estimate D2E/DX2                !
 ! D194  D(45,22,23,25)         38.1522         estimate D2E/DX2                !
 ! D195  D(45,22,23,47)        162.1268         estimate D2E/DX2                !
 ! D196  D(46,22,23,24)        156.6388         estimate D2E/DX2                !
 ! D197  D(46,22,23,25)        -81.8178         estimate D2E/DX2                !
 ! D198  D(46,22,23,47)         42.1569         estimate D2E/DX2                !
 ! D199  D(22,23,24,4)         -18.2447         estimate D2E/DX2                !
 ! D200  D(25,23,24,4)        -145.9662         estimate D2E/DX2                !
 ! D201  D(47,23,24,4)          98.0938         estimate D2E/DX2                !
 ! D202  D(22,23,25,26)       -175.3701         estimate D2E/DX2                !
 ! D203  D(22,23,25,27)          6.3998         estimate D2E/DX2                !
 ! D204  D(24,23,25,26)        -55.4673         estimate D2E/DX2                !
 ! D205  D(24,23,25,27)        126.3026         estimate D2E/DX2                !
 ! D206  D(47,23,25,26)         59.8223         estimate D2E/DX2                !
 ! D207  D(47,23,25,27)       -118.4079         estimate D2E/DX2                !
 ! D208  D(23,25,26,48)        -55.2842         estimate D2E/DX2                !
 ! D209  D(23,25,26,49)         64.9151         estimate D2E/DX2                !
 ! D210  D(23,25,26,50)       -175.0478         estimate D2E/DX2                !
 ! D211  D(27,25,26,48)        123.0428         estimate D2E/DX2                !
 ! D212  D(27,25,26,49)       -116.758          estimate D2E/DX2                !
 ! D213  D(27,25,26,50)          3.2792         estimate D2E/DX2                !
 ! D214  D(23,25,27,51)         -0.3339         estimate D2E/DX2                !
 ! D215  D(23,25,27,52)        179.2458         estimate D2E/DX2                !
 ! D216  D(26,25,27,51)       -178.4839         estimate D2E/DX2                !
 ! D217  D(26,25,27,52)          1.0957         estimate D2E/DX2                !
 --------------------------------------------------------------------------------
 Trust Radius=3.00D-01 FncErr=1.00D-07 GrdErr=1.00D-06
 Number of steps in this run=    390 maximum allowed number of steps=    390.
 GradGradGradGradGradGradGradGradGradGradGradGradGradGradGradGradGradGrad

 Stoichiometry    C26H34O5
 Framework group  C1[X(C26H34O5)]
 Deg. of freedom   189
 Full point group                 C1      NOp   1
 Largest Abelian subgroup         C1      NOp   1
 Largest concise Abelian subgroup C1      NOp   1
                         Standard orientation:                         
 ---------------------------------------------------------------------
 Center     Atomic      Atomic             Coordinates (Angstroms)
 Number     Number       Type             X           Y           Z
 ---------------------------------------------------------------------
      1          6           0       -1.617129    0.122956    3.173760
      2          6           0       -1.513120    1.350232    2.642414
      3          6           0       -1.614643    1.582450    1.153669
      4          6           0       -1.534302    0.314494    0.256066
      5          6           0       -1.311875   -1.048923    0.932204
      6          6           0       -1.856997   -1.115035    2.372564
      7          6           0       -0.458029    0.641836   -0.798824
      8          6           0        0.936965    0.283770   -0.415946
      9          6           0        1.232170   -0.716164    0.420249
     10          6           0        0.136916   -1.561293    0.940932
     11          6           0        2.632858   -0.927856    0.848221
     12          8           0        2.943438   -0.723177    2.021741
     13          6           0        3.627092   -1.425830   -0.195213
     14          6           0        4.882048   -0.540740   -0.165940
     15          6           0        3.932804   -2.895009    0.086828
     16          8           0        0.398885   -2.696719    1.344571
     17          6           0       -0.321651    2.148139   -0.853038
     18          6           0        1.119377    2.338666   -1.371953
     19          8           0        1.876035    1.217959   -0.845563
     20          6           0       -0.536485    2.541624    0.617630
     21          8           0       -0.751956    0.070015   -2.062005
     22          6           0       -2.118746   -1.980852    0.022347
     23          6           0       -3.310013   -1.123893   -0.381371
     24          8           0       -2.801125    0.219399   -0.467797
     25          6           0       -4.025570   -1.451049   -1.672178
     26          6           0       -5.123579   -0.490909   -2.054858
     27          6           0       -3.771746   -2.521721   -2.444183
     28          6           0        1.211339    2.297915   -2.905743
     29          6           0        1.778985    3.634694   -0.887723
     30          1           0       -1.064561    2.628543   -1.500005
     31          1           0       -2.587152    2.067249    0.981868
     32          6           0       -1.380436    2.561983    3.526875
     33          1           0       -1.585129   -0.005534    4.254571
     34          1           0       -2.937431   -1.303011    2.387312
     35          1           0       -1.409577   -1.958661    2.913167
     36          1           0        3.165305   -1.352992   -1.187517
     37          1           0        5.419647   -0.673305    0.781259
     38          1           0        4.584645    0.514698   -0.204101
     39          1           0        4.560186   -3.329017   -0.697387
     40          1           0        3.009315   -3.482732    0.134476
     41          1           0        4.448735   -3.017817    1.045507
     42          1           0       -0.850752    3.588349    0.699688
     43          1           0        0.384046    2.435346    1.204432
     44          1           0       -1.718959    0.166749   -2.180849
     45          1           0       -1.511989   -2.258816   -0.848791
     46          1           0       -2.427163   -2.912408    0.510049
     47          1           0       -4.054152   -1.129252    0.424709
     48          1           0       -5.851382   -0.402805   -1.241513
     49          1           0       -4.712072    0.501498   -2.264941
     50          1           0       -5.666610   -0.818262   -2.948057
     51          1           0       -3.010106   -3.254666   -2.201149
     52          1           0       -4.332947   -2.704844   -3.356442
     53          1           0        0.898334    1.335741   -3.319473
     54          1           0        2.249845    2.429571   -3.232471
     55          1           0        0.605382    3.087693   -3.361166
     56          1           0        1.192178    4.512745   -1.175903
     57          1           0        2.785022    3.738749   -1.311319
     58          1           0        1.921298    3.644167    0.197326
     59          1           0       -1.469490    2.308319    4.588724
     60          1           0       -0.408319    3.043458    3.384964
     61          1           0       -2.167755    3.287095    3.296067
     62          6           0        5.833040   -0.812811   -1.322140
     63          1           0        6.250711   -1.822287   -1.269395
     64          1           0        5.324292   -0.697311   -2.284428
     65          1           0        6.668753   -0.106116   -1.294698
 ---------------------------------------------------------------------
 Rotational constants (GHZ):      0.2075710      0.1204874      0.1166649
 Standard basis: 6-31G(d) (6D, 7F)
 There are   533 symmetry adapted basis functions of A   symmetry.
 Integral buffers will be    131072 words long.
 Raffenetti 2 integral format.
 Two-electron integral symmetry is turned on.
   533 basis functions,  1004 primitive gaussians,   533 cartesian basis functions
   115 alpha electrons      115 beta electrons
       nuclear repulsion energy      3513.7879623174 Hartrees.
 NAtoms=   65 NActive=   65 NUniq=   65 SFac= 1.00D+00 NAtFMM=   50 NAOKFM=T Big=T
 One-electron integrals computed using PRISM.
 NBasis=   533 RedAO= T  NBF=   533
 NBsUse=   533 1.00D-06 NBFU=   533
 Harris functional with IExCor=  402 diagonalized for initial guess.
 ExpMin= 1.61D-01 ExpMax= 5.48D+03 ExpMxC= 8.25D+02 IAcc=1 IRadAn=         1 AccDes= 0.00D+00
 HarFok:  IExCor=  402 AccDes= 0.00D+00 IRadAn=         1 IDoV= 1
 ScaDFX=  1.000000  1.000000  1.000000  1.000000
 FoFCou: FMM=F IPFlag=           0 FMFlag=      100000 FMFlg1=        2001
         NFxFlg=           0 DoJE=T BraDBF=F KetDBF=T FulRan=T
         Omega=  0.000000  0.000000  1.000000  0.000000  0.000000 ICntrl=     500 IOpCl=  0
         NMat0=    1 NMatS0=    1 NMatT0=    0 NMatD0=    1 NMtDS0=    0 NMtDT0=    0
         I1Cent=           4 NGrid=           0.
 Petite list used in FoFCou.
 Initial guess orbital symmetries:
       Occupied  (A) (A) (A) (A) (A) (A) (A) (A) (A) (A) (A) (A)
                 (A) (A) (A) (A) (A) (A) (A) (A) (A) (A) (A) (A)
                 (A) (A) (A) (A) (A) (A) (A) (A) (A) (A) (A) (A)
                 (A) (A) (A) (A) (A) (A) (A) (A) (A) (A) (A) (A)
                 (A) (A) (A) (A) (A) (A) (A) (A) (A) (A) (A) (A)
                 (A) (A) (A) (A) (A) (A) (A) (A) (A) (A) (A) (A)
                 (A) (A) (A) (A) (A) (A) (A) (A) (A) (A) (A) (A)
                 (A) (A) (A) (A) (A) (A) (A) (A) (A) (A) (A) (A)
                 (A) (A) (A) (A) (A) (A) (A) (A) (A) (A) (A) (A)
                 (A) (A) (A) (A) (A) (A) (A)
       Virtual   (A) (A) (A) (A) (A) (A) (A) (A) (A) (A) (A) (A)
                 (A) (A) (A) (A) (A) (A) (A) (A) (A) (A) (A) (A)
                 (A) (A) (A) (A) (A) (A) (A) (A) (A) (A) (A) (A)
                 (A) (A) (A) (A) (A) (A) (A) (A) (A) (A) (A) (A)
                 (A) (A) (A) (A) (A) (A) (A) (A) (A) (A) (A) (A)
                 (A) (A) (A) (A) (A) (A) (A) (A) (A) (A) (A) (A)
                 (A) (A) (A) (A) (A) (A) (A) (A) (A) (A) (A) (A)
                 (A) (A) (A) (A) (A) (A) (A) (A) (A) (A) (A) (A)
                 (A) (A) (A) (A) (A) (A) (A) (A) (A) (A) (A) (A)
                 (A) (A) (A) (A) (A) (A) (A) (A) (A) (A) (A) (A)
                 (A) (A) (A) (A) (A) (A) (A) (A) (A) (A) (A) (A)
                 (A) (A) (A) (A) (A) (A) (A) (A) (A) (A) (A) (A)
                 (A) (A) (A) (A) (A) (A) (A) (A) (A) (A) (A) (A)
                 (A) (A) (A) (A) (A) (A) (A) (A) (A) (A) (A) (A)
                 (A) (A) (A) (A) (A) (A) (A) (A) (A) (A) (A) (A)
                 (A) (A) (A) (A) (A) (A) (A) (A) (A) (A) (A) (A)
                 (A) (A) (A) (A) (A) (A) (A) (A) (A) (A) (A) (A)
                 (A) (A) (A) (A) (A) (A) (A) (A) (A) (A) (A) (A)
                 (A) (A) (A) (A) (A) (A) (A) (A) (A) (A) (A) (A)
                 (A) (A) (A) (A) (A) (A) (A) (A) (A) (A) (A) (A)
                 (A) (A) (A) (A) (A) (A) (A) (A) (A) (A) (A) (A)
                 (A) (A) (A) (A) (A) (A) (A) (A) (A) (A) (A) (A)
                 (A) (A) (A) (A) (A) (A) (A) (A) (A) (A) (A) (A)
                 (A) (A) (A) (A) (A) (A) (A) (A) (A) (A) (A) (A)
                 (A) (A) (A) (A) (A) (A) (A) (A) (A) (A) (A) (A)
                 (A) (A) (A) (A) (A) (A) (A) (A) (A) (A) (A) (A)
                 (A) (A) (A) (A) (A) (A) (A) (A) (A) (A) (A) (A)
                 (A) (A) (A) (A) (A) (A) (A) (A) (A) (A) (A) (A)
                 (A) (A) (A) (A) (A) (A) (A) (A) (A) (A) (A) (A)
                 (A) (A) (A) (A) (A) (A) (A) (A) (A) (A) (A) (A)
                 (A) (A) (A) (A) (A) (A) (A) (A) (A) (A) (A) (A)
                 (A) (A) (A) (A) (A) (A) (A) (A) (A) (A) (A) (A)
                 (A) (A) (A) (A) (A) (A) (A) (A) (A) (A) (A) (A)
                 (A) (A) (A) (A) (A) (A) (A) (A) (A) (A) (A) (A)
                 (A) (A) (A) (A) (A) (A) (A) (A) (A) (A)
 The electronic state of the initial guess is 1-A.
 Requested convergence on RMS density matrix=1.00D-08 within 128 cycles.
 Requested convergence on MAX density matrix=1.00D-06.
 Requested convergence on             energy=1.00D-06.
 No special actions if energy rises.
 Integral accuracy reduced to 1.0D-05 until final iterations.
 Initial convergence to 1.0D-05 achieved.  Increase integral accuracy.
 SCF Done:  E(RB3LYP) =  -1387.30267447     A.U. after   16 cycles
             Convg  =    0.3712D-08             -V/T =  2.0091

 **********************************************************************

            Population analysis using the SCF density.

 **********************************************************************

 Orbital symmetries:
       Occupied  (A) (A) (A) (A) (A) (A) (A) (A) (A) (A) (A) (A)
                 (A) (A) (A) (A) (A) (A) (A) (A) (A) (A) (A) (A)
                 (A) (A) (A) (A) (A) (A) (A) (A) (A) (A) (A) (A)
                 (A) (A) (A) (A) (A) (A) (A) (A) (A) (A) (A) (A)
                 (A) (A) (A) (A) (A) (A) (A) (A) (A) (A) (A) (A)
                 (A) (A) (A) (A) (A) (A) (A) (A) (A) (A) (A) (A)
                 (A) (A) (A) (A) (A) (A) (A) (A) (A) (A) (A) (A)
                 (A) (A) (A) (A) (A) (A) (A) (A) (A) (A) (A) (A)
                 (A) (A) (A) (A) (A) (A) (A) (A) (A) (A) (A) (A)
                 (A) (A) (A) (A) (A) (A) (A)
       Virtual   (A) (A) (A) (A) (A) (A) (A) (A) (A) (A) (A) (A)
                 (A) (A) (A) (A) (A) (A) (A) (A) (A) (A) (A) (A)
                 (A) (A) (A) (A) (A) (A) (A) (A) (A) (A) (A) (A)
                 (A) (A) (A) (A) (A) (A) (A) (A) (A) (A) (A) (A)
                 (A) (A) (A) (A) (A) (A) (A) (A) (A) (A) (A) (A)
                 (A) (A) (A) (A) (A) (A) (A) (A) (A) (A) (A) (A)
                 (A) (A) (A) (A) (A) (A) (A) (A) (A) (A) (A) (A)
                 (A) (A) (A) (A) (A) (A) (A) (A) (A) (A) (A) (A)
                 (A) (A) (A) (A) (A) (A) (A) (A) (A) (A) (A) (A)
                 (A) (A) (A) (A) (A) (A) (A) (A) (A) (A) (A) (A)
                 (A) (A) (A) (A) (A) (A) (A) (A) (A) (A) (A) (A)
                 (A) (A) (A) (A) (A) (A) (A) (A) (A) (A) (A) (A)
                 (A) (A) (A) (A) (A) (A) (A) (A) (A) (A) (A) (A)
                 (A) (A) (A) (A) (A) (A) (A) (A) (A) (A) (A) (A)
                 (A) (A) (A) (A) (A) (A) (A) (A) (A) (A) (A) (A)
                 (A) (A) (A) (A) (A) (A) (A) (A) (A) (A) (A) (A)
                 (A) (A) (A) (A) (A) (A) (A) (A) (A) (A) (A) (A)
                 (A) (A) (A) (A) (A) (A) (A) (A) (A) (A) (A) (A)
                 (A) (A) (A) (A) (A) (A) (A) (A) (A) (A) (A) (A)
                 (A) (A) (A) (A) (A) (A) (A) (A) (A) (A) (A) (A)
                 (A) (A) (A) (A) (A) (A) (A) (A) (A) (A) (A) (A)
                 (A) (A) (A) (A) (A) (A) (A) (A) (A) (A) (A) (A)
                 (A) (A) (A) (A) (A) (A) (A) (A) (A) (A) (A) (A)
                 (A) (A) (A) (A) (A) (A) (A) (A) (A) (A) (A) (A)
                 (A) (A) (A) (A) (A) (A) (A) (A) (A) (A) (A) (A)
                 (A) (A) (A) (A) (A) (A) (A) (A) (A) (A) (A) (A)
                 (A) (A) (A) (A) (A) (A) (A) (A) (A) (A) (A) (A)
                 (A) (A) (A) (A) (A) (A) (A) (A) (A) (A) (A) (A)
                 (A) (A) (A) (A) (A) (A) (A) (A) (A) (A) (A) (A)
                 (A) (A) (A) (A) (A) (A) (A) (A) (A) (A) (A) (A)
                 (A) (A) (A) (A) (A) (A) (A) (A) (A) (A) (A) (A)
                 (A) (A) (A) (A) (A) (A) (A) (A) (A) (A) (A) (A)
                 (A) (A) (A) (A) (A) (A) (A) (A) (A) (A) (A) (A)
                 (A) (A) (A) (A) (A) (A) (A) (A) (A) (A) (A) (A)
                 (A) (A) (A) (A) (A) (A) (A) (A) (A) (A)
 The electronic state is 1-A.
 Alpha  occ. eigenvalues --  -19.19715 -19.16757 -19.15347 -19.13386 -19.12948
 Alpha  occ. eigenvalues --  -10.27840 -10.26809 -10.26621 -10.26169 -10.25909
 Alpha  occ. eigenvalues --  -10.25507 -10.24971 -10.21540 -10.20627 -10.20191
 Alpha  occ. eigenvalues --  -10.20113 -10.19448 -10.19417 -10.19364 -10.19175
 Alpha  occ. eigenvalues --  -10.19088 -10.18739 -10.18697 -10.18666 -10.18351
 Alpha  occ. eigenvalues --  -10.18286 -10.17942 -10.17768 -10.17021 -10.16710
 Alpha  occ. eigenvalues --  -10.16564  -1.08530  -1.06007  -1.03189  -1.02308
 Alpha  occ. eigenvalues --   -1.01967  -0.87369  -0.83977  -0.82640  -0.81673
 Alpha  occ. eigenvalues --   -0.80421  -0.79870  -0.76986  -0.74372  -0.73659
 Alpha  occ. eigenvalues --   -0.72397  -0.71589  -0.69596  -0.69181  -0.67867
 Alpha  occ. eigenvalues --   -0.65397  -0.64548  -0.63372  -0.62224  -0.60850
 Alpha  occ. eigenvalues --   -0.59427  -0.58508  -0.57291  -0.55052  -0.53488
 Alpha  occ. eigenvalues --   -0.53152  -0.52183  -0.50876  -0.50465  -0.49176
 Alpha  occ. eigenvalues --   -0.48467  -0.47887  -0.46608  -0.46220  -0.45733
 Alpha  occ. eigenvalues --   -0.45155  -0.44900  -0.44428  -0.43690  -0.43347
 Alpha  occ. eigenvalues --   -0.43014  -0.42758  -0.41951  -0.41666  -0.41524
 Alpha  occ. eigenvalues --   -0.40866  -0.40458  -0.40410  -0.39972  -0.39458
 Alpha  occ. eigenvalues --   -0.39191  -0.38942  -0.38507  -0.38159  -0.38052
 Alpha  occ. eigenvalues --   -0.37576  -0.37180  -0.37085  -0.36759  -0.36661
 Alpha  occ. eigenvalues --   -0.36379  -0.35450  -0.35176  -0.34541  -0.34129
 Alpha  occ. eigenvalues --   -0.33726  -0.33437  -0.33204  -0.32548  -0.32339
 Alpha  occ. eigenvalues --   -0.31721  -0.31248  -0.31104  -0.27866  -0.26586
 Alpha  occ. eigenvalues --   -0.26069  -0.25105  -0.24417  -0.23264  -0.23224
 Alpha virt. eigenvalues --   -0.05196  -0.01907   0.00419   0.02361   0.04395
 Alpha virt. eigenvalues --    0.07150   0.08615   0.08793   0.09162   0.10276
 Alpha virt. eigenvalues --    0.10576   0.10917   0.11442   0.12030   0.12532
 Alpha virt. eigenvalues --    0.12914   0.13260   0.13555   0.13854   0.13929
 Alpha virt. eigenvalues --    0.14364   0.14506   0.14983   0.15115   0.15458
 Alpha virt. eigenvalues --    0.15996   0.16439   0.17053   0.17353   0.17606
 Alpha virt. eigenvalues --    0.17809   0.18017   0.18045   0.18389   0.18796
 Alpha virt. eigenvalues --    0.19244   0.19507   0.19875   0.20080   0.20225
 Alpha virt. eigenvalues --    0.20700   0.21124   0.21248   0.21743   0.22429
 Alpha virt. eigenvalues --    0.22933   0.23146   0.23824   0.24036   0.24709
 Alpha virt. eigenvalues --    0.25311   0.25524   0.26078   0.26263   0.26654
 Alpha virt. eigenvalues --    0.26986   0.27829   0.28430   0.28939   0.30243
 Alpha virt. eigenvalues --    0.30481   0.31609   0.32527   0.33002   0.34245
 Alpha virt. eigenvalues --    0.34681   0.36149   0.37961   0.39381   0.40567
 Alpha virt. eigenvalues --    0.42363   0.45530   0.46967   0.47924   0.48338
 Alpha virt. eigenvalues --    0.50061   0.50998   0.51605   0.51791   0.52064
 Alpha virt. eigenvalues --    0.52455   0.52777   0.52979   0.53265   0.54064
 Alpha virt. eigenvalues --    0.54286   0.54680   0.55340   0.55728   0.56459
 Alpha virt. eigenvalues --    0.57285   0.57521   0.57701   0.57829   0.59012
 Alpha virt. eigenvalues --    0.59258   0.59611   0.60473   0.60802   0.61614
 Alpha virt. eigenvalues --    0.62500   0.62626   0.63454   0.63558   0.64477
 Alpha virt. eigenvalues --    0.64752   0.65181   0.65876   0.66820   0.67256
 Alpha virt. eigenvalues --    0.67564   0.68156   0.68666   0.68950   0.69522
 Alpha virt. eigenvalues --    0.70255   0.70955   0.71724   0.72938   0.73348
 Alpha virt. eigenvalues --    0.74206   0.75094   0.75337   0.75785   0.76693
 Alpha virt. eigenvalues --    0.77369   0.78398   0.79757   0.80244   0.80460
 Alpha virt. eigenvalues --    0.80704   0.81137   0.81722   0.81782   0.82608
 Alpha virt. eigenvalues --    0.82816   0.83112   0.83784   0.84212   0.84659
 Alpha virt. eigenvalues --    0.85584   0.85910   0.86319   0.86727   0.87225
 Alpha virt. eigenvalues --    0.87573   0.87639   0.88430   0.88645   0.88743
 Alpha virt. eigenvalues --    0.89362   0.89953   0.90198   0.90486   0.90693
 Alpha virt. eigenvalues --    0.90951   0.91294   0.91470   0.91776   0.92200
 Alpha virt. eigenvalues --    0.92721   0.93409   0.93878   0.94079   0.94238
 Alpha virt. eigenvalues --    0.95364   0.95599   0.95694   0.96012   0.96847
 Alpha virt. eigenvalues --    0.97217   0.97496   0.97893   0.98515   0.99242
 Alpha virt. eigenvalues --    1.00540   1.01180   1.01543   1.03175   1.03218
 Alpha virt. eigenvalues --    1.04164   1.04723   1.05169   1.06425   1.07295
 Alpha virt. eigenvalues --    1.08152   1.09251   1.10551   1.11167   1.11735
 Alpha virt. eigenvalues --    1.12796   1.13701   1.14951   1.16094   1.16262
 Alpha virt. eigenvalues --    1.18097   1.18394   1.18837   1.19217   1.20481
 Alpha virt. eigenvalues --    1.21362   1.24010   1.24547   1.25604   1.25856
 Alpha virt. eigenvalues --    1.26994   1.30017   1.30696   1.31861   1.32069
 Alpha virt. eigenvalues --    1.33943   1.35670   1.36500   1.38062   1.38710
 Alpha virt. eigenvalues --    1.40485   1.41057   1.41799   1.43634   1.44371
 Alpha virt. eigenvalues --    1.47421   1.48366   1.50551   1.52696   1.53271
 Alpha virt. eigenvalues --    1.53833   1.55184   1.56213   1.57218   1.59582
 Alpha virt. eigenvalues --    1.59963   1.62190   1.62629   1.62811   1.63906
 Alpha virt. eigenvalues --    1.65484   1.66800   1.67186   1.67436   1.69884
 Alpha virt. eigenvalues --    1.71456   1.71613   1.72811   1.73545   1.73960
 Alpha virt. eigenvalues --    1.74261   1.75091   1.77031   1.78046   1.78465
 Alpha virt. eigenvalues --    1.79445   1.79713   1.80695   1.81581   1.82413
 Alpha virt. eigenvalues --    1.82924   1.83512   1.84271   1.84952   1.85098
 Alpha virt. eigenvalues --    1.86160   1.86825   1.87549   1.88133   1.88871
 Alpha virt. eigenvalues --    1.89568   1.90145   1.90456   1.90881   1.91306
 Alpha virt. eigenvalues --    1.91496   1.92488   1.93653   1.94102   1.95355
 Alpha virt. eigenvalues --    1.95593   1.96209   1.97106   1.97638   1.98631
 Alpha virt. eigenvalues --    1.99402   1.99878   2.00492   2.00725   2.01231
 Alpha virt. eigenvalues --    2.02220   2.03194   2.04969   2.05495   2.05968
 Alpha virt. eigenvalues --    2.07029   2.07629   2.07703   2.08945   2.09426
 Alpha virt. eigenvalues --    2.09526   2.11249   2.12432   2.13397   2.13601
 Alpha virt. eigenvalues --    2.14443   2.15881   2.16197   2.16847   2.17718
 Alpha virt. eigenvalues --    2.18829   2.20408   2.21230   2.22500   2.23406
 Alpha virt. eigenvalues --    2.23773   2.24239   2.25331   2.25837   2.27384
 Alpha virt. eigenvalues --    2.28631   2.29929   2.30244   2.31332   2.31863
 Alpha virt. eigenvalues --    2.32212   2.32802   2.33549   2.34109   2.34656
 Alpha virt. eigenvalues --    2.35579   2.36348   2.37566   2.38668   2.39013
 Alpha virt. eigenvalues --    2.39903   2.41515   2.42259   2.42776   2.44527
 Alpha virt. eigenvalues --    2.45376   2.46363   2.46765   2.47365   2.48681
 Alpha virt. eigenvalues --    2.49769   2.50752   2.51299   2.53918   2.55223
 Alpha virt. eigenvalues --    2.56947   2.57707   2.58643   2.59457   2.60647
 Alpha virt. eigenvalues --    2.61588   2.63803   2.64208   2.65015   2.66130
 Alpha virt. eigenvalues --    2.66576   2.67616   2.68991   2.70251   2.71315
 Alpha virt. eigenvalues --    2.71895   2.73401   2.75765   2.76703   2.79111
 Alpha virt. eigenvalues --    2.79438   2.81210   2.82432   2.83595   2.86174
 Alpha virt. eigenvalues --    2.87130   2.89615   2.92290   2.94226   2.95488
 Alpha virt. eigenvalues --    2.96098   2.99541   3.01335   3.02208   3.03220
 Alpha virt. eigenvalues --    3.05197   3.07184   3.13097   3.17900   3.21218
 Alpha virt. eigenvalues --    3.22883   3.28976   4.01175   4.08792   4.11652
 Alpha virt. eigenvalues --    4.14141   4.15034   4.17574   4.19588   4.21905
 Alpha virt. eigenvalues --    4.23342   4.24108   4.24924   4.27624   4.29297
 Alpha virt. eigenvalues --    4.31927   4.35287   4.37920   4.39809   4.43551
 Alpha virt. eigenvalues --    4.45096   4.47670   4.53706   4.54644   4.60657
 Alpha virt. eigenvalues --    4.63467   4.64153   4.69619   4.72079   4.81408
 Alpha virt. eigenvalues --    4.91173   4.99216   5.18612
          Condensed to atoms (all electrons):
 Mulliken atomic charges:
              1
     1  C   -0.188896
     2  C    0.190336
     3  C   -0.186613
     4  C    0.321026
     5  C   -0.045333
     6  C   -0.332918
     7  C    0.213820
     8  C    0.393281
     9  C   -0.087551
    10  C    0.426062
    11  C    0.423872
    12  O   -0.464561
    13  C   -0.142000
    14  C   -0.250050
    15  C   -0.459813
    16  O   -0.497310
    17  C   -0.161262
    18  C    0.312710
    19  O   -0.542076
    20  C   -0.320104
    21  O   -0.661789
    22  C   -0.324715
    23  C    0.104438
    24  O   -0.584308
    25  C    0.179372
    26  C   -0.504785
    27  C   -0.392799
    28  C   -0.461968
    29  C   -0.463595
    30  H    0.143243
    31  H    0.163058
    32  C   -0.517166
    33  H    0.124501
    34  H    0.151654
    35  H    0.181068
    36  H    0.135266
    37  H    0.150577
    38  H    0.142872
    39  H    0.147060
    40  H    0.167471
    41  H    0.161991
    42  H    0.147699
    43  H    0.169877
    44  H    0.410839
    45  H    0.170615
    46  H    0.168170
    47  H    0.136173
    48  H    0.154541
    49  H    0.165763
    50  H    0.153476
    51  H    0.149829
    52  H    0.142565
    53  H    0.184940
    54  H    0.148263
    55  H    0.139817
    56  H    0.150332
    57  H    0.157433
    58  H    0.160893
    59  H    0.158807
    60  H    0.160825
    61  H    0.147862
    62  C   -0.450737
    63  H    0.145689
    64  H    0.140352
    65  H    0.141911
 Sum of Mulliken atomic charges =   0.00000
 Mulliken charges with hydrogens summed into heavy atoms:
              1
     1  C   -0.064395
     2  C    0.190336
     3  C   -0.023555
     4  C    0.321026
     5  C   -0.045333
     6  C   -0.000196
     7  C    0.213820
     8  C    0.393281
     9  C   -0.087551
    10  C    0.426062
    11  C    0.423872
    12  O   -0.464561
    13  C   -0.006734
    14  C    0.043400
    15  C    0.016710
    16  O   -0.497310
    17  C   -0.018018
    18  C    0.312710
    19  O   -0.542076
    20  C   -0.002528
    21  O   -0.250950
    22  C    0.014070
    23  C    0.240611
    24  O   -0.584308
    25  C    0.179372
    26  C   -0.031005
    27  C   -0.100405
    28  C    0.011053
    29  C    0.005063
    32  C   -0.049672
    62  C   -0.022785
 Sum of Mulliken charges with hydrogens summed into heavy atoms =   0.00000
 Electronic spatial extent (au):  <R**2>=          11572.5118
 Charge=              0.0000 electrons
 Dipole moment (field-independent basis, Debye):
    X=             -3.7282    Y=              3.4137    Z=             -2.3958  Tot=              5.5940
 Quadrupole moment (field-independent basis, Debye-Ang):
   XX=           -179.9970   YY=           -179.8098   ZZ=           -187.1100
   XY=              3.7297   XZ=             -6.8977   YZ=              3.4965
 Traceless Quadrupole moment (field-independent basis, Debye-Ang):
   XX=              2.3086   YY=              2.4958   ZZ=             -4.8044
   XY=              3.7297   XZ=             -6.8977   YZ=              3.4965
 Octapole moment (field-independent basis, Debye-Ang**2):
  XXX=            -20.3442  YYY=             41.1161  ZZZ=             -4.7914  XYY=             -0.8298
  XXY=            -14.5242  XXZ=            -32.5479  XZZ=            -37.2315  YZZ=             10.1393
  YYZ=            -21.7182  XYZ=              2.4967
 Hexadecapole moment (field-independent basis, Debye-Ang**3):
 XXXX=          -8410.5170 YYYY=          -3731.2339 ZZZZ=          -3254.8096 XXXY=              3.4531
 XXXZ=             63.4021 YYYX=             -2.9842 YYYZ=              5.9092 ZZZX=              9.1900
 ZZZY=             -5.9500 XXYY=          -2006.0426 XXZZ=          -1974.2617 YYZZ=          -1155.3341
 XXYZ=              6.1364 YYXZ=             -0.5103 ZZXY=             42.3474
 N-N= 3.513787962317D+03 E-N=-1.025393478400D+04  KE= 1.374798935749D+03
 Calling FoFJK, ICntrl=      2127 FMM=T ISym2X=0 I1Cent= 0 IOpClX= 0 NMat=1 NMatS=1 NMatT=0.
 ***** Axes restored to original set *****
 -------------------------------------------------------------------
 Center     Atomic                   Forces (Hartrees/Bohr)
 Number     Number              X              Y              Z
 -------------------------------------------------------------------
      1        6           0.009483686   -0.000584340    0.000230196
      2        6          -0.013098902   -0.005398091    0.002002698
      3        6          -0.000720605   -0.007982184   -0.000621985
      4        6           0.003155147   -0.004633040    0.010954378
      5        6          -0.011207486   -0.000104035    0.000834725
      6        6          -0.004299850   -0.011365544   -0.000882866
      7        6           0.012063831    0.018904635    0.008204344
      8        6           0.008824539   -0.011381805   -0.013808249
      9        6           0.000241140    0.004169834    0.008831305
     10        6          -0.011113488    0.001579533   -0.019629148
     11        6          -0.014564016   -0.021556689   -0.010463915
     12        8           0.003722735    0.019007682   -0.000576029
     13        6           0.005779588   -0.006833324   -0.001852958
     14        6           0.004201129   -0.002293719   -0.003356598
     15        6          -0.009942243    0.002436193    0.000498870
     16        8           0.010952770   -0.004304969    0.010599216
     17        6           0.007846024   -0.010884741   -0.005706261
     18        6           0.032469616    0.007629541   -0.000251628
     19        8          -0.027043332    0.002843510    0.025463381
     20        6           0.011553991   -0.004934073    0.000038518
     21        8          -0.006000770    0.006956112   -0.002222270
     22        6          -0.007014856    0.013347087    0.002252970
     23        6          -0.005399453    0.008279219    0.000724072
     24        8           0.001704378   -0.005726321   -0.009771769
     25        6          -0.002944487    0.014384194    0.001871516
     26        6           0.001354322    0.001817448    0.000396002
     27        6           0.000987964   -0.009949419   -0.001836677
     28        6          -0.003167665    0.007640109   -0.004888939
     29        6          -0.003819923   -0.006248997   -0.008971552
     30        1          -0.001667814    0.001079474   -0.001722759
     31        1          -0.003201718    0.006073822   -0.000087210
     32        6          -0.001060669    0.000977601   -0.000923593
     33        1           0.001546413   -0.000745052   -0.000092562
     34        1          -0.000685649    0.005546316    0.001884214
     35        1           0.000330992    0.007222307   -0.001128633
     36        1           0.000850655   -0.000768499    0.001052308
     37        1          -0.001571199   -0.000419535    0.003342080
     38        1          -0.000703859   -0.000145806    0.001801823
     39        1           0.000851842    0.000448715   -0.000537643
     40        1          -0.000460146   -0.000093690    0.000222028
     41        1           0.001479934   -0.000826349    0.000497437
     42        1          -0.001271847   -0.002037582   -0.001440419
     43        1           0.000131611    0.002857013   -0.000225140
     44        1          -0.001847049   -0.003725331   -0.002532408
     45        1           0.001733572    0.000079389    0.003507365
     46        1           0.001415904   -0.002885837   -0.001502722
     47        1          -0.001927423   -0.001405679    0.003032022
     48        1           0.002575357   -0.002668275    0.001541641
     49        1           0.001072422   -0.003359552    0.002185119
     50        1          -0.001420435   -0.000149086   -0.001721913
     51        1          -0.000211738   -0.000287371   -0.001324497
     52        1           0.000031913   -0.000610260    0.001018201
     53        1          -0.001201384   -0.002652376    0.005560656
     54        1           0.002096459   -0.003850201    0.000402824
     55        1           0.000496004   -0.000816308    0.000224727
     56        1          -0.000776904    0.001246002    0.000604274
     57        1           0.000724858    0.002792087    0.001393050
     58        1          -0.000249959    0.000037392    0.003797096
     59        1          -0.001121479    0.001819040   -0.000653834
     60        1           0.004253841   -0.001699999    0.000244396
     61        1           0.004131778   -0.001150866    0.000145119
     62        6           0.000804915    0.000400569   -0.003360561
     63        1          -0.000202754    0.001848369   -0.001186765
     64        1           0.000497671    0.002023865   -0.000591433
     65        1           0.000552099    0.001031889   -0.001485636
 -------------------------------------------------------------------
 Cartesian Forces:  Max     0.032469616 RMS     0.006573529

 GradGradGradGradGradGradGradGradGradGradGradGradGradGradGradGradGradGrad
 Berny optimization.
 Internal  Forces:  Max     0.019193178 RMS     0.003435391
 Search for a local minimum.
 Step number   1 out of a maximum of  390
 All quantities printed in internal units (Hartrees-Bohrs-Radians)
 Mixed Optimization -- RFO/linear search
 Second derivative matrix not updated -- first step.
 ITU=  0
     Eigenvalues ---    0.00275   0.00290   0.00333   0.00410   0.00431
     Eigenvalues ---    0.00437   0.00480   0.00556   0.00607   0.00611
     Eigenvalues ---    0.00661   0.00666   0.00686   0.00692   0.00743
     Eigenvalues ---    0.01033   0.01084   0.01245   0.01252   0.01422
     Eigenvalues ---    0.01462   0.01630   0.01715   0.01821   0.01928
     Eigenvalues ---    0.02505   0.02827   0.02828   0.03030   0.03115
     Eigenvalues ---    0.03485   0.03592   0.03754   0.04023   0.04033
     Eigenvalues ---    0.04100   0.04312   0.04383   0.04585   0.04636
     Eigenvalues ---    0.04638   0.04825   0.04922   0.05092   0.05244
     Eigenvalues ---    0.05305   0.05382   0.05422   0.05472   0.05492
     Eigenvalues ---    0.05504   0.05534   0.05549   0.05571   0.05627
     Eigenvalues ---    0.05713   0.05874   0.05927   0.06275   0.06634
     Eigenvalues ---    0.06687   0.06862   0.07090   0.07108   0.07175
     Eigenvalues ---    0.07247   0.07249   0.07366   0.07695   0.08383
     Eigenvalues ---    0.08446   0.08830   0.09020   0.09187   0.09829
     Eigenvalues ---    0.10081   0.10639   0.10925   0.11639   0.12281
     Eigenvalues ---    0.13165   0.14706   0.15202   0.15972   0.16000
     Eigenvalues ---    0.16000   0.16000   0.16000   0.16000   0.16000
     Eigenvalues ---    0.16000   0.16000   0.16000   0.16000   0.16000
     Eigenvalues ---    0.16000   0.16000   0.16000   0.16000   0.16000
     Eigenvalues ---    0.16000   0.16000   0.16000   0.16000   0.16000
     Eigenvalues ---    0.16403   0.16813   0.17243   0.17474   0.18326
     Eigenvalues ---    0.19741   0.21566   0.21905   0.22712   0.23507
     Eigenvalues ---    0.24459   0.24932   0.24972   0.24986   0.24986
     Eigenvalues ---    0.24993   0.24994   0.25000   0.25905   0.27304
     Eigenvalues ---    0.27368   0.27740   0.27821   0.28029   0.28291
     Eigenvalues ---    0.28688   0.28779   0.28880   0.29173   0.29709
     Eigenvalues ---    0.29902   0.30215   0.30485   0.30515   0.31180
     Eigenvalues ---    0.31557   0.31750   0.31829   0.33366   0.33666
     Eigenvalues ---    0.33971   0.33979   0.33993   0.33998   0.34010
     Eigenvalues ---    0.34026   0.34037   0.34043   0.34058   0.34069
     Eigenvalues ---    0.34126   0.34133   0.34151   0.34164   0.34174
     Eigenvalues ---    0.34199   0.34201   0.34243   0.34246   0.34264
     Eigenvalues ---    0.34275   0.34276   0.34276   0.34286   0.34311
     Eigenvalues ---    0.34348   0.34348   0.34384   0.34454   0.34589
     Eigenvalues ---    0.34941   0.35209   0.35265   0.35444   0.36347
     Eigenvalues ---    0.37351   0.42856   0.43518   0.51566   0.53346
     Eigenvalues ---    0.54533   0.56283   0.89772   0.90647
 RFO step:  Lambda=-2.13288683D-02 EMin= 2.75390167D-03
 Linear search not attempted -- first point.
 Iteration  1 RMS(Cart)=  0.06160840 RMS(Int)=  0.00092401
 Iteration  2 RMS(Cart)=  0.00148531 RMS(Int)=  0.00024301
 Iteration  3 RMS(Cart)=  0.00000099 RMS(Int)=  0.00024301
 Variable       Old X    -DE/DX   Delta X   Delta X   Delta X     New X
                                 (Linear)    (Quad)   (Total)
    R1        2.53488  -0.00274   0.00000  -0.00580  -0.00583   2.52905
    R2        2.82327   0.00851   0.00000   0.02492   0.02485   2.84813
    R3        2.05771  -0.00013   0.00000  -0.00035  -0.00035   2.05736
    R4        2.85380   0.00399   0.00000   0.00889   0.00893   2.86272
    R5        2.84604   0.00314   0.00000   0.00927   0.00927   2.85531
    R6        2.93964   0.00517   0.00000   0.01307   0.01299   2.95263
    R7        2.90906   0.01131   0.00000   0.03885   0.03884   2.94790
    R8        2.07897  -0.00083   0.00000  -0.00232  -0.00232   2.07665
    R9        2.90646   0.00906   0.00000   0.02968   0.02953   2.93599
   R10        2.91429   0.00726   0.00000   0.02443   0.02453   2.93882
   R11        2.76305  -0.00432   0.00000  -0.01008  -0.01009   2.75296
   R12        2.91298   0.00078   0.00000   0.00566   0.00559   2.91857
   R13        2.90403   0.00632   0.00000   0.01441   0.01436   2.91839
   R14        2.89528   0.01225   0.00000   0.03972   0.03972   2.93500
   R15        2.07258   0.00295   0.00000   0.00816   0.00816   2.08075
   R16        2.07366  -0.00126   0.00000  -0.00350  -0.00350   2.07016
   R17        2.81614   0.00893   0.00000   0.01899   0.01860   2.83475
   R18        2.85998   0.01574   0.00000   0.05554   0.05502   2.91500
   R19        2.67848   0.00309   0.00000   0.00688   0.00688   2.68536
   R20        2.52562   0.01210   0.00000   0.02102   0.02103   2.54665
   R21        2.63150  -0.01919   0.00000  -0.04567  -0.04546   2.58604
   R22        2.79330  -0.00012   0.00000  -0.00425  -0.00410   2.78921
   R23        2.79648   0.01823   0.00000   0.04965   0.04965   2.84613
   R24        2.33038  -0.01370   0.00000  -0.01490  -0.01490   2.31548
   R25        2.32636  -0.01907   0.00000  -0.02056  -0.02056   2.30581
   R26        2.88159   0.00161   0.00000   0.00503   0.00503   2.88661
   R27        2.90253   0.00480   0.00000   0.01548   0.01548   2.91802
   R28        2.88547   0.00772   0.00000   0.02423   0.02423   2.90970
   R29        2.07287   0.00004   0.00000   0.00010   0.00010   2.07297
   R30        2.07334  -0.00043   0.00000  -0.00119  -0.00119   2.07215
   R31        2.07341   0.00012   0.00000   0.00032   0.00032   2.07374
   R32        2.87537   0.00861   0.00000   0.02662   0.02662   2.90199
   R33        2.06747   0.00067   0.00000   0.00182   0.00182   2.06929
   R34        2.07054   0.00041   0.00000   0.00113   0.00113   2.07167
   R35        2.07038  -0.00014   0.00000  -0.00038  -0.00038   2.07000
   R36        2.91664  -0.00081   0.00000   0.00944   0.00970   2.92634
   R37        2.90542   0.00441   0.00000   0.01503   0.01509   2.92050
   R38        2.07119  -0.00164   0.00000  -0.00451  -0.00451   2.06667
[...]
     54          1           0        2.056851    1.832658   -3.666702
     55          1           0        0.500277    2.639739   -3.936295
     56          1           0        1.058115    4.367054   -2.076796
     57          1           0        2.631669    3.555811   -1.980917
     58          1           0        1.667860    3.782767   -0.513606
     59          1           0       -1.639660    3.121522    4.062238
     60          1           0       -0.721203    3.737235    2.680314
     61          1           0       -2.481755    3.789857    2.651372
     62          6           0        6.228404   -1.238536   -0.700880
     63          1           0        6.239132   -2.309360   -0.933456
     64          1           0        6.036880   -0.697800   -1.636690
     65          1           0        7.235793   -0.968518   -0.363992
 ---------------------------------------------------------------------
 Rotational constants (GHZ):      0.2017151      0.1195101      0.1147212

 **********************************************************************

            Population analysis using the SCF density.

 **********************************************************************

 Orbital symmetries:
       Occupied  (A) (A) (A) (A) (A) (A) (A) (A) (A) (A) (A) (A)
                 (A) (A) (A) (A) (A) (A) (A) (A) (A) (A) (A) (A)
                 (A) (A) (A) (A) (A) (A) (A) (A) (A) (A) (A) (A)
                 (A) (A) (A) (A) (A) (A) (A) (A) (A) (A) (A) (A)
                 (A) (A) (A) (A) (A) (A) (A) (A) (A) (A) (A) (A)
                 (A) (A) (A) (A) (A) (A) (A) (A) (A) (A) (A) (A)
                 (A) (A) (A) (A) (A) (A) (A) (A) (A) (A) (A) (A)
                 (A) (A) (A) (A) (A) (A) (A) (A) (A) (A) (A) (A)
                 (A) (A) (A) (A) (A) (A) (A) (A) (A) (A) (A) (A)
                 (A) (A) (A) (A) (A) (A) (A)
       Virtual   (A) (A) (A) (A) (A) (A) (A) (A) (A) (A) (A) (A)
                 (A) (A) (A) (A) (A) (A) (A) (A) (A) (A) (A) (A)
                 (A) (A) (A) (A) (A) (A) (A) (A) (A) (A) (A) (A)
                 (A) (A) (A) (A) (A) (A) (A) (A) (A) (A) (A) (A)
                 (A) (A) (A) (A) (A) (A) (A) (A) (A) (A) (A) (A)
                 (A) (A) (A) (A) (A) (A) (A) (A) (A) (A) (A) (A)
                 (A) (A) (A) (A) (A) (A) (A) (A) (A) (A) (A) (A)
                 (A) (A) (A) (A) (A) (A) (A) (A) (A) (A) (A) (A)
                 (A) (A) (A) (A) (A) (A) (A) (A) (A) (A) (A) (A)
                 (A) (A) (A) (A) (A) (A) (A) (A) (A) (A) (A) (A)
                 (A) (A) (A) (A) (A) (A) (A) (A) (A) (A) (A) (A)
                 (A) (A) (A) (A) (A) (A) (A) (A) (A) (A) (A) (A)
                 (A) (A) (A) (A) (A) (A) (A) (A) (A) (A) (A) (A)
                 (A) (A) (A) (A) (A) (A) (A) (A) (A) (A) (A) (A)
                 (A) (A) (A) (A) (A) (A) (A) (A) (A) (A) (A) (A)
                 (A) (A) (A) (A) (A) (A) (A) (A) (A) (A) (A) (A)
                 (A) (A) (A) (A) (A) (A) (A) (A) (A) (A) (A) (A)
                 (A) (A) (A) (A) (A) (A) (A) (A) (A) (A) (A) (A)
                 (A) (A) (A) (A) (A) (A) (A) (A) (A) (A) (A) (A)
                 (A) (A) (A) (A) (A) (A) (A) (A) (A) (A) (A) (A)
                 (A) (A) (A) (A) (A) (A) (A) (A) (A) (A) (A) (A)
                 (A) (A) (A) (A) (A) (A) (A) (A) (A) (A) (A) (A)
                 (A) (A) (A) (A) (A) (A) (A) (A) (A) (A) (A) (A)
                 (A) (A) (A) (A) (A) (A) (A) (A) (A) (A) (A) (A)
                 (A) (A) (A) (A) (A) (A) (A) (A) (A) (A) (A) (A)
                 (A) (A) (A) (A) (A) (A) (A) (A) (A) (A) (A) (A)
                 (A) (A) (A) (A) (A) (A) (A) (A) (A) (A) (A) (A)
                 (A) (A) (A) (A) (A) (A) (A) (A) (A) (A) (A) (A)
                 (A) (A) (A) (A) (A) (A) (A) (A) (A) (A) (A) (A)
                 (A) (A) (A) (A) (A) (A) (A) (A) (A) (A) (A) (A)
                 (A) (A) (A) (A) (A) (A) (A) (A) (A) (A) (A) (A)
                 (A) (A) (A) (A) (A) (A) (A) (A) (A) (A) (A) (A)
                 (A) (A) (A) (A) (A) (A) (A) (A) (A) (A) (A) (A)
                 (A) (A) (A) (A) (A) (A) (A) (A) (A) (A) (A) (A)
                 (A) (A) (A) (A) (A) (A) (A) (A) (A) (A)
 The electronic state is 1-A.
 Alpha  occ. eigenvalues --  -19.19593 -19.16626 -19.15746 -19.12668 -19.12384
 Alpha  occ. eigenvalues --  -10.26947 -10.26870 -10.26786 -10.26383 -10.25722
 Alpha  occ. eigenvalues --  -10.25684 -10.25108 -10.21170 -10.20777 -10.20609
 Alpha  occ. eigenvalues --  -10.20268 -10.19843 -10.19432 -10.19210 -10.19147
 Alpha  occ. eigenvalues --  -10.19035 -10.18887 -10.18876 -10.18654 -10.18364
 Alpha  occ. eigenvalues --  -10.18315 -10.18302 -10.17960 -10.17052 -10.16803
 Alpha  occ. eigenvalues --  -10.16608  -1.08986  -1.05811  -1.03091  -1.02373
 Alpha  occ. eigenvalues --   -1.02059  -0.86586  -0.83634  -0.82366  -0.81324
 Alpha  occ. eigenvalues --   -0.80144  -0.79511  -0.76670  -0.74200  -0.73098
 Alpha  occ. eigenvalues --   -0.72083  -0.71228  -0.70016  -0.69465  -0.67752
 Alpha  occ. eigenvalues --   -0.64885  -0.64595  -0.63272  -0.62016  -0.60491
 Alpha  occ. eigenvalues --   -0.59272  -0.58403  -0.56781  -0.54878  -0.53305
 Alpha  occ. eigenvalues --   -0.52787  -0.52050  -0.50500  -0.50290  -0.49171
 Alpha  occ. eigenvalues --   -0.48123  -0.47550  -0.46517  -0.46224  -0.45618
 Alpha  occ. eigenvalues --   -0.45226  -0.44868  -0.44370  -0.43482  -0.43314
 Alpha  occ. eigenvalues --   -0.42791  -0.42606  -0.41870  -0.41491  -0.41248
 Alpha  occ. eigenvalues --   -0.40615  -0.40517  -0.40440  -0.39976  -0.39533
 Alpha  occ. eigenvalues --   -0.38971  -0.38862  -0.38332  -0.38146  -0.37906
 Alpha  occ. eigenvalues --   -0.37509  -0.37492  -0.37348  -0.36926  -0.36677
 Alpha  occ. eigenvalues --   -0.36451  -0.35976  -0.35001  -0.34419  -0.34261
 Alpha  occ. eigenvalues --   -0.33605  -0.33551  -0.33325  -0.32720  -0.31887
 Alpha  occ. eigenvalues --   -0.31513  -0.31297  -0.30996  -0.28059  -0.26640
 Alpha  occ. eigenvalues --   -0.26293  -0.24535  -0.24014  -0.23251  -0.22660
 Alpha virt. eigenvalues --   -0.04402  -0.01033   0.00352   0.02378   0.05511
 Alpha virt. eigenvalues --    0.07316   0.08666   0.08960   0.09241   0.10063
 Alpha virt. eigenvalues --    0.10623   0.10841   0.11151   0.11961   0.12431
 Alpha virt. eigenvalues --    0.13032   0.13289   0.13595   0.14096   0.14143
 Alpha virt. eigenvalues --    0.14396   0.14682   0.14842   0.15371   0.15469
 Alpha virt. eigenvalues --    0.15934   0.16507   0.16986   0.17021   0.17269
 Alpha virt. eigenvalues --    0.17736   0.17918   0.18205   0.18300   0.18566
 Alpha virt. eigenvalues --    0.18820   0.18897   0.19347   0.19939   0.20273
 Alpha virt. eigenvalues --    0.20659   0.21064   0.21269   0.21702   0.22297
 Alpha virt. eigenvalues --    0.22899   0.23282   0.23651   0.23854   0.24600
 Alpha virt. eigenvalues --    0.24922   0.25144   0.25640   0.25867   0.26774
 Alpha virt. eigenvalues --    0.27308   0.27696   0.27995   0.28713   0.29766
 Alpha virt. eigenvalues --    0.30907   0.31828   0.32420   0.32645   0.33942
 Alpha virt. eigenvalues --    0.34910   0.35905   0.37677   0.39043   0.39719
 Alpha virt. eigenvalues --    0.41832   0.45640   0.46837   0.48421   0.48678
 Alpha virt. eigenvalues --    0.49156   0.50408   0.51089   0.51387   0.51870
 Alpha virt. eigenvalues --    0.51977   0.52614   0.52975   0.53071   0.53603
 Alpha virt. eigenvalues --    0.53881   0.54298   0.54705   0.55535   0.56152
 Alpha virt. eigenvalues --    0.56844   0.57190   0.57580   0.57999   0.58675
 Alpha virt. eigenvalues --    0.59062   0.59480   0.60320   0.61136   0.61588
 Alpha virt. eigenvalues --    0.61878   0.62565   0.63222   0.63586   0.64707
 Alpha virt. eigenvalues --    0.65443   0.65831   0.66088   0.66814   0.67433
 Alpha virt. eigenvalues --    0.67915   0.68803   0.68988   0.69465   0.69757
 Alpha virt. eigenvalues --    0.70393   0.71122   0.72209   0.72595   0.73828
 Alpha virt. eigenvalues --    0.74132   0.74752   0.75087   0.75984   0.76595
 Alpha virt. eigenvalues --    0.76727   0.77297   0.78543   0.79692   0.79826
 Alpha virt. eigenvalues --    0.80406   0.80693   0.81652   0.82011   0.82656
 Alpha virt. eigenvalues --    0.82991   0.84012   0.84083   0.84540   0.85225
 Alpha virt. eigenvalues --    0.85752   0.86246   0.86560   0.87291   0.87396
 Alpha virt. eigenvalues --    0.87597   0.87845   0.88204   0.88402   0.88861
 Alpha virt. eigenvalues --    0.89079   0.89609   0.89823   0.90256   0.90664
 Alpha virt. eigenvalues --    0.90927   0.91111   0.91195   0.91556   0.92048
 Alpha virt. eigenvalues --    0.92438   0.93353   0.93510   0.93907   0.94122
 Alpha virt. eigenvalues --    0.94675   0.95169   0.96125   0.96538   0.96813
 Alpha virt. eigenvalues --    0.97187   0.97730   0.98586   0.98680   0.99467
 Alpha virt. eigenvalues --    1.00218   1.00988   1.01940   1.02670   1.02998
 Alpha virt. eigenvalues --    1.04396   1.04969   1.05627   1.06292   1.08355
 Alpha virt. eigenvalues --    1.09056   1.09553   1.10554   1.11181   1.12097
 Alpha virt. eigenvalues --    1.13807   1.14208   1.14857   1.15502   1.15918
 Alpha virt. eigenvalues --    1.16632   1.17501   1.18877   1.18970   1.21057
 Alpha virt. eigenvalues --    1.22364   1.23605   1.24892   1.25817   1.26097
 Alpha virt. eigenvalues --    1.27738   1.29111   1.30229   1.31050   1.32676
 Alpha virt. eigenvalues --    1.34500   1.35980   1.37286   1.37722   1.39205
 Alpha virt. eigenvalues --    1.40297   1.41257   1.42028   1.43816   1.45308
 Alpha virt. eigenvalues --    1.46868   1.47789   1.49530   1.52347   1.52736
 Alpha virt. eigenvalues --    1.53585   1.54945   1.55324   1.57014   1.57871
 Alpha virt. eigenvalues --    1.59355   1.61808   1.62305   1.63305   1.64156
 Alpha virt. eigenvalues --    1.65566   1.67204   1.67431   1.68456   1.69109
 Alpha virt. eigenvalues --    1.71132   1.71445   1.72699   1.72934   1.73053
 Alpha virt. eigenvalues --    1.73696   1.75027   1.75359   1.77251   1.78061
 Alpha virt. eigenvalues --    1.78780   1.79026   1.79529   1.80894   1.81683
 Alpha virt. eigenvalues --    1.82039   1.83392   1.83865   1.84902   1.85385
 Alpha virt. eigenvalues --    1.85948   1.86517   1.86832   1.87453   1.88414
 Alpha virt. eigenvalues --    1.88695   1.89526   1.90015   1.90583   1.91127
 Alpha virt. eigenvalues --    1.91722   1.92349   1.93153   1.93547   1.94706
 Alpha virt. eigenvalues --    1.95514   1.95799   1.96086   1.96974   1.97860
 Alpha virt. eigenvalues --    1.98878   1.99560   1.99758   2.00285   2.00996
 Alpha virt. eigenvalues --    2.02009   2.02411   2.03549   2.04503   2.04784
 Alpha virt. eigenvalues --    2.06212   2.06680   2.08361   2.08689   2.09806
 Alpha virt. eigenvalues --    2.10253   2.10995   2.11261   2.11314   2.12855
 Alpha virt. eigenvalues --    2.13499   2.14483   2.15487   2.16162   2.16832
 Alpha virt. eigenvalues --    2.17933   2.19341   2.19696   2.21294   2.22438
 Alpha virt. eigenvalues --    2.23679   2.24036   2.24410   2.26329   2.27058
 Alpha virt. eigenvalues --    2.28382   2.29312   2.30087   2.30574   2.31307
 Alpha virt. eigenvalues --    2.32759   2.33341   2.33538   2.34370   2.34424
 Alpha virt. eigenvalues --    2.35039   2.35773   2.36909   2.37641   2.38767
 Alpha virt. eigenvalues --    2.39270   2.40354   2.41056   2.41981   2.43334
 Alpha virt. eigenvalues --    2.44269   2.45597   2.46698   2.47243   2.48632
 Alpha virt. eigenvalues --    2.49556   2.50224   2.51387   2.53370   2.54985
 Alpha virt. eigenvalues --    2.55551   2.57018   2.58567   2.58918   2.60336
 Alpha virt. eigenvalues --    2.61456   2.62697   2.63982   2.64457   2.65769
 Alpha virt. eigenvalues --    2.66370   2.67359   2.67990   2.69205   2.69831
 Alpha virt. eigenvalues --    2.71088   2.72199   2.72411   2.76435   2.77312
 Alpha virt. eigenvalues --    2.78730   2.79644   2.81999   2.83455   2.85401
 Alpha virt. eigenvalues --    2.86556   2.88988   2.91627   2.94312   2.96080
 Alpha virt. eigenvalues --    2.97698   3.00223   3.01015   3.01760   3.03270
 Alpha virt. eigenvalues --    3.04958   3.06525   3.12276   3.18198   3.21944
 Alpha virt. eigenvalues --    3.24215   3.28240   4.03150   4.07430   4.10543
 Alpha virt. eigenvalues --    4.12469   4.13497   4.13814   4.17028   4.19414
 Alpha virt. eigenvalues --    4.22295   4.23714   4.25906   4.28893   4.30165
 Alpha virt. eigenvalues --    4.31659   4.33892   4.37283   4.39415   4.43986
 Alpha virt. eigenvalues --    4.45447   4.47563   4.53728   4.55636   4.60527
 Alpha virt. eigenvalues --    4.62600   4.65355   4.66872   4.73316   4.81027
 Alpha virt. eigenvalues --    4.89275   5.02211   5.17620
          Condensed to atoms (all electrons):
 Mulliken atomic charges:
              1
     1  C   -0.184244
     2  C    0.193575
     3  C   -0.188478
     4  C    0.324160
     5  C   -0.056209
     6  C   -0.334885
     7  C    0.203578
     8  C    0.395035
     9  C   -0.097556
    10  C    0.434224
    11  C    0.421196
    12  O   -0.441414
    13  C   -0.167810
    14  C   -0.242022
    15  C   -0.456681
    16  O   -0.499282
    17  C   -0.164429
    18  C    0.305822
    19  O   -0.539798
    20  C   -0.322345
    21  O   -0.659152
    22  C   -0.324665
    23  C    0.096275
    24  O   -0.591804
    25  C    0.182318
    26  C   -0.508093
    27  C   -0.393293
    28  C   -0.468192
    29  C   -0.459390
    30  H    0.143426
    31  H    0.163300
    32  C   -0.519485
    33  H    0.124125
    34  H    0.145189
    35  H    0.186614
    36  H    0.148988
    37  H    0.148292
    38  H    0.141237
    39  H    0.150974
    40  H    0.155671
    41  H    0.163635
    42  H    0.150743
    43  H    0.168764
    44  H    0.413892
    45  H    0.167824
    46  H    0.168703
    47  H    0.138692
    48  H    0.156625
    49  H    0.170657
    50  H    0.154247
    51  H    0.152900
    52  H    0.142044
    53  H    0.193037
    54  H    0.155002
    55  H    0.143494
    56  H    0.150886
    57  H    0.162580
    58  H    0.163864
    59  H    0.158900
    60  H    0.157836
    61  H    0.148921
    62  C   -0.452573
    63  H    0.143800
    64  H    0.137274
    65  H    0.143481
 Sum of Mulliken atomic charges =   0.00000
 Mulliken charges with hydrogens summed into heavy atoms:
              1
     1  C   -0.060120
     2  C    0.193575
     3  C   -0.025178
     4  C    0.324160
     5  C   -0.056209
     6  C   -0.003082
     7  C    0.203578
     8  C    0.395035
     9  C   -0.097556
    10  C    0.434224
    11  C    0.421196
    12  O   -0.441414
    13  C   -0.018822
    14  C    0.047507
    15  C    0.013599
    16  O   -0.499282
    17  C   -0.021003
    18  C    0.305822
    19  O   -0.539798
    20  C   -0.002838
    21  O   -0.245260
    22  C    0.011861
    23  C    0.234967
    24  O   -0.591804
    25  C    0.182318
    26  C   -0.026564
    27  C   -0.098349
    28  C    0.023342
    29  C    0.017941
    32  C   -0.053828
    62  C   -0.028018
 Sum of Mulliken charges with hydrogens summed into heavy atoms =   0.00000
 Electronic spatial extent (au):  <R**2>=          11746.0410
 Charge=              0.0000 electrons
 Dipole moment (field-independent basis, Debye):
    X=             -3.9736    Y=              2.9100    Z=             -3.7657  Tot=              6.1999
 Quadrupole moment (field-independent basis, Debye-Ang):
   XX=           -181.2493   YY=           -175.2319   ZZ=           -189.4852
   XY=              3.6500   XZ=             -8.6179   YZ=              1.9064
 Traceless Quadrupole moment (field-independent basis, Debye-Ang):
   XX=              0.7395   YY=              6.7569   ZZ=             -7.4964
   XY=              3.6500   XZ=             -8.6179   YZ=              1.9064
 Octapole moment (field-independent basis, Debye-Ang**2):
  XXX=            -25.8195  YYY=             27.5178  ZZZ=            -19.9058  XYY=             -3.7825
  XXY=            -19.4216  XXZ=            -33.3564  XZZ=            -35.6305  YZZ=             21.0633
  YYZ=            -24.7810  XYZ=             -4.1802
 Hexadecapole moment (field-independent basis, Debye-Ang**3):
 XXXX=          -8486.5651 YYYY=          -3860.9073 ZZZZ=          -3277.1962 XXXY=             35.1884
 XXXZ=             51.2902 YYYX=              4.1344 YYYZ=             -1.4256 ZZZX=            -25.3835
 ZZZY=             -0.6858 XXYY=          -2041.7614 XXZZ=          -1997.0825 YYZZ=          -1177.5385
 XXYZ=              4.4705 YYXZ=             12.9442 ZZXY=             47.5448
 N-N= 3.496175163924D+03 E-N=-1.021863424828D+04  KE= 1.374459832173D+03
 1\1\GINC-B0801\FOpt\RB3LYP\6-31G(d)\C26H34O5\CAOFEI\24-Mar-2021\0\\# o
 pt rb3lyp/6-31g(d) geom=connectivity\\Title Card Required\\0,1\C,0.092
 3076565,-0.0700216862,0.0510523037\C,1.4290553285,-0.0398036775,0.0943
 210687\C,2.1902167159,1.2694144567,0.0758440443\C,1.3578875404,2.53877
 29375,-0.2894196641\C,-0.1290498032,2.3648231923,-0.7036273679\C,-0.78
 44909899,1.1495694808,-0.0023800167\C,2.2087858152,3.2624234064,-1.370
 2921474\C,1.8885482262,2.8113580145,-2.7770027166\C,0.6755802794,2.397
 5230806,-3.2041165268\C,-0.4130900408,2.2487853161,-2.2267457733\C,0.4
 263197805,1.9401199879,-4.6270763739\O,0.1026372969,0.7888706557,-4.84
 63465366\C,0.5644853376,2.9852427389,-5.7323610684\C,0.6484514304,2.32
 37689681,-7.1175138836\C,-0.6087085071,3.9834563614,-5.6046105511\O,-1
 .5646342246,2.0391559163,-2.5859851826\C,3.6579996051,2.7380538601,-1.
 269984377\C,4.2124159122,2.9829286447,-2.6946416043\O,2.9969485306,2.8
 158321458,-3.5397163161\C,3.4270564964,1.2668922738,-0.8702735251\O,2.
 0555123869,4.6687565996,-1.3153603605\C,-0.7586977404,3.6856478114,-0.
 185712671\C,-0.0031480767,3.9312016941,1.1163519867\O,1.3380129452,3.4
 19080793,0.8637354536\C,0.1177153798,5.3462159192,1.6433084863\C,0.957
 8970118,5.4868529999,2.8900005201\C,-0.5025671063,6.3865341535,1.07784
 86922\C,4.730622423,4.409161818,-2.8939855144\C,5.22589964,1.961934888
 4,-3.2051802048\H,4.2343675234,3.279823534,-0.5135941489\H,2.555300785
 2,1.4638080406,1.0946014493\C,2.2477665619,-1.2998852849,0.2327510526\
 H,-0.4151115037,-1.0325809283,0.0982813916\H,-1.0727125586,1.426882854
 9,1.0228686533\H,-1.7187378958,0.935005642,-0.5298592229\H,1.495611789
 6,3.5369668025,-5.5368432027\H,-0.3020887338,1.8196629884,-7.329857720
 8\H,1.4021836852,1.5280269192,-7.0773981862\H,-0.5055342377,4.79588763
 36,-6.3307109509\H,-0.6455616051,4.4309749829,-4.6062273475\H,-1.56529
 29557,3.4797617518,-5.7829794475\H,4.3047950052,0.815480245,-0.3989912
 435\H,3.1966520958,0.6697238905,-1.7591932977\H,1.9576295674,4.8608471
 52,-0.3613125517\H,-0.567988774,4.4942341788,-0.8969047309\H,-1.838745
 819,3.5914306008,-0.0461579212\H,-0.4334281718,3.3138927623,1.92083616
 24\H,0.5404402812,4.888483467,3.7115968597\H,1.9759134201,5.1175388202
 ,2.7212737006\H,1.0132275271,6.5280420877,3.221094043\H,-1.1222457144,
 6.2905926416,0.1921951821\H,-0.4179301921,7.3851304136,1.4993008561\H,
 4.0028214035,5.1426712824,-2.5423347415\H,4.9346130939,4.5860455583,-3
 .9551622693\H,5.6659703955,4.5477213626,-2.3394177669\H,6.1367219664,2
 .0052352317,-2.5976689557\H,5.4971503644,2.1895031039,-4.2409510353\H,
 4.8345102229,0.9425188861,-3.1735348455\H,1.603315425,-2.1810488261,0.
 30755583\H,2.9230037905,-1.4516903907,-0.619181391\H,2.8796678932,-1.2
 658997925,1.1320342972\C,0.9961142945,3.2952697727,-8.2507779513\H,0.2
 257574574,4.0620503023,-8.39030913\H,1.9458435752,3.81058359,-8.057686
 8234\H,1.0985307879,2.759955972,-9.2016647693\\Version=EM64L-G09RevB.0
 1\State=1-A\HF=-1387.3182601\RMSD=5.421e-09\RMSF=8.075e-06\Dipole=1.67
 17661,0.7970454,1.5873628\Quadrupole=1.2716897,-2.0400859,0.7683962,-5
 .7639838,-5.1263139,-4.0047534\PG=C01 [X(C26H34O5)]\\@


 Other things may change us, but we start and end with family.
 -- Anthony Brandt
 Job cpu time:  0 days  6 hours 18 minutes 13.2 seconds.
 File lengths (MBytes):  RWF=    186 Int=      0 D2E=      0 Chk=     20 Scr=      1
 Normal termination of Gaussian 09 at Wed Mar 24 17:12:19 2021.
