 Entering Gaussian System, Link 0=g09
 Initial command:
 /public/software/g09/g09/l1.exe /tmp/Gau-407.inp -scrdir=/tmp/
 Entering Link 1 = /public/software/g09/g09/l1.exe PID=       408.
  
 Copyright (c) 1988,1990,1992,1993,1995,1998,2003,2009,2010,
            Gaussian, Inc.  All Rights Reserved.
  
 This is part of the Gaussian(R) 09 program.  It is based on
 the Gaussian(R) 03 system (copyright 2003, Gaussian, Inc.),
 the Gaussian(R) 98 system (copyright 1998, Gaussian, Inc.),
 the Gaussian(R) 94 system (copyright 1995, Gaussian, Inc.),
 the Gaussian 92(TM) system (copyright 1992, Gaussian, Inc.),
 the Gaussian 90(TM) system (copyright 1990, Gaussian, Inc.),
 the Gaussian 88(TM) system (copyright 1988, Gaussian, Inc.),
 the Gaussian 86(TM) system (copyright 1986, Carnegie Mellon
 University), and the Gaussian 82(TM) system (copyright 1983,
 Carnegie Mellon University). Gaussian is a federally registered
 trademark of Gaussian, Inc.
  
 This software contains proprietary and confidential information,
 including trade secrets, belonging to Gaussian, Inc.
  
 This software is provided under written license and may be
 used, copied, transmitted, or stored only in accord with that
 written license.
  
 The following legend is applicable only to US Government
 contracts under FAR:
  
                    RESTRICTED RIGHTS LEGEND
  
 Use, reproduction and disclosure by the US Government is
 subject to restrictions as set forth in subparagraphs (a)
 and (c) of the Commercial Computer Software - Restricted
 Rights clause in FAR 52.227-19.
  
 Gaussian, Inc.
 340 Quinnipiac St., Bldg. 40, Wallingford CT 06492
  
  
 ---------------------------------------------------------------
 Warning -- This program may not be used in any manner that
 competes with the business of Gaussian, Inc. or will provide
 assistance to any competitor of Gaussian, Inc.  The licensee
 of this program is prohibited from giving any competitor of
 Gaussian, Inc. access to this program.  By using this program,
 the user acknowledges that Gaussian, Inc. is engaged in the
 business of creating and licensing software in the field of
 computational chemistry and represents and warrants to the
 licensee that it is not a competitor of Gaussian, Inc. and that
 it will not use this program in any manner prohibited above.
 ---------------------------------------------------------------
  

 Cite this work as:
 Gaussian 09, Revision B.01,
 M. J. Frisch, G. W. Trucks, H. B. Schlegel, G. E. Scuseria, 
 M. A. Robb, J. R. Cheeseman, G. Scalmani, V. Barone, B. Mennucci, 
 G. A. Petersson, H. Nakatsuji, M. Caricato, X. Li, H. P. Hratchian, 
 A. F. Izmaylov, J. Bloino, G. Zheng, J. L. Sonnenberg, M. Hada, 
 M. Ehara, K. Toyota, R. Fukuda, J. Hasegawa, M. Ishida, T. Nakajima, 
 Y. Honda, O. Kitao, H. Nakai, T. Vreven, J. A. Montgomery, Jr., 
 J. E. Peralta, F. Ogliaro, M. Bearpark, J. J. Heyd, E. Brothers, 
 K. N. Kudin, V. N. Staroverov, T. Keith, R. Kobayashi, J. Normand, 
 K. Raghavachari, A. Rendell, J. C. Burant, S. S. Iyengar, J. Tomasi, 
 M. Cossi, N. Rega, J. M. Millam, M. Klene, J. E. Knox, J. B. Cross, 
 V. Bakken, C. Adamo, J. Jaramillo, R. Gomperts, R. E. Stratmann, 
 O. Yazyev, A. J. Austin, R. Cammi, C. Pomelli, J. W. Ochterski, 
 R. L. Martin, K. Morokuma, V. G. Zakrzewski, G. A. Voth, 
 P. Salvador, J. J. Dannenberg, S. Dapprich, A. D. Daniels, 
 O. Farkas, J. B. Foresman, J. V. Ortiz, J. Cioslowski, 
 and D. J. Fox, Gaussian, Inc., Wallingford CT, 2010.
 
 ******************************************
 Gaussian 09:  EM64L-G09RevB.01 12-Aug-2010
                24-Mar-2021 
 ******************************************
 %mem=600MW
 %nprocshared=10
 Will use up to   10 processors via shared memory.
 ---------------------------------------
 # opt rb3lyp/6-31g(d) geom=connectivity
 ---------------------------------------
 1/14=-1,18=20,19=15,26=3,38=1,57=2/1,3;
 2/9=110,12=2,17=6,18=5,40=1/2;
 3/5=1,6=6,7=1,11=2,16=1,25=1,30=1,71=1,74=-5,116=1/1,2,3;
 4//1;
 5/5=2,38=5/2;
 6/7=2,8=2,9=2,10=2,28=1/1;
 7//1,2,3,16;
 1/14=-1,18=20,19=15/3(2);
 2/9=110/2;
 99//99;
 2/9=110/2;
 3/5=1,6=6,7=1,11=2,16=1,25=1,30=1,71=1,74=-5,116=1/1,2,3;
 4/5=5,16=3/1;
 5/5=2,38=5/2;
 7//1,2,3,16;
 1/14=-1,18=20,19=15/3(-5);
 2/9=110/2;
 6/7=2,8=2,9=2,10=2,19=2,28=1/1;
 99/9=1/99;
 -------------------
 Title Card Required
 -------------------
 Symbolic Z-matrix:
 Charge =  0 Multiplicity = 1
 C                     0.        0.        0. 
 C                     1.3408    0.        0. 
 C                     2.1168    1.2914    0. 
 C                     1.3916    2.5328    0.6012 
 C                    -0.1365    2.424     0.7885 
 C                    -0.7975    1.2648    0.005 
 C                     1.8556    3.7051   -0.302 
 C                     0.8398    4.2215   -1.2577 
 C                    -0.4615    4.2827   -0.9641 
 C                    -0.8895    3.6799    0.3181 
 C                    -1.4463    4.7969   -1.9367 
 O                    -1.8466    4.056    -2.8342 
 C                    -1.9301    6.2322   -1.7487 
 C                    -0.9235    7.2452   -2.3163 
 C                    -3.335     6.4075   -2.3234 
 O                    -1.9036    4.0961    0.8744 
 C                     2.9068    3.184    -1.2607 
 C                     2.742     4.0966   -2.4928 
 O                     1.3613    4.5347   -2.5027 
 C                     2.5045    1.7155   -1.4244 
 O                     2.3506    4.8046    0.45 
 C                    -0.29      2.1968    2.2949 
 C                     0.963     2.7737    2.932 
 O                     1.9772    2.7599    1.917 
 C                     0.9439    4.1603    3.542 
 C                     2.2266    4.5668    4.228 
 C                    -0.105     4.9994    3.5586 
 C                     3.6237    5.3523   -2.4037 
 C                     3.0287    3.3921   -3.8214 
 H                     3.9222    3.2461   -0.8493 
 H                     3.04      1.1274    0.5752 
 C                     2.1374   -1.2725   -0.04 
 H                    -0.5531   -0.9357   -0.0418 
 H                    -1.7834    1.0543    0.4414 
 H                    -0.9907    1.5353   -1.0411 
 H                    -2.0074    6.4101   -0.6679 
 H                    -1.2493    8.2582   -2.0491 
 H                     0.0527    7.1016   -1.8381 
 H                    -3.3752    6.1778   -3.3931 
 H                    -4.0389    5.7329   -1.8232 
 H                    -3.6904    7.4328   -2.1786 
 H                     1.6537    1.5964   -2.1067 
 H                     3.3329    1.1171   -1.8187 
 H                     2.6087    4.4332    1.3179 
 H                    -0.2946    1.1193    2.5087 
 H                    -1.2204    2.5766    2.726 
 H                     1.2881    2.0858    3.7231 
 H                     2.1529    5.5558    4.693 
 H                     2.4758    3.8504    5.0179 
 H                     3.0573    4.6007    3.5169 
 H                    -1.0649    4.7597    3.1183 
 H                    -0.0393    5.9748    4.0331 
 H                     3.4547    6.0047   -3.2685 
 H                     4.6865    5.0914   -2.3708 
 H                     3.388     5.9597   -1.525 
 H                     2.9308    4.0917   -4.66 
 H                     4.0388    2.9705   -3.8413 
 H                     2.3069    2.5939   -4.0222 
 H                     1.495    -2.1593   -0.0575 
 H                     2.7685   -1.3009   -0.9338 
 H                     2.7801   -1.345     0.8433 
 C                    -0.7328    7.1835   -3.8264 
 H                    -1.6545    7.4376   -4.3578 
 H                     0.033     7.9033   -4.1338 
 H                    -0.4064    6.1916   -4.1517 
 

 GradGradGradGradGradGradGradGradGradGradGradGradGradGradGradGradGradGrad
 Berny optimization.
 Initialization pass.
                           ----------------------------
                           !    Initial Parameters    !
                           ! (Angstroms and Degrees)  !
 --------------------------                            --------------------------
 ! Name  Definition              Value          Derivative Info.                !
 --------------------------------------------------------------------------------
 ! R1    R(1,2)                  1.3408         estimate D2E/DX2                !
 ! R2    R(1,6)                  1.4952         estimate D2E/DX2                !
 ! R3    R(1,33)                 1.0878         estimate D2E/DX2                !
 ! R4    R(2,3)                  1.5066         estimate D2E/DX2                !
 ! R5    R(2,32)                 1.5018         estimate D2E/DX2                !
 ! R6    R(3,4)                  1.5583         estimate D2E/DX2                !
 ! R7    R(3,20)                 1.5359         estimate D2E/DX2                !
 ! R8    R(3,31)                 1.1            estimate D2E/DX2                !
 ! R9    R(4,5)                  1.5434         estimate D2E/DX2                !
 ! R10   R(4,7)                  1.5509         estimate D2E/DX2                !
 ! R11   R(4,24)                 1.458          estimate D2E/DX2                !
 ! R12   R(5,6)                  1.5474         estimate D2E/DX2                !
 ! R13   R(5,10)                 1.538          estimate D2E/DX2                !
 ! R14   R(5,22)                 1.5312         estimate D2E/DX2                !
 ! R15   R(6,34)                 1.0985         estimate D2E/DX2                !
 ! R16   R(6,35)                 1.0976         estimate D2E/DX2                !
 ! R17   R(7,8)                  1.4872         estimate D2E/DX2                !
 ! R18   R(7,17)                 1.5151         estimate D2E/DX2                !
 ! R19   R(7,21)                 1.4211         estimate D2E/DX2                !
 ! R20   R(8,9)                  1.3354         estimate D2E/DX2                !
 ! R21   R(8,19)                 1.3857         estimate D2E/DX2                !
 ! R22   R(9,10)                 1.4801         estimate D2E/DX2                !
 ! R23   R(9,11)                 1.4765         estimate D2E/DX2                !
 ! R24   R(10,16)                1.2293         estimate D2E/DX2                !
 ! R25   R(11,12)                1.2307         estimate D2E/DX2                !
 ! R26   R(11,13)                1.5263         estimate D2E/DX2                !
 ! R27   R(13,14)                1.5367         estimate D2E/DX2                !
 ! R28   R(13,15)                1.528          estimate D2E/DX2                !
 ! R29   R(13,36)                1.0981         estimate D2E/DX2                !
 ! R30   R(14,37)                1.0971         estimate D2E/DX2                !
 ! R31   R(14,38)                1.0965         estimate D2E/DX2                !
 ! R32   R(14,62)                1.5233         estimate D2E/DX2                !
 ! R33   R(15,39)                1.0948         estimate D2E/DX2                !
 ! R34   R(15,40)                1.0958         estimate D2E/DX2                !
 ! R35   R(15,41)                1.0948         estimate D2E/DX2                !
 ! R36   R(17,18)                1.5421         estimate D2E/DX2                !
 ! R37   R(17,20)                1.5314         estimate D2E/DX2                !
 ! R38   R(17,30)                1.0973         estimate D2E/DX2                !
 ! R39   R(18,19)                1.4486         estimate D2E/DX2                !
 ! R40   R(18,28)                1.5369         estimate D2E/DX2                !
 ! R41   R(18,29)                1.5309         estimate D2E/DX2                !
 ! R42   R(20,42)                1.0971         estimate D2E/DX2                !
 ! R43   R(20,43)                1.0954         estimate D2E/DX2                !
 ! R44   R(21,44)                0.9787         estimate D2E/DX2                !
 ! R45   R(22,23)                1.5194         estimate D2E/DX2                !
 ! R46   R(22,45)                1.0985         estimate D2E/DX2                !
 ! R47   R(22,46)                1.0935         estimate D2E/DX2                !
 ! R48   R(23,24)                1.4349         estimate D2E/DX2                !
 ! R49   R(23,25)                1.515          estimate D2E/DX2                !
 ! R50   R(23,47)                1.0976         estimate D2E/DX2                !
 ! R51   R(24,44)                1.8862         estimate D2E/DX2                !
 ! R52   R(25,26)                1.5104         estimate D2E/DX2                !
 ! R53   R(25,27)                1.3433         estimate D2E/DX2                !
 ! R54   R(26,48)                1.0953         estimate D2E/DX2                !
 ! R55   R(26,49)                1.0951         estimate D2E/DX2                !
 ! R56   R(26,50)                1.094          estimate D2E/DX2                !
 ! R57   R(27,51)                1.0829         estimate D2E/DX2                !
 ! R58   R(27,52)                1.0867         estimate D2E/DX2                !
 ! R59   R(28,53)                1.0964         estimate D2E/DX2                !
 ! R60   R(28,54)                1.0948         estimate D2E/DX2                !
 ! R61   R(28,55)                1.0939         estimate D2E/DX2                !
 ! R62   R(29,56)                1.0965         estimate D2E/DX2                !
 ! R63   R(29,57)                1.0947         estimate D2E/DX2                !
 ! R64   R(29,58)                1.0947         estimate D2E/DX2                !
 ! R65   R(32,59)                1.0952         estimate D2E/DX2                !
 ! R66   R(32,60)                1.0945         estimate D2E/DX2                !
 ! R67   R(32,61)                1.0948         estimate D2E/DX2                !
 ! R68   R(62,63)                1.0938         estimate D2E/DX2                !
 ! R69   R(62,64)                1.095          estimate D2E/DX2                !
 ! R70   R(62,65)                1.0937         estimate D2E/DX2                !
 ! A1    A(2,1,6)              122.2326         estimate D2E/DX2                !
 ! A2    A(2,1,33)             120.5627         estimate D2E/DX2                !
 ! A3    A(6,1,33)             117.1659         estimate D2E/DX2                !
 ! A4    A(1,2,3)              121.0016         estimate D2E/DX2                !
 ! A5    A(1,2,32)             122.0343         estimate D2E/DX2                !
 ! A6    A(3,2,32)             116.941          estimate D2E/DX2                !
 ! A7    A(2,3,4)              116.3037         estimate D2E/DX2                !
 ! A8    A(2,3,20)             111.5115         estimate D2E/DX2                !
 ! A9    A(2,3,31)             107.7267         estimate D2E/DX2                !
 ! A10   A(4,3,20)             104.7906         estimate D2E/DX2                !
 ! A11   A(4,3,31)             107.9144         estimate D2E/DX2                !
 ! A12   A(20,3,31)            108.3155         estimate D2E/DX2                !
 ! A13   A(3,4,5)              116.835          estimate D2E/DX2                !
 ! A14   A(3,4,7)              103.7828         estimate D2E/DX2                !
 ! A15   A(3,4,24)             106.5787         estimate D2E/DX2                !
 ! A16   A(5,4,7)              114.8457         estimate D2E/DX2                !
 ! A17   A(5,4,24)             107.4051         estimate D2E/DX2                !
 ! A18   A(7,4,24)             106.718          estimate D2E/DX2                !
 ! A19   A(4,5,6)              114.4749         estimate D2E/DX2                !
 ! A20   A(4,5,10)             112.9581         estimate D2E/DX2                !
 ! A21   A(4,5,22)             103.245          estimate D2E/DX2                !
 ! A22   A(6,5,10)             104.3419         estimate D2E/DX2                !
 ! A23   A(6,5,22)             110.1304         estimate D2E/DX2                !
 ! A24   A(10,5,22)            111.8997         estimate D2E/DX2                !
 ! A25   A(1,6,5)              114.0495         estimate D2E/DX2                !
 ! A26   A(1,6,34)             108.537          estimate D2E/DX2                !
 ! A27   A(1,6,35)             107.4064         estimate D2E/DX2                !
 ! A28   A(5,6,34)             109.0122         estimate D2E/DX2                !
 ! A29   A(5,6,35)             111.9084         estimate D2E/DX2                !
 ! A30   A(34,6,35)            105.537          estimate D2E/DX2                !
 ! A31   A(4,7,8)              115.6162         estimate D2E/DX2                !
 ! A32   A(4,7,17)             108.4266         estimate D2E/DX2                !
 ! A33   A(4,7,21)             112.3874         estimate D2E/DX2                !
 ! A34   A(8,7,17)             100.7594         estimate D2E/DX2                !
 ! A35   A(8,7,21)             108.0179         estimate D2E/DX2                !
 ! A36   A(17,7,21)            111.0552         estimate D2E/DX2                !
 ! A37   A(7,8,9)              122.6969         estimate D2E/DX2                !
 ! A38   A(7,8,19)             113.5028         estimate D2E/DX2                !
 ! A39   A(9,8,19)             123.6362         estimate D2E/DX2                !
 ! A40   A(8,9,10)             116.9742         estimate D2E/DX2                !
 ! A41   A(8,9,11)             121.4037         estimate D2E/DX2                !
 ! A42   A(10,9,11)            121.3057         estimate D2E/DX2                !
 ! A43   A(5,10,9)             117.1259         estimate D2E/DX2                !
 ! A44   A(5,10,16)            122.8164         estimate D2E/DX2                !
 ! A45   A(9,10,16)            119.5191         estimate D2E/DX2                !
 ! A46   A(9,11,12)            119.1858         estimate D2E/DX2                !
 ! A47   A(9,11,13)            117.2432         estimate D2E/DX2                !
 ! A48   A(12,11,13)           123.5627         estimate D2E/DX2                !
 ! A49   A(11,13,14)           111.5167         estimate D2E/DX2                !
 ! A50   A(11,13,15)           110.6713         estimate D2E/DX2                !
 ! A51   A(11,13,36)           107.2121         estimate D2E/DX2                !
 ! A52   A(14,13,15)           112.8121         estimate D2E/DX2                !
 ! A53   A(14,13,36)           107.6294         estimate D2E/DX2                !
 ! A54   A(15,13,36)           106.6717         estimate D2E/DX2                !
 ! A55   A(13,14,37)           108.9153         estimate D2E/DX2                !
 ! A56   A(13,14,38)           109.6185         estimate D2E/DX2                !
 ! A57   A(13,14,62)           114.9256         estimate D2E/DX2                !
 ! A58   A(37,14,38)           106.2057         estimate D2E/DX2                !
 ! A59   A(37,14,62)           108.421          estimate D2E/DX2                !
 ! A60   A(38,14,62)           108.3955         estimate D2E/DX2                !
 ! A61   A(13,15,39)           112.1588         estimate D2E/DX2                !
 ! A62   A(13,15,40)           110.3836         estimate D2E/DX2                !
 ! A63   A(13,15,41)           110.8659         estimate D2E/DX2                !
 ! A64   A(39,15,40)           107.0526         estimate D2E/DX2                !
 ! A65   A(39,15,41)           108.2886         estimate D2E/DX2                !
 ! A66   A(40,15,41)           107.9179         estimate D2E/DX2                !
 ! A67   A(7,17,18)            103.1717         estimate D2E/DX2                !
 ! A68   A(7,17,20)            102.4261         estimate D2E/DX2                !
 ! A69   A(7,17,30)            112.6627         estimate D2E/DX2                !
 ! A70   A(18,17,20)           117.0011         estimate D2E/DX2                !
 ! A71   A(18,17,30)           111.4039         estimate D2E/DX2                !
 ! A72   A(20,17,30)           109.7205         estimate D2E/DX2                !
 ! A73   A(17,18,19)           106.6365         estimate D2E/DX2                !
 ! A74   A(17,18,28)           112.0788         estimate D2E/DX2                !
 ! A75   A(17,18,29)           113.6435         estimate D2E/DX2                !
 ! A76   A(19,18,28)           107.4636         estimate D2E/DX2                !
 ! A77   A(19,18,29)           108.1643         estimate D2E/DX2                !
 ! A78   A(28,18,29)           108.5938         estimate D2E/DX2                !
 ! A79   A(8,19,18)            106.5122         estimate D2E/DX2                !
 ! A80   A(3,20,17)            103.4124         estimate D2E/DX2                !
 ! A81   A(3,20,42)            110.5505         estimate D2E/DX2                !
 ! A82   A(3,20,43)            111.9558         estimate D2E/DX2                !
 ! A83   A(17,20,42)           111.982          estimate D2E/DX2                !
 ! A84   A(17,20,43)           111.3261         estimate D2E/DX2                !
 ! A85   A(42,20,43)           107.6574         estimate D2E/DX2                !
 ! A86   A(7,21,44)            105.5172         estimate D2E/DX2                !
 ! A87   A(5,22,23)            105.8732         estimate D2E/DX2                !
 ! A88   A(5,22,45)            109.7214         estimate D2E/DX2                !
 ! A89   A(5,22,46)            114.9373         estimate D2E/DX2                !
 ! A90   A(23,22,45)           107.1132         estimate D2E/DX2                !
 ! A91   A(23,22,46)           113.8579         estimate D2E/DX2                !
 ! A92   A(45,22,46)           105.0931         estimate D2E/DX2                !
 ! A93   A(22,23,24)           106.4161         estimate D2E/DX2                !
 ! A94   A(22,23,25)           120.3937         estimate D2E/DX2                !
 ! A95   A(22,23,47)           107.9692         estimate D2E/DX2                !
 ! A96   A(24,23,25)           107.6095         estimate D2E/DX2                !
 ! A97   A(24,23,47)           107.1247         estimate D2E/DX2                !
 ! A98   A(25,23,47)           106.6873         estimate D2E/DX2                !
 ! A99   A(4,24,23)            110.8532         estimate D2E/DX2                !
 ! A100  A(23,25,26)           114.7408         estimate D2E/DX2                !
 ! A101  A(23,25,27)           125.9112         estimate D2E/DX2                !
 ! A102  A(26,25,27)           119.301          estimate D2E/DX2                !
 ! A103  A(25,26,48)           112.2524         estimate D2E/DX2                !
 ! A104  A(25,26,49)           110.1697         estimate D2E/DX2                !
 ! A105  A(25,26,50)           110.9761         estimate D2E/DX2                !
 ! A106  A(48,26,49)           107.4438         estimate D2E/DX2                !
 ! A107  A(48,26,50)           107.4004         estimate D2E/DX2                !
 ! A108  A(49,26,50)           108.4405         estimate D2E/DX2                !
 ! A109  A(25,27,51)           123.2866         estimate D2E/DX2                !
 ! A110  A(25,27,52)           121.2559         estimate D2E/DX2                !
 ! A111  A(51,27,52)           115.4552         estimate D2E/DX2                !
 ! A112  A(18,28,53)           110.6103         estimate D2E/DX2                !
 ! A113  A(18,28,54)           111.342          estimate D2E/DX2                !
 ! A114  A(18,28,55)           112.1247         estimate D2E/DX2                !
 ! A115  A(53,28,54)           108.3687         estimate D2E/DX2                !
 ! A116  A(53,28,55)           105.6632         estimate D2E/DX2                !
 ! A117  A(54,28,55)           108.5022         estimate D2E/DX2                !
 ! A118  A(18,29,56)           110.6955         estimate D2E/DX2                !
 ! A119  A(18,29,57)           111.4565         estimate D2E/DX2                !
 ! A120  A(18,29,58)           111.7921         estimate D2E/DX2                !
 ! A121  A(56,29,57)           108.3125         estimate D2E/DX2                !
 ! A122  A(56,29,58)           105.4299         estimate D2E/DX2                !
 ! A123  A(57,29,58)           108.919          estimate D2E/DX2                !
 ! A124  A(2,32,59)            112.0484         estimate D2E/DX2                !
 ! A125  A(2,32,60)            110.4616         estimate D2E/DX2                !
 ! A126  A(2,32,61)            110.2438         estimate D2E/DX2                !
 ! A127  A(59,32,60)           107.7076         estimate D2E/DX2                !
 ! A128  A(59,32,61)           107.6754         estimate D2E/DX2                !
 ! A129  A(60,32,61)           108.5814         estimate D2E/DX2                !
 ! A130  A(14,62,63)           111.5119         estimate D2E/DX2                !
 ! A131  A(14,62,64)           109.8288         estimate D2E/DX2                !
 ! A132  A(14,62,65)           111.6497         estimate D2E/DX2                !
 ! A133  A(63,62,64)           107.4703         estimate D2E/DX2                !
 ! A134  A(63,62,65)           108.5208         estimate D2E/DX2                !
 ! A135  A(64,62,65)           107.6947         estimate D2E/DX2                !
 ! D1    D(6,1,2,3)             -0.2265         estimate D2E/DX2                !
 ! D2    D(6,1,2,32)          -178.426          estimate D2E/DX2                !
 ! D3    D(33,1,2,3)           177.4422         estimate D2E/DX2                !
 ! D4    D(33,1,2,32)           -0.7574         estimate D2E/DX2                !
 ! D5    D(2,1,6,5)            -33.4498         estimate D2E/DX2                !
 ! D6    D(2,1,6,34)          -155.1784         estimate D2E/DX2                !
 ! D7    D(2,1,6,35)            91.1685         estimate D2E/DX2                !
 ! D8    D(33,1,6,5)           148.8065         estimate D2E/DX2                !
 ! D9    D(33,1,6,34)           27.0779         estimate D2E/DX2                !
 ! D10   D(33,1,6,35)          -86.5752         estimate D2E/DX2                !
 ! D11   D(1,2,3,4)             25.4901         estimate D2E/DX2                !
 ! D12   D(1,2,3,20)           -94.5711         estimate D2E/DX2                !
 ! D13   D(1,2,3,31)           146.7041         estimate D2E/DX2                !
 ! D14   D(32,2,3,4)          -156.222          estimate D2E/DX2                !
 ! D15   D(32,2,3,20)           83.7169         estimate D2E/DX2                !
 ! D16   D(32,2,3,31)          -35.008          estimate D2E/DX2                !
 ! D17   D(1,2,32,59)           -0.5854         estimate D2E/DX2                !
 ! D18   D(1,2,32,60)          119.5057         estimate D2E/DX2                !
 ! D19   D(1,2,32,61)         -120.4871         estimate D2E/DX2                !
 ! D20   D(3,2,32,59)         -178.8543         estimate D2E/DX2                !
 ! D21   D(3,2,32,60)          -58.7632         estimate D2E/DX2                !
 ! D22   D(3,2,32,61)           61.244          estimate D2E/DX2                !
 ! D23   D(2,3,4,5)            -15.6066         estimate D2E/DX2                !
 ! D24   D(2,3,4,7)           -143.1199         estimate D2E/DX2                !
 ! D25   D(2,3,4,24)           104.4184         estimate D2E/DX2                !
 ! D26   D(20,3,4,5)           108.0061         estimate D2E/DX2                !
 ! D27   D(20,3,4,7)           -19.5072         estimate D2E/DX2                !
 ! D28   D(20,3,4,24)         -131.969          estimate D2E/DX2                !
 ! D29   D(31,3,4,5)          -136.7208         estimate D2E/DX2                !
 ! D30   D(31,3,4,7)            95.7659         estimate D2E/DX2                !
 ! D31   D(31,3,4,24)          -16.6959         estimate D2E/DX2                !
 ! D32   D(2,3,20,17)          164.536          estimate D2E/DX2                !
 ! D33   D(2,3,20,42)           44.5122         estimate D2E/DX2                !
 ! D34   D(2,3,20,43)          -75.5143         estimate D2E/DX2                !
 ! D35   D(4,3,20,17)           37.9022         estimate D2E/DX2                !
 ! D36   D(4,3,20,42)          -82.1216         estimate D2E/DX2                !
 ! D37   D(4,3,20,43)          157.852          estimate D2E/DX2                !
 ! D38   D(31,3,20,17)         -77.0912         estimate D2E/DX2                !
 ! D39   D(31,3,20,42)         162.885          estimate D2E/DX2                !
 ! D40   D(31,3,20,43)          42.8585         estimate D2E/DX2                !
 ! D41   D(3,4,5,6)            -16.0871         estimate D2E/DX2                !
 ! D42   D(3,4,5,10)          -135.3229         estimate D2E/DX2                !
 ! D43   D(3,4,5,22)           103.6231         estimate D2E/DX2                !
 ! D44   D(7,4,5,6)            105.8154         estimate D2E/DX2                !
 ! D45   D(7,4,5,10)           -13.4203         estimate D2E/DX2                !
 ! D46   D(7,4,5,22)          -134.4744         estimate D2E/DX2                !
 ! D47   D(24,4,5,6)          -135.6712         estimate D2E/DX2                !
 ! D48   D(24,4,5,10)          105.093          estimate D2E/DX2                !
 ! D49   D(24,4,5,22)          -15.9611         estimate D2E/DX2                !
 ! D50   D(3,4,7,8)            106.1464         estimate D2E/DX2                !
 ! D51   D(3,4,7,17)            -6.0615         estimate D2E/DX2                !
 ! D52   D(3,4,7,21)          -129.2085         estimate D2E/DX2                !
 ! D53   D(5,4,7,8)            -22.5944         estimate D2E/DX2                !
 ! D54   D(5,4,7,17)          -134.8023         estimate D2E/DX2                !
 ! D55   D(5,4,7,21)           102.0507         estimate D2E/DX2                !
 ! D56   D(24,4,7,8)          -141.4929         estimate D2E/DX2                !
 ! D57   D(24,4,7,17)          106.2992         estimate D2E/DX2                !
 ! D58   D(24,4,7,21)          -16.8477         estimate D2E/DX2                !
 ! D59   D(3,4,24,23)         -124.5467         estimate D2E/DX2                !
 ! D60   D(5,4,24,23)            1.3926         estimate D2E/DX2                !
 ! D61   D(7,4,24,23)          125.0293         estimate D2E/DX2                !
 ! D62   D(4,5,6,1)             39.8923         estimate D2E/DX2                !
 ! D63   D(4,5,6,34)           161.3583         estimate D2E/DX2                !
 ! D64   D(4,5,6,35)           -82.2861         estimate D2E/DX2                !
 ! D65   D(10,5,6,1)           163.8609         estimate D2E/DX2                !
 ! D66   D(10,5,6,34)          -74.6732         estimate D2E/DX2                !
 ! D67   D(10,5,6,35)           41.6825         estimate D2E/DX2                !
 ! D68   D(22,5,6,1)           -75.8909         estimate D2E/DX2                !
 ! D69   D(22,5,6,34)           45.5751         estimate D2E/DX2                !
 ! D70   D(22,5,6,35)          161.9307         estimate D2E/DX2                !
 ! D71   D(4,5,10,9)            43.1377         estimate D2E/DX2                !
 ! D72   D(4,5,10,16)         -145.3325         estimate D2E/DX2                !
 ! D73   D(6,5,10,9)           -81.8021         estimate D2E/DX2                !
 ! D74   D(6,5,10,16)           89.7277         estimate D2E/DX2                !
 ! D75   D(22,5,10,9)          159.1438         estimate D2E/DX2                !
 ! D76   D(22,5,10,16)         -29.3265         estimate D2E/DX2                !
 ! D77   D(4,5,22,23)           24.0468         estimate D2E/DX2                !
 ! D78   D(4,5,22,45)          -91.2255         estimate D2E/DX2                !
 ! D79   D(4,5,22,46)          150.6275         estimate D2E/DX2                !
 ! D80   D(6,5,22,23)          146.7022         estimate D2E/DX2                !
 ! D81   D(6,5,22,45)           31.4299         estimate D2E/DX2                !
 ! D82   D(6,5,22,46)          -86.7171         estimate D2E/DX2                !
 ! D83   D(10,5,22,23)         -97.7227         estimate D2E/DX2                !
 ! D84   D(10,5,22,45)         147.005          estimate D2E/DX2                !
 ! D85   D(10,5,22,46)          28.858          estimate D2E/DX2                !
 ! D86   D(4,7,8,9)             35.4078         estimate D2E/DX2                !
 ! D87   D(4,7,8,19)          -140.0893         estimate D2E/DX2                !
 ! D88   D(17,7,8,9)           152.0186         estimate D2E/DX2                !
 ! D89   D(17,7,8,19)          -23.4784         estimate D2E/DX2                !
 ! D90   D(21,7,8,9)           -91.4707         estimate D2E/DX2                !
 ! D91   D(21,7,8,19)           93.0322         estimate D2E/DX2                !
 ! D92   D(4,7,17,18)          151.0855         estimate D2E/DX2                !
 ! D93   D(4,7,17,20)           29.1458         estimate D2E/DX2                !
 ! D94   D(4,7,17,30)          -88.6576         estimate D2E/DX2                !
 ! D95   D(8,7,17,18)           29.271          estimate D2E/DX2                !
 ! D96   D(8,7,17,20)          -92.6687         estimate D2E/DX2                !
 ! D97   D(8,7,17,30)          149.5279         estimate D2E/DX2                !
 ! D98   D(21,7,17,18)         -84.9671         estimate D2E/DX2                !
 ! D99   D(21,7,17,20)         153.0932         estimate D2E/DX2                !
 ! D100  D(21,7,17,30)          35.2898         estimate D2E/DX2                !
 ! D101  D(4,7,21,44)           21.9597         estimate D2E/DX2                !
 ! D102  D(8,7,21,44)          150.6916         estimate D2E/DX2                !
 ! D103  D(17,7,21,44)         -99.7009         estimate D2E/DX2                !
 ! D104  D(7,8,9,10)            -6.1834         estimate D2E/DX2                !
 ! D105  D(7,8,9,11)          -179.8046         estimate D2E/DX2                !
 ! D106  D(19,8,9,10)          168.8558         estimate D2E/DX2                !
 ! D107  D(19,8,9,11)           -4.7654         estimate D2E/DX2                !
 ! D108  D(7,8,19,18)            6.3915         estimate D2E/DX2                !
 ! D109  D(9,8,19,18)         -169.057          estimate D2E/DX2                !
 ! D110  D(8,9,10,5)           -34.4505         estimate D2E/DX2                !
 ! D111  D(8,9,10,16)          153.7278         estimate D2E/DX2                !
 ! D112  D(11,9,10,5)          139.1774         estimate D2E/DX2                !
 ! D113  D(11,9,10,16)         -32.6443         estimate D2E/DX2                !
 ! D114  D(8,9,11,12)           80.3379         estimate D2E/DX2                !
 ! D115  D(8,9,11,13)         -100.6728         estimate D2E/DX2                !
 ! D116  D(10,9,11,12)         -93.0073         estimate D2E/DX2                !
 ! D117  D(10,9,11,13)          85.982          estimate D2E/DX2                !
 ! D118  D(9,11,13,14)          80.8224         estimate D2E/DX2                !
 ! D119  D(9,11,13,15)        -152.7236         estimate D2E/DX2                !
 ! D120  D(9,11,13,36)         -36.7546         estimate D2E/DX2                !
 ! D121  D(12,11,13,14)       -100.2365         estimate D2E/DX2                !
 ! D122  D(12,11,13,15)         26.2176         estimate D2E/DX2                !
 ! D123  D(12,11,13,36)        142.1865         estimate D2E/DX2                !
 ! D124  D(11,13,14,37)       -172.9999         estimate D2E/DX2                !
 ! D125  D(11,13,14,38)        -57.1927         estimate D2E/DX2                !
 ! D126  D(11,13,14,62)         65.157          estimate D2E/DX2                !
 ! D127  D(15,13,14,37)         61.7271         estimate D2E/DX2                !
 ! D128  D(15,13,14,38)        177.5343         estimate D2E/DX2                !
 ! D129  D(15,13,14,62)        -60.116          estimate D2E/DX2                !
 ! D130  D(36,13,14,37)        -55.675          estimate D2E/DX2                !
 ! D131  D(36,13,14,38)         60.1322         estimate D2E/DX2                !
 ! D132  D(36,13,14,62)       -177.5181         estimate D2E/DX2                !
 ! D133  D(11,13,15,39)        -59.5486         estimate D2E/DX2                !
 ! D134  D(11,13,15,40)         59.7336         estimate D2E/DX2                !
 ! D135  D(11,13,15,41)        179.2634         estimate D2E/DX2                !
 ! D136  D(14,13,15,39)         66.1815         estimate D2E/DX2                !
 ! D137  D(14,13,15,40)       -174.5363         estimate D2E/DX2                !
 ! D138  D(14,13,15,41)        -55.0064         estimate D2E/DX2                !
 ! D139  D(36,13,15,39)       -175.8531         estimate D2E/DX2                !
 ! D140  D(36,13,15,40)        -56.5709         estimate D2E/DX2                !
 ! D141  D(36,13,15,41)         62.959          estimate D2E/DX2                !
 ! D142  D(13,14,62,63)         63.6923         estimate D2E/DX2                !
 ! D143  D(13,14,62,64)       -177.2851         estimate D2E/DX2                !
 ! D144  D(13,14,62,65)        -57.8951         estimate D2E/DX2                !
 ! D145  D(37,14,62,63)        -58.4183         estimate D2E/DX2                !
 ! D146  D(37,14,62,64)         60.6043         estimate D2E/DX2                !
 ! D147  D(37,14,62,65)        179.9944         estimate D2E/DX2                !
 ! D148  D(38,14,62,63)       -173.3013         estimate D2E/DX2                !
 ! D149  D(38,14,62,64)        -54.2787         estimate D2E/DX2                !
 ! D150  D(38,14,62,65)         65.1114         estimate D2E/DX2                !
 ! D151  D(7,17,18,19)         -27.6731         estimate D2E/DX2                !
 ! D152  D(7,17,18,28)          89.6625         estimate D2E/DX2                !
 ! D153  D(7,17,18,29)        -146.7506         estimate D2E/DX2                !
 ! D154  D(20,17,18,19)         83.8748         estimate D2E/DX2                !
 ! D155  D(20,17,18,28)       -158.7896         estimate D2E/DX2                !
 ! D156  D(20,17,18,29)        -35.2027         estimate D2E/DX2                !
 ! D157  D(30,17,18,19)       -148.7884         estimate D2E/DX2                !
 ! D158  D(30,17,18,28)        -31.4529         estimate D2E/DX2                !
 ! D159  D(30,17,18,29)         92.134          estimate D2E/DX2                !
 ! D160  D(7,17,20,3)          -41.0051         estimate D2E/DX2                !
 ! D161  D(7,17,20,42)          78.0352         estimate D2E/DX2                !
 ! D162  D(7,17,20,43)        -161.3847         estimate D2E/DX2                !
 ! D163  D(18,17,20,3)        -152.9774         estimate D2E/DX2                !
 ! D164  D(18,17,20,42)        -33.9371         estimate D2E/DX2                !
 ! D165  D(18,17,20,43)         86.6431         estimate D2E/DX2                !
 ! D166  D(30,17,20,3)          78.8701         estimate D2E/DX2                !
 ! D167  D(30,17,20,42)       -162.0896         estimate D2E/DX2                !
 ! D168  D(30,17,20,43)        -41.5094         estimate D2E/DX2                !
 ! D169  D(17,18,19,8)          13.6237         estimate D2E/DX2                !
 ! D170  D(28,18,19,8)        -106.7251         estimate D2E/DX2                !
 ! D171  D(29,18,19,8)         136.2091         estimate D2E/DX2                !
 ! D172  D(17,18,28,53)       -177.4686         estimate D2E/DX2                !
 ! D173  D(17,18,28,54)         61.9733         estimate D2E/DX2                !
 ! D174  D(17,18,28,55)        -59.8055         estimate D2E/DX2                !
 ! D175  D(19,18,28,53)        -60.629          estimate D2E/DX2                !
 ! D176  D(19,18,28,54)        178.8129         estimate D2E/DX2                !
 ! D177  D(19,18,28,55)         57.0341         estimate D2E/DX2                !
 ! D178  D(29,18,28,53)         56.1559         estimate D2E/DX2                !
 ! D179  D(29,18,28,54)        -64.4023         estimate D2E/DX2                !
 ! D180  D(29,18,28,55)        173.8189         estimate D2E/DX2                !
 ! D181  D(17,18,29,56)       -178.0734         estimate D2E/DX2                !
 ! D182  D(17,18,29,57)        -57.4519         estimate D2E/DX2                !
 ! D183  D(17,18,29,58)         64.7109         estimate D2E/DX2                !
 ! D184  D(19,18,29,56)         63.7258         estimate D2E/DX2                !
 ! D185  D(19,18,29,57)       -175.6527         estimate D2E/DX2                !
 ! D186  D(19,18,29,58)        -53.4898         estimate D2E/DX2                !
 ! D187  D(28,18,29,56)        -52.6086         estimate D2E/DX2                !
 ! D188  D(28,18,29,57)         68.0129         estimate D2E/DX2                !
 ! D189  D(28,18,29,58)       -169.8243         estimate D2E/DX2                !
 ! D190  D(5,22,23,24)         -24.0374         estimate D2E/DX2                !
 ! D191  D(5,22,23,25)          98.5404         estimate D2E/DX2                !
 ! D192  D(5,22,23,47)        -138.7621         estimate D2E/DX2                !
 ! D193  D(45,22,23,24)         93.0034         estimate D2E/DX2                !
 ! D194  D(45,22,23,25)       -144.4188         estimate D2E/DX2                !
 ! D195  D(45,22,23,47)        -21.7213         estimate D2E/DX2                !
 ! D196  D(46,22,23,24)       -151.2701         estimate D2E/DX2                !
 ! D197  D(46,22,23,25)        -28.6923         estimate D2E/DX2                !
 ! D198  D(46,22,23,47)         94.0052         estimate D2E/DX2                !
 ! D199  D(22,23,24,4)          14.1125         estimate D2E/DX2                !
 ! D200  D(25,23,24,4)        -116.1947         estimate D2E/DX2                !
 ! D201  D(47,23,24,4)         129.4096         estimate D2E/DX2                !
 ! D202  D(22,23,25,26)        175.7461         estimate D2E/DX2                !
 ! D203  D(22,23,25,27)         -1.7256         estimate D2E/DX2                !
 ! D204  D(24,23,25,26)        -62.254          estimate D2E/DX2                !
 ! D205  D(24,23,25,27)        120.2743         estimate D2E/DX2                !
 ! D206  D(47,23,25,26)         52.4329         estimate D2E/DX2                !
 ! D207  D(47,23,25,27)       -125.0388         estimate D2E/DX2                !
 ! D208  D(23,25,26,48)       -177.3968         estimate D2E/DX2                !
 ! D209  D(23,25,26,49)        -57.704          estimate D2E/DX2                !
 ! D210  D(23,25,26,50)         62.4105         estimate D2E/DX2                !
 ! D211  D(27,25,26,48)          0.2552         estimate D2E/DX2                !
 ! D212  D(27,25,26,49)        119.948          estimate D2E/DX2                !
 ! D213  D(27,25,26,50)       -119.9376         estimate D2E/DX2                !
 ! D214  D(23,25,27,51)         -0.4145         estimate D2E/DX2                !
 ! D215  D(23,25,27,52)        179.0041         estimate D2E/DX2                !
 ! D216  D(26,25,27,51)       -177.7814         estimate D2E/DX2                !
 ! D217  D(26,25,27,52)          1.6373         estimate D2E/DX2                !
 --------------------------------------------------------------------------------
 Trust Radius=3.00D-01 FncErr=1.00D-07 GrdErr=1.00D-06
 Number of steps in this run=    390 maximum allowed number of steps=    390.
 GradGradGradGradGradGradGradGradGradGradGradGradGradGradGradGradGradGrad

 Stoichiometry    C26H34O5
 Framework group  C1[X(C26H34O5)]
 Deg. of freedom   189
 Full point group                 C1      NOp   1
 Largest Abelian subgroup         C1      NOp   1
 Largest concise Abelian subgroup C1      NOp   1
                         Standard orientation:                         
 ---------------------------------------------------------------------
 Center     Atomic      Atomic             Coordinates (Angstroms)
 Number     Number       Type             X           Y           Z
 ---------------------------------------------------------------------
      1          6           0        2.388921    0.795271   -2.706889
      2          6           0        2.866235    1.581679   -1.731451
      3          6           0        2.292537    1.526332   -0.339440
      4          6           0        1.616165    0.185265    0.075881
      5          6           0        1.268036   -0.800396   -1.059587
      6          6           0        1.275894   -0.175988   -2.475422
      7          6           0        0.410605    0.632491    0.943041
      8          6           0       -0.924894    0.508171    0.300492
      9          6           0       -1.233652   -0.486813   -0.534975
     10          6           0       -0.138671   -1.405968   -0.918066
     11          6           0       -2.567879   -0.580134   -1.160526
     12          8           0       -2.818149    0.112416   -2.146639
     13          6           0       -3.560046   -1.564165   -0.546703
     14          6           0       -4.244965   -0.972963    0.695452
     15          6           0       -4.556809   -2.051199   -1.597425
     16          8           0       -0.404561   -2.558540   -1.252684
     17          6           0        0.491792    2.132753    1.138725
     18          6           0       -0.984883    2.546338    1.301347
     19          8           0       -1.771309    1.570346    0.575168
     20          6           0        1.206487    2.593013   -0.135051
     21          8           0        0.362048   -0.043413    2.192131
     22          6           0        2.362266   -1.865515   -0.947314
     23          6           0        2.851281   -1.809028    0.490181
     24          8           0        2.548063   -0.491202    0.970191
     25          6           0        2.336548   -2.799570    1.514388
     26          6           0        2.980727   -2.692873    2.876301
     27          6           0        1.421899   -3.758202    1.293037
     28          6           0       -1.438348    2.504112    2.769237
     29          6           0       -1.300535    3.932192    0.732603
     30          1           0        1.085316    2.412934    2.018141
     31          1           0        3.110712    1.726019    0.368207
     32          6           0        3.960791    2.580196   -1.977092
     33          1           0        2.780133    0.870295   -3.719078
     34          1           0        1.352970   -0.979528   -3.220497
     35          1           0        0.335105    0.343274   -2.699263
     36          1           0       -2.987652   -2.443862   -0.223826
     37          1           0       -4.850404   -1.753377    1.173059
     38          1           0       -3.485698   -0.681683    1.430933
     39          1           0       -5.129575   -1.227788   -2.036251
     40          1           0       -4.031565   -2.550984   -2.419067
     41          1           0       -5.262080   -2.767310   -1.163496
     42          1           0        0.529361    2.623410   -0.997695
     43          1           0        1.633657    3.594172   -0.012536
     44          1           0        1.274132   -0.358752    2.354822
     45          1           0        3.211630   -1.593418   -1.588627
     46          1           0        2.067072   -2.866101   -1.275076
     47          1           0        3.944575   -1.905666    0.479977
     48          1           0        2.612049   -3.455766    3.570455
     49          1           0        4.064963   -2.821914    2.792324
     50          1           0        2.782397   -1.716361    3.327926
     51          1           0        0.945850   -3.915196    0.333111
     52          1           0        1.118099   -4.440674    2.082221
     53          1           0       -2.501600    2.758440    2.852179
     54          1           0       -0.866460    3.207343    3.383327
     55          1           0       -1.339095    1.504597    3.202505
     56          1           0       -2.352160    4.191041    0.903941
     57          1           0       -0.676669    4.705362    1.192432
     58          1           0       -1.165356    3.966316   -0.353215
     59          1           0        4.304149    2.566336   -3.016953
     60          1           0        3.611206    3.593419   -1.755413
     61          1           0        4.823282    2.361392   -1.339304
     62          6           0       -5.138264    0.230792    0.424221
     63          1           0       -5.986149   -0.034594   -0.213857
     64          1           0       -5.543317    0.612721    1.367152
     65          1           0       -4.585042    1.044289   -0.053681
 ---------------------------------------------------------------------
 Rotational constants (GHZ):      0.1981696      0.1403058      0.1205770
 Standard basis: 6-31G(d) (6D, 7F)
 There are   533 symmetry adapted basis functions of A   symmetry.
 Integral buffers will be    131072 words long.
 Raffenetti 2 integral format.
 Two-electron integral symmetry is turned on.
   533 basis functions,  1004 primitive gaussians,   533 cartesian basis functions
   115 alpha electrons      115 beta electrons
       nuclear repulsion energy      3554.4447550993 Hartrees.
 NAtoms=   65 NActive=   65 NUniq=   65 SFac= 1.00D+00 NAtFMM=   50 NAOKFM=T Big=T
 One-electron integrals computed using PRISM.
 NBasis=   533 RedAO= T  NBF=   533
 NBsUse=   533 1.00D-06 NBFU=   533
 Harris functional with IExCor=  402 diagonalized for initial guess.
 ExpMin= 1.61D-01 ExpMax= 5.48D+03 ExpMxC= 8.25D+02 IAcc=1 IRadAn=         1 AccDes= 0.00D+00
 HarFok:  IExCor=  402 AccDes= 0.00D+00 IRadAn=         1 IDoV= 1
 ScaDFX=  1.000000  1.000000  1.000000  1.000000
 FoFCou: FMM=F IPFlag=           0 FMFlag=      100000 FMFlg1=        2001
         NFxFlg=           0 DoJE=T BraDBF=F KetDBF=T FulRan=T
         Omega=  0.000000  0.000000  1.000000  0.000000  0.000000 ICntrl=     500 IOpCl=  0
         NMat0=    1 NMatS0=    1 NMatT0=    0 NMatD0=    1 NMtDS0=    0 NMtDT0=    0
         I1Cent=           4 NGrid=           0.
 Petite list used in FoFCou.
 Initial guess orbital symmetries:
       Occupied  (A) (A) (A) (A) (A) (A) (A) (A) (A) (A) (A) (A)
                 (A) (A) (A) (A) (A) (A) (A) (A) (A) (A) (A) (A)
                 (A) (A) (A) (A) (A) (A) (A) (A) (A) (A) (A) (A)
                 (A) (A) (A) (A) (A) (A) (A) (A) (A) (A) (A) (A)
                 (A) (A) (A) (A) (A) (A) (A) (A) (A) (A) (A) (A)
                 (A) (A) (A) (A) (A) (A) (A) (A) (A) (A) (A) (A)
                 (A) (A) (A) (A) (A) (A) (A) (A) (A) (A) (A) (A)
                 (A) (A) (A) (A) (A) (A) (A) (A) (A) (A) (A) (A)
                 (A) (A) (A) (A) (A) (A) (A) (A) (A) (A) (A) (A)
                 (A) (A) (A) (A) (A) (A) (A)
       Virtual   (A) (A) (A) (A) (A) (A) (A) (A) (A) (A) (A) (A)
                 (A) (A) (A) (A) (A) (A) (A) (A) (A) (A) (A) (A)
                 (A) (A) (A) (A) (A) (A) (A) (A) (A) (A) (A) (A)
                 (A) (A) (A) (A) (A) (A) (A) (A) (A) (A) (A) (A)
                 (A) (A) (A) (A) (A) (A) (A) (A) (A) (A) (A) (A)
                 (A) (A) (A) (A) (A) (A) (A) (A) (A) (A) (A) (A)
                 (A) (A) (A) (A) (A) (A) (A) (A) (A) (A) (A) (A)
                 (A) (A) (A) (A) (A) (A) (A) (A) (A) (A) (A) (A)
                 (A) (A) (A) (A) (A) (A) (A) (A) (A) (A) (A) (A)
                 (A) (A) (A) (A) (A) (A) (A) (A) (A) (A) (A) (A)
                 (A) (A) (A) (A) (A) (A) (A) (A) (A) (A) (A) (A)
                 (A) (A) (A) (A) (A) (A) (A) (A) (A) (A) (A) (A)
                 (A) (A) (A) (A) (A) (A) (A) (A) (A) (A) (A) (A)
                 (A) (A) (A) (A) (A) (A) (A) (A) (A) (A) (A) (A)
                 (A) (A) (A) (A) (A) (A) (A) (A) (A) (A) (A) (A)
                 (A) (A) (A) (A) (A) (A) (A) (A) (A) (A) (A) (A)
                 (A) (A) (A) (A) (A) (A) (A) (A) (A) (A) (A) (A)
                 (A) (A) (A) (A) (A) (A) (A) (A) (A) (A) (A) (A)
                 (A) (A) (A) (A) (A) (A) (A) (A) (A) (A) (A) (A)
                 (A) (A) (A) (A) (A) (A) (A) (A) (A) (A) (A) (A)
                 (A) (A) (A) (A) (A) (A) (A) (A) (A) (A) (A) (A)
                 (A) (A) (A) (A) (A) (A) (A) (A) (A) (A) (A) (A)
                 (A) (A) (A) (A) (A) (A) (A) (A) (A) (A) (A) (A)
                 (A) (A) (A) (A) (A) (A) (A) (A) (A) (A) (A) (A)
                 (A) (A) (A) (A) (A) (A) (A) (A) (A) (A) (A) (A)
                 (A) (A) (A) (A) (A) (A) (A) (A) (A) (A) (A) (A)
                 (A) (A) (A) (A) (A) (A) (A) (A) (A) (A) (A) (A)
                 (A) (A) (A) (A) (A) (A) (A) (A) (A) (A) (A) (A)
                 (A) (A) (A) (A) (A) (A) (A) (A) (A) (A) (A) (A)
                 (A) (A) (A) (A) (A) (A) (A) (A) (A) (A) (A) (A)
                 (A) (A) (A) (A) (A) (A) (A) (A) (A) (A) (A) (A)
                 (A) (A) (A) (A) (A) (A) (A) (A) (A) (A) (A) (A)
                 (A) (A) (A) (A) (A) (A) (A) (A) (A) (A) (A) (A)
                 (A) (A) (A) (A) (A) (A) (A) (A) (A) (A) (A) (A)
                 (A) (A) (A) (A) (A) (A) (A) (A) (A) (A)
 The electronic state of the initial guess is 1-A.
 Requested convergence on RMS density matrix=1.00D-08 within 128 cycles.
 Requested convergence on MAX density matrix=1.00D-06.
 Requested convergence on             energy=1.00D-06.
 No special actions if energy rises.
 Integral accuracy reduced to 1.0D-05 until final iterations.
 Initial convergence to 1.0D-05 achieved.  Increase integral accuracy.
 SCF Done:  E(RB3LYP) =  -1387.30057639     A.U. after   16 cycles
             Convg  =    0.4052D-08             -V/T =  2.0090

 **********************************************************************

            Population analysis using the SCF density.

 **********************************************************************

 Orbital symmetries:
       Occupied  (A) (A) (A) (A) (A) (A) (A) (A) (A) (A) (A) (A)
                 (A) (A) (A) (A) (A) (A) (A) (A) (A) (A) (A) (A)
                 (A) (A) (A) (A) (A) (A) (A) (A) (A) (A) (A) (A)
                 (A) (A) (A) (A) (A) (A) (A) (A) (A) (A) (A) (A)
                 (A) (A) (A) (A) (A) (A) (A) (A) (A) (A) (A) (A)
                 (A) (A) (A) (A) (A) (A) (A) (A) (A) (A) (A) (A)
                 (A) (A) (A) (A) (A) (A) (A) (A) (A) (A) (A) (A)
                 (A) (A) (A) (A) (A) (A) (A) (A) (A) (A) (A) (A)
                 (A) (A) (A) (A) (A) (A) (A) (A) (A) (A) (A) (A)
                 (A) (A) (A) (A) (A) (A) (A)
       Virtual   (A) (A) (A) (A) (A) (A) (A) (A) (A) (A) (A) (A)
                 (A) (A) (A) (A) (A) (A) (A) (A) (A) (A) (A) (A)
                 (A) (A) (A) (A) (A) (A) (A) (A) (A) (A) (A) (A)
                 (A) (A) (A) (A) (A) (A) (A) (A) (A) (A) (A) (A)
                 (A) (A) (A) (A) (A) (A) (A) (A) (A) (A) (A) (A)
                 (A) (A) (A) (A) (A) (A) (A) (A) (A) (A) (A) (A)
                 (A) (A) (A) (A) (A) (A) (A) (A) (A) (A) (A) (A)
                 (A) (A) (A) (A) (A) (A) (A) (A) (A) (A) (A) (A)
                 (A) (A) (A) (A) (A) (A) (A) (A) (A) (A) (A) (A)
                 (A) (A) (A) (A) (A) (A) (A) (A) (A) (A) (A) (A)
                 (A) (A) (A) (A) (A) (A) (A) (A) (A) (A) (A) (A)
                 (A) (A) (A) (A) (A) (A) (A) (A) (A) (A) (A) (A)
                 (A) (A) (A) (A) (A) (A) (A) (A) (A) (A) (A) (A)
                 (A) (A) (A) (A) (A) (A) (A) (A) (A) (A) (A) (A)
                 (A) (A) (A) (A) (A) (A) (A) (A) (A) (A) (A) (A)
                 (A) (A) (A) (A) (A) (A) (A) (A) (A) (A) (A) (A)
                 (A) (A) (A) (A) (A) (A) (A) (A) (A) (A) (A) (A)
                 (A) (A) (A) (A) (A) (A) (A) (A) (A) (A) (A) (A)
                 (A) (A) (A) (A) (A) (A) (A) (A) (A) (A) (A) (A)
                 (A) (A) (A) (A) (A) (A) (A) (A) (A) (A) (A) (A)
                 (A) (A) (A) (A) (A) (A) (A) (A) (A) (A) (A) (A)
                 (A) (A) (A) (A) (A) (A) (A) (A) (A) (A) (A) (A)
                 (A) (A) (A) (A) (A) (A) (A) (A) (A) (A) (A) (A)
                 (A) (A) (A) (A) (A) (A) (A) (A) (A) (A) (A) (A)
                 (A) (A) (A) (A) (A) (A) (A) (A) (A) (A) (A) (A)
                 (A) (A) (A) (A) (A) (A) (A) (A) (A) (A) (A) (A)
                 (A) (A) (A) (A) (A) (A) (A) (A) (A) (A) (A) (A)
                 (A) (A) (A) (A) (A) (A) (A) (A) (A) (A) (A) (A)
                 (A) (A) (A) (A) (A) (A) (A) (A) (A) (A) (A) (A)
                 (A) (A) (A) (A) (A) (A) (A) (A) (A) (A) (A) (A)
                 (A) (A) (A) (A) (A) (A) (A) (A) (A) (A) (A) (A)
                 (A) (A) (A) (A) (A) (A) (A) (A) (A) (A) (A) (A)
                 (A) (A) (A) (A) (A) (A) (A) (A) (A) (A) (A) (A)
                 (A) (A) (A) (A) (A) (A) (A) (A) (A) (A) (A) (A)
                 (A) (A) (A) (A) (A) (A) (A) (A) (A) (A)
 The electronic state is 1-A.
 Alpha  occ. eigenvalues --  -19.19290 -19.16888 -19.14241 -19.13755 -19.13570
 Alpha  occ. eigenvalues --  -10.27932 -10.27055 -10.26307 -10.26288 -10.25805
 Alpha  occ. eigenvalues --  -10.25193 -10.24592 -10.21960 -10.20258 -10.19790
 Alpha  occ. eigenvalues --  -10.19699 -10.19621 -10.19604 -10.19438 -10.19109
 Alpha  occ. eigenvalues --  -10.18982 -10.18784 -10.18536 -10.18429 -10.18363
 Alpha  occ. eigenvalues --  -10.18252 -10.17779 -10.17559 -10.17363 -10.16138
 Alpha  occ. eigenvalues --  -10.16110  -1.08274  -1.06019  -1.03615  -1.02583
 Alpha  occ. eigenvalues --   -1.01554  -0.87631  -0.83971  -0.82502  -0.81263
 Alpha  occ. eigenvalues --   -0.80224  -0.79772  -0.77005  -0.74421  -0.73497
 Alpha  occ. eigenvalues --   -0.72365  -0.71597  -0.69474  -0.68677  -0.67912
 Alpha  occ. eigenvalues --   -0.65899  -0.63982  -0.63616  -0.62059  -0.61075
 Alpha  occ. eigenvalues --   -0.59150  -0.58865  -0.56849  -0.54452  -0.53542
 Alpha  occ. eigenvalues --   -0.53005  -0.51985  -0.50729  -0.50101  -0.49370
 Alpha  occ. eigenvalues --   -0.47724  -0.47181  -0.47107  -0.46541  -0.45682
 Alpha  occ. eigenvalues --   -0.45094  -0.44842  -0.44498  -0.44003  -0.43365
 Alpha  occ. eigenvalues --   -0.42922  -0.42479  -0.42121  -0.41724  -0.41506
 Alpha  occ. eigenvalues --   -0.41180  -0.40613  -0.40081  -0.39921  -0.39676
 Alpha  occ. eigenvalues --   -0.38824  -0.38553  -0.38371  -0.38028  -0.37772
 Alpha  occ. eigenvalues --   -0.37392  -0.37137  -0.36989  -0.36494  -0.36228
 Alpha  occ. eigenvalues --   -0.35894  -0.35226  -0.34915  -0.34757  -0.34125
 Alpha  occ. eigenvalues --   -0.33893  -0.33649  -0.33113  -0.32604  -0.32192
 Alpha  occ. eigenvalues --   -0.31669  -0.31485  -0.31425  -0.27316  -0.26842
 Alpha  occ. eigenvalues --   -0.25238  -0.24864  -0.24292  -0.23720  -0.23063
 Alpha virt. eigenvalues --   -0.04531  -0.01720   0.01116   0.01752   0.03083
 Alpha virt. eigenvalues --    0.06416   0.08476   0.08917   0.09399   0.10116
 Alpha virt. eigenvalues --    0.10340   0.10951   0.11467   0.11747   0.12693
 Alpha virt. eigenvalues --    0.13112   0.13364   0.13667   0.13892   0.14134
 Alpha virt. eigenvalues --    0.14643   0.14786   0.15405   0.15493   0.15867
 Alpha virt. eigenvalues --    0.16268   0.16679   0.16781   0.17161   0.17429
 Alpha virt. eigenvalues --    0.17865   0.18257   0.18850   0.19327   0.19447
 Alpha virt. eigenvalues --    0.19517   0.19691   0.19937   0.20343   0.20847
 Alpha virt. eigenvalues --    0.21083   0.21419   0.22045   0.22217   0.22551
 Alpha virt. eigenvalues --    0.23560   0.23797   0.24235   0.24344   0.24524
 Alpha virt. eigenvalues --    0.25017   0.25381   0.25807   0.25945   0.26758
 Alpha virt. eigenvalues --    0.27282   0.27421   0.28295   0.29152   0.31387
 Alpha virt. eigenvalues --    0.32000   0.32629   0.33005   0.33680   0.34637
 Alpha virt. eigenvalues --    0.35212   0.36029   0.37597   0.38989   0.40303
 Alpha virt. eigenvalues --    0.40968   0.43937   0.46581   0.47103   0.48264
 Alpha virt. eigenvalues --    0.48754   0.49926   0.50810   0.51552   0.51881
 Alpha virt. eigenvalues --    0.52324   0.52692   0.53185   0.53468   0.53818
 Alpha virt. eigenvalues --    0.54361   0.54684   0.55174   0.55858   0.56126
 Alpha virt. eigenvalues --    0.57051   0.57476   0.58680   0.58819   0.59250
 Alpha virt. eigenvalues --    0.59682   0.60304   0.61072   0.61293   0.61541
 Alpha virt. eigenvalues --    0.62501   0.63064   0.63478   0.63974   0.64729
 Alpha virt. eigenvalues --    0.65049   0.65667   0.66471   0.66733   0.67818
 Alpha virt. eigenvalues --    0.67875   0.68906   0.69306   0.69710   0.70552
 Alpha virt. eigenvalues --    0.71291   0.71747   0.72281   0.73419   0.73768
 Alpha virt. eigenvalues --    0.74329   0.75040   0.75320   0.75786   0.76242
 Alpha virt. eigenvalues --    0.76748   0.77718   0.77890   0.78795   0.79525
 Alpha virt. eigenvalues --    0.80188   0.80237   0.81285   0.81697   0.82072
 Alpha virt. eigenvalues --    0.82810   0.83171   0.84219   0.84413   0.84864
 Alpha virt. eigenvalues --    0.85348   0.85783   0.86193   0.86556   0.87176
 Alpha virt. eigenvalues --    0.87365   0.87835   0.88573   0.89049   0.89272
 Alpha virt. eigenvalues --    0.89527   0.89593   0.89993   0.90157   0.90506
 Alpha virt. eigenvalues --    0.90818   0.90962   0.91539   0.91707   0.92274
 Alpha virt. eigenvalues --    0.92674   0.93081   0.93201   0.93850   0.94244
 Alpha virt. eigenvalues --    0.95231   0.95716   0.96036   0.96693   0.97197
 Alpha virt. eigenvalues --    0.98108   0.98251   0.98760   0.99128   0.99723
 Alpha virt. eigenvalues --    1.00620   1.02003   1.02431   1.03099   1.03538
 Alpha virt. eigenvalues --    1.03628   1.04229   1.05453   1.05794   1.08327
 Alpha virt. eigenvalues --    1.09173   1.11345   1.11478   1.12010   1.12888
 Alpha virt. eigenvalues --    1.14076   1.14152   1.14458   1.16010   1.16405
 Alpha virt. eigenvalues --    1.17341   1.18640   1.19425   1.19887   1.21441
 Alpha virt. eigenvalues --    1.22765   1.23258   1.24601   1.26179   1.27406
 Alpha virt. eigenvalues --    1.29273   1.29874   1.31697   1.32650   1.33687
 Alpha virt. eigenvalues --    1.33953   1.35604   1.38351   1.38537   1.39704
 Alpha virt. eigenvalues --    1.41853   1.43692   1.44664   1.45222   1.46626
 Alpha virt. eigenvalues --    1.48371   1.48771   1.51303   1.51619   1.53658
 Alpha virt. eigenvalues --    1.54078   1.56310   1.56870   1.57431   1.58491
 Alpha virt. eigenvalues --    1.58652   1.60730   1.61231   1.63674   1.64882
 Alpha virt. eigenvalues --    1.65964   1.66853   1.67609   1.68430   1.69547
 Alpha virt. eigenvalues --    1.70645   1.72775   1.73404   1.73536   1.74623
 Alpha virt. eigenvalues --    1.76235   1.76773   1.76875   1.77798   1.79057
 Alpha virt. eigenvalues --    1.79401   1.79924   1.80366   1.81118   1.82054
 Alpha virt. eigenvalues --    1.82128   1.83033   1.84833   1.85006   1.86195
 Alpha virt. eigenvalues --    1.86692   1.87166   1.87658   1.88112   1.88983
 Alpha virt. eigenvalues --    1.89638   1.90404   1.90728   1.91519   1.92402
 Alpha virt. eigenvalues --    1.92812   1.93081   1.94184   1.95264   1.95866
 Alpha virt. eigenvalues --    1.96723   1.97791   1.97983   1.98679   1.98982
 Alpha virt. eigenvalues --    1.99333   2.00636   2.00684   2.01182   2.01735
 Alpha virt. eigenvalues --    2.02904   2.04193   2.04636   2.05111   2.06392
 Alpha virt. eigenvalues --    2.07142   2.08162   2.09305   2.09463   2.10298
 Alpha virt. eigenvalues --    2.10905   2.11253   2.12682   2.13313   2.13594
 Alpha virt. eigenvalues --    2.14680   2.15623   2.16030   2.16724   2.18136
 Alpha virt. eigenvalues --    2.18828   2.20005   2.21487   2.22243   2.22659
 Alpha virt. eigenvalues --    2.23116   2.24177   2.25937   2.27137   2.27660
 Alpha virt. eigenvalues --    2.28563   2.28758   2.29649   2.30024   2.30903
 Alpha virt. eigenvalues --    2.31081   2.32462   2.33255   2.34138   2.34267
 Alpha virt. eigenvalues --    2.35787   2.36528   2.36603   2.38424   2.39244
 Alpha virt. eigenvalues --    2.40666   2.41274   2.42034   2.43723   2.43855
 Alpha virt. eigenvalues --    2.45495   2.46058   2.47495   2.48422   2.48834
 Alpha virt. eigenvalues --    2.50282   2.51130   2.52163   2.53698   2.54663
 Alpha virt. eigenvalues --    2.56205   2.57483   2.58334   2.60589   2.61849
 Alpha virt. eigenvalues --    2.62485   2.63500   2.64286   2.64743   2.65433
 Alpha virt. eigenvalues --    2.66618   2.68298   2.69050   2.69883   2.71536
 Alpha virt. eigenvalues --    2.72683   2.74980   2.75860   2.76506   2.77761
 Alpha virt. eigenvalues --    2.79067   2.79901   2.80227   2.81773   2.84630
 Alpha virt. eigenvalues --    2.88338   2.90679   2.93826   2.94418   2.95275
 Alpha virt. eigenvalues --    2.96737   2.98790   3.00646   3.01659   3.03251
 Alpha virt. eigenvalues --    3.06665   3.07505   3.12311   3.18087   3.20149
 Alpha virt. eigenvalues --    3.20803   3.28884   4.00971   4.07546   4.12595
 Alpha virt. eigenvalues --    4.13369   4.15849   4.17926   4.19055   4.19456
 Alpha virt. eigenvalues --    4.23239   4.26250   4.26788   4.29206   4.31479
 Alpha virt. eigenvalues --    4.32917   4.35012   4.38461   4.41368   4.42961
 Alpha virt. eigenvalues --    4.47158   4.50160   4.54839   4.57847   4.62891
 Alpha virt. eigenvalues --    4.65172   4.67825   4.71225   4.75550   4.78042
 Alpha virt. eigenvalues --    4.90266   4.95894   5.26456
          Condensed to atoms (all electrons):
 Mulliken atomic charges:
              1
     1  C   -0.199741
     2  C    0.202804
     3  C   -0.200878
     4  C    0.321181
     5  C   -0.039521
     6  C   -0.330357
     7  C    0.207463
     8  C    0.420918
     9  C   -0.101138
    10  C    0.418998
    11  C    0.417962
    12  O   -0.457398
    13  C   -0.156512
    14  C   -0.266272
    15  C   -0.451016
    16  O   -0.500443
    17  C   -0.153563
    18  C    0.306716
    19  O   -0.536553
    20  C   -0.306645
    21  O   -0.677320
    22  C   -0.328673
    23  C    0.090536
    24  O   -0.581507
    25  C    0.187390
    26  C   -0.509944
    27  C   -0.404825
    28  C   -0.460685
    29  C   -0.462745
    30  H    0.144138
    31  H    0.150194
    32  C   -0.519342
    33  H    0.126003
    34  H    0.163846
    35  H    0.182265
    36  H    0.161575
    37  H    0.138801
    38  H    0.149797
    39  H    0.164446
    40  H    0.153632
    41  H    0.135300
    42  H    0.165295
    43  H    0.148615
    44  H    0.429949
    45  H    0.153123
    46  H    0.185957
    47  H    0.134722
    48  H    0.157693
    49  H    0.151864
    50  H    0.155428
    51  H    0.173681
    52  H    0.136402
    53  H    0.149756
    54  H    0.139473
    55  H    0.183543
    56  H    0.158489
    57  H    0.148185
    58  H    0.160482
    59  H    0.157345
    60  H    0.156305
    61  H    0.155889
    62  C   -0.450785
    63  H    0.145881
    64  H    0.136852
    65  H    0.166971
 Sum of Mulliken atomic charges =   0.00000
 Mulliken charges with hydrogens summed into heavy atoms:
              1
     1  C   -0.073738
     2  C    0.202804
     3  C   -0.050684
     4  C    0.321181
     5  C   -0.039521
     6  C    0.015754
     7  C    0.207463
     8  C    0.420918
     9  C   -0.101138
    10  C    0.418998
    11  C    0.417962
    12  O   -0.457398
    13  C    0.005062
    14  C    0.022326
    15  C    0.002362
    16  O   -0.500443
    17  C   -0.009425
    18  C    0.306716
    19  O   -0.536553
    20  C    0.007264
    21  O   -0.247371
    22  C    0.010407
    23  C    0.225258
    24  O   -0.581507
    25  C    0.187390
    26  C   -0.044959
    27  C   -0.094742
    28  C    0.012088
    29  C    0.004410
    32  C   -0.049804
    62  C   -0.001081
 Sum of Mulliken charges with hydrogens summed into heavy atoms =   0.00000
 Electronic spatial extent (au):  <R**2>=          10947.8304
 Charge=              0.0000 electrons
 Dipole moment (field-independent basis, Debye):
    X=              3.8528    Y=              2.3495    Z=              1.7112  Tot=              4.8262
 Quadrupole moment (field-independent basis, Debye-Ang):
   XX=           -180.3802   YY=           -178.7458   ZZ=           -186.6442
   XY=              2.1059   XZ=             -8.2895   YZ=              0.1969
 Traceless Quadrupole moment (field-independent basis, Debye-Ang):
   XX=              1.5432   YY=              3.1776   ZZ=             -4.7208
   XY=              2.1059   XZ=             -8.2895   YZ=              0.1969
 Octapole moment (field-independent basis, Debye-Ang**2):
  XXX=             10.5519  YYY=             36.6446  ZZZ=              8.2685  XYY=              5.8601
  XXY=            -16.0262  XXZ=             17.9777  XZZ=             30.0961  YZZ=             -2.0759
  YYZ=             27.1910  XYZ=             -7.6388
 Hexadecapole moment (field-independent basis, Debye-Ang**3):
 XXXX=          -7300.4648 YYYY=          -4479.7877 ZZZZ=          -2808.7026 XXXY=             36.5545
 XXXZ=            -41.5778 YYYX=             -1.4595 YYYZ=            -13.3087 ZZZX=            -30.1433
 ZZZY=              2.2457 XXYY=          -1936.4636 XXZZ=          -1715.2927 YYZZ=          -1190.8379
 XXYZ=              1.9855 YYXZ=              5.8352 ZZXY=            -13.5203
 N-N= 3.554444755099D+03 E-N=-1.033548974047D+04  KE= 1.374863864104D+03
 Calling FoFJK, ICntrl=      2127 FMM=T ISym2X=0 I1Cent= 0 IOpClX= 0 NMat=1 NMatS=1 NMatT=0.
 ***** Axes restored to original set *****
 -------------------------------------------------------------------
 Center     Atomic                   Forces (Hartrees/Bohr)
 Number     Number              X              Y              Z
 -------------------------------------------------------------------
      1        6           0.009880607    0.000676129    0.001610755
      2        6          -0.009701799   -0.005682617    0.004388439
      3        6          -0.005836358   -0.009415013   -0.002804819
      4        6           0.012584281   -0.005562526    0.007065356
      5        6          -0.007205142    0.002941115    0.004218284
      6        6          -0.007525386   -0.008888125   -0.005008740
      7        6           0.021764933    0.017074232    0.007997436
      8        6          -0.006721803   -0.002898341   -0.024839600
      9        6           0.011722210   -0.007596506    0.009139807
     10        6          -0.013656514    0.019710998   -0.002870896
     11        6          -0.020738990   -0.003586451   -0.016443511
     12        8           0.004874789    0.012369608    0.011591742
     13        6          -0.010577220   -0.001483239    0.002233011
     14        6           0.008062162    0.002914619   -0.000881208
     15        6          -0.005570196   -0.002026224   -0.004512137
     16        8           0.004058489   -0.009310624    0.001817834
     17        6           0.002072972   -0.006590848   -0.011953126
     18        6           0.029417567    0.005321015   -0.015208509
     19        8          -0.009512188   -0.009803966    0.033291545
     20        6           0.009016173   -0.001749847   -0.006680534
     21        8          -0.004430564    0.005631119    0.004143651
     22        6          -0.002818216   -0.007357412    0.008379218
     23        6          -0.000993146    0.006537496    0.015925816
     24        8          -0.004355592   -0.009030167   -0.013360140
     25        6          -0.011744912    0.015771591    0.007809095
     26        6          -0.000247646    0.001006823   -0.001167979
     27        6           0.001307602   -0.008875441   -0.001351143
     28        6          -0.001550433    0.008315830    0.001970318
     29        6          -0.008958377   -0.000543373   -0.006846528
     30        1          -0.003244961    0.002227247    0.000484562
     31        1          -0.001841852    0.005643351    0.000697307
     32        6          -0.002554452   -0.000571429    0.000277857
     33        1           0.000630295   -0.000916700   -0.000015171
     34        1           0.000422881    0.004870437    0.000040421
     35        1          -0.001250371    0.005782101   -0.000512149
     36        1           0.004158590   -0.002655334    0.001077624
     37        1          -0.001658655   -0.000642103    0.002857904
     38        1           0.000047818   -0.000173691    0.002056666
     39        1           0.000650717   -0.000044599    0.001010720
     40        1           0.000106291    0.000455859   -0.000102247
     41        1           0.000518063    0.001228743    0.000507758
     42        1           0.000257836    0.000338465    0.001208800
     43        1          -0.002221011   -0.001777125   -0.001243271
     44        1          -0.002968217   -0.001140316   -0.002662770
     45        1           0.000786424    0.000914402   -0.004276003
     46        1           0.000797253    0.004662123   -0.005733218
     47        1           0.004597068   -0.000222887    0.000439168
     48        1          -0.001798259   -0.000751290   -0.001473415
     49        1           0.003750280   -0.002069405    0.000245874
     50        1           0.004146659   -0.002024135    0.001423487
     51        1          -0.000673916   -0.000917856   -0.002494858
     52        1           0.001697390   -0.000067769    0.000406590
     53        1           0.000284228   -0.003290408   -0.002351166
     54        1           0.000141280   -0.000797286   -0.000442639
     55        1           0.000491703   -0.004542447    0.003211007
     56        1           0.002013334    0.001465134    0.001655699
     57        1           0.000038878    0.000711100    0.001341586
     58        1           0.001468190   -0.001768053    0.002531472
     59        1          -0.000631439    0.000877361   -0.000347463
     60        1           0.004063563   -0.001534188   -0.000171342
     61        1           0.004123718   -0.001070512    0.000041680
     62        6           0.001308437    0.000571985   -0.004290155
     63        1          -0.000357389   -0.000650170   -0.001513921
     64        1           0.000474742    0.000537423   -0.000842619
     65        1          -0.000392424   -0.000527885   -0.000697209
 -------------------------------------------------------------------
 Cartesian Forces:  Max     0.033291545 RMS     0.006917298

 GradGradGradGradGradGradGradGradGradGradGradGradGradGradGradGradGradGrad
 Berny optimization.
 Internal  Forces:  Max     0.020127796 RMS     0.003479350
 Search for a local minimum.
 Step number   1 out of a maximum of  390
 All quantities printed in internal units (Hartrees-Bohrs-Radians)
 Mixed Optimization -- RFO/linear search
 Second derivative matrix not updated -- first step.
 ITU=  0
     Eigenvalues ---    0.00278   0.00280   0.00357   0.00396   0.00418
     Eigenvalues ---    0.00457   0.00530   0.00568   0.00578   0.00599
     Eigenvalues ---    0.00629   0.00668   0.00698   0.00742   0.00805
     Eigenvalues ---    0.01076   0.01122   0.01226   0.01278   0.01461
     Eigenvalues ---    0.01498   0.01704   0.01726   0.01834   0.02075
     Eigenvalues ---    0.02569   0.02838   0.02839   0.03128   0.03161
     Eigenvalues ---    0.03323   0.03609   0.03664   0.03894   0.04077
     Eigenvalues ---    0.04280   0.04348   0.04462   0.04466   0.04619
     Eigenvalues ---    0.04774   0.04781   0.04943   0.05123   0.05289
     Eigenvalues ---    0.05302   0.05340   0.05405   0.05420   0.05458
     Eigenvalues ---    0.05502   0.05565   0.05573   0.05595   0.05613
     Eigenvalues ---    0.05707   0.05840   0.05854   0.05928   0.06135
     Eigenvalues ---    0.06573   0.06835   0.07043   0.07075   0.07157
     Eigenvalues ---    0.07217   0.07319   0.07340   0.07580   0.08102
     Eigenvalues ---    0.08348   0.08723   0.08724   0.09127   0.09612
     Eigenvalues ---    0.09785   0.10323   0.11505   0.11896   0.12480
     Eigenvalues ---    0.12619   0.13335   0.14506   0.15318   0.15987
     Eigenvalues ---    0.16000   0.16000   0.16000   0.16000   0.16000
     Eigenvalues ---    0.16000   0.16000   0.16000   0.16000   0.16000
     Eigenvalues ---    0.16000   0.16000   0.16000   0.16000   0.16000
     Eigenvalues ---    0.16000   0.16000   0.16000   0.16000   0.16000
     Eigenvalues ---    0.16427   0.16969   0.17297   0.18153   0.18275
     Eigenvalues ---    0.19419   0.20816   0.21946   0.22110   0.22724
     Eigenvalues ---    0.23340   0.24640   0.24849   0.24972   0.24985
     Eigenvalues ---    0.24986   0.24996   0.25000   0.26075   0.26581
     Eigenvalues ---    0.26885   0.27432   0.27814   0.28253   0.28325
     Eigenvalues ---    0.28794   0.28809   0.28869   0.29339   0.29610
     Eigenvalues ---    0.29771   0.30047   0.30362   0.30571   0.30857
     Eigenvalues ---    0.31315   0.31699   0.32188   0.33195   0.33680
     Eigenvalues ---    0.33846   0.33847   0.33897   0.33944   0.33948
     Eigenvalues ---    0.33979   0.34001   0.34007   0.34074   0.34075
     Eigenvalues ---    0.34085   0.34152   0.34201   0.34202   0.34222
     Eigenvalues ---    0.34228   0.34240   0.34258   0.34261   0.34266
     Eigenvalues ---    0.34267   0.34271   0.34271   0.34296   0.34352
     Eigenvalues ---    0.34367   0.34373   0.34386   0.34411   0.34968
     Eigenvalues ---    0.35074   0.35199   0.35643   0.35851   0.36610
     Eigenvalues ---    0.37872   0.40966   0.44677   0.50635   0.53412
     Eigenvalues ---    0.54473   0.56464   0.90786   0.91394
 RFO step:  Lambda=-2.28140413D-02 EMin= 2.77596295D-03
 Linear search not attempted -- first point.
 Iteration  1 RMS(Cart)=  0.04139601 RMS(Int)=  0.00063409
 Iteration  2 RMS(Cart)=  0.00109268 RMS(Int)=  0.00024811
 Iteration  3 RMS(Cart)=  0.00000078 RMS(Int)=  0.00024811
 Variable       Old X    -DE/DX   Delta X   Delta X   Delta X     New X
                                 (Linear)    (Quad)   (Total)
    R1        2.53374  -0.00272   0.00000  -0.00517  -0.00521   2.52854
    R2        2.82560   0.00786   0.00000   0.02279   0.02269   2.84828
    R3        2.05555   0.00047   0.00000   0.00126   0.00126   2.05681
    R4        2.84709   0.00433   0.00000   0.01120   0.01126   2.85835
    R5        2.83801   0.00460   0.00000   0.01334   0.01334   2.85135
    R6        2.94484   0.00583   0.00000   0.01348   0.01343   2.95827
    R7        2.90249   0.01021   0.00000   0.03404   0.03397   2.93646
    R8        2.07874  -0.00203   0.00000  -0.00563  -0.00563   2.07311
    R9        2.91656   0.01057   0.00000   0.03048   0.03045   2.94701
   R10        2.93081   0.00938   0.00000   0.03484   0.03516   2.96597
   R11        2.75526  -0.00332   0.00000  -0.00801  -0.00797   2.74730
   R12        2.92422   0.00402   0.00000   0.01448   0.01445   2.93866
   R13        2.90648   0.00634   0.00000   0.01371   0.01338   2.91985
   R14        2.89346   0.00438   0.00000   0.01280   0.01264   2.90610
   R15        2.07591  -0.00129   0.00000  -0.00358  -0.00358   2.07233
   R16        2.07425   0.00213   0.00000   0.00589   0.00589   2.08013
   R17        2.81048   0.01052   0.00000   0.02517   0.02491   2.83538
   R18        2.86321   0.01495   0.00000   0.05272   0.05229   2.91551
   R19        2.68543   0.00103   0.00000   0.00266   0.00274   2.68817
   R20        2.52356   0.01288   0.00000   0.02257   0.02270   2.54627
   R21        2.61854  -0.01770   0.00000  -0.04101  -0.04079   2.57775
   R22        2.79692   0.00037   0.00000  -0.00380  -0.00363   2.79328
   R23        2.79026   0.02013   0.00000   0.05403   0.05403   2.84430
   R24        2.32297  -0.00568   0.00000  -0.00606  -0.00606   2.31691
   R25        2.32573  -0.01749   0.00000  -0.01879  -0.01879   2.30694
   R26        2.88423  -0.00165   0.00000  -0.00515  -0.00515   2.87908
   R27        2.90403   0.00747   0.00000   0.02404   0.02404   2.92806
   R28        2.88748   0.00506   0.00000   0.01586   0.01586   2.90334
   R29        2.07505   0.00034   0.00000   0.00095   0.00095   2.07599
   R30        2.07329   0.00060   0.00000   0.00165   0.00165   2.07494
   R31        2.07204   0.00097   0.00000   0.00266   0.00266   2.07470
   R32        2.87870   0.00740   0.00000   0.02289   0.02289   2.90159
   R33        2.06891  -0.00101   0.00000  -0.00276  -0.00276   2.06615
   R34        2.07075  -0.00040   0.00000  -0.00109  -0.00109   2.06966
   R35        2.06881   0.00106   0.00000   0.00289   0.00289   2.07170
   R36        2.91414   0.00005   0.00000   0.01191   0.01208   2.92622
   R37        2.89390   0.00630   0.00000   0.02267   0.02270   2.91659
[...]
     54          1           0       -0.135094    3.543150    3.423342
     55          1           0       -0.780041    1.905439    3.177808
     56          1           0       -1.244688    4.814937    0.881916
     57          1           0        0.462723    4.985641    1.335572
     58          1           0        0.021212    4.382718   -0.277160
     59          1           0        4.922946    1.345888   -2.969323
     60          1           0        4.619108    2.550141   -1.704540
     61          1           0        5.325809    0.995853   -1.275371
     62          6           0       -4.627236   -0.637260    1.267992
     63          1           0       -5.622334   -0.305510    0.952001
     64          1           0       -4.740782   -1.154695    2.227590
     65          1           0       -4.021304    0.259223    1.444320
 ---------------------------------------------------------------------
 Rotational constants (GHZ):      0.1892541      0.1447755      0.1186982

 **********************************************************************

            Population analysis using the SCF density.

 **********************************************************************

 Orbital symmetries:
       Occupied  (A) (A) (A) (A) (A) (A) (A) (A) (A) (A) (A) (A)
                 (A) (A) (A) (A) (A) (A) (A) (A) (A) (A) (A) (A)
                 (A) (A) (A) (A) (A) (A) (A) (A) (A) (A) (A) (A)
                 (A) (A) (A) (A) (A) (A) (A) (A) (A) (A) (A) (A)
                 (A) (A) (A) (A) (A) (A) (A) (A) (A) (A) (A) (A)
                 (A) (A) (A) (A) (A) (A) (A) (A) (A) (A) (A) (A)
                 (A) (A) (A) (A) (A) (A) (A) (A) (A) (A) (A) (A)
                 (A) (A) (A) (A) (A) (A) (A) (A) (A) (A) (A) (A)
                 (A) (A) (A) (A) (A) (A) (A) (A) (A) (A) (A) (A)
                 (A) (A) (A) (A) (A) (A) (A)
       Virtual   (A) (A) (A) (A) (A) (A) (A) (A) (A) (A) (A) (A)
                 (A) (A) (A) (A) (A) (A) (A) (A) (A) (A) (A) (A)
                 (A) (A) (A) (A) (A) (A) (A) (A) (A) (A) (A) (A)
                 (A) (A) (A) (A) (A) (A) (A) (A) (A) (A) (A) (A)
                 (A) (A) (A) (A) (A) (A) (A) (A) (A) (A) (A) (A)
                 (A) (A) (A) (A) (A) (A) (A) (A) (A) (A) (A) (A)
                 (A) (A) (A) (A) (A) (A) (A) (A) (A) (A) (A) (A)
                 (A) (A) (A) (A) (A) (A) (A) (A) (A) (A) (A) (A)
                 (A) (A) (A) (A) (A) (A) (A) (A) (A) (A) (A) (A)
                 (A) (A) (A) (A) (A) (A) (A) (A) (A) (A) (A) (A)
                 (A) (A) (A) (A) (A) (A) (A) (A) (A) (A) (A) (A)
                 (A) (A) (A) (A) (A) (A) (A) (A) (A) (A) (A) (A)
                 (A) (A) (A) (A) (A) (A) (A) (A) (A) (A) (A) (A)
                 (A) (A) (A) (A) (A) (A) (A) (A) (A) (A) (A) (A)
                 (A) (A) (A) (A) (A) (A) (A) (A) (A) (A) (A) (A)
                 (A) (A) (A) (A) (A) (A) (A) (A) (A) (A) (A) (A)
                 (A) (A) (A) (A) (A) (A) (A) (A) (A) (A) (A) (A)
                 (A) (A) (A) (A) (A) (A) (A) (A) (A) (A) (A) (A)
                 (A) (A) (A) (A) (A) (A) (A) (A) (A) (A) (A) (A)
                 (A) (A) (A) (A) (A) (A) (A) (A) (A) (A) (A) (A)
                 (A) (A) (A) (A) (A) (A) (A) (A) (A) (A) (A) (A)
                 (A) (A) (A) (A) (A) (A) (A) (A) (A) (A) (A) (A)
                 (A) (A) (A) (A) (A) (A) (A) (A) (A) (A) (A) (A)
                 (A) (A) (A) (A) (A) (A) (A) (A) (A) (A) (A) (A)
                 (A) (A) (A) (A) (A) (A) (A) (A) (A) (A) (A) (A)
                 (A) (A) (A) (A) (A) (A) (A) (A) (A) (A) (A) (A)
                 (A) (A) (A) (A) (A) (A) (A) (A) (A) (A) (A) (A)
                 (A) (A) (A) (A) (A) (A) (A) (A) (A) (A) (A) (A)
                 (A) (A) (A) (A) (A) (A) (A) (A) (A) (A) (A) (A)
                 (A) (A) (A) (A) (A) (A) (A) (A) (A) (A) (A) (A)
                 (A) (A) (A) (A) (A) (A) (A) (A) (A) (A) (A) (A)
                 (A) (A) (A) (A) (A) (A) (A) (A) (A) (A) (A) (A)
                 (A) (A) (A) (A) (A) (A) (A) (A) (A) (A) (A) (A)
                 (A) (A) (A) (A) (A) (A) (A) (A) (A) (A) (A) (A)
                 (A) (A) (A) (A) (A) (A) (A) (A) (A) (A)
 The electronic state is 1-A.
 Alpha  occ. eigenvalues --  -19.19814 -19.16828 -19.14957 -19.13307 -19.11696
 Alpha  occ. eigenvalues --  -10.27421 -10.27306 -10.26568 -10.26127 -10.25803
 Alpha  occ. eigenvalues --  -10.25739 -10.24845 -10.21575 -10.20423 -10.20406
 Alpha  occ. eigenvalues --  -10.20204 -10.19940 -10.19911 -10.19768 -10.19089
 Alpha  occ. eigenvalues --  -10.18931 -10.18891 -10.18822 -10.18726 -10.18511
 Alpha  occ. eigenvalues --  -10.18159 -10.17676 -10.17187 -10.16960 -10.15930
 Alpha  occ. eigenvalues --  -10.15459  -1.09437  -1.05888  -1.03295  -1.02037
 Alpha  occ. eigenvalues --   -1.01649  -0.86992  -0.83748  -0.81991  -0.81224
 Alpha  occ. eigenvalues --   -0.79942  -0.78893  -0.76691  -0.74134  -0.73061
 Alpha  occ. eigenvalues --   -0.71985  -0.70803  -0.70027  -0.68808  -0.68111
 Alpha  occ. eigenvalues --   -0.65378  -0.63900  -0.63609  -0.61570  -0.60625
 Alpha  occ. eigenvalues --   -0.59094  -0.58369  -0.56602  -0.54112  -0.53403
 Alpha  occ. eigenvalues --   -0.52578  -0.51782  -0.50849  -0.49886  -0.49106
 Alpha  occ. eigenvalues --   -0.47510  -0.47318  -0.46781  -0.46462  -0.45908
 Alpha  occ. eigenvalues --   -0.44998  -0.44518  -0.44139  -0.43691  -0.42943
 Alpha  occ. eigenvalues --   -0.42776  -0.42307  -0.42172  -0.41675  -0.41227
 Alpha  occ. eigenvalues --   -0.40813  -0.40344  -0.40184  -0.39907  -0.39596
 Alpha  occ. eigenvalues --   -0.39058  -0.38797  -0.38368  -0.38101  -0.37470
 Alpha  occ. eigenvalues --   -0.37217  -0.36953  -0.36712  -0.36642  -0.36237
 Alpha  occ. eigenvalues --   -0.35770  -0.35172  -0.35111  -0.34617  -0.34259
 Alpha  occ. eigenvalues --   -0.33645  -0.33438  -0.33035  -0.32789  -0.32373
 Alpha  occ. eigenvalues --   -0.31373  -0.30883  -0.30453  -0.27493  -0.27226
 Alpha  occ. eigenvalues --   -0.25473  -0.24571  -0.24287  -0.23421  -0.22139
 Alpha virt. eigenvalues --   -0.04867  -0.00753   0.00796   0.01300   0.05677
 Alpha virt. eigenvalues --    0.07045   0.08708   0.08816   0.09300   0.10309
 Alpha virt. eigenvalues --    0.10639   0.10918   0.11164   0.11628   0.12657
 Alpha virt. eigenvalues --    0.12928   0.13041   0.13731   0.13992   0.14275
 Alpha virt. eigenvalues --    0.14873   0.15073   0.15395   0.15772   0.15937
 Alpha virt. eigenvalues --    0.16246   0.16784   0.17013   0.17138   0.17281
 Alpha virt. eigenvalues --    0.17733   0.18081   0.18644   0.19074   0.19456
 Alpha virt. eigenvalues --    0.19539   0.19627   0.20025   0.20229   0.20493
 Alpha virt. eigenvalues --    0.21046   0.21308   0.21773   0.22138   0.22407
 Alpha virt. eigenvalues --    0.23134   0.23602   0.24287   0.24540   0.24738
 Alpha virt. eigenvalues --    0.24922   0.25471   0.25749   0.26240   0.26458
 Alpha virt. eigenvalues --    0.27081   0.27144   0.28141   0.28617   0.30789
 Alpha virt. eigenvalues --    0.31830   0.32526   0.32630   0.33429   0.34633
 Alpha virt. eigenvalues --    0.35094   0.35603   0.37391   0.38471   0.39441
 Alpha virt. eigenvalues --    0.41301   0.43491   0.46442   0.47762   0.48243
 Alpha virt. eigenvalues --    0.48694   0.49764   0.50620   0.51037   0.51753
 Alpha virt. eigenvalues --    0.51824   0.52703   0.52955   0.53069   0.53867
 Alpha virt. eigenvalues --    0.53932   0.54160   0.54657   0.55447   0.55576
 Alpha virt. eigenvalues --    0.56684   0.57245   0.58446   0.58684   0.59433
 Alpha virt. eigenvalues --    0.59800   0.60183   0.61171   0.61374   0.61938
 Alpha virt. eigenvalues --    0.62229   0.63103   0.64227   0.64358   0.64843
 Alpha virt. eigenvalues --    0.65225   0.65730   0.66385   0.66791   0.67454
 Alpha virt. eigenvalues --    0.68359   0.68671   0.68902   0.69648   0.70124
 Alpha virt. eigenvalues --    0.70624   0.71701   0.72316   0.72687   0.73126
 Alpha virt. eigenvalues --    0.74275   0.74835   0.75060   0.75510   0.76354
 Alpha virt. eigenvalues --    0.77383   0.77733   0.78009   0.78421   0.79217
 Alpha virt. eigenvalues --    0.79764   0.80306   0.80695   0.81282   0.82127
 Alpha virt. eigenvalues --    0.82441   0.83433   0.84031   0.84523   0.84882
 Alpha virt. eigenvalues --    0.85429   0.85525   0.86423   0.86537   0.87273
 Alpha virt. eigenvalues --    0.88093   0.88114   0.88653   0.88798   0.89397
 Alpha virt. eigenvalues --    0.89620   0.89788   0.90256   0.90374   0.90771
 Alpha virt. eigenvalues --    0.90866   0.91186   0.91604   0.91804   0.92424
 Alpha virt. eigenvalues --    0.92438   0.92834   0.93510   0.94374   0.94796
 Alpha virt. eigenvalues --    0.95115   0.95789   0.96420   0.96597   0.97499
 Alpha virt. eigenvalues --    0.97888   0.98754   0.99049   0.99430   1.00197
 Alpha virt. eigenvalues --    1.01675   1.02105   1.02175   1.03130   1.03483
 Alpha virt. eigenvalues --    1.03760   1.04889   1.05422   1.06488   1.08459
 Alpha virt. eigenvalues --    1.10458   1.10892   1.11326   1.12480   1.13290
 Alpha virt. eigenvalues --    1.14229   1.14886   1.15516   1.16449   1.17067
 Alpha virt. eigenvalues --    1.18282   1.18998   1.19623   1.19710   1.22093
 Alpha virt. eigenvalues --    1.22683   1.22982   1.24972   1.25595   1.27337
 Alpha virt. eigenvalues --    1.29090   1.30399   1.31369   1.32865   1.33829
 Alpha virt. eigenvalues --    1.34441   1.36400   1.37750   1.39456   1.39574
 Alpha virt. eigenvalues --    1.40896   1.42232   1.44498   1.45693   1.46065
 Alpha virt. eigenvalues --    1.47201   1.48673   1.51019   1.51844   1.54116
 Alpha virt. eigenvalues --    1.54789   1.55482   1.55961   1.57520   1.58064
 Alpha virt. eigenvalues --    1.59158   1.60776   1.62757   1.63250   1.64472
 Alpha virt. eigenvalues --    1.66426   1.67064   1.67725   1.68553   1.68695
 Alpha virt. eigenvalues --    1.70785   1.70977   1.71860   1.73448   1.74015
 Alpha virt. eigenvalues --    1.74963   1.75426   1.76852   1.77269   1.77669
 Alpha virt. eigenvalues --    1.78702   1.79110   1.79323   1.80539   1.80834
 Alpha virt. eigenvalues --    1.82226   1.82683   1.83781   1.84429   1.84669
 Alpha virt. eigenvalues --    1.85826   1.86015   1.86876   1.87337   1.87606
 Alpha virt. eigenvalues --    1.87896   1.89677   1.90595   1.92023   1.92377
 Alpha virt. eigenvalues --    1.92775   1.93332   1.93894   1.93991   1.94902
 Alpha virt. eigenvalues --    1.96062   1.96396   1.97016   1.97566   1.98419
 Alpha virt. eigenvalues --    1.99529   1.99577   2.00100   2.01356   2.01535
 Alpha virt. eigenvalues --    2.02360   2.03168   2.03849   2.03941   2.04575
 Alpha virt. eigenvalues --    2.06293   2.07130   2.08275   2.08606   2.09595
 Alpha virt. eigenvalues --    2.10263   2.11209   2.12090   2.12317   2.12731
 Alpha virt. eigenvalues --    2.13078   2.14131   2.16097   2.16921   2.17872
 Alpha virt. eigenvalues --    2.18259   2.20740   2.21158   2.21653   2.22393
 Alpha virt. eigenvalues --    2.23137   2.23572   2.23751   2.26162   2.26716
 Alpha virt. eigenvalues --    2.27391   2.28336   2.29465   2.30087   2.30726
 Alpha virt. eigenvalues --    2.31882   2.32672   2.33498   2.33907   2.35200
 Alpha virt. eigenvalues --    2.36059   2.36671   2.37290   2.37979   2.39207
 Alpha virt. eigenvalues --    2.40283   2.41688   2.42216   2.42822   2.43848
 Alpha virt. eigenvalues --    2.44693   2.45289   2.46138   2.46770   2.48301
 Alpha virt. eigenvalues --    2.49872   2.50375   2.52079   2.53342   2.54991
 Alpha virt. eigenvalues --    2.55450   2.56376   2.58020   2.59522   2.59828
 Alpha virt. eigenvalues --    2.61815   2.62109   2.62780   2.64485   2.65034
 Alpha virt. eigenvalues --    2.66256   2.66858   2.68631   2.69470   2.70704
 Alpha virt. eigenvalues --    2.72201   2.73793   2.74720   2.76677   2.77158
 Alpha virt. eigenvalues --    2.77474   2.78718   2.79533   2.81252   2.82794
 Alpha virt. eigenvalues --    2.86763   2.88221   2.92919   2.94706   2.95840
 Alpha virt. eigenvalues --    2.96962   2.98251   2.99985   3.01254   3.03883
 Alpha virt. eigenvalues --    3.05309   3.06716   3.11477   3.15512   3.17154
 Alpha virt. eigenvalues --    3.23163   3.29042   4.01436   4.06651   4.09826
 Alpha virt. eigenvalues --    4.12180   4.14839   4.17245   4.17343   4.19217
 Alpha virt. eigenvalues --    4.22364   4.25972   4.26447   4.27631   4.30501
 Alpha virt. eigenvalues --    4.32413   4.34345   4.35763   4.40802   4.41982
 Alpha virt. eigenvalues --    4.46895   4.48836   4.54841   4.56172   4.61275
 Alpha virt. eigenvalues --    4.64864   4.68655   4.69302   4.74753   4.75944
 Alpha virt. eigenvalues --    4.89074   4.93582   5.24419
          Condensed to atoms (all electrons):
 Mulliken atomic charges:
              1
     1  C   -0.198280
     2  C    0.205541
     3  C   -0.200957
     4  C    0.325552
     5  C   -0.045433
     6  C   -0.325267
     7  C    0.197263
     8  C    0.406294
     9  C   -0.078821
    10  C    0.404105
    11  C    0.405396
    12  O   -0.464698
    13  C   -0.164664
    14  C   -0.265943
    15  C   -0.441696
    16  O   -0.508841
    17  C   -0.153703
    18  C    0.292067
    19  O   -0.494743
    20  C   -0.310365
    21  O   -0.669390
    22  C   -0.332712
    23  C    0.094767
    24  O   -0.589581
    25  C    0.183226
    26  C   -0.513759
    27  C   -0.406297
    28  C   -0.468472
    29  C   -0.459150
    30  H    0.146151
    31  H    0.149826
    32  C   -0.521070
    33  H    0.125395
    34  H    0.163653
    35  H    0.167474
    36  H    0.171157
    37  H    0.133465
    38  H    0.153468
    39  H    0.158563
    40  H    0.145422
    41  H    0.130133
    42  H    0.162993
    43  H    0.151543
    44  H    0.429298
    45  H    0.151220
    46  H    0.188871
    47  H    0.135333
    48  H    0.157460
    49  H    0.154081
    50  H    0.161223
    51  H    0.182948
    52  H    0.136985
    53  H    0.161677
    54  H    0.144402
    55  H    0.194051
    56  H    0.169739
    57  H    0.149030
    58  H    0.163410
    59  H    0.157634
    60  H    0.155563
    61  H    0.157008
    62  C   -0.448907
    63  H    0.146345
    64  H    0.138920
    65  H    0.154100
 Sum of Mulliken atomic charges =   0.00000
 Mulliken charges with hydrogens summed into heavy atoms:
              1
     1  C   -0.072885
     2  C    0.205541
     3  C   -0.051131
     4  C    0.325552
     5  C   -0.045433
     6  C    0.005859
     7  C    0.197263
     8  C    0.406294
     9  C   -0.078821
    10  C    0.404105
    11  C    0.405396
    12  O   -0.464698
    13  C    0.006493
    14  C    0.020991
    15  C   -0.007578
    16  O   -0.508841
    17  C   -0.007552
    18  C    0.292067
    19  O   -0.494743
    20  C    0.004170
    21  O   -0.240092
    22  C    0.007379
    23  C    0.230099
    24  O   -0.589581
    25  C    0.183226
    26  C   -0.040996
    27  C   -0.086364
    28  C    0.031659
    29  C    0.023029
    32  C   -0.050865
    62  C   -0.009542
 Sum of Mulliken charges with hydrogens summed into heavy atoms =   0.00000
 Electronic spatial extent (au):  <R**2>=          11014.1254
 Charge=              0.0000 electrons
 Dipole moment (field-independent basis, Debye):
    X=              5.4540    Y=              1.1326    Z=              1.2556  Tot=              5.7101
 Quadrupole moment (field-independent basis, Debye-Ang):
   XX=           -185.9980   YY=           -178.2037   ZZ=           -181.8459
   XY=              6.0690   XZ=             -5.6565   YZ=              2.7999
 Traceless Quadrupole moment (field-independent basis, Debye-Ang):
   XX=             -3.9821   YY=              3.8122   ZZ=              0.1699
   XY=              6.0690   XZ=             -5.6565   YZ=              2.7999
 Octapole moment (field-independent basis, Debye-Ang**2):
  XXX=             36.8807  YYY=             38.5276  ZZZ=              0.1471  XYY=             24.4086
  XXY=            -20.3340  XXZ=             11.8325  XZZ=             15.5582  YZZ=             -1.4240
  YYZ=             42.0148  XYZ=             -9.5262
 Hexadecapole moment (field-independent basis, Debye-Ang**3):
 XXXX=          -7154.4525 YYYY=          -4772.0873 ZZZZ=          -2741.8435 XXXY=             64.7532
 XXXZ=            -48.1480 YYYX=            -13.2431 YYYZ=             12.3774 ZZZX=              5.2202
 ZZZY=              4.9469 XXYY=          -1995.6750 XXZZ=          -1658.2006 YYZZ=          -1234.0003
 XXYZ=             28.1461 YYXZ=             -9.9244 ZZXY=            -10.7665
 N-N= 3.541236732977D+03 E-N=-1.030901701114D+04  KE= 1.374456070970D+03
 1\1\GINC-B0801\FOpt\RB3LYP\6-31G(d)\C26H34O5\CAOFEI\24-Mar-2021\0\\# o
 pt rb3lyp/6-31g(d) geom=connectivity\\Title Card Required\\0,1\C,-0.02
 94168797,0.0560016132,0.1442335129\C,1.3061505519,-0.018820786,0.18651
 64626\C,2.1366931304,1.2283001314,-0.0087330279\C,1.4765924523,2.56708
 64535,0.4542487816\C,-0.0707216131,2.5648587334,0.6325159176\C,-0.7598
 175843,1.3543987462,-0.0731174116\C,1.9880601141,3.6240080545,-0.58195
 82228\C,0.9382876966,4.0004419071,-1.6173498938\C,-0.3631915011,4.2610
 253545,-1.2958060075\C,-0.7890328819,3.822738874,0.0453362757\C,-1.298
 1778565,4.8806062385,-2.3028408072\O,-1.1535025172,4.63052652,-3.49022
 54891\C,-2.3708783658,5.8539342526,-1.8162674623\C,-1.7067660194,7.101
 17053,-1.1704470597\C,-3.344927391,6.2049692355,-2.945099721\O,-1.7775
 012329,4.2619919909,0.6266711651\C,3.0407255674,2.9460735871,-1.485039
 3716\C,2.9176339043,3.7277034243,-2.8114990647\O,1.4855696258,4.133784
 8209,-2.8201144208\C,2.5785692096,1.4763539127,-1.4756599171\O,2.40856
 01578,4.8146691136,0.0465111227\C,-0.2558338703,2.4707056072,2.1600402
 171\C,1.0270982075,3.0238983534,2.786970862\O,2.0341980445,2.923050705
 ,1.7321870199\C,1.0457990917,4.4371650925,3.348672018\C,2.3228424266,4
 .7867576363,4.0787854983\C,0.0367697745,5.3057295765,3.2351558949\C,3.
 7548750613,5.0086795481,-2.8146581321\C,3.1288848864,2.9226807398,-4.0
 892479474\H,4.0428695426,3.0450106448,-1.0571880048\H,3.0488403707,1.1
 489415924,0.5972025874\C,2.0486523006,-1.3136511091,0.3889161499\H,-0.
 6274193605,-0.8472969729,0.2551138158\H,-1.7873317912,1.2887513801,0.3
 02269116\H,-0.8484015982,1.5589334591,-1.1492544672\H,-2.9116059341,5.
 3531620348,-1.0056438057\H,-2.5119190926,7.7394167402,-0.7826900474\H,
 -1.1283612527,6.7761844114,-0.2982859153\H,-2.8317127017,6.6546352713,
 -3.79938721\H,-3.8559258583,5.3097149413,-3.3137538506\H,-4.1036124965
 ,6.9082854926,-2.5821821909\H,1.7222220032,1.3329117201,-2.1453765948\
 H,3.3585342717,0.7790184979,-1.7964242039\H,2.5217249626,4.5620312513,
 0.9864781419\H,-0.3585413011,1.4190097375,2.4417290227\H,-1.1609231123
 ,2.9941309983,2.46781419\H,1.37844182,2.3518108032,3.5813790196\H,2.31
 78560791,5.8248642229,4.4231847145\H,2.4635922702,4.1366161927,4.95392
 71679\H,3.2045523799,4.6403567117,3.4418914224\H,-0.8855241124,5.07894
 17715,2.7119732457\H,0.1174525943,6.3032677892,3.6610111497\H,3.485923
 5866,5.627657523,-3.6764935233\H,4.8196982153,4.7596499224,-2.88862750
 29\H,3.5938480985,5.5811344335,-1.8982779018\H,2.9389485583,3.55127377
 85,-4.964703863\H,4.164239943,2.5678732701,-4.1390038295\H,2.461081576
 1,2.0593476428,-4.1409496155\H,1.3617992348,-2.1593377682,0.4949257558
 \H,2.7198573431,-1.5290109084,-0.4540653194\H,2.6803397846,-1.27150131
 97,1.2870702297\C,-0.8103100298,7.9207044265,-2.10668465\H,-1.36987789
 83,8.3253120054,-2.9571578974\H,-0.3677103267,8.767478322,-1.569525289
 2\H,0.0116597418,7.317481123,-2.5096908381\\Version=EM64L-G09RevB.01\S
 tate=1-A\HF=-1387.3193809\RMSD=9.453e-09\RMSF=5.365e-06\Dipole=1.58586
 93,-1.3566197,0.8315544\Quadrupole=0.309534,3.7924924,-4.1020264,-0.34
 70326,-5.6594584,1.7272133\PG=C01 [X(C26H34O5)]\\@


 When cryptography is outlawed, bayl bhgynjf jvyy unir cevinpl.
 Job cpu time:  0 days  6 hours 37 minutes 58.5 seconds.
 File lengths (MBytes):  RWF=    186 Int=      0 D2E=      0 Chk=     20 Scr=      1
 Normal termination of Gaussian 09 at Wed Mar 24 13:45:16 2021.
