 Entering Gaussian System, Link 0=g09
 Initial command:
 /public/software/g09/g09/l1.exe /tmp/Gau-27400.inp -scrdir=/tmp/
 Entering Link 1 = /public/software/g09/g09/l1.exe PID=     27401.
  
 Copyright (c) 1988,1990,1992,1993,1995,1998,2003,2009,2010,
            Gaussian, Inc.  All Rights Reserved.
  
 This is part of the Gaussian(R) 09 program.  It is based on
 the Gaussian(R) 03 system (copyright 2003, Gaussian, Inc.),
 the Gaussian(R) 98 system (copyright 1998, Gaussian, Inc.),
 the Gaussian(R) 94 system (copyright 1995, Gaussian, Inc.),
 the Gaussian 92(TM) system (copyright 1992, Gaussian, Inc.),
 the Gaussian 90(TM) system (copyright 1990, Gaussian, Inc.),
 the Gaussian 88(TM) system (copyright 1988, Gaussian, Inc.),
 the Gaussian 86(TM) system (copyright 1986, Carnegie Mellon
 University), and the Gaussian 82(TM) system (copyright 1983,
 Carnegie Mellon University). Gaussian is a federally registered
 trademark of Gaussian, Inc.
  
 This software contains proprietary and confidential information,
 including trade secrets, belonging to Gaussian, Inc.
  
 This software is provided under written license and may be
 used, copied, transmitted, or stored only in accord with that
 written license.
  
 The following legend is applicable only to US Government
 contracts under FAR:
  
                    RESTRICTED RIGHTS LEGEND
  
 Use, reproduction and disclosure by the US Government is
 subject to restrictions as set forth in subparagraphs (a)
 and (c) of the Commercial Computer Software - Restricted
 Rights clause in FAR 52.227-19.
  
 Gaussian, Inc.
 340 Quinnipiac St., Bldg. 40, Wallingford CT 06492
  
  
 ---------------------------------------------------------------
 Warning -- This program may not be used in any manner that
 competes with the business of Gaussian, Inc. or will provide
 assistance to any competitor of Gaussian, Inc.  The licensee
 of this program is prohibited from giving any competitor of
 Gaussian, Inc. access to this program.  By using this program,
 the user acknowledges that Gaussian, Inc. is engaged in the
 business of creating and licensing software in the field of
 computational chemistry and represents and warrants to the
 licensee that it is not a competitor of Gaussian, Inc. and that
 it will not use this program in any manner prohibited above.
 ---------------------------------------------------------------
  

 Cite this work as:
 Gaussian 09, Revision B.01,
 M. J. Frisch, G. W. Trucks, H. B. Schlegel, G. E. Scuseria, 
 M. A. Robb, J. R. Cheeseman, G. Scalmani, V. Barone, B. Mennucci, 
 G. A. Petersson, H. Nakatsuji, M. Caricato, X. Li, H. P. Hratchian, 
 A. F. Izmaylov, J. Bloino, G. Zheng, J. L. Sonnenberg, M. Hada, 
 M. Ehara, K. Toyota, R. Fukuda, J. Hasegawa, M. Ishida, T. Nakajima, 
 Y. Honda, O. Kitao, H. Nakai, T. Vreven, J. A. Montgomery, Jr., 
 J. E. Peralta, F. Ogliaro, M. Bearpark, J. J. Heyd, E. Brothers, 
 K. N. Kudin, V. N. Staroverov, T. Keith, R. Kobayashi, J. Normand, 
 K. Raghavachari, A. Rendell, J. C. Burant, S. S. Iyengar, J. Tomasi, 
 M. Cossi, N. Rega, J. M. Millam, M. Klene, J. E. Knox, J. B. Cross, 
 V. Bakken, C. Adamo, J. Jaramillo, R. Gomperts, R. E. Stratmann, 
 O. Yazyev, A. J. Austin, R. Cammi, C. Pomelli, J. W. Ochterski, 
 R. L. Martin, K. Morokuma, V. G. Zakrzewski, G. A. Voth, 
 P. Salvador, J. J. Dannenberg, S. Dapprich, A. D. Daniels, 
 O. Farkas, J. B. Foresman, J. V. Ortiz, J. Cioslowski, 
 and D. J. Fox, Gaussian, Inc., Wallingford CT, 2010.
 
 ******************************************
 Gaussian 09:  EM64L-G09RevB.01 12-Aug-2010
                24-Mar-2021 
 ******************************************
 %mem=600MW
 %nprocshared=10
 Will use up to   10 processors via shared memory.
 ---------------------------------------
 # opt rb3lyp/6-31g(d) geom=connectivity
 ---------------------------------------
 1/14=-1,18=20,19=15,26=3,38=1,57=2/1,3;
 2/9=110,12=2,17=6,18=5,40=1/2;
 3/5=1,6=6,7=1,11=2,16=1,25=1,30=1,71=1,74=-5,116=1/1,2,3;
 4//1;
 5/5=2,38=5/2;
 6/7=2,8=2,9=2,10=2,28=1/1;
 7//1,2,3,16;
 1/14=-1,18=20,19=15/3(2);
 2/9=110/2;
 99//99;
 2/9=110/2;
 3/5=1,6=6,7=1,11=2,16=1,25=1,30=1,71=1,74=-5,116=1/1,2,3;
 4/5=5,16=3/1;
 5/5=2,38=5/2;
 7//1,2,3,16;
 1/14=-1,18=20,19=15/3(-5);
 2/9=110/2;
 6/7=2,8=2,9=2,10=2,19=2,28=1/1;
 99/9=1/99;
 -------------------
 Title Card Required
 -------------------
 Symbolic Z-matrix:
 Charge =  0 Multiplicity = 1
 C                     0.        0.        0. 
 C                     1.3409    0.        0. 
 C                     2.1175    1.2914    0. 
 C                     1.3924    2.5342    0.5979 
 C                    -0.1339    2.4207    0.7922 
 C                    -0.7985    1.2646    0.0085 
 C                     1.8473    3.7063   -0.3119 
 C                     0.8238    4.2117   -1.2682 
 C                    -0.4779    4.2682   -0.9706 
 C                    -0.8812    3.6821    0.3303 
 C                    -1.4832    4.7292   -1.9514 
 O                    -2.3934    3.9676   -2.2801 
 C                    -1.3628    6.1491   -2.4938 
 C                    -1.3637    6.1087   -4.0289 
 C                    -2.5081    6.983    -1.9231 
 O                    -1.8512    4.1398    0.9296 
 C                     2.899     3.1831   -1.2701 
 C                     2.7235    4.0818   -2.5098 
 O                     1.3327    4.4876   -2.5289 
 C                     2.5046    1.7115   -1.425 
 O                     2.3399    4.8122    0.4312 
 C                    -0.2782    2.1874    2.2991 
 C                     0.9799    2.7581    2.9329 
 O                     1.9842    2.7696    1.9083 
 C                     0.965     4.1318    3.5716 
 C                     2.2573    4.531     4.2434 
 C                    -0.0873    4.9651    3.623 
 C                     3.5788    5.3563   -2.4295 
 C                     3.0308    3.3717   -3.831 
 H                     3.9154    3.2545   -0.8631 
 H                     3.0405    1.128     0.5755 
 C                     2.1371   -1.2728   -0.0395 
 H                    -0.5534   -0.9355   -0.0414 
 H                    -0.9943    1.5356   -1.0367 
 H                    -1.7831    1.054     0.4476 
 H                    -0.4183    6.5861   -2.1481 
 H                    -0.6378    5.3624   -4.3753 
 H                    -2.342     5.779    -4.4005 
 H                    -3.4788    6.6327   -2.291 
 H                    -2.4026    8.0389   -2.1893 
 H                    -2.5291    6.9169   -0.8295 
 H                     1.6553    1.5844   -2.1078 
 H                     3.3364    1.1154   -1.8158 
 H                     2.5775    4.4532    1.3105 
 H                    -1.206     2.5657    2.7369 
 H                    -0.2842    1.1091    2.5086 
 H                     1.3166    2.0556    3.7064 
 H                     3.0739    4.5889    3.5175 
 H                     2.1853    5.5077    4.734 
 H                     2.5267    3.7975    5.0106 
 H                    -1.053     4.7297    3.193 
 H                    -0.0187    5.9311    4.1156 
 H                     3.3251    5.97     -1.5603 
 H                     4.6464    5.1174   -2.3864 
 H                     3.4027    5.9947   -3.3034 
 H                     4.0495    2.9711   -3.8428 
 H                     2.3268    2.5569   -4.0285 
 H                     2.9221    4.0618   -4.6761 
 H                     1.4945   -2.1594   -0.0565 
 H                     2.7681   -1.3018   -0.9334 
 H                     2.7799   -1.345     0.8437 
 C                    -1.014     7.4474   -4.6615 
 H                    -0.9583    7.345    -5.7501 
 H                    -1.7691    8.2065   -4.438 
 H                    -0.0435    7.8079   -4.306 
 

 GradGradGradGradGradGradGradGradGradGradGradGradGradGradGradGradGradGrad
 Berny optimization.
 Initialization pass.
                           ----------------------------
                           !    Initial Parameters    !
                           ! (Angstroms and Degrees)  !
 --------------------------                            --------------------------
 ! Name  Definition              Value          Derivative Info.                !
 --------------------------------------------------------------------------------
 ! R1    R(1,2)                  1.3409         estimate D2E/DX2                !
 ! R2    R(1,6)                  1.4956         estimate D2E/DX2                !
 ! R3    R(1,33)                 1.0877         estimate D2E/DX2                !
 ! R4    R(2,3)                  1.5069         estimate D2E/DX2                !
 ! R5    R(2,32)                 1.5018         estimate D2E/DX2                !
 ! R6    R(3,4)                  1.5581         estimate D2E/DX2                !
 ! R7    R(3,20)                 1.5352         estimate D2E/DX2                !
 ! R8    R(3,31)                 1.0999         estimate D2E/DX2                !
 ! R9    R(4,5)                  1.5428         estimate D2E/DX2                !
 ! R10   R(4,7)                  1.5519         estimate D2E/DX2                !
 ! R11   R(4,24)                 1.457          estimate D2E/DX2                !
 ! R12   R(5,6)                  1.5468         estimate D2E/DX2                !
 ! R13   R(5,10)                 1.5372         estimate D2E/DX2                !
 ! R14   R(5,22)                 1.5317         estimate D2E/DX2                !
 ! R15   R(6,34)                 1.0974         estimate D2E/DX2                !
 ! R16   R(6,35)                 1.0985         estimate D2E/DX2                !
 ! R17   R(7,8)                  1.4891         estimate D2E/DX2                !
 ! R18   R(7,17)                 1.5159         estimate D2E/DX2                !
 ! R19   R(7,21)                 1.4205         estimate D2E/DX2                !
 ! R20   R(8,9)                  1.3365         estimate D2E/DX2                !
 ! R21   R(8,19)                 1.3873         estimate D2E/DX2                !
 ! R22   R(9,10)                 1.4827         estimate D2E/DX2                !
 ! R23   R(9,11)                 1.4782         estimate D2E/DX2                !
 ! R24   R(10,16)                1.2286         estimate D2E/DX2                !
 ! R25   R(11,12)                1.2315         estimate D2E/DX2                !
 ! R26   R(11,13)                1.5247         estimate D2E/DX2                !
 ! R27   R(13,14)                1.5356         estimate D2E/DX2                !
 ! R28   R(13,15)                1.5274         estimate D2E/DX2                !
 ! R29   R(13,36)                1.0966         estimate D2E/DX2                !
 ! R30   R(14,37)                1.0972         estimate D2E/DX2                !
 ! R31   R(14,38)                1.0972         estimate D2E/DX2                !
 ! R32   R(14,62)                1.5214         estimate D2E/DX2                !
 ! R33   R(15,39)                1.0956         estimate D2E/DX2                !
 ! R34   R(15,40)                1.094          estimate D2E/DX2                !
 ! R35   R(15,41)                1.0958         estimate D2E/DX2                !
 ! R36   R(17,18)                1.5412         estimate D2E/DX2                !
 ! R37   R(17,20)                1.5314         estimate D2E/DX2                !
 ! R38   R(17,30)                1.0972         estimate D2E/DX2                !
 ! R39   R(18,19)                1.4489         estimate D2E/DX2                !
 ! R40   R(18,28)                1.537          estimate D2E/DX2                !
 ! R41   R(18,29)                1.5311         estimate D2E/DX2                !
 ! R42   R(20,42)                1.0971         estimate D2E/DX2                !
 ! R43   R(20,43)                1.0954         estimate D2E/DX2                !
 ! R44   R(21,44)                0.979          estimate D2E/DX2                !
 ! R45   R(22,23)                1.5199         estimate D2E/DX2                !
 ! R46   R(22,45)                1.0934         estimate D2E/DX2                !
 ! R47   R(22,46)                1.0985         estimate D2E/DX2                !
 ! R48   R(23,24)                1.4348         estimate D2E/DX2                !
 ! R49   R(23,25)                1.515          estimate D2E/DX2                !
 ! R50   R(23,47)                1.0978         estimate D2E/DX2                !
 ! R51   R(24,44)                1.8825         estimate D2E/DX2                !
 ! R52   R(25,26)                1.5102         estimate D2E/DX2                !
 ! R53   R(25,27)                1.3433         estimate D2E/DX2                !
 ! R54   R(26,48)                1.0941         estimate D2E/DX2                !
 ! R55   R(26,49)                1.0954         estimate D2E/DX2                !
 ! R56   R(26,50)                1.0951         estimate D2E/DX2                !
 ! R57   R(27,51)                1.083          estimate D2E/DX2                !
 ! R58   R(27,52)                1.0865         estimate D2E/DX2                !
 ! R59   R(28,53)                1.0938         estimate D2E/DX2                !
 ! R60   R(28,54)                1.0949         estimate D2E/DX2                !
 ! R61   R(28,55)                1.0965         estimate D2E/DX2                !
 ! R62   R(29,56)                1.0947         estimate D2E/DX2                !
 ! R63   R(29,57)                1.0948         estimate D2E/DX2                !
 ! R64   R(29,58)                1.0965         estimate D2E/DX2                !
 ! R65   R(32,59)                1.0951         estimate D2E/DX2                !
 ! R66   R(32,60)                1.0946         estimate D2E/DX2                !
 ! R67   R(32,61)                1.0947         estimate D2E/DX2                !
 ! R68   R(62,63)                1.0948         estimate D2E/DX2                !
 ! R69   R(62,64)                1.0938         estimate D2E/DX2                !
 ! R70   R(62,65)                1.0946         estimate D2E/DX2                !
 ! A1    A(2,1,6)              122.2688         estimate D2E/DX2                !
 ! A2    A(2,1,33)             120.5821         estimate D2E/DX2                !
 ! A3    A(6,1,33)             117.1162         estimate D2E/DX2                !
 ! A4    A(1,2,3)              121.0211         estimate D2E/DX2                !
 ! A5    A(1,2,32)             122.0156         estimate D2E/DX2                !
 ! A6    A(3,2,32)             116.9407         estimate D2E/DX2                !
 ! A7    A(2,3,4)              116.341          estimate D2E/DX2                !
 ! A8    A(2,3,20)             111.3734         estimate D2E/DX2                !
 ! A9    A(2,3,31)             107.7672         estimate D2E/DX2                !
 ! A10   A(4,3,20)             104.7885         estimate D2E/DX2                !
 ! A11   A(4,3,31)             107.9524         estimate D2E/DX2                !
 ! A12   A(20,3,31)            108.3435         estimate D2E/DX2                !
 ! A13   A(3,4,5)              116.7458         estimate D2E/DX2                !
 ! A14   A(3,4,7)              103.948          estimate D2E/DX2                !
 ! A15   A(3,4,24)             106.5569         estimate D2E/DX2                !
 ! A16   A(5,4,7)              114.7953         estimate D2E/DX2                !
 ! A17   A(5,4,24)             107.485          estimate D2E/DX2                !
 ! A18   A(7,4,24)             106.6291         estimate D2E/DX2                !
 ! A19   A(4,5,6)              114.5984         estimate D2E/DX2                !
 ! A20   A(4,5,10)             112.5034         estimate D2E/DX2                !
 ! A21   A(4,5,22)             103.1978         estimate D2E/DX2                !
 ! A22   A(6,5,10)             104.6081         estimate D2E/DX2                !
 ! A23   A(6,5,22)             110.1301         estimate D2E/DX2                !
 ! A24   A(10,5,22)            112.0129         estimate D2E/DX2                !
 ! A25   A(1,6,5)              113.9202         estimate D2E/DX2                !
 ! A26   A(1,6,34)             107.3769         estimate D2E/DX2                !
 ! A27   A(1,6,35)             108.5853         estimate D2E/DX2                !
 ! A28   A(5,6,34)             112.0039         estimate D2E/DX2                !
 ! A29   A(5,6,35)             109.0202         estimate D2E/DX2                !
 ! A30   A(34,6,35)            105.5544         estimate D2E/DX2                !
 ! A31   A(4,7,8)              115.5525         estimate D2E/DX2                !
 ! A32   A(4,7,17)             108.2553         estimate D2E/DX2                !
 ! A33   A(4,7,21)             112.5167         estimate D2E/DX2                !
 ! A34   A(8,7,17)             100.8394         estimate D2E/DX2                !
 ! A35   A(8,7,21)             108.0629         estimate D2E/DX2                !
 ! A36   A(17,7,21)            111.0251         estimate D2E/DX2                !
 ! A37   A(7,8,9)              122.7367         estimate D2E/DX2                !
 ! A38   A(7,8,19)             113.5138         estimate D2E/DX2                !
 ! A39   A(9,8,19)             123.4526         estimate D2E/DX2                !
 ! A40   A(8,9,10)             116.3322         estimate D2E/DX2                !
 ! A41   A(8,9,11)             121.8581         estimate D2E/DX2                !
 ! A42   A(10,9,11)            121.361          estimate D2E/DX2                !
 ! A43   A(5,10,9)             117.1144         estimate D2E/DX2                !
 ! A44   A(5,10,16)            122.8835         estimate D2E/DX2                !
 ! A45   A(9,10,16)            119.699          estimate D2E/DX2                !
 ! A46   A(9,11,12)            119.1358         estimate D2E/DX2                !
 ! A47   A(9,11,13)            118.2129         estimate D2E/DX2                !
 ! A48   A(12,11,13)           122.6384         estimate D2E/DX2                !
 ! A49   A(11,13,14)           109.3335         estimate D2E/DX2                !
 ! A50   A(11,13,15)           108.4396         estimate D2E/DX2                !
 ! A51   A(11,13,36)           109.085          estimate D2E/DX2                !
 ! A52   A(14,13,15)           112.7958         estimate D2E/DX2                !
 ! A53   A(14,13,36)           109.0336         estimate D2E/DX2                !
 ! A54   A(15,13,36)           108.0883         estimate D2E/DX2                !
 ! A55   A(13,14,37)           109.4573         estimate D2E/DX2                !
 ! A56   A(13,14,38)           110.3033         estimate D2E/DX2                !
 ! A57   A(13,14,62)           113.1026         estimate D2E/DX2                !
 ! A58   A(37,14,38)           106.1753         estimate D2E/DX2                !
 ! A59   A(37,14,62)           108.3705         estimate D2E/DX2                !
 ! A60   A(38,14,62)           109.1797         estimate D2E/DX2                !
 ! A61   A(13,15,39)           111.3669         estimate D2E/DX2                !
 ! A62   A(13,15,40)           111.3287         estimate D2E/DX2                !
 ! A63   A(13,15,41)           110.753          estimate D2E/DX2                !
 ! A64   A(39,15,40)           108.1993         estimate D2E/DX2                !
 ! A65   A(39,15,41)           107.3892         estimate D2E/DX2                !
 ! A66   A(40,15,41)           107.6317         estimate D2E/DX2                !
 ! A67   A(7,17,18)            103.1901         estimate D2E/DX2                !
 ! A68   A(7,17,20)            102.5284         estimate D2E/DX2                !
 ! A69   A(7,17,30)            112.6909         estimate D2E/DX2                !
 ! A70   A(18,17,20)           116.7218         estimate D2E/DX2                !
 ! A71   A(18,17,30)           111.4643         estimate D2E/DX2                !
 ! A72   A(20,17,30)           109.7939         estimate D2E/DX2                !
 ! A73   A(17,18,19)           106.4525         estimate D2E/DX2                !
 ! A74   A(17,18,28)           112.2184         estimate D2E/DX2                !
 ! A75   A(17,18,29)           113.6286         estimate D2E/DX2                !
 ! A76   A(19,18,28)           107.6141         estimate D2E/DX2                !
 ! A77   A(19,18,29)           108.13           estimate D2E/DX2                !
 ! A78   A(28,18,29)           108.5405         estimate D2E/DX2                !
 ! A79   A(8,19,18)            106.5257         estimate D2E/DX2                !
 ! A80   A(3,20,17)            103.533          estimate D2E/DX2                !
 ! A81   A(3,20,42)            110.5349         estimate D2E/DX2                !
 ! A82   A(3,20,43)            111.9438         estimate D2E/DX2                !
 ! A83   A(17,20,42)           111.9406         estimate D2E/DX2                !
 ! A84   A(17,20,43)           111.3122         estimate D2E/DX2                !
 ! A85   A(42,20,43)           107.6226         estimate D2E/DX2                !
 ! A86   A(7,21,44)            105.5759         estimate D2E/DX2                !
 ! A87   A(5,22,23)            105.9665         estimate D2E/DX2                !
 ! A88   A(5,22,45)            114.9078         estimate D2E/DX2                !
 ! A89   A(5,22,46)            109.7349         estimate D2E/DX2                !
 ! A90   A(23,22,45)           113.9214         estimate D2E/DX2                !
 ! A91   A(23,22,46)           107.0719         estimate D2E/DX2                !
 ! A92   A(45,22,46)           104.9884         estimate D2E/DX2                !
 ! A93   A(22,23,24)           106.536          estimate D2E/DX2                !
 ! A94   A(22,23,25)           120.5382         estimate D2E/DX2                !
 ! A95   A(22,23,47)           107.9027         estimate D2E/DX2                !
 ! A96   A(24,23,25)           107.4985         estimate D2E/DX2                !
 ! A97   A(24,23,47)           107.074          estimate D2E/DX2                !
 ! A98   A(25,23,47)           106.6309         estimate D2E/DX2                !
 ! A99   A(4,24,23)            110.8956         estimate D2E/DX2                !
 ! A100  A(23,25,26)           114.7591         estimate D2E/DX2                !
 ! A101  A(23,25,27)           125.8972         estimate D2E/DX2                !
 ! A102  A(26,25,27)           119.298          estimate D2E/DX2                !
 ! A103  A(25,26,48)           110.9478         estimate D2E/DX2                !
 ! A104  A(25,26,49)           112.2526         estimate D2E/DX2                !
 ! A105  A(25,26,50)           110.1884         estimate D2E/DX2                !
 ! A106  A(48,26,49)           107.399          estimate D2E/DX2                !
 ! A107  A(48,26,50)           108.46           estimate D2E/DX2                !
 ! A108  A(49,26,50)           107.4359         estimate D2E/DX2                !
 ! A109  A(25,27,51)           123.2646         estimate D2E/DX2                !
 ! A110  A(25,27,52)           121.2941         estimate D2E/DX2                !
 ! A111  A(51,27,52)           115.4396         estimate D2E/DX2                !
 ! A112  A(18,28,53)           112.1901         estimate D2E/DX2                !
 ! A113  A(18,28,54)           111.3304         estimate D2E/DX2                !
 ! A114  A(18,28,55)           110.5963         estimate D2E/DX2                !
 ! A115  A(53,28,54)           108.4998         estimate D2E/DX2                !
 ! A116  A(53,28,55)           105.6295         estimate D2E/DX2                !
 ! A117  A(54,28,55)           108.3624         estimate D2E/DX2                !
 ! A118  A(18,29,56)           111.4564         estimate D2E/DX2                !
 ! A119  A(18,29,57)           111.8259         estimate D2E/DX2                !
 ! A120  A(18,29,58)           110.6887         estimate D2E/DX2                !
 ! A121  A(56,29,57)           108.9115         estimate D2E/DX2                !
 ! A122  A(56,29,58)           108.3165         estimate D2E/DX2                !
 ! A123  A(57,29,58)           105.4046         estimate D2E/DX2                !
 ! A124  A(2,32,59)            112.0521         estimate D2E/DX2                !
 ! A125  A(2,32,60)            110.4604         estimate D2E/DX2                !
 ! A126  A(2,32,61)            110.2407         estimate D2E/DX2                !
 ! A127  A(59,32,60)           107.7069         estimate D2E/DX2                !
 ! A128  A(59,32,61)           107.6785         estimate D2E/DX2                !
 ! A129  A(60,32,61)           108.5797         estimate D2E/DX2                !
 ! A130  A(14,62,63)           110.0498         estimate D2E/DX2                !
 ! A131  A(14,62,64)           111.5327         estimate D2E/DX2                !
 ! A132  A(14,62,65)           111.0107         estimate D2E/DX2                !
 ! A133  A(63,62,64)           107.6505         estimate D2E/DX2                !
 ! A134  A(63,62,65)           107.976          estimate D2E/DX2                !
 ! A135  A(64,62,65)           108.4904         estimate D2E/DX2                !
 ! D1    D(6,1,2,3)             -0.3851         estimate D2E/DX2                !
 ! D2    D(6,1,2,32)          -178.6076         estimate D2E/DX2                !
 ! D3    D(33,1,2,3)           177.4661         estimate D2E/DX2                !
 ! D4    D(33,1,2,32)           -0.7564         estimate D2E/DX2                !
 ! D5    D(2,1,6,5)            -33.2828         estimate D2E/DX2                !
 ! D6    D(2,1,6,34)            91.3475         estimate D2E/DX2                !
 ! D7    D(2,1,6,35)          -154.9703         estimate D2E/DX2                !
 ! D8    D(33,1,6,5)           148.7955         estimate D2E/DX2                !
 ! D9    D(33,1,6,34)          -86.5741         estimate D2E/DX2                !
 ! D10   D(33,1,6,35)           27.108          estimate D2E/DX2                !
 ! D11   D(1,2,3,4)             25.3524         estimate D2E/DX2                !
 ! D12   D(1,2,3,20)           -94.6233         estimate D2E/DX2                !
 ! D13   D(1,2,3,31)           146.6725         estimate D2E/DX2                !
 ! D14   D(32,2,3,4)          -156.3382         estimate D2E/DX2                !
 ! D15   D(32,2,3,20)           83.6861         estimate D2E/DX2                !
 ! D16   D(32,2,3,31)          -35.0182         estimate D2E/DX2                !
 ! D17   D(1,2,32,59)           -0.5933         estimate D2E/DX2                !
 ! D18   D(1,2,32,60)          119.4985         estimate D2E/DX2                !
 ! D19   D(1,2,32,61)         -120.4993         estimate D2E/DX2                !
 ! D20   D(3,2,32,59)         -178.8845         estimate D2E/DX2                !
 ! D21   D(3,2,32,60)          -58.7928         estimate D2E/DX2                !
 ! D22   D(3,2,32,61)           61.2095         estimate D2E/DX2                !
 ! D23   D(2,3,4,5)            -15.1228         estimate D2E/DX2                !
 ! D24   D(2,3,4,7)           -142.6437         estimate D2E/DX2                !
 ! D25   D(2,3,4,24)           104.932          estimate D2E/DX2                !
 ! D26   D(20,3,4,5)           108.3344         estimate D2E/DX2                !
 ! D27   D(20,3,4,7)           -19.1866         estimate D2E/DX2                !
 ! D28   D(20,3,4,24)         -131.6108         estimate D2E/DX2                !
 ! D29   D(31,3,4,5)          -136.3446         estimate D2E/DX2                !
 ! D30   D(31,3,4,7)            96.1345         estimate D2E/DX2                !
 ! D31   D(31,3,4,24)          -16.2898         estimate D2E/DX2                !
 ! D32   D(2,3,20,17)          164.1536         estimate D2E/DX2                !
 ! D33   D(2,3,20,42)           44.1172         estimate D2E/DX2                !
 ! D34   D(2,3,20,43)          -75.8465         estimate D2E/DX2                !
 ! D35   D(4,3,20,17)           37.5607         estimate D2E/DX2                !
 ! D36   D(4,3,20,42)          -82.4757         estimate D2E/DX2                !
 ! D37   D(4,3,20,43)          157.5605         estimate D2E/DX2                !
 ! D38   D(31,3,20,17)         -77.4877         estimate D2E/DX2                !
 ! D39   D(31,3,20,42)         162.4759         estimate D2E/DX2                !
 ! D40   D(31,3,20,43)          42.5121         estimate D2E/DX2                !
 ! D41   D(3,4,5,6)            -16.6397         estimate D2E/DX2                !
 ! D42   D(3,4,5,10)          -135.9737         estimate D2E/DX2                !
 ! D43   D(3,4,5,22)           103.1046         estimate D2E/DX2                !
 ! D44   D(7,4,5,6)            105.375          estimate D2E/DX2                !
 ! D45   D(7,4,5,10)           -13.959          estimate D2E/DX2                !
 ! D46   D(7,4,5,22)          -134.8807         estimate D2E/DX2                !
 ! D47   D(24,4,5,6)          -136.1985         estimate D2E/DX2                !
 ! D48   D(24,4,5,10)          104.4675         estimate D2E/DX2                !
 ! D49   D(24,4,5,22)          -16.4542         estimate D2E/DX2                !
 ! D50   D(3,4,7,8)            105.9195         estimate D2E/DX2                !
 ! D51   D(3,4,7,17)            -6.2405         estimate D2E/DX2                !
 ! D52   D(3,4,7,21)          -129.3137         estimate D2E/DX2                !
 ! D53   D(5,4,7,8)            -22.8016         estimate D2E/DX2                !
 ! D54   D(5,4,7,17)          -134.9617         estimate D2E/DX2                !
 ! D55   D(5,4,7,21)           101.9651         estimate D2E/DX2                !
 ! D56   D(24,4,7,8)          -141.7084         estimate D2E/DX2                !
 ! D57   D(24,4,7,17)          106.1316         estimate D2E/DX2                !
 ! D58   D(24,4,7,21)          -16.9416         estimate D2E/DX2                !
 ! D59   D(3,4,24,23)         -123.3069         estimate D2E/DX2                !
 ! D60   D(5,4,24,23)            2.5593         estimate D2E/DX2                !
 ! D61   D(7,4,24,23)          126.1302         estimate D2E/DX2                !
 ! D62   D(4,5,6,1)             40.1317         estimate D2E/DX2                !
 ! D63   D(4,5,6,34)           -81.9839         estimate D2E/DX2                !
 ! D64   D(4,5,6,35)           161.5783         estimate D2E/DX2                !
 ! D65   D(10,5,6,1)           163.7956         estimate D2E/DX2                !
 ! D66   D(10,5,6,34)           41.6799         estimate D2E/DX2                !
 ! D67   D(10,5,6,35)          -74.7579         estimate D2E/DX2                !
 ! D68   D(22,5,6,1)           -75.669          estimate D2E/DX2                !
 ! D69   D(22,5,6,34)          162.2154         estimate D2E/DX2                !
 ! D70   D(22,5,6,35)           45.7775         estimate D2E/DX2                !
 ! D71   D(4,5,10,9)            44.8388         estimate D2E/DX2                !
 ! D72   D(4,5,10,16)         -141.5119         estimate D2E/DX2                !
 ! D73   D(6,5,10,9)           -80.1621         estimate D2E/DX2                !
 ! D74   D(6,5,10,16)           93.4871         estimate D2E/DX2                !
 ! D75   D(22,5,10,9)          160.5639         estimate D2E/DX2                !
 ! D76   D(22,5,10,16)         -25.7869         estimate D2E/DX2                !
 ! D77   D(4,5,22,23)           23.7454         estimate D2E/DX2                !
 ! D78   D(4,5,22,45)          150.4622         estimate D2E/DX2                !
 ! D79   D(4,5,22,46)          -91.5348         estimate D2E/DX2                !
 ! D80   D(6,5,22,23)          146.5191         estimate D2E/DX2                !
 ! D81   D(6,5,22,45)          -86.7641         estimate D2E/DX2                !
 ! D82   D(6,5,22,46)           31.2389         estimate D2E/DX2                !
 ! D83   D(10,5,22,23)         -97.5092         estimate D2E/DX2                !
 ! D84   D(10,5,22,45)          29.2076         estimate D2E/DX2                !
 ! D85   D(10,5,22,46)         147.2106         estimate D2E/DX2                !
 ! D86   D(4,7,8,9)             35.5603         estimate D2E/DX2                !
 ! D87   D(4,7,8,19)          -138.3757         estimate D2E/DX2                !
 ! D88   D(17,7,8,9)           151.9876         estimate D2E/DX2                !
 ! D89   D(17,7,8,19)          -21.9483         estimate D2E/DX2                !
 ! D90   D(21,7,8,9)           -91.4817         estimate D2E/DX2                !
 ! D91   D(21,7,8,19)           94.5824         estimate D2E/DX2                !
 ! D92   D(4,7,17,18)          150.797          estimate D2E/DX2                !
 ! D93   D(4,7,17,20)           29.116          estimate D2E/DX2                !
 ! D94   D(4,7,17,30)          -88.8478         estimate D2E/DX2                !
 ! D95   D(8,7,17,18)           29.0878         estimate D2E/DX2                !
 ! D96   D(8,7,17,20)          -92.5931         estimate D2E/DX2                !
 ! D97   D(8,7,17,30)          149.4431         estimate D2E/DX2                !
 ! D98   D(21,7,17,18)         -85.2305         estimate D2E/DX2                !
 ! D99   D(21,7,17,20)         153.0885         estimate D2E/DX2                !
 ! D100  D(21,7,17,30)          35.1247         estimate D2E/DX2                !
 ! D101  D(4,7,21,44)           20.1921         estimate D2E/DX2                !
 ! D102  D(8,7,21,44)          148.9727         estimate D2E/DX2                !
 ! D103  D(17,7,21,44)        -101.3166         estimate D2E/DX2                !
 ! D104  D(7,8,9,10)            -5.4154         estimate D2E/DX2                !
 ! D105  D(7,8,9,11)          -177.8249         estimate D2E/DX2                !
 ! D106  D(19,8,9,10)          167.9174         estimate D2E/DX2                !
 ! D107  D(19,8,9,11)           -4.4921         estimate D2E/DX2                !
 ! D108  D(7,8,19,18)            4.1756         estimate D2E/DX2                !
 ! D109  D(9,8,19,18)         -169.7105         estimate D2E/DX2                !
 ! D110  D(8,9,10,5)           -36.2364         estimate D2E/DX2                !
 ! D111  D(8,9,10,16)          149.9025         estimate D2E/DX2                !
 ! D112  D(11,9,10,5)          136.2138         estimate D2E/DX2                !
 ! D113  D(11,9,10,16)         -37.6473         estimate D2E/DX2                !
 ! D114  D(8,9,11,12)          120.5695         estimate D2E/DX2                !
 ! D115  D(8,9,11,13)          -60.6999         estimate D2E/DX2                !
 ! D116  D(10,9,11,12)         -51.4613         estimate D2E/DX2                !
 ! D117  D(10,9,11,13)         127.2693         estimate D2E/DX2                !
 ! D118  D(9,11,13,14)         126.8745         estimate D2E/DX2                !
 ! D119  D(9,11,13,15)        -109.7716         estimate D2E/DX2                !
 ! D120  D(9,11,13,36)           7.7241         estimate D2E/DX2                !
 ! D121  D(12,11,13,14)        -54.4422         estimate D2E/DX2                !
 ! D122  D(12,11,13,15)         68.9116         estimate D2E/DX2                !
 ! D123  D(12,11,13,36)       -173.5927         estimate D2E/DX2                !
 ! D124  D(11,13,14,37)        -49.3887         estimate D2E/DX2                !
 ! D125  D(11,13,14,38)         67.0812         estimate D2E/DX2                !
 ! D126  D(11,13,14,62)       -170.3259         estimate D2E/DX2                !
 ! D127  D(15,13,14,37)       -170.1234         estimate D2E/DX2                !
 ! D128  D(15,13,14,38)        -53.6535         estimate D2E/DX2                !
 ! D129  D(15,13,14,62)         68.9394         estimate D2E/DX2                !
 ! D130  D(36,13,14,37)         69.7935         estimate D2E/DX2                !
 ! D131  D(36,13,14,38)       -173.7366         estimate D2E/DX2                !
 ! D132  D(36,13,14,62)        -51.1437         estimate D2E/DX2                !
 ! D133  D(11,13,15,39)        -65.7036         estimate D2E/DX2                !
 ! D134  D(11,13,15,40)        173.4463         estimate D2E/DX2                !
 ! D135  D(11,13,15,41)         53.7312         estimate D2E/DX2                !
 ! D136  D(14,13,15,39)         55.5402         estimate D2E/DX2                !
 ! D137  D(14,13,15,40)        -65.3099         estimate D2E/DX2                !
 ! D138  D(14,13,15,41)        174.9751         estimate D2E/DX2                !
 ! D139  D(36,13,15,39)        176.1653         estimate D2E/DX2                !
 ! D140  D(36,13,15,40)         55.3152         estimate D2E/DX2                !
 ! D141  D(36,13,15,41)        -64.3998         estimate D2E/DX2                !
 ! D142  D(13,14,62,63)        175.9303         estimate D2E/DX2                !
 ! D143  D(13,14,62,64)        -64.6641         estimate D2E/DX2                !
 ! D144  D(13,14,62,65)         56.4517         estimate D2E/DX2                !
 ! D145  D(37,14,62,63)         54.3793         estimate D2E/DX2                !
 ! D146  D(37,14,62,64)        173.7848         estimate D2E/DX2                !
 ! D147  D(37,14,62,65)        -65.0994         estimate D2E/DX2                !
 ! D148  D(38,14,62,63)        -60.8536         estimate D2E/DX2                !
 ! D149  D(38,14,62,64)         58.552          estimate D2E/DX2                !
 ! D150  D(38,14,62,65)        179.6678         estimate D2E/DX2                !
 ! D151  D(7,17,18,19)         -28.7166         estimate D2E/DX2                !
 ! D152  D(7,17,18,28)          88.7645         estimate D2E/DX2                !
 ! D153  D(7,17,18,29)        -147.6207         estimate D2E/DX2                !
 ! D154  D(20,17,18,19)         82.8405         estimate D2E/DX2                !
 ! D155  D(20,17,18,28)       -159.6784         estimate D2E/DX2                !
 ! D156  D(20,17,18,29)        -36.0636         estimate D2E/DX2                !
 ! D157  D(30,17,18,19)       -149.9074         estimate D2E/DX2                !
 ! D158  D(30,17,18,28)        -32.4262         estimate D2E/DX2                !
 ! D159  D(30,17,18,29)         91.1886         estimate D2E/DX2                !
 ! D160  D(7,17,20,3)          -40.8454         estimate D2E/DX2                !
 ! D161  D(7,17,20,42)          78.2275         estimate D2E/DX2                !
 ! D162  D(7,17,20,43)        -161.2753         estimate D2E/DX2                !
 ! D163  D(18,17,20,3)        -152.7812         estimate D2E/DX2                !
 ! D164  D(18,17,20,42)        -33.7083         estimate D2E/DX2                !
 ! D165  D(18,17,20,43)         86.7889         estimate D2E/DX2                !
 ! D166  D(30,17,20,3)          79.1518         estimate D2E/DX2                !
 ! D167  D(30,17,20,42)       -161.7753         estimate D2E/DX2                !
 ! D168  D(30,17,20,43)        -41.2781         estimate D2E/DX2                !
 ! D169  D(17,18,19,8)          15.5576         estimate D2E/DX2                !
 ! D170  D(28,18,19,8)        -104.9356         estimate D2E/DX2                !
 ! D171  D(29,18,19,8)         137.9995         estimate D2E/DX2                !
 ! D172  D(17,18,28,53)        -60.013          estimate D2E/DX2                !
 ! D173  D(17,18,28,54)         61.8008         estimate D2E/DX2                !
 ! D174  D(17,18,28,55)       -177.6662         estimate D2E/DX2                !
 ! D175  D(19,18,28,53)         56.7737         estimate D2E/DX2                !
 ! D176  D(19,18,28,54)        178.5876         estimate D2E/DX2                !
 ! D177  D(19,18,28,55)        -60.8795         estimate D2E/DX2                !
 ! D178  D(29,18,28,53)        173.5708         estimate D2E/DX2                !
 ! D179  D(29,18,28,54)        -64.6153         estimate D2E/DX2                !
 ! D180  D(29,18,28,55)         55.9176         estimate D2E/DX2                !
 ! D181  D(17,18,29,56)        -57.5671         estimate D2E/DX2                !
 ! D182  D(17,18,29,57)         64.6101         estimate D2E/DX2                !
 ! D183  D(17,18,29,58)       -178.1889         estimate D2E/DX2                !
 ! D184  D(19,18,29,56)       -175.5063         estimate D2E/DX2                !
 ! D185  D(19,18,29,57)        -53.329          estimate D2E/DX2                !
 ! D186  D(19,18,29,58)         63.872          estimate D2E/DX2                !
 ! D187  D(28,18,29,56)         68.0283         estimate D2E/DX2                !
 ! D188  D(28,18,29,57)       -169.7944         estimate D2E/DX2                !
 ! D189  D(28,18,29,58)        -52.5934         estimate D2E/DX2                !
 ! D190  D(5,22,23,24)         -23.057          estimate D2E/DX2                !
 ! D191  D(5,22,23,25)          99.5803         estimate D2E/DX2                !
 ! D192  D(5,22,23,47)        -137.7508         estimate D2E/DX2                !
 ! D193  D(45,22,23,24)       -150.3677         estimate D2E/DX2                !
 ! D194  D(45,22,23,25)        -27.7304         estimate D2E/DX2                !
 ! D195  D(45,22,23,47)         94.9385         estimate D2E/DX2                !
 ! D196  D(46,22,23,24)         94.0255         estimate D2E/DX2                !
 ! D197  D(46,22,23,25)       -143.3372         estimate D2E/DX2                !
 ! D198  D(46,22,23,47)        -20.6683         estimate D2E/DX2                !
 ! D199  D(22,23,24,4)          12.7742         estimate D2E/DX2                !
 ! D200  D(25,23,24,4)        -117.7188         estimate D2E/DX2                !
 ! D201  D(47,23,24,4)         128.0286         estimate D2E/DX2                !
 ! D202  D(22,23,25,26)        176.0341         estimate D2E/DX2                !
 ! D203  D(22,23,25,27)         -1.4758         estimate D2E/DX2                !
 ! D204  D(24,23,25,26)        -61.7928         estimate D2E/DX2                !
 ! D205  D(24,23,25,27)        120.6974         estimate D2E/DX2                !
 ! D206  D(47,23,25,26)         52.7557         estimate D2E/DX2                !
 ! D207  D(47,23,25,27)       -124.7541         estimate D2E/DX2                !
 ! D208  D(23,25,26,48)         62.7132         estimate D2E/DX2                !
 ! D209  D(23,25,26,49)       -177.1154         estimate D2E/DX2                !
 ! D210  D(23,25,26,50)        -57.4197         estimate D2E/DX2                !
 ! D211  D(27,25,26,48)       -119.5997         estimate D2E/DX2                !
 ! D212  D(27,25,26,49)          0.5716         estimate D2E/DX2                !
 ! D213  D(27,25,26,50)        120.2673         estimate D2E/DX2                !
 ! D214  D(23,25,27,51)         -0.4769         estimate D2E/DX2                !
 ! D215  D(23,25,27,52)        179.0349         estimate D2E/DX2                !
 ! D216  D(26,25,27,51)       -177.8839         estimate D2E/DX2                !
 ! D217  D(26,25,27,52)          1.6279         estimate D2E/DX2                !
 --------------------------------------------------------------------------------
 Trust Radius=3.00D-01 FncErr=1.00D-07 GrdErr=1.00D-06
 Number of steps in this run=    390 maximum allowed number of steps=    390.
 GradGradGradGradGradGradGradGradGradGradGradGradGradGradGradGradGradGrad

 Stoichiometry    C26H34O5
 Framework group  C1[X(C26H34O5)]
 Deg. of freedom   189
 Full point group                 C1      NOp   1
 Largest Abelian subgroup         C1      NOp   1
 Largest concise Abelian subgroup C1      NOp   1
                         Standard orientation:                         
 ---------------------------------------------------------------------
 Center     Atomic      Atomic             Coordinates (Angstroms)
 Number     Number       Type             X           Y           Z
 ---------------------------------------------------------------------
      1          6           0        2.274958    1.085102   -2.691101
      2          6           0        2.677070    1.891391   -1.698017
      3          6           0        2.141032    1.727407   -0.299234
      4          6           0        1.629241    0.306177    0.082842
      5          6           0        1.383932   -0.678982   -1.078843
      6          6           0        1.288867   -0.018276   -2.474148
      7          6           0        0.389647    0.582247    0.974851
      8          6           0       -0.930985    0.324487    0.336900
      9          6           0       -1.133168   -0.673989   -0.528172
     10          6           0        0.064489   -1.452608   -0.925506
     11          6           0       -2.440167   -0.883622   -1.186143
     12          8           0       -2.504644   -0.851009   -2.415501
     13          6           0       -3.653777   -1.162042   -0.306118
     14          6           0       -4.774176   -0.172303   -0.657242
     15          6           0       -4.068384   -2.618961   -0.501787
     16          8           0       -0.052235   -2.638396   -1.225229
     17          6           0        0.302366    2.076072    1.217395
     18          6           0       -1.209377    2.315233    1.398377
     19          8           0       -1.882312    1.292747    0.623107
     20          6           0        0.944859    2.655850   -0.046017
     21          8           0        0.432761   -0.131688    2.202167
     22          6           0        2.602735   -1.604477   -1.015779
     23          6           0        3.112613   -1.527520    0.414018
     24          8           0        2.643254   -0.281463    0.948432
     25          6           0        2.766268   -2.611454    1.414189
     26          6           0        3.416839   -2.454166    2.767974
     27          6           0        1.992848   -3.683841    1.177176
     28          6           0       -1.651900    2.156060    2.861652
     29          6           0       -1.679168    3.682264    0.893633
     30          1           0        0.868010    2.395034    2.101774
     31          1           0        2.944064    1.998395    0.401862
     32          6           0        3.644248    3.016992   -1.928460
     33          1           0        2.635162    1.235585   -3.706351
     34          1           0        0.289753    0.392393   -2.667393
     35          1           0        1.446280   -0.785038   -3.244794
     36          1           0       -3.373070   -1.026184    0.745217
     37          1           0       -4.370316    0.847820   -0.668873
     38          1           0       -5.148212   -0.364535   -1.670653
     39          1           0       -4.425118   -2.798898   -1.521925
     40          1           0       -4.863864   -2.903119    0.193472
     41          1           0       -3.220212   -3.290704   -0.328188
     42          1           0        0.256923    2.638951   -0.900499
     43          1           0        1.257951    3.694337    0.107185
     44          1           0        1.373154   -0.369339    2.335156
     45          1           0        2.425570   -2.623990   -1.369047
     46          1           0        3.399129   -1.213698   -1.663626
     47          1           0        4.208393   -1.470863    0.378947
     48          1           0        3.086201   -1.532492    3.256147
     49          1           0        3.179368   -3.284833    3.441334
     50          1           0        4.506200   -2.418848    2.661956
     51          1           0        1.522913   -3.877647    0.220886
     52          1           0        1.805401   -4.426001    1.948265
     53          1           0       -1.445534    1.154128    3.249009
     54          1           0       -1.157375    2.887486    3.509079
     55          1           0       -2.736186    2.290767    2.953548
     56          1           0       -1.143947    4.497999    1.390103
     57          1           0       -1.552343    3.781909   -0.189191
     58          1           0       -2.752559    3.814031    1.074510
     59          1           0        3.966773    3.074520   -2.973425
     60          1           0        3.184475    3.975737   -1.668701
     61          1           0        4.538294    2.880398   -1.311636
     62          6           0       -5.937904   -0.216143    0.321739
     63          1           0       -6.671616    0.555630    0.067432
     64          1           0       -6.449745   -1.182376    0.293914
     65          1           0       -5.596546   -0.033471    1.345613
 ---------------------------------------------------------------------
 Rotational constants (GHZ):      0.2034377      0.1331131      0.1157474
 Standard basis: 6-31G(d) (6D, 7F)
 There are   533 symmetry adapted basis functions of A   symmetry.
 Integral buffers will be    131072 words long.
 Raffenetti 2 integral format.
 Two-electron integral symmetry is turned on.
   533 basis functions,  1004 primitive gaussians,   533 cartesian basis functions
   115 alpha electrons      115 beta electrons
       nuclear repulsion energy      3535.2347012017 Hartrees.
 NAtoms=   65 NActive=   65 NUniq=   65 SFac= 1.00D+00 NAtFMM=   50 NAOKFM=T Big=T
 One-electron integrals computed using PRISM.
 NBasis=   533 RedAO= T  NBF=   533
 NBsUse=   533 1.00D-06 NBFU=   533
 Harris functional with IExCor=  402 diagonalized for initial guess.
 ExpMin= 1.61D-01 ExpMax= 5.48D+03 ExpMxC= 8.25D+02 IAcc=1 IRadAn=         1 AccDes= 0.00D+00
 HarFok:  IExCor=  402 AccDes= 0.00D+00 IRadAn=         1 IDoV= 1
 ScaDFX=  1.000000  1.000000  1.000000  1.000000
 FoFCou: FMM=F IPFlag=           0 FMFlag=      100000 FMFlg1=        2001
         NFxFlg=           0 DoJE=T BraDBF=F KetDBF=T FulRan=T
         Omega=  0.000000  0.000000  1.000000  0.000000  0.000000 ICntrl=     500 IOpCl=  0
         NMat0=    1 NMatS0=    1 NMatT0=    0 NMatD0=    1 NMtDS0=    0 NMtDT0=    0
         I1Cent=           4 NGrid=           0.
 Petite list used in FoFCou.
 Initial guess orbital symmetries:
       Occupied  (A) (A) (A) (A) (A) (A) (A) (A) (A) (A) (A) (A)
                 (A) (A) (A) (A) (A) (A) (A) (A) (A) (A) (A) (A)
                 (A) (A) (A) (A) (A) (A) (A) (A) (A) (A) (A) (A)
                 (A) (A) (A) (A) (A) (A) (A) (A) (A) (A) (A) (A)
                 (A) (A) (A) (A) (A) (A) (A) (A) (A) (A) (A) (A)
                 (A) (A) (A) (A) (A) (A) (A) (A) (A) (A) (A) (A)
                 (A) (A) (A) (A) (A) (A) (A) (A) (A) (A) (A) (A)
                 (A) (A) (A) (A) (A) (A) (A) (A) (A) (A) (A) (A)
                 (A) (A) (A) (A) (A) (A) (A) (A) (A) (A) (A) (A)
                 (A) (A) (A) (A) (A) (A) (A)
       Virtual   (A) (A) (A) (A) (A) (A) (A) (A) (A) (A) (A) (A)
                 (A) (A) (A) (A) (A) (A) (A) (A) (A) (A) (A) (A)
                 (A) (A) (A) (A) (A) (A) (A) (A) (A) (A) (A) (A)
                 (A) (A) (A) (A) (A) (A) (A) (A) (A) (A) (A) (A)
                 (A) (A) (A) (A) (A) (A) (A) (A) (A) (A) (A) (A)
                 (A) (A) (A) (A) (A) (A) (A) (A) (A) (A) (A) (A)
                 (A) (A) (A) (A) (A) (A) (A) (A) (A) (A) (A) (A)
                 (A) (A) (A) (A) (A) (A) (A) (A) (A) (A) (A) (A)
                 (A) (A) (A) (A) (A) (A) (A) (A) (A) (A) (A) (A)
                 (A) (A) (A) (A) (A) (A) (A) (A) (A) (A) (A) (A)
                 (A) (A) (A) (A) (A) (A) (A) (A) (A) (A) (A) (A)
                 (A) (A) (A) (A) (A) (A) (A) (A) (A) (A) (A) (A)
                 (A) (A) (A) (A) (A) (A) (A) (A) (A) (A) (A) (A)
                 (A) (A) (A) (A) (A) (A) (A) (A) (A) (A) (A) (A)
                 (A) (A) (A) (A) (A) (A) (A) (A) (A) (A) (A) (A)
                 (A) (A) (A) (A) (A) (A) (A) (A) (A) (A) (A) (A)
                 (A) (A) (A) (A) (A) (A) (A) (A) (A) (A) (A) (A)
                 (A) (A) (A) (A) (A) (A) (A) (A) (A) (A) (A) (A)
                 (A) (A) (A) (A) (A) (A) (A) (A) (A) (A) (A) (A)
                 (A) (A) (A) (A) (A) (A) (A) (A) (A) (A) (A) (A)
                 (A) (A) (A) (A) (A) (A) (A) (A) (A) (A) (A) (A)
                 (A) (A) (A) (A) (A) (A) (A) (A) (A) (A) (A) (A)
                 (A) (A) (A) (A) (A) (A) (A) (A) (A) (A) (A) (A)
                 (A) (A) (A) (A) (A) (A) (A) (A) (A) (A) (A) (A)
                 (A) (A) (A) (A) (A) (A) (A) (A) (A) (A) (A) (A)
                 (A) (A) (A) (A) (A) (A) (A) (A) (A) (A) (A) (A)
                 (A) (A) (A) (A) (A) (A) (A) (A) (A) (A) (A) (A)
                 (A) (A) (A) (A) (A) (A) (A) (A) (A) (A) (A) (A)
                 (A) (A) (A) (A) (A) (A) (A) (A) (A) (A) (A) (A)
                 (A) (A) (A) (A) (A) (A) (A) (A) (A) (A) (A) (A)
                 (A) (A) (A) (A) (A) (A) (A) (A) (A) (A) (A) (A)
                 (A) (A) (A) (A) (A) (A) (A) (A) (A) (A) (A) (A)
                 (A) (A) (A) (A) (A) (A) (A) (A) (A) (A) (A) (A)
                 (A) (A) (A) (A) (A) (A) (A) (A) (A) (A) (A) (A)
                 (A) (A) (A) (A) (A) (A) (A) (A) (A) (A)
 The electronic state of the initial guess is 1-A.
 Requested convergence on RMS density matrix=1.00D-08 within 128 cycles.
 Requested convergence on MAX density matrix=1.00D-06.
 Requested convergence on             energy=1.00D-06.
 No special actions if energy rises.
 Integral accuracy reduced to 1.0D-05 until final iterations.
 Initial convergence to 1.0D-05 achieved.  Increase integral accuracy.
 SCF Done:  E(RB3LYP) =  -1387.30192385     A.U. after   16 cycles
             Convg  =    0.4362D-08             -V/T =  2.0090

 **********************************************************************

            Population analysis using the SCF density.

 **********************************************************************

 Orbital symmetries:
       Occupied  (A) (A) (A) (A) (A) (A) (A) (A) (A) (A) (A) (A)
                 (A) (A) (A) (A) (A) (A) (A) (A) (A) (A) (A) (A)
                 (A) (A) (A) (A) (A) (A) (A) (A) (A) (A) (A) (A)
                 (A) (A) (A) (A) (A) (A) (A) (A) (A) (A) (A) (A)
                 (A) (A) (A) (A) (A) (A) (A) (A) (A) (A) (A) (A)
                 (A) (A) (A) (A) (A) (A) (A) (A) (A) (A) (A) (A)
                 (A) (A) (A) (A) (A) (A) (A) (A) (A) (A) (A) (A)
                 (A) (A) (A) (A) (A) (A) (A) (A) (A) (A) (A) (A)
                 (A) (A) (A) (A) (A) (A) (A) (A) (A) (A) (A) (A)
                 (A) (A) (A) (A) (A) (A) (A)
       Virtual   (A) (A) (A) (A) (A) (A) (A) (A) (A) (A) (A) (A)
                 (A) (A) (A) (A) (A) (A) (A) (A) (A) (A) (A) (A)
                 (A) (A) (A) (A) (A) (A) (A) (A) (A) (A) (A) (A)
                 (A) (A) (A) (A) (A) (A) (A) (A) (A) (A) (A) (A)
                 (A) (A) (A) (A) (A) (A) (A) (A) (A) (A) (A) (A)
                 (A) (A) (A) (A) (A) (A) (A) (A) (A) (A) (A) (A)
                 (A) (A) (A) (A) (A) (A) (A) (A) (A) (A) (A) (A)
                 (A) (A) (A) (A) (A) (A) (A) (A) (A) (A) (A) (A)
                 (A) (A) (A) (A) (A) (A) (A) (A) (A) (A) (A) (A)
                 (A) (A) (A) (A) (A) (A) (A) (A) (A) (A) (A) (A)
                 (A) (A) (A) (A) (A) (A) (A) (A) (A) (A) (A) (A)
                 (A) (A) (A) (A) (A) (A) (A) (A) (A) (A) (A) (A)
                 (A) (A) (A) (A) (A) (A) (A) (A) (A) (A) (A) (A)
                 (A) (A) (A) (A) (A) (A) (A) (A) (A) (A) (A) (A)
                 (A) (A) (A) (A) (A) (A) (A) (A) (A) (A) (A) (A)
                 (A) (A) (A) (A) (A) (A) (A) (A) (A) (A) (A) (A)
                 (A) (A) (A) (A) (A) (A) (A) (A) (A) (A) (A) (A)
                 (A) (A) (A) (A) (A) (A) (A) (A) (A) (A) (A) (A)
                 (A) (A) (A) (A) (A) (A) (A) (A) (A) (A) (A) (A)
                 (A) (A) (A) (A) (A) (A) (A) (A) (A) (A) (A) (A)
                 (A) (A) (A) (A) (A) (A) (A) (A) (A) (A) (A) (A)
                 (A) (A) (A) (A) (A) (A) (A) (A) (A) (A) (A) (A)
                 (A) (A) (A) (A) (A) (A) (A) (A) (A) (A) (A) (A)
                 (A) (A) (A) (A) (A) (A) (A) (A) (A) (A) (A) (A)
                 (A) (A) (A) (A) (A) (A) (A) (A) (A) (A) (A) (A)
                 (A) (A) (A) (A) (A) (A) (A) (A) (A) (A) (A) (A)
                 (A) (A) (A) (A) (A) (A) (A) (A) (A) (A) (A) (A)
                 (A) (A) (A) (A) (A) (A) (A) (A) (A) (A) (A) (A)
                 (A) (A) (A) (A) (A) (A) (A) (A) (A) (A) (A) (A)
                 (A) (A) (A) (A) (A) (A) (A) (A) (A) (A) (A) (A)
                 (A) (A) (A) (A) (A) (A) (A) (A) (A) (A) (A) (A)
                 (A) (A) (A) (A) (A) (A) (A) (A) (A) (A) (A) (A)
                 (A) (A) (A) (A) (A) (A) (A) (A) (A) (A) (A) (A)
                 (A) (A) (A) (A) (A) (A) (A) (A) (A) (A) (A) (A)
                 (A) (A) (A) (A) (A) (A) (A) (A) (A) (A)
 The electronic state is 1-A.
 Alpha  occ. eigenvalues --  -19.19740 -19.16907 -19.14404 -19.13637 -19.12970
 Alpha  occ. eigenvalues --  -10.27688 -10.26657 -10.26547 -10.26337 -10.26092
 Alpha  occ. eigenvalues --  -10.25380 -10.24536 -10.21796 -10.20294 -10.19856
 Alpha  occ. eigenvalues --  -10.19760 -10.19632 -10.19582 -10.19346 -10.19016
 Alpha  occ. eigenvalues --  -10.18980 -10.18793 -10.18776 -10.18504 -10.18384
 Alpha  occ. eigenvalues --  -10.18190 -10.17805 -10.17260 -10.17137 -10.16827
 Alpha  occ. eigenvalues --  -10.16647  -1.08592  -1.06091  -1.03402  -1.02070
 Alpha  occ. eigenvalues --   -1.01694  -0.87678  -0.84082  -0.82531  -0.81270
 Alpha  occ. eigenvalues --   -0.80223  -0.79774  -0.77125  -0.74373  -0.73557
 Alpha  occ. eigenvalues --   -0.72619  -0.71815  -0.69709  -0.68676  -0.67851
 Alpha  occ. eigenvalues --   -0.65683  -0.64060  -0.63634  -0.62245  -0.61115
 Alpha  occ. eigenvalues --   -0.59284  -0.58473  -0.56859  -0.54650  -0.53487
 Alpha  occ. eigenvalues --   -0.53143  -0.51937  -0.50848  -0.50205  -0.49302
 Alpha  occ. eigenvalues --   -0.48343  -0.47285  -0.47019  -0.46488  -0.45871
 Alpha  occ. eigenvalues --   -0.45133  -0.44567  -0.44557  -0.43966  -0.42980
 Alpha  occ. eigenvalues --   -0.42932  -0.42469  -0.42150  -0.41617  -0.41315
 Alpha  occ. eigenvalues --   -0.40859  -0.40701  -0.40235  -0.39940  -0.39545
 Alpha  occ. eigenvalues --   -0.39286  -0.38938  -0.38589  -0.38481  -0.38100
 Alpha  occ. eigenvalues --   -0.37804  -0.37582  -0.37126  -0.36368  -0.35876
 Alpha  occ. eigenvalues --   -0.35665  -0.35408  -0.34966  -0.34848  -0.34166
 Alpha  occ. eigenvalues --   -0.33850  -0.33509  -0.33305  -0.32597  -0.32402
 Alpha  occ. eigenvalues --   -0.31766  -0.31640  -0.31202  -0.27317  -0.26916
 Alpha  occ. eigenvalues --   -0.25037  -0.24807  -0.24213  -0.23621  -0.23191
 Alpha virt. eigenvalues --   -0.04780  -0.02293   0.01315   0.01816   0.04259
 Alpha virt. eigenvalues --    0.06711   0.08295   0.08883   0.09550   0.10181
 Alpha virt. eigenvalues --    0.10396   0.10890   0.11329   0.11587   0.12709
 Alpha virt. eigenvalues --    0.13136   0.13363   0.13612   0.13891   0.14135
 Alpha virt. eigenvalues --    0.14268   0.14849   0.15189   0.15470   0.15604
 Alpha virt. eigenvalues --    0.15928   0.16300   0.16744   0.17197   0.17322
 Alpha virt. eigenvalues --    0.17848   0.17983   0.18325   0.18721   0.19092
 Alpha virt. eigenvalues --    0.19496   0.19709   0.19904   0.20335   0.20436
 Alpha virt. eigenvalues --    0.20842   0.21320   0.21928   0.22229   0.22436
 Alpha virt. eigenvalues --    0.23657   0.24003   0.24305   0.24476   0.24672
 Alpha virt. eigenvalues --    0.25421   0.25618   0.25988   0.26291   0.26748
 Alpha virt. eigenvalues --    0.26959   0.27292   0.28008   0.29401   0.30386
 Alpha virt. eigenvalues --    0.31547   0.31853   0.32877   0.33652   0.34718
 Alpha virt. eigenvalues --    0.35115   0.36220   0.37842   0.39001   0.40192
 Alpha virt. eigenvalues --    0.42089   0.44015   0.46427   0.47513   0.48605
 Alpha virt. eigenvalues --    0.49299   0.50051   0.51431   0.51860   0.52278
 Alpha virt. eigenvalues --    0.52365   0.52768   0.52866   0.53245   0.53761
 Alpha virt. eigenvalues --    0.54378   0.54645   0.54889   0.55765   0.56067
 Alpha virt. eigenvalues --    0.56621   0.57386   0.57746   0.58702   0.58980
 Alpha virt. eigenvalues --    0.59712   0.59888   0.60254   0.60920   0.61397
 Alpha virt. eigenvalues --    0.61695   0.62873   0.63316   0.64543   0.64730
 Alpha virt. eigenvalues --    0.65053   0.65548   0.66630   0.66758   0.67199
 Alpha virt. eigenvalues --    0.68219   0.68405   0.69038   0.69564   0.69875
 Alpha virt. eigenvalues --    0.71045   0.71512   0.72358   0.73315   0.73371
 Alpha virt. eigenvalues --    0.74114   0.74851   0.75561   0.76044   0.76577
 Alpha virt. eigenvalues --    0.77240   0.77869   0.78710   0.79299   0.79636
 Alpha virt. eigenvalues --    0.80063   0.80599   0.80872   0.81712   0.82283
 Alpha virt. eigenvalues --    0.82906   0.83242   0.84051   0.84484   0.84616
 Alpha virt. eigenvalues --    0.85264   0.85949   0.86312   0.86691   0.86969
 Alpha virt. eigenvalues --    0.87546   0.87699   0.88471   0.88972   0.89107
 Alpha virt. eigenvalues --    0.89302   0.89402   0.90256   0.90302   0.90775
 Alpha virt. eigenvalues --    0.90886   0.91099   0.91322   0.91995   0.92190
 Alpha virt. eigenvalues --    0.92538   0.93016   0.93332   0.93712   0.94890
 Alpha virt. eigenvalues --    0.95174   0.95256   0.95898   0.96397   0.97112
 Alpha virt. eigenvalues --    0.97157   0.98065   0.98916   0.99014   0.99377
 Alpha virt. eigenvalues --    1.00601   1.01590   1.02071   1.02436   1.03153
 Alpha virt. eigenvalues --    1.03735   1.04736   1.05826   1.07673   1.08182
 Alpha virt. eigenvalues --    1.09435   1.10344   1.11354   1.12082   1.12899
 Alpha virt. eigenvalues --    1.13626   1.15168   1.15564   1.16447   1.16634
 Alpha virt. eigenvalues --    1.17503   1.18522   1.19059   1.20246   1.21348
 Alpha virt. eigenvalues --    1.22828   1.24625   1.25531   1.26064   1.28051
 Alpha virt. eigenvalues --    1.29359   1.30800   1.31515   1.32059   1.34035
 Alpha virt. eigenvalues --    1.34285   1.35225   1.35518   1.38566   1.39557
 Alpha virt. eigenvalues --    1.40097   1.42070   1.43965   1.44524   1.46049
 Alpha virt. eigenvalues --    1.47683   1.49284   1.50257   1.52083   1.52562
 Alpha virt. eigenvalues --    1.53678   1.56230   1.56911   1.57786   1.58410
 Alpha virt. eigenvalues --    1.59938   1.61368   1.62290   1.63423   1.63998
 Alpha virt. eigenvalues --    1.65777   1.67318   1.68107   1.69073   1.69559
 Alpha virt. eigenvalues --    1.70750   1.71894   1.72823   1.73378   1.74757
 Alpha virt. eigenvalues --    1.75998   1.76408   1.76987   1.77855   1.78460
 Alpha virt. eigenvalues --    1.79669   1.80010   1.80430   1.80964   1.82018
 Alpha virt. eigenvalues --    1.82262   1.82512   1.85016   1.85260   1.86416
 Alpha virt. eigenvalues --    1.87017   1.87323   1.88155   1.88536   1.88889
 Alpha virt. eigenvalues --    1.89236   1.89459   1.91290   1.91866   1.92085
 Alpha virt. eigenvalues --    1.92831   1.92882   1.93339   1.94253   1.95158
 Alpha virt. eigenvalues --    1.96037   1.96915   1.98081   1.98326   1.98608
 Alpha virt. eigenvalues --    1.99066   1.99753   2.00260   2.00769   2.01189
 Alpha virt. eigenvalues --    2.02055   2.03666   2.04270   2.04837   2.05015
 Alpha virt. eigenvalues --    2.06120   2.07621   2.07993   2.08918   2.09675
 Alpha virt. eigenvalues --    2.10362   2.11318   2.12459   2.13255   2.13453
 Alpha virt. eigenvalues --    2.14337   2.16195   2.16310   2.17282   2.18691
 Alpha virt. eigenvalues --    2.19025   2.19584   2.21661   2.22332   2.22709
 Alpha virt. eigenvalues --    2.23030   2.24367   2.26448   2.26841   2.27899
 Alpha virt. eigenvalues --    2.28277   2.28644   2.30062   2.30780   2.31444
 Alpha virt. eigenvalues --    2.31550   2.32280   2.33197   2.33963   2.34242
 Alpha virt. eigenvalues --    2.34810   2.36688   2.37222   2.38640   2.39316
 Alpha virt. eigenvalues --    2.40279   2.40835   2.41661   2.43766   2.44983
 Alpha virt. eigenvalues --    2.45600   2.46120   2.46521   2.47636   2.48972
 Alpha virt. eigenvalues --    2.49853   2.51233   2.51966   2.53220   2.54970
 Alpha virt. eigenvalues --    2.56038   2.57140   2.58862   2.60174   2.61204
 Alpha virt. eigenvalues --    2.62464   2.63396   2.64545   2.66336   2.66883
 Alpha virt. eigenvalues --    2.67336   2.67642   2.67937   2.69954   2.71385
 Alpha virt. eigenvalues --    2.72887   2.75474   2.75656   2.76744   2.77810
 Alpha virt. eigenvalues --    2.78479   2.79409   2.79982   2.81973   2.85178
 Alpha virt. eigenvalues --    2.88729   2.91339   2.92572   2.93739   2.94942
 Alpha virt. eigenvalues --    2.97334   2.98701   3.00118   3.01158   3.03250
 Alpha virt. eigenvalues --    3.05840   3.07178   3.11617   3.18013   3.20388
 Alpha virt. eigenvalues --    3.23627   3.27765   4.01188   4.10060   4.13377
 Alpha virt. eigenvalues --    4.15090   4.16644   4.18733   4.19388   4.20484
 Alpha virt. eigenvalues --    4.23844   4.25357   4.26232   4.27467   4.29827
 Alpha virt. eigenvalues --    4.32207   4.34215   4.37748   4.40712   4.42663
 Alpha virt. eigenvalues --    4.46435   4.47507   4.54831   4.56548   4.61588
 Alpha virt. eigenvalues --    4.65596   4.68295   4.70489   4.72627   4.77784
 Alpha virt. eigenvalues --    4.89532   4.92712   5.25405
          Condensed to atoms (all electrons):
 Mulliken atomic charges:
              1
     1  C   -0.200107
     2  C    0.201461
     3  C   -0.199520
     4  C    0.318093
     5  C   -0.044401
     6  C   -0.326783
     7  C    0.209786
     8  C    0.407193
     9  C   -0.098792
    10  C    0.420600
    11  C    0.426993
    12  O   -0.474686
    13  C   -0.140628
    14  C   -0.251070
    15  C   -0.458548
    16  O   -0.485970
    17  C   -0.151922
    18  C    0.305795
    19  O   -0.538334
    20  C   -0.306215
    21  O   -0.677740
    22  C   -0.327907
    23  C    0.091516
    24  O   -0.581601
    25  C    0.184292
    26  C   -0.509702
    27  C   -0.403277
    28  C   -0.459821
    29  C   -0.464078
    30  H    0.145338
    31  H    0.150547
    32  C   -0.519107
    33  H    0.126299
    34  H    0.181655
    35  H    0.165880
    36  H    0.139013
    37  H    0.142315
    38  H    0.150157
    39  H    0.162435
    40  H    0.147886
    41  H    0.163217
    42  H    0.161554
    43  H    0.149105
    44  H    0.431384
    45  H    0.186852
    46  H    0.152483
    47  H    0.134270
    48  H    0.155107
    49  H    0.157494
    50  H    0.151587
    51  H    0.175918
    52  H    0.136202
    53  H    0.185020
    54  H    0.141021
    55  H    0.148597
    56  H    0.150653
    57  H    0.158056
    58  H    0.157672
    59  H    0.157582
    60  H    0.155346
    61  H    0.155813
    62  C   -0.450682
    63  H    0.141837
    64  H    0.145889
    65  H    0.140977
 Sum of Mulliken atomic charges =   0.00000
 Mulliken charges with hydrogens summed into heavy atoms:
              1
     1  C   -0.073809
     2  C    0.201461
     3  C   -0.048973
     4  C    0.318093
     5  C   -0.044401
     6  C    0.020751
     7  C    0.209786
     8  C    0.407193
     9  C   -0.098792
    10  C    0.420600
    11  C    0.426993
    12  O   -0.474686
    13  C   -0.001615
    14  C    0.041402
    15  C    0.014991
    16  O   -0.485970
    17  C   -0.006583
    18  C    0.305795
    19  O   -0.538334
    20  C    0.004445
    21  O   -0.246356
    22  C    0.011429
    23  C    0.225786
    24  O   -0.581601
    25  C    0.184292
    26  C   -0.045514
    27  C   -0.091157
    28  C    0.014818
    29  C    0.002303
    32  C   -0.050367
    62  C   -0.021980
 Sum of Mulliken charges with hydrogens summed into heavy atoms =   0.00000
 Electronic spatial extent (au):  <R**2>=          11261.1319
 Charge=              0.0000 electrons
 Dipole moment (field-independent basis, Debye):
    X=              3.0854    Y=              3.8951    Z=              2.0914  Tot=              5.3913
 Quadrupole moment (field-independent basis, Debye-Ang):
   XX=           -177.4327   YY=           -179.9177   ZZ=           -188.8433
   XY=             -1.3594   XZ=             -7.6236   YZ=             -3.0097
 Traceless Quadrupole moment (field-independent basis, Debye-Ang):
   XX=              4.6319   YY=              2.1469   ZZ=             -6.7788
   XY=             -1.3594   XZ=             -7.6236   YZ=             -3.0097
 Octapole moment (field-independent basis, Debye-Ang**2):
  XXX=              3.9708  YYY=             32.2467  ZZZ=             15.6094  XYY=              2.9134
  XXY=             -8.5453  XXZ=              9.5506  XZZ=             33.9478  YZZ=              9.1581
  YYZ=             27.7323  XYZ=             -2.3063
 Hexadecapole moment (field-independent basis, Debye-Ang**3):
 XXXX=          -7906.4567 YYYY=          -4362.6599 ZZZZ=          -2749.3903 XXXY=             12.8433
 XXXZ=             22.6188 YYYX=              9.0820 YYYZ=             -6.6393 ZZZX=            -45.4945
 ZZZY=            -11.6912 XXYY=          -2019.9381 XXZZ=          -1805.7196 YYZZ=          -1162.1367
 XXYZ=            -14.8032 YYXZ=              9.4076 ZZXY=            -34.0332
 N-N= 3.535234701202D+03 E-N=-1.029699601840D+04  KE= 1.374868597049D+03
 Calling FoFJK, ICntrl=      2127 FMM=T ISym2X=0 I1Cent= 0 IOpClX= 0 NMat=1 NMatS=1 NMatT=0.
 ***** Axes restored to original set *****
 -------------------------------------------------------------------
 Center     Atomic                   Forces (Hartrees/Bohr)
 Number     Number              X              Y              Z
 -------------------------------------------------------------------
      1        6           0.009633307    0.000748820    0.001803177
      2        6          -0.010020462   -0.005791416    0.004510723
      3        6          -0.005749833   -0.009272731   -0.003148767
      4        6           0.012747068   -0.006074117    0.007224698
      5        6          -0.007400442    0.002870633    0.005394182
      6        6          -0.006465991   -0.008883764   -0.005093376
      7        6           0.022224648    0.016185869    0.006279592
      8        6          -0.005490345   -0.001154088   -0.023945468
      9        6           0.004262582   -0.003454021    0.005335247
     10        6          -0.017757345    0.017515434    0.002005147
     11        6          -0.020277581   -0.007797308   -0.002877240
     12        8           0.009553318    0.012131608    0.002338715
     13        6          -0.000126432   -0.005379370   -0.005328407
     14        6           0.001066515   -0.001177777   -0.005816145
     15        6          -0.006539029    0.003614747    0.005764898
     16        8           0.007735125   -0.010318136   -0.001479073
     17        6           0.002005575   -0.006576750   -0.011793617
     18        6           0.029769825    0.005219629   -0.015754917
     19        8          -0.009142622   -0.008759912    0.033793335
     20        6           0.009198427   -0.001978890   -0.006472863
     21        8          -0.005221804    0.005431109    0.004110397
     22        6          -0.002865571   -0.007740328    0.008220563
     23        6          -0.000956268    0.006307760    0.016832838
     24        8          -0.004522720   -0.008236435   -0.013973848
     25        6          -0.011662274    0.015314310    0.008154534
     26        6          -0.000056927    0.001036892   -0.001131479
     27        6           0.001068841   -0.008910219   -0.001661923
     28        6          -0.001881465    0.008534739    0.001885143
     29        6          -0.009045674   -0.000488063   -0.006944185
     30        1          -0.003212645    0.002286513    0.000452799
     31        1          -0.001876749    0.005586966    0.000742631
     32        6          -0.002438819   -0.000447341    0.000146530
     33        1           0.000708489   -0.000998424   -0.000040991
     34        1          -0.002120716    0.006030193   -0.000050395
     35        1           0.000393543    0.004935760   -0.000265908
     36        1           0.000811478   -0.002102478   -0.000402522
     37        1           0.000196420   -0.000742354    0.001663348
     38        1          -0.000311802   -0.001705082    0.003253424
     39        1           0.000848831   -0.001314386   -0.000533518
     40        1           0.000666564    0.000445968   -0.000486176
     41        1          -0.000142671    0.000485461    0.000544881
     42        1           0.000218712    0.000521002    0.001214835
     43        1          -0.002253545   -0.001732940   -0.001329644
     44        1          -0.002945243   -0.001369049   -0.002639741
     45        1           0.000944879    0.005010176   -0.005832568
     46        1           0.001004886    0.000923724   -0.004565842
     47        1           0.004515087   -0.000176066    0.000391123
     48        1           0.004221125   -0.002024527    0.001355845
     49        1          -0.001874308   -0.000715770   -0.001473284
     50        1           0.003808109   -0.002095373    0.000132772
     51        1          -0.000683550   -0.000727211   -0.002549500
     52        1           0.001773041    0.000025373    0.000508789
     53        1           0.000514793   -0.004788497    0.003416939
     54        1           0.000044720   -0.000830195   -0.000393918
     55        1           0.000454081   -0.003245752   -0.002328031
     56        1          -0.000069170    0.000723678    0.001370008
     57        1           0.001536169   -0.001982799    0.002513679
     58        1           0.002065834    0.001557507    0.001689519
     59        1          -0.000643326    0.000856726   -0.000364462
     60        1           0.004123819   -0.001582135   -0.000159155
     61        1           0.004151154   -0.001088141    0.000071454
     62        6          -0.000365737    0.002068051   -0.003030719
     63        1           0.000358598    0.001489464   -0.001094694
     64        1           0.000327468    0.002095057   -0.000142967
     65        1           0.001168038    0.001708678   -0.000016421
 -------------------------------------------------------------------
 Cartesian Forces:  Max     0.033793335 RMS     0.006735128

 GradGradGradGradGradGradGradGradGradGradGradGradGradGradGradGradGradGrad
 Berny optimization.
 Internal  Forces:  Max     0.017740260 RMS     0.003445865
 Search for a local minimum.
 Step number   1 out of a maximum of  390
 All quantities printed in internal units (Hartrees-Bohrs-Radians)
 Mixed Optimization -- RFO/linear search
 Second derivative matrix not updated -- first step.
 ITU=  0
     Eigenvalues ---    0.00277   0.00295   0.00355   0.00404   0.00439
     Eigenvalues ---    0.00483   0.00529   0.00564   0.00568   0.00594
     Eigenvalues ---    0.00631   0.00675   0.00691   0.00742   0.00817
     Eigenvalues ---    0.01054   0.01123   0.01227   0.01276   0.01457
     Eigenvalues ---    0.01513   0.01704   0.01723   0.01817   0.02069
     Eigenvalues ---    0.02564   0.02839   0.02839   0.03134   0.03158
     Eigenvalues ---    0.03491   0.03660   0.03876   0.04038   0.04080
     Eigenvalues ---    0.04276   0.04346   0.04456   0.04458   0.04631
     Eigenvalues ---    0.04639   0.04827   0.04946   0.05122   0.05283
     Eigenvalues ---    0.05309   0.05335   0.05397   0.05469   0.05501
     Eigenvalues ---    0.05537   0.05552   0.05571   0.05573   0.05606
     Eigenvalues ---    0.05714   0.05840   0.05865   0.05927   0.06143
     Eigenvalues ---    0.06574   0.06857   0.07046   0.07076   0.07156
     Eigenvalues ---    0.07218   0.07319   0.07349   0.07575   0.08093
     Eigenvalues ---    0.08356   0.08442   0.08743   0.09122   0.09616
     Eigenvalues ---    0.09768   0.10337   0.11509   0.11876   0.12277
     Eigenvalues ---    0.12579   0.13303   0.14489   0.15315   0.15989
     Eigenvalues ---    0.16000   0.16000   0.16000   0.16000   0.16000
     Eigenvalues ---    0.16000   0.16000   0.16000   0.16000   0.16000
     Eigenvalues ---    0.16000   0.16000   0.16000   0.16000   0.16000
     Eigenvalues ---    0.16000   0.16000   0.16000   0.16000   0.16000
     Eigenvalues ---    0.16407   0.16797   0.17008   0.17450   0.18141
     Eigenvalues ---    0.19434   0.20795   0.21902   0.22085   0.22740
     Eigenvalues ---    0.23243   0.24700   0.24850   0.24973   0.24985
     Eigenvalues ---    0.24987   0.24995   0.25000   0.26107   0.26595
     Eigenvalues ---    0.26883   0.27446   0.27845   0.28273   0.28306
     Eigenvalues ---    0.28787   0.28855   0.28909   0.29323   0.29669
     Eigenvalues ---    0.29915   0.30234   0.30249   0.30546   0.30854
     Eigenvalues ---    0.31330   0.31663   0.32185   0.32936   0.33691
     Eigenvalues ---    0.33851   0.33854   0.33926   0.33975   0.33992
     Eigenvalues ---    0.33993   0.33995   0.34002   0.34060   0.34074
     Eigenvalues ---    0.34075   0.34151   0.34174   0.34193   0.34200
     Eigenvalues ---    0.34228   0.34232   0.34258   0.34261   0.34267
     Eigenvalues ---    0.34271   0.34275   0.34283   0.34291   0.34340
     Eigenvalues ---    0.34350   0.34372   0.34379   0.34419   0.34775
     Eigenvalues ---    0.35078   0.35218   0.35634   0.35975   0.36537
     Eigenvalues ---    0.37918   0.41024   0.44438   0.50550   0.53387
     Eigenvalues ---    0.54227   0.56479   0.90473   0.91656
 RFO step:  Lambda=-2.26135227D-02 EMin= 2.76648526D-03
 Linear search not attempted -- first point.
 Iteration  1 RMS(Cart)=  0.07035443 RMS(Int)=  0.00128708
 Iteration  2 RMS(Cart)=  0.00221330 RMS(Int)=  0.00025067
 Iteration  3 RMS(Cart)=  0.00000240 RMS(Int)=  0.00025066
 Iteration  4 RMS(Cart)=  0.00000000 RMS(Int)=  0.00025066
 Variable       Old X    -DE/DX   Delta X   Delta X   Delta X     New X
                                 (Linear)    (Quad)   (Total)
    R1        2.53393  -0.00262   0.00000  -0.00497  -0.00502   2.52891
    R2        2.82632   0.00789   0.00000   0.02300   0.02288   2.84920
    R3        2.05549   0.00050   0.00000   0.00134   0.00134   2.05682
    R4        2.84767   0.00442   0.00000   0.01146   0.01153   2.85920
    R5        2.83806   0.00468   0.00000   0.01358   0.01358   2.85164
    R6        2.94446   0.00580   0.00000   0.01361   0.01357   2.95803
    R7        2.90118   0.01028   0.00000   0.03459   0.03454   2.93572
    R8        2.07855  -0.00202   0.00000  -0.00561  -0.00561   2.07295
    R9        2.91547   0.01098   0.00000   0.03152   0.03152   2.94698
   R10        2.93272   0.00997   0.00000   0.03616   0.03650   2.96922
   R11        2.75329  -0.00331   0.00000  -0.00778  -0.00774   2.74555
   R12        2.92294   0.00376   0.00000   0.01351   0.01346   2.93640
   R13        2.90486   0.00667   0.00000   0.01494   0.01459   2.91945
   R14        2.89443   0.00401   0.00000   0.01143   0.01127   2.90570
   R15        2.07373   0.00192   0.00000   0.00529   0.00529   2.07902
   R16        2.07577  -0.00141   0.00000  -0.00389  -0.00389   2.07188
   R17        2.81404   0.01042   0.00000   0.02405   0.02375   2.83778
   R18        2.86464   0.01492   0.00000   0.05216   0.05167   2.91631
   R19        2.68439   0.00065   0.00000   0.00181   0.00190   2.68629
   R20        2.52558   0.01376   0.00000   0.02424   0.02436   2.54995
   R21        2.62152  -0.01774   0.00000  -0.04130  -0.04104   2.58049
   R22        2.80196   0.00307   0.00000   0.00421   0.00437   2.80634
   R23        2.79342   0.01397   0.00000   0.03771   0.03771   2.83113
   R24        2.32179  -0.01067   0.00000  -0.01136  -0.01136   2.31042
   R25        2.32716  -0.01519   0.00000  -0.01638  -0.01638   2.31078
   R26        2.88133   0.00136   0.00000   0.00423   0.00423   2.88556
   R27        2.90192   0.00509   0.00000   0.01634   0.01634   2.91827
   R28        2.88627   0.00761   0.00000   0.02383   0.02383   2.91010
   R29        2.07230  -0.00027   0.00000  -0.00073  -0.00073   2.07156
   R30        2.07344   0.00011   0.00000   0.00031   0.00031   2.07375
   R31        2.07342  -0.00031   0.00000  -0.00086  -0.00086   2.07256
   R32        2.87499   0.00860   0.00000   0.02648   0.02648   2.90146
   R33        2.07037  -0.00015   0.00000  -0.00041  -0.00041   2.06995
   R34        2.06743   0.00061   0.00000   0.00167   0.00167   2.06910
   R35        2.07076   0.00051   0.00000   0.00141   0.00141   2.07217
   R36        2.91246   0.00001   0.00000   0.01187   0.01205   2.92451
[...]
     54          1           0       -0.987091    3.103665    3.547670
     55          1           0       -2.522662    2.390071    3.015377
     56          1           0       -0.981197    4.681042    1.474512
     57          1           0       -1.277369    3.987555   -0.134013
     58          1           0       -2.564594    3.985434    1.083635
     59          1           0        4.231684    2.744261   -3.044015
     60          1           0        3.584988    3.760155   -1.743193
     61          1           0        4.784913    2.526987   -1.370261
     62          6           0       -6.357140   -0.452414   -0.264906
     63          1           0       -7.234632   -0.404662   -0.919894
     64          1           0       -6.548020   -1.234369    0.478764
     65          1           0       -6.291133    0.504185    0.269393
 ---------------------------------------------------------------------
 Rotational constants (GHZ):      0.2013494      0.1291449      0.1125429

 **********************************************************************

            Population analysis using the SCF density.

 **********************************************************************

 Orbital symmetries:
       Occupied  (A) (A) (A) (A) (A) (A) (A) (A) (A) (A) (A) (A)
                 (A) (A) (A) (A) (A) (A) (A) (A) (A) (A) (A) (A)
                 (A) (A) (A) (A) (A) (A) (A) (A) (A) (A) (A) (A)
                 (A) (A) (A) (A) (A) (A) (A) (A) (A) (A) (A) (A)
                 (A) (A) (A) (A) (A) (A) (A) (A) (A) (A) (A) (A)
                 (A) (A) (A) (A) (A) (A) (A) (A) (A) (A) (A) (A)
                 (A) (A) (A) (A) (A) (A) (A) (A) (A) (A) (A) (A)
                 (A) (A) (A) (A) (A) (A) (A) (A) (A) (A) (A) (A)
                 (A) (A) (A) (A) (A) (A) (A) (A) (A) (A) (A) (A)
                 (A) (A) (A) (A) (A) (A) (A)
       Virtual   (A) (A) (A) (A) (A) (A) (A) (A) (A) (A) (A) (A)
                 (A) (A) (A) (A) (A) (A) (A) (A) (A) (A) (A) (A)
                 (A) (A) (A) (A) (A) (A) (A) (A) (A) (A) (A) (A)
                 (A) (A) (A) (A) (A) (A) (A) (A) (A) (A) (A) (A)
                 (A) (A) (A) (A) (A) (A) (A) (A) (A) (A) (A) (A)
                 (A) (A) (A) (A) (A) (A) (A) (A) (A) (A) (A) (A)
                 (A) (A) (A) (A) (A) (A) (A) (A) (A) (A) (A) (A)
                 (A) (A) (A) (A) (A) (A) (A) (A) (A) (A) (A) (A)
                 (A) (A) (A) (A) (A) (A) (A) (A) (A) (A) (A) (A)
                 (A) (A) (A) (A) (A) (A) (A) (A) (A) (A) (A) (A)
                 (A) (A) (A) (A) (A) (A) (A) (A) (A) (A) (A) (A)
                 (A) (A) (A) (A) (A) (A) (A) (A) (A) (A) (A) (A)
                 (A) (A) (A) (A) (A) (A) (A) (A) (A) (A) (A) (A)
                 (A) (A) (A) (A) (A) (A) (A) (A) (A) (A) (A) (A)
                 (A) (A) (A) (A) (A) (A) (A) (A) (A) (A) (A) (A)
                 (A) (A) (A) (A) (A) (A) (A) (A) (A) (A) (A) (A)
                 (A) (A) (A) (A) (A) (A) (A) (A) (A) (A) (A) (A)
                 (A) (A) (A) (A) (A) (A) (A) (A) (A) (A) (A) (A)
                 (A) (A) (A) (A) (A) (A) (A) (A) (A) (A) (A) (A)
                 (A) (A) (A) (A) (A) (A) (A) (A) (A) (A) (A) (A)
                 (A) (A) (A) (A) (A) (A) (A) (A) (A) (A) (A) (A)
                 (A) (A) (A) (A) (A) (A) (A) (A) (A) (A) (A) (A)
                 (A) (A) (A) (A) (A) (A) (A) (A) (A) (A) (A) (A)
                 (A) (A) (A) (A) (A) (A) (A) (A) (A) (A) (A) (A)
                 (A) (A) (A) (A) (A) (A) (A) (A) (A) (A) (A) (A)
                 (A) (A) (A) (A) (A) (A) (A) (A) (A) (A) (A) (A)
                 (A) (A) (A) (A) (A) (A) (A) (A) (A) (A) (A) (A)
                 (A) (A) (A) (A) (A) (A) (A) (A) (A) (A) (A) (A)
                 (A) (A) (A) (A) (A) (A) (A) (A) (A) (A) (A) (A)
                 (A) (A) (A) (A) (A) (A) (A) (A) (A) (A) (A) (A)
                 (A) (A) (A) (A) (A) (A) (A) (A) (A) (A) (A) (A)
                 (A) (A) (A) (A) (A) (A) (A) (A) (A) (A) (A) (A)
                 (A) (A) (A) (A) (A) (A) (A) (A) (A) (A) (A) (A)
                 (A) (A) (A) (A) (A) (A) (A) (A) (A) (A) (A) (A)
                 (A) (A) (A) (A) (A) (A) (A) (A) (A) (A)
 The electronic state is 1-A.
 Alpha  occ. eigenvalues --  -19.19825 -19.16684 -19.14906 -19.13026 -19.12453
 Alpha  occ. eigenvalues --  -10.27020 -10.26890 -10.26838 -10.26280 -10.26061
 Alpha  occ. eigenvalues --  -10.25727 -10.24662 -10.21276 -10.20493 -10.20296
 Alpha  occ. eigenvalues --  -10.20198 -10.19730 -10.19560 -10.19504 -10.19323
 Alpha  occ. eigenvalues --  -10.18951 -10.18822 -10.18612 -10.18527 -10.18435
 Alpha  occ. eigenvalues --  -10.18385 -10.18161 -10.17466 -10.16924 -10.16716
 Alpha  occ. eigenvalues --  -10.16565  -1.09132  -1.05722  -1.03343  -1.02072
 Alpha  occ. eigenvalues --   -1.01918  -0.86857  -0.83828  -0.81948  -0.81129
 Alpha  occ. eigenvalues --   -0.79872  -0.79395  -0.76813  -0.73986  -0.73025
 Alpha  occ. eigenvalues --   -0.72247  -0.71355  -0.70210  -0.68676  -0.68008
 Alpha  occ. eigenvalues --   -0.64911  -0.64238  -0.63535  -0.62091  -0.60693
 Alpha  occ. eigenvalues --   -0.59093  -0.58248  -0.56514  -0.54414  -0.53202
 Alpha  occ. eigenvalues --   -0.52855  -0.51737  -0.50717  -0.49917  -0.48962
 Alpha  occ. eigenvalues --   -0.47734  -0.47518  -0.46893  -0.46328  -0.46014
 Alpha  occ. eigenvalues --   -0.45070  -0.44592  -0.44186  -0.43944  -0.42848
 Alpha  occ. eigenvalues --   -0.42714  -0.42224  -0.42116  -0.41589  -0.41141
 Alpha  occ. eigenvalues --   -0.40841  -0.40510  -0.40189  -0.40131  -0.39319
 Alpha  occ. eigenvalues --   -0.39191  -0.38894  -0.38600  -0.38401  -0.37965
 Alpha  occ. eigenvalues --   -0.37713  -0.37501  -0.37308  -0.36677  -0.36073
 Alpha  occ. eigenvalues --   -0.36022  -0.35348  -0.35138  -0.34584  -0.34312
 Alpha  occ. eigenvalues --   -0.33517  -0.33354  -0.33194  -0.32736  -0.32169
 Alpha  occ. eigenvalues --   -0.31574  -0.31296  -0.30931  -0.27394  -0.27203
 Alpha  occ. eigenvalues --   -0.25288  -0.24527  -0.24274  -0.23370  -0.22610
 Alpha virt. eigenvalues --   -0.04286  -0.01561   0.00978   0.01525   0.05481
 Alpha virt. eigenvalues --    0.07208   0.08479   0.08723   0.09494   0.10314
 Alpha virt. eigenvalues --    0.10443   0.10761   0.11188   0.11717   0.12716
 Alpha virt. eigenvalues --    0.13059   0.13268   0.13815   0.14029   0.14217
 Alpha virt. eigenvalues --    0.14627   0.15152   0.15281   0.15295   0.15672
 Alpha virt. eigenvalues --    0.15986   0.16222   0.16777   0.17060   0.17221
 Alpha virt. eigenvalues --    0.17468   0.17824   0.18477   0.18737   0.18899
 Alpha virt. eigenvalues --    0.19314   0.19587   0.19699   0.19992   0.20331
 Alpha virt. eigenvalues --    0.20567   0.21150   0.21554   0.22193   0.22749
 Alpha virt. eigenvalues --    0.22875   0.23452   0.24235   0.24396   0.24606
 Alpha virt. eigenvalues --    0.24681   0.25114   0.25494   0.25764   0.26431
 Alpha virt. eigenvalues --    0.27035   0.27484   0.27765   0.28722   0.30303
 Alpha virt. eigenvalues --    0.31285   0.32002   0.32936   0.33449   0.34630
 Alpha virt. eigenvalues --    0.34958   0.36634   0.37745   0.38937   0.39496
 Alpha virt. eigenvalues --    0.42392   0.43993   0.46083   0.47229   0.48118
 Alpha virt. eigenvalues --    0.49344   0.49757   0.50574   0.51140   0.51665
 Alpha virt. eigenvalues --    0.52014   0.52418   0.52657   0.52878   0.53701
 Alpha virt. eigenvalues --    0.54054   0.54140   0.54468   0.55355   0.55627
 Alpha virt. eigenvalues --    0.56748   0.57102   0.57333   0.58067   0.58983
 Alpha virt. eigenvalues --    0.59365   0.59838   0.60061   0.60549   0.61358
 Alpha virt. eigenvalues --    0.61696   0.62502   0.63824   0.64740   0.65000
 Alpha virt. eigenvalues --    0.65671   0.66422   0.66599   0.67112   0.67879
 Alpha virt. eigenvalues --    0.68286   0.68358   0.68938   0.69475   0.70352
 Alpha virt. eigenvalues --    0.70767   0.71442   0.72400   0.72964   0.73297
 Alpha virt. eigenvalues --    0.73811   0.74394   0.75046   0.75752   0.76143
 Alpha virt. eigenvalues --    0.76704   0.77457   0.77900   0.78148   0.78764
 Alpha virt. eigenvalues --    0.80122   0.80586   0.80965   0.81607   0.82660
 Alpha virt. eigenvalues --    0.83239   0.83723   0.84242   0.84391   0.84810
 Alpha virt. eigenvalues --    0.85246   0.85720   0.86070   0.86534   0.87258
 Alpha virt. eigenvalues --    0.87723   0.88180   0.88480   0.88817   0.89030
 Alpha virt. eigenvalues --    0.89343   0.89426   0.89662   0.90402   0.90720
 Alpha virt. eigenvalues --    0.90760   0.91081   0.91521   0.92005   0.92054
 Alpha virt. eigenvalues --    0.92254   0.92530   0.93127   0.93554   0.93921
 Alpha virt. eigenvalues --    0.94739   0.95169   0.95606   0.96651   0.96823
 Alpha virt. eigenvalues --    0.97182   0.98371   0.98690   0.99063   0.99402
 Alpha virt. eigenvalues --    1.00748   1.01250   1.01750   1.02436   1.03314
 Alpha virt. eigenvalues --    1.03759   1.04913   1.05491   1.07993   1.09486
 Alpha virt. eigenvalues --    1.09582   1.10752   1.11538   1.12884   1.13164
 Alpha virt. eigenvalues --    1.14050   1.14565   1.14840   1.15726   1.16434
 Alpha virt. eigenvalues --    1.16945   1.17810   1.19665   1.19728   1.22585
 Alpha virt. eigenvalues --    1.24107   1.24652   1.24925   1.26803   1.27647
 Alpha virt. eigenvalues --    1.29119   1.30124   1.31137   1.33160   1.33938
 Alpha virt. eigenvalues --    1.35535   1.35787   1.36906   1.38241   1.39589
 Alpha virt. eigenvalues --    1.41096   1.42456   1.44222   1.45140   1.46270
 Alpha virt. eigenvalues --    1.46547   1.48007   1.49488   1.51830   1.52810
 Alpha virt. eigenvalues --    1.54126   1.54619   1.56417   1.57104   1.58553
 Alpha virt. eigenvalues --    1.59961   1.61582   1.62497   1.63675   1.65842
 Alpha virt. eigenvalues --    1.66558   1.67024   1.67404   1.68757   1.69550
 Alpha virt. eigenvalues --    1.70372   1.71306   1.72236   1.72619   1.73928
 Alpha virt. eigenvalues --    1.74724   1.75308   1.75617   1.77269   1.77653
 Alpha virt. eigenvalues --    1.78442   1.79128   1.79931   1.80484   1.80699
 Alpha virt. eigenvalues --    1.82161   1.83561   1.83984   1.84252   1.85454
 Alpha virt. eigenvalues --    1.86009   1.86174   1.87192   1.87417   1.87801
 Alpha virt. eigenvalues --    1.88786   1.89312   1.90298   1.91126   1.92131
 Alpha virt. eigenvalues --    1.92551   1.92703   1.93454   1.93700   1.93764
 Alpha virt. eigenvalues --    1.95469   1.95739   1.97063   1.97382   1.98435
 Alpha virt. eigenvalues --    1.98640   1.99250   1.99628   2.00334   2.01325
 Alpha virt. eigenvalues --    2.01838   2.02623   2.03298   2.03977   2.04362
 Alpha virt. eigenvalues --    2.06053   2.06418   2.07426   2.07885   2.08726
 Alpha virt. eigenvalues --    2.10662   2.11087   2.11705   2.11849   2.11996
 Alpha virt. eigenvalues --    2.12933   2.14108   2.15203   2.16263   2.17450
 Alpha virt. eigenvalues --    2.18013   2.19576   2.20754   2.21411   2.22080
 Alpha virt. eigenvalues --    2.22885   2.23312   2.25399   2.26230   2.26977
 Alpha virt. eigenvalues --    2.27457   2.28084   2.29739   2.30440   2.31122
 Alpha virt. eigenvalues --    2.31716   2.32473   2.32743   2.33789   2.34246
 Alpha virt. eigenvalues --    2.34601   2.37026   2.37243   2.37668   2.39172
 Alpha virt. eigenvalues --    2.39239   2.40259   2.41860   2.42706   2.44107
 Alpha virt. eigenvalues --    2.44512   2.45001   2.46260   2.48425   2.48817
 Alpha virt. eigenvalues --    2.49517   2.50384   2.52235   2.52641   2.54874
 Alpha virt. eigenvalues --    2.55774   2.57043   2.57968   2.58961   2.61158
 Alpha virt. eigenvalues --    2.62003   2.63362   2.63929   2.64905   2.65264
 Alpha virt. eigenvalues --    2.66316   2.66870   2.67635   2.68612   2.69603
 Alpha virt. eigenvalues --    2.71549   2.73585   2.74616   2.76715   2.77075
 Alpha virt. eigenvalues --    2.77495   2.78678   2.79568   2.80378   2.85405
 Alpha virt. eigenvalues --    2.87501   2.88953   2.91921   2.94590   2.96242
 Alpha virt. eigenvalues --    2.97733   2.98094   3.00034   3.00849   3.02919
 Alpha virt. eigenvalues --    3.05275   3.06750   3.11213   3.15350   3.17565
 Alpha virt. eigenvalues --    3.25101   3.26488   4.01544   4.06992   4.10085
 Alpha virt. eigenvalues --    4.12480   4.14316   4.16000   4.18104   4.18873
 Alpha virt. eigenvalues --    4.23155   4.25787   4.26273   4.28955   4.29470
 Alpha virt. eigenvalues --    4.31693   4.34838   4.35686   4.40724   4.42627
 Alpha virt. eigenvalues --    4.45704   4.46900   4.54716   4.56440   4.60496
 Alpha virt. eigenvalues --    4.65417   4.67835   4.70121   4.73563   4.76072
 Alpha virt. eigenvalues --    4.88404   4.93536   5.23237
          Condensed to atoms (all electrons):
 Mulliken atomic charges:
              1
     1  C   -0.197396
     2  C    0.204541
     3  C   -0.200464
     4  C    0.323089
     5  C   -0.051198
     6  C   -0.324768
     7  C    0.202982
     8  C    0.398126
     9  C   -0.093624
    10  C    0.419643
    11  C    0.424627
    12  O   -0.455748
    13  C   -0.175323
    14  C   -0.240473
    15  C   -0.461185
    16  O   -0.482476
    17  C   -0.156577
    18  C    0.299667
    19  O   -0.535554
    20  C   -0.308065
    21  O   -0.671305
    22  C   -0.333432
    23  C    0.094550
    24  O   -0.590075
    25  C    0.182080
    26  C   -0.513792
    27  C   -0.405545
    28  C   -0.466686
    29  C   -0.460998
    30  H    0.145977
    31  H    0.149335
    32  C   -0.520918
    33  H    0.125457
    34  H    0.172600
    35  H    0.168312
    36  H    0.154775
    37  H    0.140937
    38  H    0.146585
    39  H    0.159000
    40  H    0.150125
    41  H    0.163389
    42  H    0.160145
    43  H    0.150668
    44  H    0.429646
    45  H    0.189966
    46  H    0.151209
    47  H    0.134865
    48  H    0.160046
    49  H    0.157050
    50  H    0.153929
    51  H    0.185619
    52  H    0.136423
    53  H    0.194947
    54  H    0.145125
    55  H    0.155256
    56  H    0.151993
    57  H    0.161797
    58  H    0.162503
    59  H    0.157635
    60  H    0.153980
    61  H    0.156549
    62  C   -0.452223
    63  H    0.143223
    64  H    0.143476
    65  H    0.135979
 Sum of Mulliken atomic charges =   0.00000
 Mulliken charges with hydrogens summed into heavy atoms:
              1
     1  C   -0.071940
     2  C    0.204541
     3  C   -0.051128
     4  C    0.323089
     5  C   -0.051198
     6  C    0.016143
     7  C    0.202982
     8  C    0.398126
     9  C   -0.093624
    10  C    0.419643
    11  C    0.424627
    12  O   -0.455748
    13  C   -0.020547
    14  C    0.047049
    15  C    0.011329
    16  O   -0.482476
    17  C   -0.010600
    18  C    0.299667
    19  O   -0.535554
    20  C    0.002748
    21  O   -0.241659
    22  C    0.007742
    23  C    0.229415
    24  O   -0.590075
    25  C    0.182080
    26  C   -0.042767
    27  C   -0.083503
    28  C    0.028642
    29  C    0.015295
    32  C   -0.052754
    62  C   -0.029545
 Sum of Mulliken charges with hydrogens summed into heavy atoms =   0.00000
 Electronic spatial extent (au):  <R**2>=          11525.1588
 Charge=              0.0000 electrons
 Dipole moment (field-independent basis, Debye):
    X=              3.3919    Y=              4.5804    Z=              2.5534  Tot=              6.2454
 Quadrupole moment (field-independent basis, Debye-Ang):
   XX=           -178.8020   YY=           -178.9384   ZZ=           -188.1792
   XY=             -3.8919   XZ=             -8.4360   YZ=             -3.9318
 Traceless Quadrupole moment (field-independent basis, Debye-Ang):
   XX=              3.1712   YY=              3.0348   ZZ=             -6.2060
   XY=             -3.8919   XZ=             -8.4360   YZ=             -3.9318
 Octapole moment (field-independent basis, Debye-Ang**2):
  XXX=             15.2849  YYY=             37.2306  ZZZ=             15.5582  XYY=              7.5784
  XXY=             -2.2333  XXZ=             14.6420  XZZ=             31.2264  YZZ=             13.0286
  YYZ=             35.4221  XYZ=             -0.1120
 Hexadecapole moment (field-independent basis, Debye-Ang**3):
 XXXX=          -8258.8106 YYYY=          -4357.7955 ZZZZ=          -2778.1075 XXXY=              0.2406
 XXXZ=              3.2120 YYYX=              1.7448 YYYZ=              2.7406 ZZZX=            -46.2719
 ZZZY=             -5.1947 XXYY=          -2082.5160 XXZZ=          -1858.1875 YYZZ=          -1169.9983
 XXYZ=            -30.2187 YYXZ=              2.2175 ZZXY=            -47.3560
 N-N= 3.513158724568D+03 E-N=-1.025272038486D+04  KE= 1.374461075675D+03
 1\1\GINC-B0805\FOpt\RB3LYP\6-31G(d)\C26H34O5\CAOFEI\24-Mar-2021\0\\# o
 pt rb3lyp/6-31g(d) geom=connectivity\\Title Card Required\\0,1\C,0.100
 5590369,-0.0440927205,-0.0245773132\C,1.4357029723,-0.0322408811,0.065
 8227246\C,2.1835125796,1.2800243195,0.0302916781\C,1.4147116925,2.5209
 838308,0.5872416642\C,-0.1362029819,2.3973179858,0.6951015912\C,-0.719
 5743499,1.2125402291,-0.1374698766\C,1.9044407377,3.7101487806,-0.3170
 893543\C,0.8877790867,4.129924924,-1.3625401505\C,-0.4414496104,4.2105
 898275,-1.1202664755\C,-0.9061218834,3.6422045421,0.16831124\C,-1.4801
 464321,4.7071141634,-2.0888500081\O,-2.5113517658,4.0728962289,-2.2372
 716749\C,-1.2213525884,6.0264871703,-2.817648099\C,-2.2315560116,6.235
 7019929,-3.9575584007\C,-1.2335062259,7.1701525292,-1.7776600432\O,-1.
 9259250639,4.0213094675,0.7216652869\C,3.0382380368,3.1838419733,-1.22
 59765715\C,2.9380223575,4.0849045925,-2.4768177213\O,1.4887441612,4.41
 64055706,-2.5285019667\C,2.6662589782,1.6978224265,-1.3836108391\O,2.2
 256622939,4.8518033382,0.4471099505\C,-0.3805162614,2.1688470738,2.199
 2420305\C,0.8402434418,2.7356323163,2.929442571\O,1.8960357571,2.78219
 9749,1.9181020703\C,0.7503809256,4.09382553,3.6079112715\C,1.962429311
 5,4.4414384308,4.4422864073\C,-0.2948556017,4.9191502201,3.5008893756\
 C,3.7039483901,5.3992723392,-2.3086232619\C,3.2653297362,3.4194853109,
 -3.8099144968\H,4.01109592,3.2932350598,-0.7371853425\H,3.0748315159,1
 .2013168998,0.6667238466\C,2.2614567172,-1.2881435719,0.1659871472\H,-
 0.4325010362,-0.9938131879,-0.0316337547\H,-0.8157156233,1.5119667988,
 -1.1906197636\H,-1.7448866689,1.038122473,0.2072405099\H,-0.2079986834
 ,5.971259957,-3.2377094449\H,-2.2749675306,5.3188425561,-4.5575855392\
 H,-3.2340811742,6.3544495475,-3.5289086287\H,-2.2262250615,7.268460371
 ,-1.3230570697\H,-0.9775815021,8.1244121981,-2.2489848859\H,-0.5107859
 35,6.9883511088,-0.9758009238\H,1.8466057559,1.5754575196,-2.101731914
 6\H,3.4990892101,1.081595172,-1.7361985585\H,2.3180437773,4.5097083245
 ,1.3608347117\H,-1.3258558639,2.6199486294,2.5025951419\H,-0.439948364
 3,1.0942619224,2.3941615866\H,1.1983761605,2.017625026,3.679141595\H,2
 .8865486617,4.3901816833,3.8522372343\H,1.8834652896,5.4462266492,4.86
 73039116\H,2.0855884192,3.7286729967,5.2700706023\H,-1.1702968081,4.69
 26902566,2.9023156751\H,-0.2932244127,5.8803988973,4.0098465414\H,3.45
 90234128,5.8728899983,-1.355138414\H,4.7831908592,5.2104111381,-2.3373
 268488\H,3.4547097109,6.0854962924,-3.1246608229\H,4.321129533,3.12797
 10647,-3.8326782071\H,2.6552396491,2.5290072037,-3.981165266\H,3.08775
 85132,4.1187618328,-4.6332599091\H,1.6334854415,-2.184645161,0.1541760
 825\H,2.976559727,-1.3673103968,-0.6646688708\H,2.855552587,-1.2987785
 114,1.0903987076\C,-1.9036502328,7.4244091626,-4.8677872715\H,-2.62242
 22772,7.4904069718,-5.6925852062\H,-1.9361263729,8.3788939534,-4.33035
 11403\H,-0.9031240327,7.3259679029,-5.3084371198\\Version=EM64L-G09Rev
 B.01\State=1-A\HF=-1387.3181185\RMSD=4.598e-09\RMSF=3.585e-06\Dipole=2
 .2808057,-0.9124899,0.0525367\Quadrupole=-7.819989,4.4444039,3.3755851
 ,-0.8287192,-4.6466968,-1.9483967\PG=C01 [X(C26H34O5)]\\@


 A SLIP OF THE FOOT YOU MAY SOON RECOVER, BUT A SLIP OF THE TONGUE
 YOU MAY NEVER GET OVER. -- BEN FRANKLIN
 Job cpu time:  0 days 21 hours 40 minutes 39.4 seconds.
 File lengths (MBytes):  RWF=    186 Int=      0 D2E=      0 Chk=     20 Scr=      1
 Normal termination of Gaussian 09 at Wed Mar 24 17:07:18 2021.
