 Entering Gaussian System, Link 0=g09
 Initial command:
 /public/software/g09/g09/l1.exe /tmp/Gau-1134.inp -scrdir=/tmp/
 Entering Link 1 = /public/software/g09/g09/l1.exe PID=      1135.
  
 Copyright (c) 1988,1990,1992,1993,1995,1998,2003,2009,2010,
            Gaussian, Inc.  All Rights Reserved.
  
 This is part of the Gaussian(R) 09 program.  It is based on
 the Gaussian(R) 03 system (copyright 2003, Gaussian, Inc.),
 the Gaussian(R) 98 system (copyright 1998, Gaussian, Inc.),
 the Gaussian(R) 94 system (copyright 1995, Gaussian, Inc.),
 the Gaussian 92(TM) system (copyright 1992, Gaussian, Inc.),
 the Gaussian 90(TM) system (copyright 1990, Gaussian, Inc.),
 the Gaussian 88(TM) system (copyright 1988, Gaussian, Inc.),
 the Gaussian 86(TM) system (copyright 1986, Carnegie Mellon
 University), and the Gaussian 82(TM) system (copyright 1983,
 Carnegie Mellon University). Gaussian is a federally registered
 trademark of Gaussian, Inc.
  
 This software contains proprietary and confidential information,
 including trade secrets, belonging to Gaussian, Inc.
  
 This software is provided under written license and may be
 used, copied, transmitted, or stored only in accord with that
 written license.
  
 The following legend is applicable only to US Government
 contracts under FAR:
  
                    RESTRICTED RIGHTS LEGEND
  
 Use, reproduction and disclosure by the US Government is
 subject to restrictions as set forth in subparagraphs (a)
 and (c) of the Commercial Computer Software - Restricted
 Rights clause in FAR 52.227-19.
  
 Gaussian, Inc.
 340 Quinnipiac St., Bldg. 40, Wallingford CT 06492
  
  
 ---------------------------------------------------------------
 Warning -- This program may not be used in any manner that
 competes with the business of Gaussian, Inc. or will provide
 assistance to any competitor of Gaussian, Inc.  The licensee
 of this program is prohibited from giving any competitor of
 Gaussian, Inc. access to this program.  By using this program,
 the user acknowledges that Gaussian, Inc. is engaged in the
 business of creating and licensing software in the field of
 computational chemistry and represents and warrants to the
 licensee that it is not a competitor of Gaussian, Inc. and that
 it will not use this program in any manner prohibited above.
 ---------------------------------------------------------------
  

 Cite this work as:
 Gaussian 09, Revision B.01,
 M. J. Frisch, G. W. Trucks, H. B. Schlegel, G. E. Scuseria, 
 M. A. Robb, J. R. Cheeseman, G. Scalmani, V. Barone, B. Mennucci, 
 G. A. Petersson, H. Nakatsuji, M. Caricato, X. Li, H. P. Hratchian, 
 A. F. Izmaylov, J. Bloino, G. Zheng, J. L. Sonnenberg, M. Hada, 
 M. Ehara, K. Toyota, R. Fukuda, J. Hasegawa, M. Ishida, T. Nakajima, 
 Y. Honda, O. Kitao, H. Nakai, T. Vreven, J. A. Montgomery, Jr., 
 J. E. Peralta, F. Ogliaro, M. Bearpark, J. J. Heyd, E. Brothers, 
 K. N. Kudin, V. N. Staroverov, T. Keith, R. Kobayashi, J. Normand, 
 K. Raghavachari, A. Rendell, J. C. Burant, S. S. Iyengar, J. Tomasi, 
 M. Cossi, N. Rega, J. M. Millam, M. Klene, J. E. Knox, J. B. Cross, 
 V. Bakken, C. Adamo, J. Jaramillo, R. Gomperts, R. E. Stratmann, 
 O. Yazyev, A. J. Austin, R. Cammi, C. Pomelli, J. W. Ochterski, 
 R. L. Martin, K. Morokuma, V. G. Zakrzewski, G. A. Voth, 
 P. Salvador, J. J. Dannenberg, S. Dapprich, A. D. Daniels, 
 O. Farkas, J. B. Foresman, J. V. Ortiz, J. Cioslowski, 
 and D. J. Fox, Gaussian, Inc., Wallingford CT, 2010.
 
 ******************************************
 Gaussian 09:  EM64L-G09RevB.01 12-Aug-2010
                24-Mar-2021 
 ******************************************
 %mem=600MW
 %nprocshared=10
 Will use up to   10 processors via shared memory.
 ---------------------------------------
 # opt rb3lyp/6-31g(d) geom=connectivity
 ---------------------------------------
 1/14=-1,18=20,19=15,26=3,38=1,57=2/1,3;
 2/9=110,12=2,17=6,18=5,40=1/2;
 3/5=1,6=6,7=1,11=2,16=1,25=1,30=1,71=1,74=-5,116=1/1,2,3;
 4//1;
 5/5=2,38=5/2;
 6/7=2,8=2,9=2,10=2,28=1/1;
 7//1,2,3,16;
 1/14=-1,18=20,19=15/3(2);
 2/9=110/2;
 99//99;
 2/9=110/2;
 3/5=1,6=6,7=1,11=2,16=1,25=1,30=1,71=1,74=-5,116=1/1,2,3;
 4/5=5,16=3/1;
 5/5=2,38=5/2;
 7//1,2,3,16;
 1/14=-1,18=20,19=15/3(-5);
 2/9=110/2;
 6/7=2,8=2,9=2,10=2,19=2,28=1/1;
 99/9=1/99;
 -------------------
 Title Card Required
 -------------------
 Symbolic Z-matrix:
 Charge =  0 Multiplicity = 1
 C                     0.        0.        0. 
 C                     1.3417    0.        0. 
 C                     2.1333    1.2873    0. 
 C                     1.3315    2.5827   -0.3204 
 C                    -0.1519    2.4434   -0.6923 
 C                    -0.8267    1.2456    0.0105 
 C                     2.1606    3.3023   -1.403 
 C                     1.8193    2.95     -2.8111 
 C                     0.6126    2.5242   -3.2012 
 C                    -0.4635    2.3691   -2.1955 
 C                     0.3979    2.1637   -4.6296 
 O                     0.5353    3.0259   -5.4984 
 C                    -0.0474    0.7311   -4.9554 
 C                     0.0171    0.4483   -6.4703 
 C                     0.7292   -0.3169   -4.1569 
 O                    -1.6178    2.1816   -2.5868 
 C                     3.5674    2.7472   -1.3398 
 C                     4.0953    2.999    -2.7674 
 O                     2.9409    2.8853   -3.6362 
 C                     3.3119    1.273    -0.9888 
 O                     2.1283    4.7113   -1.2556 
 C                    -0.729     3.7567   -0.1599 
 C                     0.0689    3.9903    1.1176 
 O                     1.3732    3.4274    0.8717 
 C                     0.2391    5.4075    1.6159 
 C                     1.1206    5.5563    2.8303 
 C                    -0.3523    6.4894    1.0808 
 C                     4.6917    4.4042   -2.9445 
 C                     5.14      1.9736   -3.2214 
 H                     4.1896    3.2282   -0.5762 
 H                     2.5626    1.3871    1.008 
 C                     2.1129   -1.2895    0.0978 
 H                    -0.5457   -0.9404    0.0541 
 H                    -1.0602    1.468     1.0585 
 H                    -1.7927    1.0169   -0.4563 
 H                    -1.1059    0.666    -4.6728 
 H                    -0.5116   -0.4905   -6.6783 
 H                    -0.5243    1.2316   -7.015 
 H                     0.4923   -1.3289   -4.5017 
 H                     0.473    -0.2716   -3.0943 
 H                     1.8112   -0.167    -4.2369 
 H                     4.2046    0.816    -0.5471 
 H                     3.0518    0.6817   -1.8753 
 H                     2.178     4.8865   -0.2947 
 H                    -1.8074    3.7167    0.0304 
 H                    -0.5624    4.5552   -0.8932 
 H                    -0.375     3.4059    1.9331 
 H                     0.7559    4.9213    3.6443 
 H                     2.1505    5.268     2.5966 
 H                     1.1431    6.5865    3.2016 
 H                    -1.0119    6.4356    0.2217 
 H                    -0.1946    7.4813    1.4955 
 H                     3.955     5.1958   -2.7842 
 H                     5.0486    4.544    -3.9718 
 H                     5.5333    4.5673   -2.2635 
 H                     5.9962    1.9477   -2.5398 
 H                     5.5071    2.2137   -4.2264 
 H                     4.7198    0.9662   -3.3012 
 H                     1.4545   -2.1523    0.2452 
 H                     2.6883   -1.468    -0.8156 
 H                     2.8036   -1.2547    0.9466 
 C                     1.4261    0.3397   -7.0423 
 H                     1.9595   -0.5223   -6.6307 
 H                     2.0159    1.2385   -6.8411 
 H                     1.3772    0.207    -8.1281 
 

 GradGradGradGradGradGradGradGradGradGradGradGradGradGradGradGradGradGrad
 Berny optimization.
 Initialization pass.
                           ----------------------------
                           !    Initial Parameters    !
                           ! (Angstroms and Degrees)  !
 --------------------------                            --------------------------
 ! Name  Definition              Value          Derivative Info.                !
 --------------------------------------------------------------------------------
 ! R1    R(1,2)                  1.3417         estimate D2E/DX2                !
 ! R2    R(1,6)                  1.495          estimate D2E/DX2                !
 ! R3    R(1,33)                 1.0886         estimate D2E/DX2                !
 ! R4    R(2,3)                  1.5112         estimate D2E/DX2                !
 ! R5    R(2,32)                 1.5057         estimate D2E/DX2                !
 ! R6    R(3,4)                  1.5568         estimate D2E/DX2                !
 ! R7    R(3,20)                 1.5385         estimate D2E/DX2                !
 ! R8    R(3,31)                 1.1001         estimate D2E/DX2                !
 ! R9    R(4,5)                  1.5356         estimate D2E/DX2                !
 ! R10   R(4,7)                  1.5418         estimate D2E/DX2                !
 ! R11   R(4,24)                 1.4616         estimate D2E/DX2                !
 ! R12   R(5,6)                  1.544          estimate D2E/DX2                !
 ! R13   R(5,10)                 1.537          estimate D2E/DX2                !
 ! R14   R(5,22)                 1.5301         estimate D2E/DX2                !
 ! R15   R(6,34)                 1.0965         estimate D2E/DX2                !
 ! R16   R(6,35)                 1.097          estimate D2E/DX2                !
 ! R17   R(7,8)                  1.4911         estimate D2E/DX2                !
 ! R18   R(7,17)                 1.5137         estimate D2E/DX2                !
 ! R19   R(7,21)                 1.4171         estimate D2E/DX2                !
 ! R20   R(8,9)                  1.3378         estimate D2E/DX2                !
 ! R21   R(8,19)                 1.3939         estimate D2E/DX2                !
 ! R22   R(9,10)                 1.481          estimate D2E/DX2                !
 ! R23   R(9,11)                 1.4888         estimate D2E/DX2                !
 ! R24   R(10,16)                1.2332         estimate D2E/DX2                !
 ! R25   R(11,12)                1.2317         estimate D2E/DX2                !
 ! R26   R(11,13)                1.5352         estimate D2E/DX2                !
 ! R27   R(13,14)                1.5424         estimate D2E/DX2                !
 ! R28   R(13,15)                1.5294         estimate D2E/DX2                !
 ! R29   R(13,36)                1.0975         estimate D2E/DX2                !
 ! R30   R(14,37)                1.0973         estimate D2E/DX2                !
 ! R31   R(14,38)                1.097          estimate D2E/DX2                !
 ! R32   R(14,62)                1.5246         estimate D2E/DX2                !
 ! R33   R(15,39)                1.0951         estimate D2E/DX2                !
 ! R34   R(15,40)                1.094          estimate D2E/DX2                !
 ! R35   R(15,41)                1.0953         estimate D2E/DX2                !
 ! R36   R(17,18)                1.5428         estimate D2E/DX2                !
 ! R37   R(17,20)                1.5368         estimate D2E/DX2                !
 ! R38   R(17,30)                1.0962         estimate D2E/DX2                !
 ! R39   R(18,19)                1.4493         estimate D2E/DX2                !
 ! R40   R(18,28)                1.5368         estimate D2E/DX2                !
 ! R41   R(18,29)                1.5326         estimate D2E/DX2                !
 ! R42   R(20,42)                1.0958         estimate D2E/DX2                !
 ! R43   R(20,43)                1.0969         estimate D2E/DX2                !
 ! R44   R(21,44)                0.978          estimate D2E/DX2                !
 ! R45   R(22,23)                1.5242         estimate D2E/DX2                !
 ! R46   R(22,45)                1.0958         estimate D2E/DX2                !
 ! R47   R(22,46)                1.0969         estimate D2E/DX2                !
 ! R48   R(23,24)                1.4417         estimate D2E/DX2                !
 ! R49   R(23,25)                1.5119         estimate D2E/DX2                !
 ! R50   R(23,47)                1.0971         estimate D2E/DX2                !
 ! R51   R(25,26)                1.508          estimate D2E/DX2                !
 ! R52   R(25,27)                1.3441         estimate D2E/DX2                !
 ! R53   R(26,48)                1.0949         estimate D2E/DX2                !
 ! R54   R(26,49)                1.0947         estimate D2E/DX2                !
 ! R55   R(26,50)                1.0953         estimate D2E/DX2                !
 ! R56   R(27,51)                1.0844         estimate D2E/DX2                !
 ! R57   R(27,52)                1.0866         estimate D2E/DX2                !
 ! R58   R(28,53)                1.0932         estimate D2E/DX2                !
 ! R59   R(28,54)                1.0965         estimate D2E/DX2                !
 ! R60   R(28,55)                1.0948         estimate D2E/DX2                !
 ! R61   R(29,56)                1.0947         estimate D2E/DX2                !
 ! R62   R(29,57)                1.0966         estimate D2E/DX2                !
 ! R63   R(29,58)                1.0944         estimate D2E/DX2                !
 ! R64   R(32,59)                1.0953         estimate D2E/DX2                !
 ! R65   R(32,60)                1.0942         estimate D2E/DX2                !
 ! R66   R(32,61)                1.0949         estimate D2E/DX2                !
 ! R67   R(62,63)                1.0941         estimate D2E/DX2                !
 ! R68   R(62,64)                1.0937         estimate D2E/DX2                !
 ! R69   R(62,65)                1.095          estimate D2E/DX2                !
 ! A1    A(2,1,6)              123.5711         estimate D2E/DX2                !
 ! A2    A(2,1,33)             120.0849         estimate D2E/DX2                !
 ! A3    A(6,1,33)             116.244          estimate D2E/DX2                !
 ! A4    A(1,2,3)              121.5886         estimate D2E/DX2                !
 ! A5    A(1,2,32)             120.8097         estimate D2E/DX2                !
 ! A6    A(3,2,32)             117.4663         estimate D2E/DX2                !
 ! A7    A(2,3,4)              116.0415         estimate D2E/DX2                !
 ! A8    A(2,3,20)             113.1637         estimate D2E/DX2                !
 ! A9    A(2,3,31)             106.3604         estimate D2E/DX2                !
 ! A10   A(4,3,20)             105.6649         estimate D2E/DX2                !
 ! A11   A(4,3,31)             108.3042         estimate D2E/DX2                !
 ! A12   A(20,3,31)            106.9044         estimate D2E/DX2                !
 ! A13   A(3,4,5)              118.1561         estimate D2E/DX2                !
 ! A14   A(3,4,7)              104.8275         estimate D2E/DX2                !
 ! A15   A(3,4,24)             107.3575         estimate D2E/DX2                !
 ! A16   A(5,4,7)              113.0624         estimate D2E/DX2                !
 ! A17   A(5,4,24)             106.1113         estimate D2E/DX2                !
 ! A18   A(7,4,24)             106.7147         estimate D2E/DX2                !
 ! A19   A(4,5,6)              112.4768         estimate D2E/DX2                !
 ! A20   A(4,5,10)             115.9182         estimate D2E/DX2                !
 ! A21   A(4,5,22)             101.6661         estimate D2E/DX2                !
 ! A22   A(6,5,10)             108.6068         estimate D2E/DX2                !
 ! A23   A(6,5,22)             110.0371         estimate D2E/DX2                !
 ! A24   A(10,5,22)            107.7782         estimate D2E/DX2                !
 ! A25   A(1,6,5)              113.6705         estimate D2E/DX2                !
 ! A26   A(1,6,34)             107.0653         estimate D2E/DX2                !
 ! A27   A(1,6,35)             108.0748         estimate D2E/DX2                !
 ! A28   A(5,6,34)             111.7629         estimate D2E/DX2                !
 ! A29   A(5,6,35)             110.6647         estimate D2E/DX2                !
 ! A30   A(34,6,35)            105.1576         estimate D2E/DX2                !
 ! A31   A(4,7,8)              115.4495         estimate D2E/DX2                !
 ! A32   A(4,7,17)             107.4153         estimate D2E/DX2                !
 ! A33   A(4,7,21)             112.2575         estimate D2E/DX2                !
 ! A34   A(8,7,17)              99.5271         estimate D2E/DX2                !
 ! A35   A(8,7,21)             109.1437         estimate D2E/DX2                !
 ! A36   A(17,7,21)            112.4253         estimate D2E/DX2                !
 ! A37   A(7,8,9)              123.8519         estimate D2E/DX2                !
 ! A38   A(7,8,19)             112.6921         estimate D2E/DX2                !
 ! A39   A(9,8,19)             122.5768         estimate D2E/DX2                !
 ! A40   A(8,9,10)             119.3877         estimate D2E/DX2                !
 ! A41   A(8,9,11)             119.14           estimate D2E/DX2                !
 ! A42   A(10,9,11)            121.4248         estimate D2E/DX2                !
 ! A43   A(5,10,9)             120.7817         estimate D2E/DX2                !
 ! A44   A(5,10,16)            120.4955         estimate D2E/DX2                !
 ! A45   A(9,10,16)            118.7227         estimate D2E/DX2                !
 ! A46   A(9,11,12)            119.4181         estimate D2E/DX2                !
 ! A47   A(9,11,13)            118.1265         estimate D2E/DX2                !
 ! A48   A(12,11,13)           122.4048         estimate D2E/DX2                !
 ! A49   A(11,13,14)           111.5556         estimate D2E/DX2                !
 ! A50   A(11,13,15)           112.4181         estimate D2E/DX2                !
 ! A51   A(11,13,36)           106.2877         estimate D2E/DX2                !
 ! A52   A(14,13,15)           111.4641         estimate D2E/DX2                !
 ! A53   A(14,13,36)           106.4007         estimate D2E/DX2                !
 ! A54   A(15,13,36)           108.3399         estimate D2E/DX2                !
 ! A55   A(13,14,37)           108.8373         estimate D2E/DX2                !
 ! A56   A(13,14,38)           109.6411         estimate D2E/DX2                !
 ! A57   A(13,14,62)           114.8476         estimate D2E/DX2                !
 ! A58   A(37,14,38)           106.1995         estimate D2E/DX2                !
 ! A59   A(37,14,62)           108.2538         estimate D2E/DX2                !
 ! A60   A(38,14,62)           108.7049         estimate D2E/DX2                !
 ! A61   A(13,15,39)           111.0401         estimate D2E/DX2                !
 ! A62   A(13,15,40)           111.09           estimate D2E/DX2                !
 ! A63   A(13,15,41)           111.6983         estimate D2E/DX2                !
 ! A64   A(39,15,40)           107.064          estimate D2E/DX2                !
 ! A65   A(39,15,41)           108.4936         estimate D2E/DX2                !
 ! A66   A(40,15,41)           107.2555         estimate D2E/DX2                !
 ! A67   A(7,17,18)            102.6813         estimate D2E/DX2                !
 ! A68   A(7,17,20)            101.9352         estimate D2E/DX2                !
 ! A69   A(7,17,30)            113.3099         estimate D2E/DX2                !
 ! A70   A(18,17,20)           115.1381         estimate D2E/DX2                !
 ! A71   A(18,17,30)           112.2572         estimate D2E/DX2                !
 ! A72   A(20,17,30)           110.8666         estimate D2E/DX2                !
 ! A73   A(17,18,19)           105.6263         estimate D2E/DX2                !
 ! A74   A(17,18,28)           112.8721         estimate D2E/DX2                !
 ! A75   A(17,18,29)           113.4628         estimate D2E/DX2                !
 ! A76   A(19,18,28)           108.1665         estimate D2E/DX2                !
 ! A77   A(19,18,29)           108.2332         estimate D2E/DX2                !
 ! A78   A(28,18,29)           108.2458         estimate D2E/DX2                !
 ! A79   A(8,19,18)            106.406          estimate D2E/DX2                !
 ! A80   A(3,20,17)            105.381          estimate D2E/DX2                !
 ! A81   A(3,20,42)            111.6466         estimate D2E/DX2                !
 ! A82   A(3,20,43)            110.0465         estimate D2E/DX2                !
 ! A83   A(17,20,42)           110.8958         estimate D2E/DX2                !
 ! A84   A(17,20,43)           111.8357         estimate D2E/DX2                !
 ! A85   A(42,20,43)           107.1047         estimate D2E/DX2                !
 ! A86   A(7,21,44)            106.2102         estimate D2E/DX2                !
 ! A87   A(5,22,23)            103.046          estimate D2E/DX2                !
 ! A88   A(5,22,45)            113.5951         estimate D2E/DX2                !
 ! A89   A(5,22,46)            109.5683         estimate D2E/DX2                !
 ! A90   A(23,22,45)           112.0376         estimate D2E/DX2                !
 ! A91   A(23,22,46)           111.6696         estimate D2E/DX2                !
 ! A92   A(45,22,46)           106.987          estimate D2E/DX2                !
 ! A93   A(22,23,24)           105.7118         estimate D2E/DX2                !
 ! A94   A(22,23,25)           118.6097         estimate D2E/DX2                !
 ! A95   A(22,23,47)           109.2423         estimate D2E/DX2                !
 ! A96   A(24,23,25)           108.6848         estimate D2E/DX2                !
 ! A97   A(24,23,47)           106.5502         estimate D2E/DX2                !
 ! A98   A(25,23,47)           107.4505         estimate D2E/DX2                !
 ! A99   A(4,24,23)            109.8123         estimate D2E/DX2                !
 ! A100  A(23,25,26)           115.0707         estimate D2E/DX2                !
 ! A101  A(23,25,27)           125.0143         estimate D2E/DX2                !
 ! A102  A(26,25,27)           119.8935         estimate D2E/DX2                !
 ! A103  A(25,26,48)           110.2901         estimate D2E/DX2                !
 ! A104  A(25,26,49)           110.6122         estimate D2E/DX2                !
 ! A105  A(25,26,50)           112.1987         estimate D2E/DX2                !
 ! A106  A(48,26,49)           108.6228         estimate D2E/DX2                !
 ! A107  A(48,26,50)           107.476          estimate D2E/DX2                !
 ! A108  A(49,26,50)           107.5022         estimate D2E/DX2                !
 ! A109  A(25,27,51)           122.8933         estimate D2E/DX2                !
 ! A110  A(25,27,52)           121.2637         estimate D2E/DX2                !
 ! A111  A(51,27,52)           115.8428         estimate D2E/DX2                !
 ! A112  A(18,28,53)           112.5629         estimate D2E/DX2                !
 ! A113  A(18,28,54)           110.5409         estimate D2E/DX2                !
 ! A114  A(18,28,55)           111.276          estimate D2E/DX2                !
 ! A115  A(53,28,54)           105.332          estimate D2E/DX2                !
 ! A116  A(53,28,55)           108.5993         estimate D2E/DX2                !
 ! A117  A(54,28,55)           108.2743         estimate D2E/DX2                !
 ! A118  A(18,29,56)           111.3785         estimate D2E/DX2                !
 ! A119  A(18,29,57)           110.6827         estimate D2E/DX2                !
 ! A120  A(18,29,58)           112.0693         estimate D2E/DX2                !
 ! A121  A(56,29,57)           108.3003         estimate D2E/DX2                !
 ! A122  A(56,29,58)           108.9002         estimate D2E/DX2                !
 ! A123  A(57,29,58)           105.2632         estimate D2E/DX2                !
 ! A124  A(2,32,59)            112.0544         estimate D2E/DX2                !
 ! A125  A(2,32,60)            110.7832         estimate D2E/DX2                !
 ! A126  A(2,32,61)            110.2581         estimate D2E/DX2                !
 ! A127  A(59,32,60)           107.4544         estimate D2E/DX2                !
 ! A128  A(59,32,61)           107.4532         estimate D2E/DX2                !
 ! A129  A(60,32,61)           108.6992         estimate D2E/DX2                !
 ! A130  A(14,62,63)           111.4421         estimate D2E/DX2                !
 ! A131  A(14,62,64)           111.7671         estimate D2E/DX2                !
 ! A132  A(14,62,65)           109.8409         estimate D2E/DX2                !
 ! A133  A(63,62,64)           108.3825         estimate D2E/DX2                !
 ! A134  A(63,62,65)           107.4185         estimate D2E/DX2                !
 ! A135  A(64,62,65)           107.8242         estimate D2E/DX2                !
 ! D1    D(6,1,2,3)             -0.483          estimate D2E/DX2                !
 ! D2    D(6,1,2,32)           175.1798         estimate D2E/DX2                !
 ! D3    D(33,1,2,3)          -176.7075         estimate D2E/DX2                !
 ! D4    D(33,1,2,32)           -1.0447         estimate D2E/DX2                !
 ! D5    D(2,1,6,5)             30.2722         estimate D2E/DX2                !
 ! D6    D(2,1,6,34)           -93.6478         estimate D2E/DX2                !
 ! D7    D(2,1,6,35)           153.5282         estimate D2E/DX2                !
 ! D8    D(33,1,6,5)          -153.3699         estimate D2E/DX2                !
 ! D9    D(33,1,6,34)           82.71           estimate D2E/DX2                !
 ! D10   D(33,1,6,35)          -30.1139         estimate D2E/DX2                !
 ! D11   D(1,2,3,4)            -13.2419         estimate D2E/DX2                !
 ! D12   D(1,2,3,20)          -135.649          estimate D2E/DX2                !
 ! D13   D(1,2,3,31)           107.2719         estimate D2E/DX2                !
 ! D14   D(32,2,3,4)           170.9562         estimate D2E/DX2                !
 ! D15   D(32,2,3,20)           48.5491         estimate D2E/DX2                !
 ! D16   D(32,2,3,31)          -68.5301         estimate D2E/DX2                !
 ! D17   D(1,2,32,59)           -4.6178         estimate D2E/DX2                !
 ! D18   D(1,2,32,60)          115.3762         estimate D2E/DX2                !
 ! D19   D(1,2,32,61)         -124.2525         estimate D2E/DX2                !
 ! D20   D(3,2,32,59)          171.2186         estimate D2E/DX2                !
 ! D21   D(3,2,32,60)          -68.7874         estimate D2E/DX2                !
 ! D22   D(3,2,32,61)           51.5839         estimate D2E/DX2                !
 ! D23   D(2,3,4,5)             -3.7809         estimate D2E/DX2                !
 ! D24   D(2,3,4,7)           -130.7439         estimate D2E/DX2                !
 ! D25   D(2,3,4,24)           116.0243         estimate D2E/DX2                !
 ! D26   D(20,3,4,5)           122.4982         estimate D2E/DX2                !
 ! D27   D(20,3,4,7)            -4.4647         estimate D2E/DX2                !
 ! D28   D(20,3,4,24)         -117.6965         estimate D2E/DX2                !
 ! D29   D(31,3,4,5)          -123.2434         estimate D2E/DX2                !
 ! D30   D(31,3,4,7)           109.7937         estimate D2E/DX2                !
 ! D31   D(31,3,4,24)           -3.4381         estimate D2E/DX2                !
 ! D32   D(2,3,20,17)          154.4679         estimate D2E/DX2                !
 ! D33   D(2,3,20,42)          -85.0573         estimate D2E/DX2                !
 ! D34   D(2,3,20,43)           33.7362         estimate D2E/DX2                !
 ! D35   D(4,3,20,17)           26.4492         estimate D2E/DX2                !
 ! D36   D(4,3,20,42)          146.9241         estimate D2E/DX2                !
 ! D37   D(4,3,20,43)          -94.2824         estimate D2E/DX2                !
 ! D38   D(31,3,20,17)         -88.7731         estimate D2E/DX2                !
 ! D39   D(31,3,20,42)          31.7018         estimate D2E/DX2                !
 ! D40   D(31,3,20,43)         150.4953         estimate D2E/DX2                !
 ! D41   D(3,4,5,6)             31.5182         estimate D2E/DX2                !
 ! D42   D(3,4,5,10)           -94.2835         estimate D2E/DX2                !
 ! D43   D(3,4,5,22)           149.1665         estimate D2E/DX2                !
 ! D44   D(7,4,5,6)            154.4294         estimate D2E/DX2                !
 ! D45   D(7,4,5,10)            28.6278         estimate D2E/DX2                !
 ! D46   D(7,4,5,22)           -87.9222         estimate D2E/DX2                !
 ! D47   D(24,4,5,6)           -88.9328         estimate D2E/DX2                !
 ! D48   D(24,4,5,10)          145.2656         estimate D2E/DX2                !
 ! D49   D(24,4,5,22)           28.7156         estimate D2E/DX2                !
 ! D50   D(3,4,7,8)             90.3724         estimate D2E/DX2                !
 ! D51   D(3,4,7,17)           -19.5888         estimate D2E/DX2                !
 ! D52   D(3,4,7,21)          -143.6701         estimate D2E/DX2                !
 ! D53   D(5,4,7,8)            -39.6614         estimate D2E/DX2                !
 ! D54   D(5,4,7,17)          -149.6226         estimate D2E/DX2                !
 ! D55   D(5,4,7,21)            86.2961         estimate D2E/DX2                !
 ! D56   D(24,4,7,8)          -155.942          estimate D2E/DX2                !
 ! D57   D(24,4,7,17)           94.0968         estimate D2E/DX2                !
 ! D58   D(24,4,7,21)          -29.9845         estimate D2E/DX2                !
 ! D59   D(3,4,24,23)         -136.802          estimate D2E/DX2                !
 ! D60   D(5,4,24,23)           -9.5815         estimate D2E/DX2                !
 ! D61   D(7,4,24,23)          111.2473         estimate D2E/DX2                !
 ! D62   D(4,5,6,1)            -43.8441         estimate D2E/DX2                !
 ! D63   D(4,5,6,34)            77.4887         estimate D2E/DX2                !
 ! D64   D(4,5,6,35)          -165.673          estimate D2E/DX2                !
 ! D65   D(10,5,6,1)            85.8287         estimate D2E/DX2                !
 ! D66   D(10,5,6,34)         -152.8385         estimate D2E/DX2                !
 ! D67   D(10,5,6,35)          -36.0003         estimate D2E/DX2                !
 ! D68   D(22,5,6,1)          -156.4148         estimate D2E/DX2                !
 ! D69   D(22,5,6,34)          -35.082          estimate D2E/DX2                !
 ! D70   D(22,5,6,35)           81.7563         estimate D2E/DX2                !
 ! D71   D(4,5,10,9)            -4.2351         estimate D2E/DX2                !
 ! D72   D(4,5,10,16)          175.9218         estimate D2E/DX2                !
 ! D73   D(6,5,10,9)          -131.9777         estimate D2E/DX2                !
 ! D74   D(6,5,10,16)           48.1792         estimate D2E/DX2                !
 ! D75   D(22,5,10,9)          108.8388         estimate D2E/DX2                !
 ! D76   D(22,5,10,16)         -71.0043         estimate D2E/DX2                !
 ! D77   D(4,5,22,23)          -36.3715         estimate D2E/DX2                !
 ! D78   D(4,5,22,45)         -157.8046         estimate D2E/DX2                !
 ! D79   D(4,5,22,46)           82.6172         estimate D2E/DX2                !
 ! D80   D(6,5,22,23)           83.0235         estimate D2E/DX2                !
 ! D81   D(6,5,22,45)          -38.4097         estimate D2E/DX2                !
 ! D82   D(6,5,22,46)         -157.9879         estimate D2E/DX2                !
 ! D83   D(10,5,22,23)        -158.7082         estimate D2E/DX2                !
 ! D84   D(10,5,22,45)          79.8587         estimate D2E/DX2                !
 ! D85   D(10,5,22,46)         -39.7196         estimate D2E/DX2                !
 ! D86   D(4,7,8,9)             26.9889         estimate D2E/DX2                !
 ! D87   D(4,7,8,19)          -142.4956         estimate D2E/DX2                !
 ! D88   D(17,7,8,9)           141.5689         estimate D2E/DX2                !
 ! D89   D(17,7,8,19)          -27.9156         estimate D2E/DX2                !
 ! D90   D(21,7,8,9)          -100.5448         estimate D2E/DX2                !
 ! D91   D(21,7,8,19)           89.9707         estimate D2E/DX2                !
 ! D92   D(4,7,17,18)          155.0788         estimate D2E/DX2                !
 ! D93   D(4,7,17,20)           35.5667         estimate D2E/DX2                !
 ! D94   D(4,7,17,30)          -83.6095         estimate D2E/DX2                !
 ! D95   D(8,7,17,18)           34.4614         estimate D2E/DX2                !
 ! D96   D(8,7,17,20)          -85.0507         estimate D2E/DX2                !
 ! D97   D(8,7,17,30)          155.7732         estimate D2E/DX2                !
 ! D98   D(21,7,17,18)         -80.9421         estimate D2E/DX2                !
 ! D99   D(21,7,17,20)         159.5458         estimate D2E/DX2                !
 ! D100  D(21,7,17,30)          40.3697         estimate D2E/DX2                !
 ! D101  D(4,7,21,44)           39.608          estimate D2E/DX2                !
 ! D102  D(8,7,21,44)          168.9213         estimate D2E/DX2                !
 ! D103  D(17,7,21,44)         -81.6402         estimate D2E/DX2                !
 ! D104  D(7,8,9,10)            -0.7229         estimate D2E/DX2                !
 ! D105  D(7,8,9,11)          -178.2531         estimate D2E/DX2                !
 ! D106  D(19,8,9,10)          167.7512         estimate D2E/DX2                !
 ! D107  D(19,8,9,11)           -9.7789         estimate D2E/DX2                !
 ! D108  D(7,8,19,18)            8.2229         estimate D2E/DX2                !
 ! D109  D(9,8,19,18)         -161.4154         estimate D2E/DX2                !
 ! D110  D(8,9,10,5)           -11.0874         estimate D2E/DX2                !
 ! D111  D(8,9,10,16)          168.7583         estimate D2E/DX2                !
 ! D112  D(11,9,10,5)          166.3844         estimate D2E/DX2                !
 ! D113  D(11,9,10,16)         -13.7698         estimate D2E/DX2                !
 ! D114  D(8,9,11,12)          -62.0222         estimate D2E/DX2                !
 ! D115  D(8,9,11,13)          120.5042         estimate D2E/DX2                !
 ! D116  D(10,9,11,12)         120.4998         estimate D2E/DX2                !
 ! D117  D(10,9,11,13)         -56.9737         estimate D2E/DX2                !
 ! D118  D(9,11,13,14)        -169.8959         estimate D2E/DX2                !
 ! D119  D(9,11,13,15)         -43.8407         estimate D2E/DX2                !
 ! D120  D(9,11,13,36)          74.5284         estimate D2E/DX2                !
 ! D121  D(12,11,13,14)         12.7107         estimate D2E/DX2                !
 ! D122  D(12,11,13,15)        138.7659         estimate D2E/DX2                !
 ! D123  D(12,11,13,36)       -102.865          estimate D2E/DX2                !
 ! D124  D(11,13,14,37)       -167.6016         estimate D2E/DX2                !
 ! D125  D(11,13,14,38)        -51.8331         estimate D2E/DX2                !
 ! D126  D(11,13,14,62)         70.8853         estimate D2E/DX2                !
 ! D127  D(15,13,14,37)         65.8204         estimate D2E/DX2                !
 ! D128  D(15,13,14,38)       -178.4111         estimate D2E/DX2                !
 ! D129  D(15,13,14,62)        -55.6928         estimate D2E/DX2                !
 ! D130  D(36,13,14,37)        -52.0952         estimate D2E/DX2                !
 ! D131  D(36,13,14,38)         63.6733         estimate D2E/DX2                !
 ! D132  D(36,13,14,62)       -173.6084         estimate D2E/DX2                !
 ! D133  D(11,13,15,39)       -172.3208         estimate D2E/DX2                !
 ! D134  D(11,13,15,40)         68.6454         estimate D2E/DX2                !
 ! D135  D(11,13,15,41)        -51.0664         estimate D2E/DX2                !
 ! D136  D(14,13,15,39)        -46.2162         estimate D2E/DX2                !
 ! D137  D(14,13,15,40)       -165.25           estimate D2E/DX2                !
 ! D138  D(14,13,15,41)         75.0383         estimate D2E/DX2                !
 ! D139  D(36,13,15,39)         70.5255         estimate D2E/DX2                !
 ! D140  D(36,13,15,40)        -48.5083         estimate D2E/DX2                !
 ! D141  D(36,13,15,41)       -168.22           estimate D2E/DX2                !
 ! D142  D(13,14,62,63)         64.9018         estimate D2E/DX2                !
 ! D143  D(13,14,62,64)        -56.5409         estimate D2E/DX2                !
 ! D144  D(13,14,62,65)       -176.1763         estimate D2E/DX2                !
 ! D145  D(37,14,62,63)        -56.9287         estimate D2E/DX2                !
 ! D146  D(37,14,62,64)       -178.3714         estimate D2E/DX2                !
 ! D147  D(37,14,62,65)         61.9932         estimate D2E/DX2                !
 ! D148  D(38,14,62,63)       -171.8781         estimate D2E/DX2                !
 ! D149  D(38,14,62,64)         66.6793         estimate D2E/DX2                !
 ! D150  D(38,14,62,65)        -52.9561         estimate D2E/DX2                !
 ! D151  D(7,17,18,19)         -32.1254         estimate D2E/DX2                !
 ! D152  D(7,17,18,28)          85.8675         estimate D2E/DX2                !
 ! D153  D(7,17,18,29)        -150.5224         estimate D2E/DX2                !
 ! D154  D(20,17,18,19)         77.7358         estimate D2E/DX2                !
 ! D155  D(20,17,18,28)       -164.2713         estimate D2E/DX2                !
 ! D156  D(20,17,18,29)        -40.6613         estimate D2E/DX2                !
 ! D157  D(30,17,18,19)       -154.1539         estimate D2E/DX2                !
 ! D158  D(30,17,18,28)        -36.161          estimate D2E/DX2                !
 ! D159  D(30,17,18,29)         87.4491         estimate D2E/DX2                !
 ! D160  D(7,17,20,3)          -37.9962         estimate D2E/DX2                !
 ! D161  D(7,17,20,42)        -158.9629         estimate D2E/DX2                !
 ! D162  D(7,17,20,43)          81.5562         estimate D2E/DX2                !
 ! D163  D(18,17,20,3)        -148.3026         estimate D2E/DX2                !
 ! D164  D(18,17,20,42)         90.7307         estimate D2E/DX2                !
 ! D165  D(18,17,20,43)        -28.7502         estimate D2E/DX2                !
 ! D166  D(30,17,20,3)          82.8951         estimate D2E/DX2                !
 ! D167  D(30,17,20,42)        -38.0716         estimate D2E/DX2                !
 ! D168  D(30,17,20,43)       -157.5525         estimate D2E/DX2                !
 ! D169  D(17,18,19,8)          15.1823         estimate D2E/DX2                !
 ! D170  D(28,18,19,8)        -105.9185         estimate D2E/DX2                !
 ! D171  D(29,18,19,8)         137.0143         estimate D2E/DX2                !
 ! D172  D(17,18,28,53)        -62.1691         estimate D2E/DX2                !
 ! D173  D(17,18,28,54)       -179.6502         estimate D2E/DX2                !
 ! D174  D(17,18,28,55)         60.0015         estimate D2E/DX2                !
 ! D175  D(19,18,28,53)         54.325          estimate D2E/DX2                !
 ! D176  D(19,18,28,54)        -63.1561         estimate D2E/DX2                !
 ! D177  D(19,18,28,55)        176.4956         estimate D2E/DX2                !
 ! D178  D(29,18,28,53)        171.3841         estimate D2E/DX2                !
 ! D179  D(29,18,28,54)         53.903          estimate D2E/DX2                !
 ! D180  D(29,18,28,55)        -66.4454         estimate D2E/DX2                !
 ! D181  D(17,18,29,56)        -57.6134         estimate D2E/DX2                !
 ! D182  D(17,18,29,57)       -178.1584         estimate D2E/DX2                !
 ! D183  D(17,18,29,58)         64.6674         estimate D2E/DX2                !
 ! D184  D(19,18,29,56)       -174.495          estimate D2E/DX2                !
 ! D185  D(19,18,29,57)         64.96           estimate D2E/DX2                !
 ! D186  D(19,18,29,58)        -52.2141         estimate D2E/DX2                !
 ! D187  D(28,18,29,56)         68.4889         estimate D2E/DX2                !
 ! D188  D(28,18,29,57)        -52.0561         estimate D2E/DX2                !
 ! D189  D(28,18,29,58)       -169.2302         estimate D2E/DX2                !
 ! D190  D(5,22,23,24)          31.8251         estimate D2E/DX2                !
 ! D191  D(5,22,23,25)         154.0009         estimate D2E/DX2                !
 ! D192  D(5,22,23,47)         -82.4814         estimate D2E/DX2                !
 ! D193  D(45,22,23,24)        154.3086         estimate D2E/DX2                !
 ! D194  D(45,22,23,25)        -83.5156         estimate D2E/DX2                !
 ! D195  D(45,22,23,47)         40.0021         estimate D2E/DX2                !
 ! D196  D(46,22,23,24)        -85.6922         estimate D2E/DX2                !
 ! D197  D(46,22,23,25)         36.4836         estimate D2E/DX2                !
 ! D198  D(46,22,23,47)        160.0014         estimate D2E/DX2                !
 ! D199  D(22,23,24,4)         -13.9686         estimate D2E/DX2                !
 ! D200  D(25,23,24,4)        -142.302          estimate D2E/DX2                !
 ! D201  D(47,23,24,4)         102.1831         estimate D2E/DX2                !
 ! D202  D(22,23,25,26)       -175.9494         estimate D2E/DX2                !
 ! D203  D(22,23,25,27)          5.7507         estimate D2E/DX2                !
 ! D204  D(24,23,25,26)        -55.2801         estimate D2E/DX2                !
 ! D205  D(24,23,25,27)        126.42           estimate D2E/DX2                !
 ! D206  D(47,23,25,26)         59.6505         estimate D2E/DX2                !
 ! D207  D(47,23,25,27)       -118.6494         estimate D2E/DX2                !
 ! D208  D(23,25,26,48)        -55.3493         estimate D2E/DX2                !
 ! D209  D(23,25,26,49)         64.8365         estimate D2E/DX2                !
 ! D210  D(23,25,26,50)       -175.1294         estimate D2E/DX2                !
 ! D211  D(27,25,26,48)        123.0447         estimate D2E/DX2                !
 ! D212  D(27,25,26,49)       -116.7695         estimate D2E/DX2                !
 ! D213  D(27,25,26,50)          3.2646         estimate D2E/DX2                !
 ! D214  D(23,25,27,51)         -0.4339         estimate D2E/DX2                !
 ! D215  D(23,25,27,52)        179.3567         estimate D2E/DX2                !
 ! D216  D(26,25,27,51)       -178.6577         estimate D2E/DX2                !
 ! D217  D(26,25,27,52)          1.1329         estimate D2E/DX2                !
 --------------------------------------------------------------------------------
 Trust Radius=3.00D-01 FncErr=1.00D-07 GrdErr=1.00D-06
 Number of steps in this run=    390 maximum allowed number of steps=    390.
 GradGradGradGradGradGradGradGradGradGradGradGradGradGradGradGradGradGrad

 Stoichiometry    C26H34O5
 Framework group  C1[X(C26H34O5)]
 Deg. of freedom   189
 Full point group                 C1      NOp   1
 Largest Abelian subgroup         C1      NOp   1
 Largest concise Abelian subgroup C1      NOp   1
                         Standard orientation:                         
 ---------------------------------------------------------------------
 Center     Atomic      Atomic             Coordinates (Angstroms)
 Number     Number       Type             X           Y           Z
 ---------------------------------------------------------------------
      1          6           0       -0.565230   -2.497657    2.054743
      2          6           0       -0.455391   -1.310702    2.670561
      3          6           0       -0.988041   -0.042204    2.045288
      4          6           0       -1.372308   -0.131647    0.539319
      5          6           0       -1.101086   -1.449603   -0.200694
      6          6           0       -1.220271   -2.680794    0.723411
      7          6           0       -0.683574    1.082005   -0.116386
      8          6           0        0.693914    0.835995   -0.631509
      9          6           0        1.136809   -0.360899   -1.032630
     10          6           0        0.233687   -1.532353   -0.958164
     11          6           0        2.546372   -0.495481   -1.492417
     12          8           0        2.923728    0.137088   -2.479605
     13          6           0        3.462158   -1.472834   -0.742152
     14          6           0        4.934807   -1.313134   -1.172103
     15          6           0        3.307863   -1.368272    0.775831
     16          8           0        0.571331   -2.577527   -1.518776
     17          6           0       -0.366517    2.072048    0.983844
     18          6           0        0.818956    2.864559    0.395029
     19          8           0        1.543488    1.923567   -0.435615
     20          6           0       -0.012812    1.142620    2.155511
     21          8           0       -1.470161    1.653212   -1.147432
     22          6           0       -2.227421   -1.460410   -1.236312
     23          6           0       -3.397252   -0.843245   -0.478801
     24          8           0       -2.812345    0.099088    0.442292
     25          6           0       -4.480554   -0.141962   -1.266446
     26          6           0       -5.548531    0.521206   -0.433628
     27          6           0       -4.559146   -0.107270   -2.607793
     28          6           0        0.371806    4.039002   -0.489496
     29          6           0        1.780804    3.404339    1.459192
     30          1           0       -1.212303    2.720138    1.241146
     31          1           0       -1.888255    0.230281    2.615980
     32          6           0        0.119961   -1.212302    4.058514
     33          1           0       -0.221166   -3.403623    2.550640
     34          1           0       -2.266924   -2.946557    0.913605
     35          1           0       -0.781499   -3.566236    0.247138
     36          1           0        3.156469   -2.480419   -1.051749
     37          1           0        5.510689   -2.163999   -0.786717
     38          1           0        5.007361   -1.364565   -2.265475
     39          1           0        4.062261   -1.972761    1.290252
     40          1           0        2.328668   -1.734479    1.098136
     41          1           0        3.397429   -0.332889    1.121595
     42          1           0       -0.117203    1.664324    3.113523
     43          1           0        1.022204    0.784635    2.094211
     44          1           0       -2.394903    1.630231   -0.829915
     45          1           0       -2.464981   -2.460661   -1.615551
     46          1           0       -1.937619   -0.850471   -2.100648
     47          1           0       -3.881621   -1.616343    0.130557
     48          1           0       -6.001610   -0.203936    0.250271
     49          1           0       -5.124294    1.340160    0.156086
     50          1           0       -6.352301    0.940076   -1.048594
     51          1           0       -3.830462   -0.585547   -3.253000
     52          1           0       -5.372349    0.407786   -3.111904
     53          1           0       -0.197280    3.712602   -1.363944
     54          1           0        1.242202    4.570695   -0.891963
     55          1           0       -0.235625    4.753274    0.075745
     56          1           0        1.261758    4.048014    2.176549
     57          1           0        2.585817    3.985978    0.994342
     58          1           0        2.284336    2.599931    2.004330
     59          1           0        0.336495   -2.197727    4.484768
     60          1           0        1.055515   -0.644906    4.051661
     61          1           0       -0.588273   -0.713352    4.727985
     62          6           0        5.605054   -0.028689   -0.697518
     63          1           0        5.685763    0.000913    0.393162
     64          1           0        5.058736    0.859595   -1.027179
     65          1           0        6.620296    0.032513   -1.103102
 ---------------------------------------------------------------------
 Rotational constants (GHZ):      0.2202889      0.1265014      0.1186107
 Standard basis: 6-31G(d) (6D, 7F)
 There are   533 symmetry adapted basis functions of A   symmetry.
 Integral buffers will be    131072 words long.
 Raffenetti 2 integral format.
 Two-electron integral symmetry is turned on.
   533 basis functions,  1004 primitive gaussians,   533 cartesian basis functions
   115 alpha electrons      115 beta electrons
       nuclear repulsion energy      3549.3781972283 Hartrees.
 NAtoms=   65 NActive=   65 NUniq=   65 SFac= 1.00D+00 NAtFMM=   50 NAOKFM=T Big=T
 One-electron integrals computed using PRISM.
 NBasis=   533 RedAO= T  NBF=   533
 NBsUse=   533 1.00D-06 NBFU=   533
 Harris functional with IExCor=  402 diagonalized for initial guess.
 ExpMin= 1.61D-01 ExpMax= 5.48D+03 ExpMxC= 8.25D+02 IAcc=1 IRadAn=         1 AccDes= 0.00D+00
 HarFok:  IExCor=  402 AccDes= 0.00D+00 IRadAn=         1 IDoV= 1
 ScaDFX=  1.000000  1.000000  1.000000  1.000000
 FoFCou: FMM=F IPFlag=           0 FMFlag=      100000 FMFlg1=        2001
         NFxFlg=           0 DoJE=T BraDBF=F KetDBF=T FulRan=T
         Omega=  0.000000  0.000000  1.000000  0.000000  0.000000 ICntrl=     500 IOpCl=  0
         NMat0=    1 NMatS0=    1 NMatT0=    0 NMatD0=    1 NMtDS0=    0 NMtDT0=    0
         I1Cent=           4 NGrid=           0.
 Petite list used in FoFCou.
 Initial guess orbital symmetries:
       Occupied  (A) (A) (A) (A) (A) (A) (A) (A) (A) (A) (A) (A)
                 (A) (A) (A) (A) (A) (A) (A) (A) (A) (A) (A) (A)
                 (A) (A) (A) (A) (A) (A) (A) (A) (A) (A) (A) (A)
                 (A) (A) (A) (A) (A) (A) (A) (A) (A) (A) (A) (A)
                 (A) (A) (A) (A) (A) (A) (A) (A) (A) (A) (A) (A)
                 (A) (A) (A) (A) (A) (A) (A) (A) (A) (A) (A) (A)
                 (A) (A) (A) (A) (A) (A) (A) (A) (A) (A) (A) (A)
                 (A) (A) (A) (A) (A) (A) (A) (A) (A) (A) (A) (A)
                 (A) (A) (A) (A) (A) (A) (A) (A) (A) (A) (A) (A)
                 (A) (A) (A) (A) (A) (A) (A)
       Virtual   (A) (A) (A) (A) (A) (A) (A) (A) (A) (A) (A) (A)
                 (A) (A) (A) (A) (A) (A) (A) (A) (A) (A) (A) (A)
                 (A) (A) (A) (A) (A) (A) (A) (A) (A) (A) (A) (A)
                 (A) (A) (A) (A) (A) (A) (A) (A) (A) (A) (A) (A)
                 (A) (A) (A) (A) (A) (A) (A) (A) (A) (A) (A) (A)
                 (A) (A) (A) (A) (A) (A) (A) (A) (A) (A) (A) (A)
                 (A) (A) (A) (A) (A) (A) (A) (A) (A) (A) (A) (A)
                 (A) (A) (A) (A) (A) (A) (A) (A) (A) (A) (A) (A)
                 (A) (A) (A) (A) (A) (A) (A) (A) (A) (A) (A) (A)
                 (A) (A) (A) (A) (A) (A) (A) (A) (A) (A) (A) (A)
                 (A) (A) (A) (A) (A) (A) (A) (A) (A) (A) (A) (A)
                 (A) (A) (A) (A) (A) (A) (A) (A) (A) (A) (A) (A)
                 (A) (A) (A) (A) (A) (A) (A) (A) (A) (A) (A) (A)
                 (A) (A) (A) (A) (A) (A) (A) (A) (A) (A) (A) (A)
                 (A) (A) (A) (A) (A) (A) (A) (A) (A) (A) (A) (A)
                 (A) (A) (A) (A) (A) (A) (A) (A) (A) (A) (A) (A)
                 (A) (A) (A) (A) (A) (A) (A) (A) (A) (A) (A) (A)
                 (A) (A) (A) (A) (A) (A) (A) (A) (A) (A) (A) (A)
                 (A) (A) (A) (A) (A) (A) (A) (A) (A) (A) (A) (A)
                 (A) (A) (A) (A) (A) (A) (A) (A) (A) (A) (A) (A)
                 (A) (A) (A) (A) (A) (A) (A) (A) (A) (A) (A) (A)
                 (A) (A) (A) (A) (A) (A) (A) (A) (A) (A) (A) (A)
                 (A) (A) (A) (A) (A) (A) (A) (A) (A) (A) (A) (A)
                 (A) (A) (A) (A) (A) (A) (A) (A) (A) (A) (A) (A)
                 (A) (A) (A) (A) (A) (A) (A) (A) (A) (A) (A) (A)
                 (A) (A) (A) (A) (A) (A) (A) (A) (A) (A) (A) (A)
                 (A) (A) (A) (A) (A) (A) (A) (A) (A) (A) (A) (A)
                 (A) (A) (A) (A) (A) (A) (A) (A) (A) (A) (A) (A)
                 (A) (A) (A) (A) (A) (A) (A) (A) (A) (A) (A) (A)
                 (A) (A) (A) (A) (A) (A) (A) (A) (A) (A) (A) (A)
                 (A) (A) (A) (A) (A) (A) (A) (A) (A) (A) (A) (A)
                 (A) (A) (A) (A) (A) (A) (A) (A) (A) (A) (A) (A)
                 (A) (A) (A) (A) (A) (A) (A) (A) (A) (A) (A) (A)
                 (A) (A) (A) (A) (A) (A) (A) (A) (A) (A) (A) (A)
                 (A) (A) (A) (A) (A) (A) (A) (A) (A) (A)
 The electronic state of the initial guess is 1-A.
 Requested convergence on RMS density matrix=1.00D-08 within 128 cycles.
 Requested convergence on MAX density matrix=1.00D-06.
 Requested convergence on             energy=1.00D-06.
 No special actions if energy rises.
 Integral accuracy reduced to 1.0D-05 until final iterations.
 Initial convergence to 1.0D-05 achieved.  Increase integral accuracy.
 SCF Done:  E(RB3LYP) =  -1387.30335820     A.U. after   16 cycles
             Convg  =    0.4139D-08             -V/T =  2.0091

 **********************************************************************

            Population analysis using the SCF density.

 **********************************************************************

 Orbital symmetries:
       Occupied  (A) (A) (A) (A) (A) (A) (A) (A) (A) (A) (A) (A)
                 (A) (A) (A) (A) (A) (A) (A) (A) (A) (A) (A) (A)
                 (A) (A) (A) (A) (A) (A) (A) (A) (A) (A) (A) (A)
                 (A) (A) (A) (A) (A) (A) (A) (A) (A) (A) (A) (A)
                 (A) (A) (A) (A) (A) (A) (A) (A) (A) (A) (A) (A)
                 (A) (A) (A) (A) (A) (A) (A) (A) (A) (A) (A) (A)
                 (A) (A) (A) (A) (A) (A) (A) (A) (A) (A) (A) (A)
                 (A) (A) (A) (A) (A) (A) (A) (A) (A) (A) (A) (A)
                 (A) (A) (A) (A) (A) (A) (A) (A) (A) (A) (A) (A)
                 (A) (A) (A) (A) (A) (A) (A)
       Virtual   (A) (A) (A) (A) (A) (A) (A) (A) (A) (A) (A) (A)
                 (A) (A) (A) (A) (A) (A) (A) (A) (A) (A) (A) (A)
                 (A) (A) (A) (A) (A) (A) (A) (A) (A) (A) (A) (A)
                 (A) (A) (A) (A) (A) (A) (A) (A) (A) (A) (A) (A)
                 (A) (A) (A) (A) (A) (A) (A) (A) (A) (A) (A) (A)
                 (A) (A) (A) (A) (A) (A) (A) (A) (A) (A) (A) (A)
                 (A) (A) (A) (A) (A) (A) (A) (A) (A) (A) (A) (A)
                 (A) (A) (A) (A) (A) (A) (A) (A) (A) (A) (A) (A)
                 (A) (A) (A) (A) (A) (A) (A) (A) (A) (A) (A) (A)
                 (A) (A) (A) (A) (A) (A) (A) (A) (A) (A) (A) (A)
                 (A) (A) (A) (A) (A) (A) (A) (A) (A) (A) (A) (A)
                 (A) (A) (A) (A) (A) (A) (A) (A) (A) (A) (A) (A)
                 (A) (A) (A) (A) (A) (A) (A) (A) (A) (A) (A) (A)
                 (A) (A) (A) (A) (A) (A) (A) (A) (A) (A) (A) (A)
                 (A) (A) (A) (A) (A) (A) (A) (A) (A) (A) (A) (A)
                 (A) (A) (A) (A) (A) (A) (A) (A) (A) (A) (A) (A)
                 (A) (A) (A) (A) (A) (A) (A) (A) (A) (A) (A) (A)
                 (A) (A) (A) (A) (A) (A) (A) (A) (A) (A) (A) (A)
                 (A) (A) (A) (A) (A) (A) (A) (A) (A) (A) (A) (A)
                 (A) (A) (A) (A) (A) (A) (A) (A) (A) (A) (A) (A)
                 (A) (A) (A) (A) (A) (A) (A) (A) (A) (A) (A) (A)
                 (A) (A) (A) (A) (A) (A) (A) (A) (A) (A) (A) (A)
                 (A) (A) (A) (A) (A) (A) (A) (A) (A) (A) (A) (A)
                 (A) (A) (A) (A) (A) (A) (A) (A) (A) (A) (A) (A)
                 (A) (A) (A) (A) (A) (A) (A) (A) (A) (A) (A) (A)
                 (A) (A) (A) (A) (A) (A) (A) (A) (A) (A) (A) (A)
                 (A) (A) (A) (A) (A) (A) (A) (A) (A) (A) (A) (A)
                 (A) (A) (A) (A) (A) (A) (A) (A) (A) (A) (A) (A)
                 (A) (A) (A) (A) (A) (A) (A) (A) (A) (A) (A) (A)
                 (A) (A) (A) (A) (A) (A) (A) (A) (A) (A) (A) (A)
                 (A) (A) (A) (A) (A) (A) (A) (A) (A) (A) (A) (A)
                 (A) (A) (A) (A) (A) (A) (A) (A) (A) (A) (A) (A)
                 (A) (A) (A) (A) (A) (A) (A) (A) (A) (A) (A) (A)
                 (A) (A) (A) (A) (A) (A) (A) (A) (A) (A) (A) (A)
                 (A) (A) (A) (A) (A) (A) (A) (A) (A) (A)
 The electronic state is 1-A.
 Alpha  occ. eigenvalues --  -19.19422 -19.16890 -19.15296 -19.13607 -19.12958
 Alpha  occ. eigenvalues --  -10.28061 -10.27067 -10.26825 -10.26104 -10.25964
 Alpha  occ. eigenvalues --  -10.25579 -10.25137 -10.21784 -10.20642 -10.20577
 Alpha  occ. eigenvalues --  -10.20139 -10.19799 -10.19735 -10.19656 -10.19547
 Alpha  occ. eigenvalues --  -10.19309 -10.18832 -10.18756 -10.18728 -10.18648
 Alpha  occ. eigenvalues --  -10.18526 -10.18463 -10.17444 -10.17403 -10.16717
 Alpha  occ. eigenvalues --  -10.15696  -1.08319  -1.06049  -1.03403  -1.02297
 Alpha  occ. eigenvalues --   -1.02022  -0.87613  -0.84021  -0.82686  -0.81817
 Alpha  occ. eigenvalues --   -0.80591  -0.79770  -0.76948  -0.74600  -0.73845
 Alpha  occ. eigenvalues --   -0.72451  -0.71332  -0.69479  -0.69235  -0.68033
 Alpha  occ. eigenvalues --   -0.65437  -0.64499  -0.63754  -0.62530  -0.61066
 Alpha  occ. eigenvalues --   -0.59534  -0.58798  -0.57440  -0.54863  -0.53704
 Alpha  occ. eigenvalues --   -0.53002  -0.52134  -0.51127  -0.50552  -0.49274
 Alpha  occ. eigenvalues --   -0.48297  -0.47590  -0.46765  -0.46154  -0.45970
 Alpha  occ. eigenvalues --   -0.45474  -0.45159  -0.44619  -0.43873  -0.43423
 Alpha  occ. eigenvalues --   -0.42978  -0.42660  -0.42171  -0.41866  -0.41700
 Alpha  occ. eigenvalues --   -0.41085  -0.40796  -0.40414  -0.39780  -0.39415
 Alpha  occ. eigenvalues --   -0.39100  -0.38732  -0.38499  -0.38263  -0.37862
 Alpha  occ. eigenvalues --   -0.37585  -0.37475  -0.37221  -0.37138  -0.36839
 Alpha  occ. eigenvalues --   -0.36598  -0.36431  -0.35293  -0.34737  -0.34129
 Alpha  occ. eigenvalues --   -0.33760  -0.33391  -0.32754  -0.32468  -0.31989
 Alpha  occ. eigenvalues --   -0.31651  -0.31428  -0.31071  -0.27947  -0.26618
 Alpha  occ. eigenvalues --   -0.26036  -0.25492  -0.24528  -0.23914  -0.23067
 Alpha virt. eigenvalues --   -0.05448  -0.02102   0.00363   0.01717   0.04606
 Alpha virt. eigenvalues --    0.06896   0.07435   0.08672   0.08725   0.10029
 Alpha virt. eigenvalues --    0.10508   0.10714   0.11459   0.11854   0.12387
 Alpha virt. eigenvalues --    0.12747   0.13118   0.13488   0.13806   0.14052
 Alpha virt. eigenvalues --    0.14450   0.14697   0.14998   0.15090   0.15755
 Alpha virt. eigenvalues --    0.15951   0.16335   0.16904   0.17202   0.17529
 Alpha virt. eigenvalues --    0.17727   0.18237   0.18410   0.18600   0.19018
 Alpha virt. eigenvalues --    0.19361   0.19541   0.19933   0.19981   0.20271
 Alpha virt. eigenvalues --    0.20501   0.21181   0.21285   0.21734   0.22085
 Alpha virt. eigenvalues --    0.22949   0.23236   0.23490   0.23805   0.24722
 Alpha virt. eigenvalues --    0.25022   0.25369   0.26043   0.26616   0.26765
 Alpha virt. eigenvalues --    0.27062   0.27764   0.28121   0.28949   0.29789
 Alpha virt. eigenvalues --    0.30981   0.31617   0.32328   0.33299   0.34020
 Alpha virt. eigenvalues --    0.34449   0.36636   0.38315   0.38622   0.39675
 Alpha virt. eigenvalues --    0.41465   0.44872   0.46016   0.48029   0.48298
 Alpha virt. eigenvalues --    0.49907   0.50406   0.50876   0.51716   0.51845
 Alpha virt. eigenvalues --    0.52615   0.52768   0.53070   0.53693   0.53923
 Alpha virt. eigenvalues --    0.54312   0.55023   0.55156   0.56063   0.56472
 Alpha virt. eigenvalues --    0.57268   0.57382   0.57875   0.58348   0.58998
 Alpha virt. eigenvalues --    0.59157   0.60227   0.60316   0.61378   0.62038
 Alpha virt. eigenvalues --    0.62249   0.62632   0.63180   0.63371   0.64638
 Alpha virt. eigenvalues --    0.65828   0.66325   0.66635   0.66988   0.67669
 Alpha virt. eigenvalues --    0.68195   0.68498   0.68658   0.69024   0.69413
 Alpha virt. eigenvalues --    0.69766   0.71658   0.72047   0.72107   0.73158
 Alpha virt. eigenvalues --    0.73283   0.73841   0.75040   0.75322   0.76187
 Alpha virt. eigenvalues --    0.76618   0.77809   0.78623   0.79643   0.80268
 Alpha virt. eigenvalues --    0.80516   0.80737   0.81511   0.81964   0.82250
 Alpha virt. eigenvalues --    0.82565   0.83703   0.84123   0.84601   0.85095
 Alpha virt. eigenvalues --    0.85632   0.86352   0.86506   0.87082   0.87301
 Alpha virt. eigenvalues --    0.87752   0.88153   0.88377   0.88771   0.89053
 Alpha virt. eigenvalues --    0.89435   0.89576   0.89934   0.90668   0.90757
 Alpha virt. eigenvalues --    0.91109   0.91693   0.91907   0.92201   0.92764
 Alpha virt. eigenvalues --    0.92883   0.93085   0.93664   0.94241   0.94442
 Alpha virt. eigenvalues --    0.95694   0.96056   0.96288   0.97015   0.97377
 Alpha virt. eigenvalues --    0.97573   0.98238   0.98905   0.99201   1.00353
 Alpha virt. eigenvalues --    1.01470   1.01652   1.02244   1.03767   1.04231
 Alpha virt. eigenvalues --    1.04722   1.05044   1.05883   1.06938   1.08016
 Alpha virt. eigenvalues --    1.10179   1.10444   1.10618   1.11800   1.13201
 Alpha virt. eigenvalues --    1.14095   1.14304   1.16281   1.16965   1.17255
 Alpha virt. eigenvalues --    1.17657   1.18060   1.18837   1.19727   1.20384
 Alpha virt. eigenvalues --    1.21319   1.23065   1.24794   1.25029   1.25581
 Alpha virt. eigenvalues --    1.26203   1.27457   1.30899   1.31570   1.33137
 Alpha virt. eigenvalues --    1.35786   1.36366   1.37646   1.37853   1.40155
 Alpha virt. eigenvalues --    1.41070   1.42107   1.43251   1.44189   1.45922
 Alpha virt. eigenvalues --    1.47312   1.48776   1.49585   1.50502   1.52644
 Alpha virt. eigenvalues --    1.52930   1.54830   1.55858   1.56629   1.58482
 Alpha virt. eigenvalues --    1.60622   1.61318   1.62402   1.63008   1.64746
 Alpha virt. eigenvalues --    1.65947   1.66059   1.67471   1.69442   1.70051
 Alpha virt. eigenvalues --    1.70965   1.71426   1.71693   1.72633   1.73899
 Alpha virt. eigenvalues --    1.74471   1.74847   1.76046   1.77160   1.77940
 Alpha virt. eigenvalues --    1.79143   1.79563   1.80386   1.80974   1.81966
 Alpha virt. eigenvalues --    1.82391   1.82550   1.83204   1.83969   1.84716
 Alpha virt. eigenvalues --    1.85565   1.86617   1.86758   1.87425   1.88219
 Alpha virt. eigenvalues --    1.88527   1.89018   1.89941   1.90898   1.91521
 Alpha virt. eigenvalues --    1.91566   1.92918   1.93535   1.93909   1.95130
 Alpha virt. eigenvalues --    1.95622   1.96092   1.96827   1.97732   1.98965
 Alpha virt. eigenvalues --    1.99297   2.00143   2.00838   2.01475   2.01837
 Alpha virt. eigenvalues --    2.02654   2.03389   2.04293   2.05083   2.06337
 Alpha virt. eigenvalues --    2.07079   2.07937   2.08689   2.08940   2.09505
 Alpha virt. eigenvalues --    2.10625   2.12153   2.12520   2.13044   2.14214
 Alpha virt. eigenvalues --    2.15221   2.15548   2.16187   2.17128   2.18514
 Alpha virt. eigenvalues --    2.18775   2.19985   2.21414   2.22496   2.23284
 Alpha virt. eigenvalues --    2.24646   2.25121   2.25471   2.26105   2.26994
 Alpha virt. eigenvalues --    2.28302   2.29122   2.30634   2.31096   2.31895
 Alpha virt. eigenvalues --    2.32824   2.33297   2.34175   2.34857   2.35481
 Alpha virt. eigenvalues --    2.35895   2.36576   2.37077   2.38326   2.38753
 Alpha virt. eigenvalues --    2.39724   2.40686   2.41694   2.42462   2.43002
 Alpha virt. eigenvalues --    2.44065   2.45104   2.46516   2.47936   2.48231
 Alpha virt. eigenvalues --    2.50072   2.50704   2.51712   2.53621   2.54128
 Alpha virt. eigenvalues --    2.56625   2.57600   2.57719   2.59173   2.60442
 Alpha virt. eigenvalues --    2.61123   2.61679   2.61748   2.63871   2.65617
 Alpha virt. eigenvalues --    2.66593   2.67723   2.68856   2.69497   2.70719
 Alpha virt. eigenvalues --    2.71500   2.73840   2.74295   2.76824   2.78698
 Alpha virt. eigenvalues --    2.79370   2.81643   2.82437   2.84027   2.85526
 Alpha virt. eigenvalues --    2.86859   2.89179   2.91615   2.94959   2.95116
 Alpha virt. eigenvalues --    2.96753   2.99915   3.00650   3.01543   3.03469
 Alpha virt. eigenvalues --    3.05541   3.06721   3.12441   3.19244   3.21058
 Alpha virt. eigenvalues --    3.23949   3.29269   4.01720   4.09439   4.09623
 Alpha virt. eigenvalues --    4.12764   4.13613   4.15929   4.18089   4.19873
 Alpha virt. eigenvalues --    4.21899   4.24659   4.25302   4.27998   4.31985
 Alpha virt. eigenvalues --    4.32841   4.35505   4.38172   4.38376   4.44485
 Alpha virt. eigenvalues --    4.46680   4.49603   4.52698   4.53993   4.60865
 Alpha virt. eigenvalues --    4.62927   4.64115   4.67779   4.74158   4.81950
 Alpha virt. eigenvalues --    4.89818   5.00256   5.17105
          Condensed to atoms (all electrons):
 Mulliken atomic charges:
              1
     1  C   -0.195088
     2  C    0.189252
     3  C   -0.185979
     4  C    0.321448
     5  C   -0.053749
     6  C   -0.330560
     7  C    0.210952
     8  C    0.399332
     9  C   -0.083337
    10  C    0.426001
    11  C    0.430024
    12  O   -0.451182
    13  C   -0.171947
    14  C   -0.247982
    15  C   -0.478787
    16  O   -0.506067
    17  C   -0.160536
    18  C    0.312741
    19  O   -0.527120
    20  C   -0.322236
    21  O   -0.657921
    22  C   -0.327606
    23  C    0.107349
    24  O   -0.586267
    25  C    0.175018
    26  C   -0.504798
    27  C   -0.389455
    28  C   -0.461200
    29  C   -0.463337
    30  H    0.142973
    31  H    0.165318
    32  C   -0.517911
    33  H    0.124326
    34  H    0.152891
    35  H    0.179453
    36  H    0.181061
    37  H    0.122051
    38  H    0.153292
    39  H    0.150289
    40  H    0.152972
    41  H    0.152263
    42  H    0.148762
    43  H    0.165419
    44  H    0.412360
    45  H    0.168308
    46  H    0.177176
    47  H    0.136681
    48  H    0.154316
    49  H    0.165105
    50  H    0.154463
    51  H    0.150980
    52  H    0.143450
    53  H    0.188492
    54  H    0.152719
    55  H    0.136746
    56  H    0.149615
    57  H    0.161160
    58  H    0.154121
    59  H    0.158475
    60  H    0.159838
    61  H    0.151277
    62  C   -0.453233
    63  H    0.133193
    64  H    0.166022
    65  H    0.138613
 Sum of Mulliken atomic charges =   0.00000
 Mulliken charges with hydrogens summed into heavy atoms:
              1
     1  C   -0.070762
     2  C    0.189252
     3  C   -0.020661
     4  C    0.321448
     5  C   -0.053749
     6  C    0.001784
     7  C    0.210952
     8  C    0.399332
     9  C   -0.083337
    10  C    0.426001
    11  C    0.430024
    12  O   -0.451182
    13  C    0.009114
    14  C    0.027361
    15  C   -0.023263
    16  O   -0.506067
    17  C   -0.017564
    18  C    0.312741
    19  O   -0.527120
    20  C   -0.008055
    21  O   -0.245561
    22  C    0.017878
    23  C    0.244030
    24  O   -0.586267
    25  C    0.175018
    26  C   -0.030915
    27  C   -0.095025
    28  C    0.016757
    29  C    0.001560
    32  C   -0.048321
    62  C   -0.015405
 Sum of Mulliken charges with hydrogens summed into heavy atoms =   0.00000
 Electronic spatial extent (au):  <R**2>=          11125.6208
 Charge=              0.0000 electrons
 Dipole moment (field-independent basis, Debye):
    X=             -3.7125    Y=              0.9652    Z=              5.3040  Tot=              6.5457
 Quadrupole moment (field-independent basis, Debye-Ang):
   XX=           -180.6330   YY=           -180.5056   ZZ=           -189.8385
   XY=             -0.6474   XZ=             10.9532   YZ=              1.3848
 Traceless Quadrupole moment (field-independent basis, Debye-Ang):
   XX=              3.0261   YY=              3.1534   ZZ=             -6.1795
   XY=             -0.6474   XZ=             10.9532   YZ=              1.3848
 Octapole moment (field-independent basis, Debye-Ang**2):
  XXX=            -53.0915  YYY=             38.0761  ZZZ=             16.2865  XYY=             -3.7330
  XXY=             -6.4879  XXZ=             -0.6923  XZZ=            -28.6229  YZZ=              3.7226
  YYZ=             22.6226  XYZ=              2.4125
 Hexadecapole moment (field-independent basis, Debye-Ang**3):
 XXXX=          -8175.9932 YYYY=          -3573.9966 ZZZZ=          -2945.0450 XXXY=           -112.9401
 XXXZ=             83.8670 YYYX=             29.2510 YYYZ=            -33.3114 ZZZX=             58.5230
 ZZZY=              6.9644 XXYY=          -1961.5876 XXZZ=          -1916.0595 YYZZ=          -1106.2024
 XXYZ=             -2.3933 YYXZ=             -8.1624 ZZXY=            -19.7124
 N-N= 3.549378197228D+03 E-N=-1.032485239209D+04  KE= 1.374730930376D+03
 Calling FoFJK, ICntrl=      2127 FMM=T ISym2X=0 I1Cent= 0 IOpClX= 0 NMat=1 NMatS=1 NMatT=0.
 ***** Axes restored to original set *****
 -------------------------------------------------------------------
 Center     Atomic                   Forces (Hartrees/Bohr)
 Number     Number              X              Y              Z
 -------------------------------------------------------------------
      1        6           0.008200785    0.000120843    0.000066724
      2        6          -0.011555281   -0.004806270    0.002376855
      3        6          -0.001397060   -0.007688444   -0.000845709
      4        6           0.002133207   -0.004122146    0.011516488
      5        6          -0.011379344   -0.004385765    0.001823168
      6        6          -0.004609302   -0.009678847   -0.000743803
      7        6           0.012278099    0.019714174    0.009869747
      8        6           0.015611197   -0.009505939   -0.018421935
      9        6          -0.003722167    0.000450174    0.008194853
     10        6          -0.006230528   -0.001968939   -0.021340731
     11        6          -0.014593122    0.011908414   -0.022952260
     12        8           0.000759812   -0.016496036    0.013369402
     13        6           0.000451033   -0.000870498   -0.012210507
     14        6          -0.002256370    0.003798193   -0.003254828
     15        6           0.000914709   -0.000713833    0.009275464
     16        8           0.007790156   -0.001426487    0.009946676
     17        6           0.008036130   -0.011022229   -0.005712286
     18        6           0.031172387    0.006998752    0.000896221
     19        8          -0.030089180    0.002726565    0.027090763
     20        6           0.011646958   -0.004575518    0.000903301
     21        8          -0.006361063    0.007114095   -0.004012291
     22        6          -0.006525062    0.014225845    0.001076414
     23        6          -0.005129500    0.007810418    0.001458554
     24        8           0.001794676   -0.006963592   -0.009801501
     25        6          -0.002808914    0.015225980    0.000236779
     26        6           0.001348750    0.001550524    0.000285928
     27        6           0.000886752   -0.009947588   -0.001172386
     28        6          -0.002688925    0.008145858   -0.004675395
     29        6          -0.003263538   -0.005679260   -0.009377193
     30        1          -0.001874309    0.000962861   -0.001520093
     31        1          -0.003179281    0.005841869   -0.000048539
     32        6          -0.001117267    0.000843994   -0.001154769
     33        1           0.001538485   -0.001130535    0.000003061
     34        1          -0.000117392    0.005723496    0.001688610
     35        1           0.001030804    0.007383781   -0.002255697
     36        1          -0.000308539    0.002689424    0.003967617
     37        1          -0.001705103   -0.000625197    0.002314278
     38        1           0.000111727    0.000454249    0.002658707
     39        1           0.000165216    0.000156409   -0.001388399
     40        1           0.000552794   -0.000669771    0.001289969
     41        1           0.000393450   -0.001295517   -0.001284250
     42        1          -0.001289554   -0.002073731   -0.001514680
     43        1           0.000334405    0.002788032   -0.000004205
     44        1          -0.002009046   -0.003885473   -0.002402234
     45        1           0.001303133   -0.003015192   -0.000982347
     46        1           0.002103423    0.000556886    0.003290177
     47        1          -0.001635813   -0.001194238    0.002710273
     48        1           0.002414526   -0.002708305    0.001965571
     49        1           0.000857271   -0.003263424    0.002504894
     50        1          -0.001306787   -0.000167765   -0.001750405
     51        1          -0.000173117   -0.000394147   -0.001387436
     52        1          -0.000115885   -0.000618079    0.001089439
     53        1          -0.001429533   -0.003061515    0.005187880
     54        1           0.001829801   -0.003843791    0.000341359
     55        1           0.000523777   -0.000941543    0.000274210
     56        1          -0.000740331    0.001126106    0.000651328
     57        1           0.000516837    0.002748867    0.001613391
     58        1          -0.000191759   -0.000307187    0.003717978
     59        1          -0.001129183    0.001666829   -0.000518727
     60        1           0.004435769   -0.001767437    0.000395302
     61        1           0.004042530   -0.001140908    0.000103619
     62        6           0.003061778   -0.000330485   -0.002613127
     63        1           0.001693566   -0.000852488    0.000051466
     64        1          -0.000122404    0.000600295    0.000022022
     65        1           0.001120717   -0.000194816   -0.000882759
 -------------------------------------------------------------------
 Cartesian Forces:  Max     0.031172387 RMS     0.006811358

 GradGradGradGradGradGradGradGradGradGradGradGradGradGradGradGradGradGrad
 Berny optimization.
 Internal  Forces:  Max     0.022543756 RMS     0.003422414
 Search for a local minimum.
 Step number   1 out of a maximum of  390
 All quantities printed in internal units (Hartrees-Bohrs-Radians)
 Mixed Optimization -- RFO/linear search
 Second derivative matrix not updated -- first step.
 ITU=  0
     Eigenvalues ---    0.00230   0.00280   0.00301   0.00334   0.00377
     Eigenvalues ---    0.00441   0.00443   0.00542   0.00550   0.00609
     Eigenvalues ---    0.00631   0.00661   0.00675   0.00691   0.00707
     Eigenvalues ---    0.00915   0.01080   0.01239   0.01244   0.01373
     Eigenvalues ---    0.01466   0.01610   0.01714   0.01794   0.01917
     Eigenvalues ---    0.02489   0.02828   0.02828   0.03028   0.03117
     Eigenvalues ---    0.03302   0.03538   0.03604   0.03728   0.04038
     Eigenvalues ---    0.04123   0.04308   0.04413   0.04577   0.04652
     Eigenvalues ---    0.04760   0.04822   0.04930   0.05111   0.05249
     Eigenvalues ---    0.05309   0.05376   0.05416   0.05417   0.05446
     Eigenvalues ---    0.05506   0.05509   0.05542   0.05550   0.05607
     Eigenvalues ---    0.05691   0.05714   0.05948   0.06285   0.06663
     Eigenvalues ---    0.06716   0.06855   0.07089   0.07119   0.07122
     Eigenvalues ---    0.07247   0.07253   0.07333   0.07617   0.08361
     Eigenvalues ---    0.08695   0.08808   0.09016   0.09137   0.09770
     Eigenvalues ---    0.10104   0.10625   0.10848   0.11607   0.12465
     Eigenvalues ---    0.13155   0.14678   0.15186   0.15969   0.16000
     Eigenvalues ---    0.16000   0.16000   0.16000   0.16000   0.16000
     Eigenvalues ---    0.16000   0.16000   0.16000   0.16000   0.16000
     Eigenvalues ---    0.16000   0.16000   0.16000   0.16000   0.16000
     Eigenvalues ---    0.16000   0.16000   0.16000   0.16000   0.16000
     Eigenvalues ---    0.16510   0.17154   0.17294   0.18303   0.18483
     Eigenvalues ---    0.19676   0.21563   0.21944   0.22747   0.23558
     Eigenvalues ---    0.24546   0.24922   0.24976   0.24979   0.24988
     Eigenvalues ---    0.24994   0.25000   0.25000   0.25942   0.27136
     Eigenvalues ---    0.27460   0.27689   0.27833   0.28204   0.28286
     Eigenvalues ---    0.28306   0.28603   0.28807   0.28950   0.29182
     Eigenvalues ---    0.29480   0.29932   0.30359   0.30535   0.31164
     Eigenvalues ---    0.31556   0.31743   0.31787   0.33138   0.33587
     Eigenvalues ---    0.33666   0.33959   0.33979   0.34006   0.34018
     Eigenvalues ---    0.34018   0.34028   0.34033   0.34066   0.34073
     Eigenvalues ---    0.34074   0.34110   0.34147   0.34152   0.34207
     Eigenvalues ---    0.34209   0.34212   0.34235   0.34244   0.34251
     Eigenvalues ---    0.34256   0.34260   0.34272   0.34277   0.34305
     Eigenvalues ---    0.34333   0.34347   0.34356   0.34388   0.34447
     Eigenvalues ---    0.34974   0.35208   0.35318   0.35463   0.36531
     Eigenvalues ---    0.37103   0.42907   0.43321   0.51774   0.53287
     Eigenvalues ---    0.54361   0.56297   0.89783   0.90382
 RFO step:  Lambda=-2.16533424D-02 EMin= 2.30000000D-03
 Linear search not attempted -- first point.
 Iteration  1 RMS(Cart)=  0.05846578 RMS(Int)=  0.00080871
 Iteration  2 RMS(Cart)=  0.00159278 RMS(Int)=  0.00023762
 Iteration  3 RMS(Cart)=  0.00000088 RMS(Int)=  0.00023762
 Variable       Old X    -DE/DX   Delta X   Delta X   Delta X     New X
                                 (Linear)    (Quad)   (Total)
    R1        2.53545  -0.00152   0.00000  -0.00324  -0.00329   2.53216
    R2        2.82516   0.00825   0.00000   0.02503   0.02495   2.85012
    R3        2.05717   0.00021   0.00000   0.00055   0.00055   2.05772
    R4        2.85578   0.00350   0.00000   0.00757   0.00760   2.86338
    R5        2.84536   0.00346   0.00000   0.01019   0.01019   2.85555
    R6        2.94191   0.00463   0.00000   0.00991   0.00991   2.95182
    R7        2.90737   0.01099   0.00000   0.03861   0.03861   2.94598
    R8        2.07898  -0.00075   0.00000  -0.00211  -0.00211   2.07687
    R9        2.90194   0.00849   0.00000   0.02698   0.02681   2.92874
   R10        2.91365   0.00799   0.00000   0.02596   0.02598   2.93963
   R11        2.76208  -0.00501   0.00000  -0.01190  -0.01191   2.75017
   R12        2.91778  -0.00175   0.00000  -0.00350  -0.00359   2.91419
   R13        2.90442   0.00640   0.00000   0.01447   0.01439   2.91881
   R14        2.89150   0.01292   0.00000   0.04203   0.04200   2.93350
   R15        2.07206   0.00280   0.00000   0.00773   0.00773   2.07979
   R16        2.07299  -0.00149   0.00000  -0.00411  -0.00411   2.06888
   R17        2.81775   0.00939   0.00000   0.01986   0.01955   2.83730
   R18        2.86043   0.01498   0.00000   0.05377   0.05327   2.91370
   R19        2.67785   0.00273   0.00000   0.00607   0.00607   2.68392
   R20        2.52800   0.01498   0.00000   0.02597   0.02607   2.55408
   R21        2.63409  -0.02254   0.00000  -0.05330  -0.05311   2.58098
   R22        2.79876  -0.00342   0.00000  -0.01308  -0.01302   2.78574
   R23        2.81333   0.01316   0.00000   0.03682   0.03682   2.85015
   R24        2.33033  -0.01023   0.00000  -0.01113  -0.01113   2.31921
   R25        2.32757  -0.02089   0.00000  -0.02258  -0.02258   2.30500
   R26        2.90107  -0.00274   0.00000  -0.00881  -0.00881   2.89226
   R27        2.91475   0.00123   0.00000   0.00404   0.00404   2.91879
   R28        2.89012   0.00688   0.00000   0.02175   0.02175   2.91186
   R29        2.07399   0.00116   0.00000   0.00321   0.00321   2.07720
   R30        2.07365   0.00092   0.00000   0.00254   0.00254   2.07619
   R31        2.07300  -0.00105   0.00000  -0.00291  -0.00291   2.07009
   R32        2.88099   0.00666   0.00000   0.02073   0.02073   2.90172
   R33        2.06936   0.00026   0.00000   0.00071   0.00071   2.07007
   R34        2.06734   0.00110   0.00000   0.00300   0.00300   2.07034
   R35        2.06974   0.00031   0.00000   0.00084   0.00084   2.07058
   R36        2.91540  -0.00079   0.00000   0.01031   0.01058   2.92598
   R37        2.90413   0.00434   0.00000   0.01582   0.01582   2.91994
   R38        2.07145  -0.00170   0.00000  -0.00469  -0.00469   2.06677
[...]
     54          1           0        0.979234    4.390105   -1.606550
     55          1           0       -0.442435    4.870140   -0.657276
     56          1           0        0.914698    4.613370    1.540851
     57          1           0        2.299073    4.273538    0.485239
     58          1           0        1.887496    3.147786    1.787565
     59          1           0        0.177434   -1.317867    4.841761
     60          1           0        0.681013    0.277239    4.260816
     61          1           0       -0.963030    0.040363    4.845240
     62          6           0        5.902996   -0.363092   -0.733199
     63          1           0        6.071269   -0.400568    0.349580
     64          1           0        5.453087    0.602384   -0.980061
     65          1           0        6.886192   -0.409320   -1.216123
 ---------------------------------------------------------------------
 Rotational constants (GHZ):      0.2113201      0.1236687      0.1147841

 **********************************************************************

            Population analysis using the SCF density.

 **********************************************************************

 Orbital symmetries:
       Occupied  (A) (A) (A) (A) (A) (A) (A) (A) (A) (A) (A) (A)
                 (A) (A) (A) (A) (A) (A) (A) (A) (A) (A) (A) (A)
                 (A) (A) (A) (A) (A) (A) (A) (A) (A) (A) (A) (A)
                 (A) (A) (A) (A) (A) (A) (A) (A) (A) (A) (A) (A)
                 (A) (A) (A) (A) (A) (A) (A) (A) (A) (A) (A) (A)
                 (A) (A) (A) (A) (A) (A) (A) (A) (A) (A) (A) (A)
                 (A) (A) (A) (A) (A) (A) (A) (A) (A) (A) (A) (A)
                 (A) (A) (A) (A) (A) (A) (A) (A) (A) (A) (A) (A)
                 (A) (A) (A) (A) (A) (A) (A) (A) (A) (A) (A) (A)
                 (A) (A) (A) (A) (A) (A) (A)
       Virtual   (A) (A) (A) (A) (A) (A) (A) (A) (A) (A) (A) (A)
                 (A) (A) (A) (A) (A) (A) (A) (A) (A) (A) (A) (A)
                 (A) (A) (A) (A) (A) (A) (A) (A) (A) (A) (A) (A)
                 (A) (A) (A) (A) (A) (A) (A) (A) (A) (A) (A) (A)
                 (A) (A) (A) (A) (A) (A) (A) (A) (A) (A) (A) (A)
                 (A) (A) (A) (A) (A) (A) (A) (A) (A) (A) (A) (A)
                 (A) (A) (A) (A) (A) (A) (A) (A) (A) (A) (A) (A)
                 (A) (A) (A) (A) (A) (A) (A) (A) (A) (A) (A) (A)
                 (A) (A) (A) (A) (A) (A) (A) (A) (A) (A) (A) (A)
                 (A) (A) (A) (A) (A) (A) (A) (A) (A) (A) (A) (A)
                 (A) (A) (A) (A) (A) (A) (A) (A) (A) (A) (A) (A)
                 (A) (A) (A) (A) (A) (A) (A) (A) (A) (A) (A) (A)
                 (A) (A) (A) (A) (A) (A) (A) (A) (A) (A) (A) (A)
                 (A) (A) (A) (A) (A) (A) (A) (A) (A) (A) (A) (A)
                 (A) (A) (A) (A) (A) (A) (A) (A) (A) (A) (A) (A)
                 (A) (A) (A) (A) (A) (A) (A) (A) (A) (A) (A) (A)
                 (A) (A) (A) (A) (A) (A) (A) (A) (A) (A) (A) (A)
                 (A) (A) (A) (A) (A) (A) (A) (A) (A) (A) (A) (A)
                 (A) (A) (A) (A) (A) (A) (A) (A) (A) (A) (A) (A)
                 (A) (A) (A) (A) (A) (A) (A) (A) (A) (A) (A) (A)
                 (A) (A) (A) (A) (A) (A) (A) (A) (A) (A) (A) (A)
                 (A) (A) (A) (A) (A) (A) (A) (A) (A) (A) (A) (A)
                 (A) (A) (A) (A) (A) (A) (A) (A) (A) (A) (A) (A)
                 (A) (A) (A) (A) (A) (A) (A) (A) (A) (A) (A) (A)
                 (A) (A) (A) (A) (A) (A) (A) (A) (A) (A) (A) (A)
                 (A) (A) (A) (A) (A) (A) (A) (A) (A) (A) (A) (A)
                 (A) (A) (A) (A) (A) (A) (A) (A) (A) (A) (A) (A)
                 (A) (A) (A) (A) (A) (A) (A) (A) (A) (A) (A) (A)
                 (A) (A) (A) (A) (A) (A) (A) (A) (A) (A) (A) (A)
                 (A) (A) (A) (A) (A) (A) (A) (A) (A) (A) (A) (A)
                 (A) (A) (A) (A) (A) (A) (A) (A) (A) (A) (A) (A)
                 (A) (A) (A) (A) (A) (A) (A) (A) (A) (A) (A) (A)
                 (A) (A) (A) (A) (A) (A) (A) (A) (A) (A) (A) (A)
                 (A) (A) (A) (A) (A) (A) (A) (A) (A) (A) (A) (A)
                 (A) (A) (A) (A) (A) (A) (A) (A) (A) (A)
 The electronic state is 1-A.
 Alpha  occ. eigenvalues --  -19.19631 -19.16736 -19.15826 -19.12745 -19.12102
 Alpha  occ. eigenvalues --  -10.27453 -10.27238 -10.26650 -10.26057 -10.25833
 Alpha  occ. eigenvalues --  -10.25811 -10.25233 -10.21395 -10.20829 -10.20652
 Alpha  occ. eigenvalues --  -10.20587 -10.20109 -10.19787 -10.19554 -10.19143
 Alpha  occ. eigenvalues --  -10.19060 -10.18989 -10.18942 -10.18922 -10.18848
 Alpha  occ. eigenvalues --  -10.18499 -10.17985 -10.17524 -10.16917 -10.16336
 Alpha  occ. eigenvalues --  -10.15305  -1.09326  -1.05943  -1.02991  -1.02484
 Alpha  occ. eigenvalues --   -1.01971  -0.86836  -0.83656  -0.82420  -0.81458
 Alpha  occ. eigenvalues --   -0.80346  -0.78920  -0.76648  -0.74392  -0.73281
 Alpha  occ. eigenvalues --   -0.71929  -0.70846  -0.69905  -0.69536  -0.67969
 Alpha  occ. eigenvalues --   -0.65222  -0.64122  -0.63496  -0.62027  -0.60716
 Alpha  occ. eigenvalues --   -0.59480  -0.58343  -0.56965  -0.54537  -0.53534
 Alpha  occ. eigenvalues --   -0.52706  -0.51813  -0.50826  -0.50368  -0.49286
 Alpha  occ. eigenvalues --   -0.48201  -0.47137  -0.46631  -0.46275  -0.45845
 Alpha  occ. eigenvalues --   -0.45274  -0.44767  -0.44541  -0.43567  -0.43401
 Alpha  occ. eigenvalues --   -0.42607  -0.42292  -0.41914  -0.41639  -0.41428
 Alpha  occ. eigenvalues --   -0.40814  -0.40664  -0.40383  -0.39871  -0.39444
 Alpha  occ. eigenvalues --   -0.39116  -0.38437  -0.38329  -0.38133  -0.37731
 Alpha  occ. eigenvalues --   -0.37571  -0.37484  -0.37182  -0.36915  -0.36684
 Alpha  occ. eigenvalues --   -0.36502  -0.36080  -0.35202  -0.34844  -0.34266
 Alpha  occ. eigenvalues --   -0.33711  -0.33605  -0.32768  -0.32106  -0.31820
 Alpha  occ. eigenvalues --   -0.31380  -0.30983  -0.30786  -0.28107  -0.26719
 Alpha  occ. eigenvalues --   -0.26312  -0.24529  -0.24308  -0.23555  -0.22404
 Alpha virt. eigenvalues --   -0.04890  -0.01333   0.00270   0.01755   0.06102
 Alpha virt. eigenvalues --    0.07777   0.08120   0.08867   0.09327   0.10196
 Alpha virt. eigenvalues --    0.10511   0.10849   0.11325   0.12098   0.12548
 Alpha virt. eigenvalues --    0.13024   0.13188   0.13541   0.14007   0.14140
 Alpha virt. eigenvalues --    0.14612   0.14769   0.15026   0.15785   0.16105
 Alpha virt. eigenvalues --    0.16343   0.16579   0.16859   0.17121   0.17411
 Alpha virt. eigenvalues --    0.17587   0.18182   0.18405   0.18543   0.18864
 Alpha virt. eigenvalues --    0.19249   0.19325   0.19556   0.19934   0.20363
 Alpha virt. eigenvalues --    0.20464   0.20997   0.21331   0.21785   0.22008
 Alpha virt. eigenvalues --    0.22745   0.23208   0.23453   0.23578   0.24011
 Alpha virt. eigenvalues --    0.24830   0.25495   0.25931   0.26536   0.26988
 Alpha virt. eigenvalues --    0.27149   0.27531   0.28176   0.29199   0.29691
 Alpha virt. eigenvalues --    0.30721   0.31606   0.32183   0.32905   0.33614
 Alpha virt. eigenvalues --    0.34166   0.36765   0.38112   0.39013   0.40173
 Alpha virt. eigenvalues --    0.41745   0.45032   0.46189   0.48040   0.48636
 Alpha virt. eigenvalues --    0.49356   0.50301   0.50618   0.51477   0.51829
 Alpha virt. eigenvalues --    0.52398   0.52764   0.53004   0.53409   0.53824
 Alpha virt. eigenvalues --    0.53904   0.54035   0.55335   0.55485   0.56406
 Alpha virt. eigenvalues --    0.56940   0.57275   0.58048   0.58250   0.58378
 Alpha virt. eigenvalues --    0.58956   0.60015   0.60467   0.60981   0.61940
 Alpha virt. eigenvalues --    0.62149   0.62761   0.63093   0.63831   0.64840
 Alpha virt. eigenvalues --    0.65500   0.65983   0.66485   0.66709   0.67635
 Alpha virt. eigenvalues --    0.68167   0.68792   0.69018   0.69223   0.69598
 Alpha virt. eigenvalues --    0.69728   0.71574   0.71748   0.72564   0.72972
 Alpha virt. eigenvalues --    0.73309   0.74151   0.74538   0.75833   0.76045
 Alpha virt. eigenvalues --    0.76482   0.77698   0.78499   0.79614   0.79841
 Alpha virt. eigenvalues --    0.80275   0.80968   0.81134   0.82150   0.82860
 Alpha virt. eigenvalues --    0.82884   0.83927   0.84394   0.84863   0.85325
 Alpha virt. eigenvalues --    0.86023   0.86335   0.86574   0.86813   0.87317
 Alpha virt. eigenvalues --    0.87518   0.88228   0.88557   0.88799   0.89015
 Alpha virt. eigenvalues --    0.89152   0.89622   0.90020   0.90445   0.90903
 Alpha virt. eigenvalues --    0.91147   0.91487   0.91777   0.92458   0.92881
 Alpha virt. eigenvalues --    0.93060   0.93374   0.93872   0.94132   0.94554
 Alpha virt. eigenvalues --    0.95441   0.95853   0.96557   0.96743   0.97242
 Alpha virt. eigenvalues --    0.97376   0.97885   0.98883   0.99419   0.99928
 Alpha virt. eigenvalues --    1.00828   1.01026   1.02234   1.03104   1.03233
 Alpha virt. eigenvalues --    1.04318   1.05667   1.06344   1.07594   1.08966
 Alpha virt. eigenvalues --    1.09962   1.11336   1.11641   1.12789   1.13389
 Alpha virt. eigenvalues --    1.13560   1.13828   1.15110   1.15792   1.17006
 Alpha virt. eigenvalues --    1.17655   1.18516   1.19193   1.19734   1.21233
 Alpha virt. eigenvalues --    1.22357   1.23808   1.25196   1.25929   1.26926
 Alpha virt. eigenvalues --    1.27510   1.27937   1.30227   1.31515   1.32324
 Alpha virt. eigenvalues --    1.35786   1.36420   1.36930   1.38134   1.39288
 Alpha virt. eigenvalues --    1.40119   1.41693   1.43260   1.44550   1.45174
 Alpha virt. eigenvalues --    1.46725   1.48562   1.49167   1.51127   1.51744
 Alpha virt. eigenvalues --    1.53233   1.53819   1.55757   1.56105   1.58266
 Alpha virt. eigenvalues --    1.59728   1.59873   1.62417   1.62869   1.63730
 Alpha virt. eigenvalues --    1.65688   1.65952   1.68115   1.68533   1.69771
 Alpha virt. eigenvalues --    1.70286   1.71476   1.72499   1.73070   1.74152
 Alpha virt. eigenvalues --    1.74389   1.75019   1.76574   1.77013   1.77740
 Alpha virt. eigenvalues --    1.78704   1.78808   1.79521   1.80233   1.81175
 Alpha virt. eigenvalues --    1.81376   1.82647   1.83281   1.83578   1.84794
 Alpha virt. eigenvalues --    1.85666   1.85876   1.86624   1.87160   1.87596
 Alpha virt. eigenvalues --    1.88502   1.88892   1.89784   1.90721   1.91210
 Alpha virt. eigenvalues --    1.91882   1.92175   1.93184   1.94060   1.95076
 Alpha virt. eigenvalues --    1.95502   1.95885   1.97132   1.97590   1.98366
 Alpha virt. eigenvalues --    1.98894   1.99632   1.99864   2.00376   2.01400
 Alpha virt. eigenvalues --    2.01961   2.02734   2.03609   2.04122   2.05556
 Alpha virt. eigenvalues --    2.06653   2.07646   2.08326   2.09228   2.09605
 Alpha virt. eigenvalues --    2.09968   2.11367   2.12025   2.12672   2.13347
 Alpha virt. eigenvalues --    2.14095   2.15117   2.15562   2.16642   2.17591
 Alpha virt. eigenvalues --    2.18738   2.19518   2.19967   2.21339   2.22634
 Alpha virt. eigenvalues --    2.24190   2.24256   2.24489   2.26396   2.26930
 Alpha virt. eigenvalues --    2.28768   2.29473   2.30158   2.30493   2.32558
 Alpha virt. eigenvalues --    2.32924   2.33514   2.34010   2.34238   2.35423
 Alpha virt. eigenvalues --    2.35970   2.36337   2.37209   2.38465   2.38972
 Alpha virt. eigenvalues --    2.39975   2.40643   2.41323   2.42346   2.43168
 Alpha virt. eigenvalues --    2.43801   2.45083   2.45182   2.47472   2.48001
 Alpha virt. eigenvalues --    2.48525   2.50166   2.52176   2.53733   2.53802
 Alpha virt. eigenvalues --    2.55423   2.56747   2.57714   2.58603   2.59563
 Alpha virt. eigenvalues --    2.60119   2.61054   2.62367   2.64020   2.65448
 Alpha virt. eigenvalues --    2.66290   2.66808   2.68198   2.69473   2.69853
 Alpha virt. eigenvalues --    2.70872   2.72366   2.73752   2.75958   2.77026
 Alpha virt. eigenvalues --    2.78636   2.79499   2.81917   2.83087   2.84657
 Alpha virt. eigenvalues --    2.86643   2.88746   2.89837   2.94897   2.95773
 Alpha virt. eigenvalues --    2.97155   3.00505   3.01075   3.01418   3.03340
 Alpha virt. eigenvalues --    3.05843   3.06448   3.11548   3.18269   3.21285
 Alpha virt. eigenvalues --    3.25888   3.29330   4.03306   4.03798   4.08478
 Alpha virt. eigenvalues --    4.12549   4.13300   4.14896   4.17104   4.19011
 Alpha virt. eigenvalues --    4.21606   4.23937   4.25990   4.28483   4.30217
 Alpha virt. eigenvalues --    4.32049   4.34398   4.37303   4.38559   4.43899
 Alpha virt. eigenvalues --    4.45808   4.50409   4.53176   4.54144   4.60830
 Alpha virt. eigenvalues --    4.62282   4.65860   4.67373   4.73156   4.81284
 Alpha virt. eigenvalues --    4.89501   5.01474   5.16613
          Condensed to atoms (all electrons):
 Mulliken atomic charges:
              1
     1  C   -0.190372
     2  C    0.190823
     3  C   -0.188282
     4  C    0.323538
     5  C   -0.055757
     6  C   -0.333795
     7  C    0.198206
     8  C    0.403328
     9  C   -0.082967
    10  C    0.422413
    11  C    0.420699
    12  O   -0.454198
    13  C   -0.174472
    14  C   -0.245091
    15  C   -0.467208
    16  O   -0.517170
    17  C   -0.162899
    18  C    0.300774
    19  O   -0.505398
    20  C   -0.322189
    21  O   -0.653484
    22  C   -0.325351
    23  C    0.095110
    24  O   -0.591428
    25  C    0.180554
    26  C   -0.507966
    27  C   -0.392323
    28  C   -0.467591
    29  C   -0.459736
    30  H    0.144569
    31  H    0.165710
    32  C   -0.519484
    33  H    0.123578
    34  H    0.147342
    35  H    0.183879
    36  H    0.185284
    37  H    0.120841
    38  H    0.146983
    39  H    0.148043
    40  H    0.152406
    41  H    0.146520
    42  H    0.151749
    43  H    0.163102
    44  H    0.414182
    45  H    0.168117
    46  H    0.173921
    47  H    0.138030
    48  H    0.156166
    49  H    0.170574
    50  H    0.154954
    51  H    0.154911
    52  H    0.143010
    53  H    0.194633
    54  H    0.163590
    55  H    0.141160
    56  H    0.150439
    57  H    0.168789
    58  H    0.158797
    59  H    0.158427
    60  H    0.157435
    61  H    0.152024
    62  C   -0.452513
    63  H    0.131751
    64  H    0.168059
    65  H    0.135256
 Sum of Mulliken atomic charges =   0.00000
 Mulliken charges with hydrogens summed into heavy atoms:
              1
     1  C   -0.066795
     2  C    0.190823
     3  C   -0.022571
     4  C    0.323538
     5  C   -0.055757
     6  C   -0.002574
     7  C    0.198206
     8  C    0.403328
     9  C   -0.082967
    10  C    0.422413
    11  C    0.420699
    12  O   -0.454198
    13  C    0.010812
    14  C    0.022732
    15  C   -0.020239
    16  O   -0.517170
    17  C   -0.018330
    18  C    0.300774
    19  O   -0.505398
    20  C   -0.007339
    21  O   -0.239303
    22  C    0.016687
    23  C    0.233141
    24  O   -0.591428
    25  C    0.180554
    26  C   -0.026273
    27  C   -0.094402
    28  C    0.031792
    29  C    0.018289
    32  C   -0.051599
    62  C   -0.017447
 Sum of Mulliken charges with hydrogens summed into heavy atoms =   0.00000
 Electronic spatial extent (au):  <R**2>=          11469.8958
 Charge=              0.0000 electrons
 Dipole moment (field-independent basis, Debye):
    X=             -4.5460    Y=              1.9055    Z=              4.2381  Tot=              6.5007
 Quadrupole moment (field-independent basis, Debye-Ang):
   XX=           -184.0419   YY=           -178.5576   ZZ=           -185.8280
   XY=              0.6612   XZ=             10.3814   YZ=              3.1579
 Traceless Quadrupole moment (field-independent basis, Debye-Ang):
   XX=             -1.2327   YY=              4.2516   ZZ=             -3.0188
   XY=              0.6612   XZ=             10.3814   YZ=              3.1579
 Octapole moment (field-independent basis, Debye-Ang**2):
  XXX=            -72.2536  YYY=             62.7008  ZZZ=              4.5066  XYY=             -5.4300
  XXY=            -11.3058  XXZ=             -1.8319  XZZ=            -23.3153  YZZ=             -3.1241
  YYZ=             14.9618  XYZ=              2.2082
 Hexadecapole moment (field-independent basis, Debye-Ang**3):
 XXXX=          -8448.8828 YYYY=          -3741.9507 ZZZZ=          -3001.3503 XXXY=            -69.0354
 XXXZ=            121.1408 YYYX=             42.6536 YYYZ=            -40.6651 ZZZX=             45.7898
 ZZZY=             17.9925 XXYY=          -2046.2566 XXZZ=          -1937.9194 YYZZ=          -1143.2876
 XXYZ=              9.5395 YYXZ=            -10.6448 ZZXY=            -17.3007
 N-N= 3.519521746565D+03 E-N=-1.026529464653D+04  KE= 1.374450962951D+03
 1\1\GINC-B0604\FOpt\RB3LYP\6-31G(d)\C26H34O5\CAOFEI\24-Mar-2021\0\\# o
 pt rb3lyp/6-31g(d) geom=connectivity\\Title Card Required\\0,1\C,0.160
 4441636,-0.0368893446,0.0565034423\C,1.4970805065,0.0005847914,0.12358
 92109\C,2.2474705161,1.3165539498,0.1252930299\C,1.4148876531,2.576699
 209,-0.2711323218\C,-0.0552546604,2.3866873098,-0.7228650936\C,-0.7168
 128069,1.1826468558,-0.0086454241\C,2.2822082312,3.2962899727,-1.33685
 13162\C,2.0063582099,2.8288939314,-2.7527859923\C,0.8000968959,2.39524
 24552,-3.213430117\C,-0.297541013,2.2330455773,-2.2509899981\C,0.62438
 34233,2.0770114202,-4.6819346713\O,1.1557937877,2.7973998658,-5.511430
 6775\C,-0.1891727195,0.8437114136,-5.0834945617\C,-0.2793796795,0.6847
 803075,-6.6148312892\C,0.331504514,-0.4225123833,-4.3711083591\O,-1.44
 27652993,1.9700110622,-2.6103081024\C,3.7346084416,2.7959669083,-1.187
 8914032\C,4.3210993832,3.034386265,-2.599040443\O,3.1301557002,2.83779
 32128,-3.4710263026\C,3.5151275015,1.325566712,-0.779497319\O,2.106902
 1837,4.7000159991,-1.3084310249\C,-0.7056756416,3.7141867868,-0.250525
 5652\C,0.0098402416,3.9896232051,1.069138771\O,1.3561239959,3.46284379
 38,0.8749460204\C,0.1219411065,5.4178585067,1.5626242054\C,0.913220118
 1,5.5853470554,2.8379378591\C,-0.4641236077,6.448164107,0.9448708267\C
 ,4.8201750224,4.4658755375,-2.8072415852\C,5.3611406994,2.0242010358,-
 3.0763792021\H,4.279694532,3.3551339607,-0.421260267\H,2.5757684119,1.
 5158285318,1.1554648308\C,2.3208441258,-1.2536152376,0.2830155646\H,-0
 .3435127516,-1.0016336144,0.1001960918\H,-1.0003677803,1.4721745639,1.
 0142550604\H,-1.6518595205,0.9649246482,-0.5323270767\H,-1.1993482056,
 1.0307015989,-4.6993711554\H,-1.0822201952,-0.0353726848,-6.8252159005
 \H,-0.5981222467,1.6427040719,-7.0407589344\H,-0.2518787849,-1.2946610
 905,-4.6882401286\H,0.2413624671,-0.3414497319,-3.2837664659\H,1.38259
 51077,-0.6201054103,-4.6095478261\H,4.3841045871,0.8929966589,-0.27551
 55171\H,3.3255531318,0.7165374528,-1.6701594743\H,1.9931655219,4.91089
 78934,-0.3603962858\H,-1.7888005894,3.6171795967,-0.1396858597\H,-0.49
 72312094,4.508152482,-0.9724378645\H,-0.4491556129,3.3958434937,1.8752
 160494\H,0.4592636427,5.0110328017,3.6573065744\H,1.9345509873,5.20585
 80767,2.7192267681\H,0.9627162231,6.6344766093,3.1437261485\H,-1.04842
 75233,6.3356332036,0.0374219932\H,-0.3854665349,7.4569655153,1.3423154
 569\H,4.0740564722,5.1910001198,-2.4782921706\H,5.0366435396,4.6316130
 93,-3.8672921779\H,5.7436999559,4.6253667142,-2.2385723669\H,6.2582921
 819,2.0896925941,-2.4508321749\H,5.64828285,2.2444561685,-4.109214161\
 H,4.987080965,0.9981301872,-3.0404542601\H,1.6817613919,-2.1401232932,
 0.339000056\H,3.022549227,-1.3981401618,-0.5482429391\H,2.9257160557,-
 1.2148599639,1.200347853\C,1.0027972755,0.2285439622,-7.3227404069\H,1
 .3219918827,-0.7668643765,-6.9919721336\H,1.8201488255,0.9318095302,-7
 .1414792448\H,0.8400147257,0.1738865171,-8.4055802514\\Version=EM64L-G
 09RevB.01\State=1-A\HF=-1387.3192922\RMSD=4.647e-09\RMSF=3.805e-06\Dip
 ole=1.1796936,-0.3604098,2.2404494\Quadrupole=4.2432568,3.0616068,-7.3
 048636,-1.6768583,-2.2433691,5.0046899\PG=C01 [X(C26H34O5)]\\@


 THE PROMISED LAND ALWAYS LIES ON THE OTHER SIDE OF A WILDERNESS.

                         -- HAVELOCK ELLIS
 Job cpu time:  0 days  5 hours 23 minutes 38.6 seconds.
 File lengths (MBytes):  RWF=    186 Int=      0 D2E=      0 Chk=     20 Scr=      1
 Normal termination of Gaussian 09 at Wed Mar 24 15:20:42 2021.
