 Entering Gaussian System, Link 0=g09
 Initial command:
 /public/software/g09/g09/l1.exe /tmp/Gau-26225.inp -scrdir=/tmp/
 Entering Link 1 = /public/software/g09/g09/l1.exe PID=     26226.
  
 Copyright (c) 1988,1990,1992,1993,1995,1998,2003,2009,2010,
            Gaussian, Inc.  All Rights Reserved.
  
 This is part of the Gaussian(R) 09 program.  It is based on
 the Gaussian(R) 03 system (copyright 2003, Gaussian, Inc.),
 the Gaussian(R) 98 system (copyright 1998, Gaussian, Inc.),
 the Gaussian(R) 94 system (copyright 1995, Gaussian, Inc.),
 the Gaussian 92(TM) system (copyright 1992, Gaussian, Inc.),
 the Gaussian 90(TM) system (copyright 1990, Gaussian, Inc.),
 the Gaussian 88(TM) system (copyright 1988, Gaussian, Inc.),
 the Gaussian 86(TM) system (copyright 1986, Carnegie Mellon
 University), and the Gaussian 82(TM) system (copyright 1983,
 Carnegie Mellon University). Gaussian is a federally registered
 trademark of Gaussian, Inc.
  
 This software contains proprietary and confidential information,
 including trade secrets, belonging to Gaussian, Inc.
  
 This software is provided under written license and may be
 used, copied, transmitted, or stored only in accord with that
 written license.
  
 The following legend is applicable only to US Government
 contracts under FAR:
  
                    RESTRICTED RIGHTS LEGEND
  
 Use, reproduction and disclosure by the US Government is
 subject to restrictions as set forth in subparagraphs (a)
 and (c) of the Commercial Computer Software - Restricted
 Rights clause in FAR 52.227-19.
  
 Gaussian, Inc.
 340 Quinnipiac St., Bldg. 40, Wallingford CT 06492
  
  
 ---------------------------------------------------------------
 Warning -- This program may not be used in any manner that
 competes with the business of Gaussian, Inc. or will provide
 assistance to any competitor of Gaussian, Inc.  The licensee
 of this program is prohibited from giving any competitor of
 Gaussian, Inc. access to this program.  By using this program,
 the user acknowledges that Gaussian, Inc. is engaged in the
 business of creating and licensing software in the field of
 computational chemistry and represents and warrants to the
 licensee that it is not a competitor of Gaussian, Inc. and that
 it will not use this program in any manner prohibited above.
 ---------------------------------------------------------------
  

 Cite this work as:
 Gaussian 09, Revision B.01,
 M. J. Frisch, G. W. Trucks, H. B. Schlegel, G. E. Scuseria, 
 M. A. Robb, J. R. Cheeseman, G. Scalmani, V. Barone, B. Mennucci, 
 G. A. Petersson, H. Nakatsuji, M. Caricato, X. Li, H. P. Hratchian, 
 A. F. Izmaylov, J. Bloino, G. Zheng, J. L. Sonnenberg, M. Hada, 
 M. Ehara, K. Toyota, R. Fukuda, J. Hasegawa, M. Ishida, T. Nakajima, 
 Y. Honda, O. Kitao, H. Nakai, T. Vreven, J. A. Montgomery, Jr., 
 J. E. Peralta, F. Ogliaro, M. Bearpark, J. J. Heyd, E. Brothers, 
 K. N. Kudin, V. N. Staroverov, T. Keith, R. Kobayashi, J. Normand, 
 K. Raghavachari, A. Rendell, J. C. Burant, S. S. Iyengar, J. Tomasi, 
 M. Cossi, N. Rega, J. M. Millam, M. Klene, J. E. Knox, J. B. Cross, 
 V. Bakken, C. Adamo, J. Jaramillo, R. Gomperts, R. E. Stratmann, 
 O. Yazyev, A. J. Austin, R. Cammi, C. Pomelli, J. W. Ochterski, 
 R. L. Martin, K. Morokuma, V. G. Zakrzewski, G. A. Voth, 
 P. Salvador, J. J. Dannenberg, S. Dapprich, A. D. Daniels, 
 O. Farkas, J. B. Foresman, J. V. Ortiz, J. Cioslowski, 
 and D. J. Fox, Gaussian, Inc., Wallingford CT, 2010.
 
 ******************************************
 Gaussian 09:  EM64L-G09RevB.01 12-Aug-2010
                24-Mar-2021 
 ******************************************
 %mem=600MW
 %nprocshared=10
 Will use up to   10 processors via shared memory.
 ---------------------------------------
 # opt rb3lyp/6-31g(d) geom=connectivity
 ---------------------------------------
 1/14=-1,18=20,19=15,26=3,38=1,57=2/1,3;
 2/9=110,12=2,17=6,18=5,40=1/2;
 3/5=1,6=6,7=1,11=2,16=1,25=1,30=1,71=1,74=-5,116=1/1,2,3;
 4//1;
 5/5=2,38=5/2;
 6/7=2,8=2,9=2,10=2,28=1/1;
 7//1,2,3,16;
 1/14=-1,18=20,19=15/3(2);
 2/9=110/2;
 99//99;
 2/9=110/2;
 3/5=1,6=6,7=1,11=2,16=1,25=1,30=1,71=1,74=-5,116=1/1,2,3;
 4/5=5,16=3/1;
 5/5=2,38=5/2;
 7//1,2,3,16;
 1/14=-1,18=20,19=15/3(-5);
 2/9=110/2;
 6/7=2,8=2,9=2,10=2,19=2,28=1/1;
 99/9=1/99;
 -------------------
 Title Card Required
 -------------------
 Symbolic Z-matrix:
 Charge =  0 Multiplicity = 1
 C                     0.        0.        0. 
 C                     1.3405    0.        0. 
 C                     2.1199    1.2881    0. 
 C                     1.3789    2.5413    0.5556 
 C                    -0.1619    2.4534    0.7005 
 C                    -0.802     1.2592   -0.04 
 C                     1.8935    3.7031   -0.3229 
 C                     0.9331    4.2069   -1.3419 
 C                    -0.3841    4.2593   -1.13 
 C                    -0.8823    3.6955    0.1429 
 C                    -1.312     4.7466   -2.1701 
 O                    -1.6564    3.9818   -3.0709 
 C                    -1.8104    6.1839   -2.0471 
 C                    -0.7817    7.186    -2.594 
 C                    -3.1862    6.3343   -2.6947 
 O                    -1.9142    4.1432    0.6399 
 C                     2.992     3.1674   -1.22 
 C                     2.9035    4.0739   -2.4632 
 O                     1.5248    4.5061   -2.5592 
 C                     2.5805    1.7004   -1.4038 
 O                     2.3378    4.8021    0.4609 
 C                    -0.3864    2.355     2.2218 
 C                     0.9939    2.1322    2.812 
 O                     1.8919    2.7712    1.9013 
 C                     1.1925    2.6975    4.1957 
 C                     1.2606    4.1936    4.3451 
 C                     1.322     1.8928    5.2646 
 C                     3.7749    5.3322   -2.3255 
 C                     3.2735    3.3634   -3.7677 
 H                     3.9834    3.2206   -0.7531 
 H                     3.0166    1.1287    0.6178 
 C                     2.1355   -1.2745   -0.019 
 H                    -0.5507   -0.9378   -0.0314 
 H                    -1.7943    1.0572    0.3848 
 H                    -0.9843    1.4927   -1.0974 
 H                    -1.9414    6.3926   -0.9771 
 H                    -1.1253    8.2043   -2.3735 
 H                     0.1701    7.0627   -2.0637 
 H                    -3.553     7.3612   -2.5969 
 H                    -3.9106    5.6699   -2.2105 
 H                    -3.1727    6.0741   -3.7581 
 H                     3.4209    1.0922   -1.7553 
 H                     1.7619    1.5878   -2.1254 
 H                     2.5523    4.4264    1.3411 
 H                    -1.0636    1.5439    2.5135 
 H                    -0.8295    3.2748    2.6183 
 H                     1.2295    1.0602    2.8056 
 H                     2.1113    4.5982    3.7879 
 H                     0.3462    4.6671    3.9765 
 H                     1.3836    4.4945    5.3913 
 H                     1.2818    0.8117    5.1727 
 H                     1.4727    2.2937    6.2625 
 H                     3.4834    5.9435   -1.4663 
 H                     3.6588    5.9799   -3.2025 
 H                     4.8342    5.0743   -2.2248 
 H                     4.2843    2.9456   -3.7233 
 H                     3.2245    4.058    -4.6146 
 H                     2.5684    2.561    -4.0076 
 H                     1.4921   -2.1605   -0.0288 
 H                     2.7714   -1.3152   -0.9089 
 H                     2.7733   -1.3366    0.8687 
 C                    -0.5154    7.0813   -4.0902 
 H                    -1.4109    7.3123   -4.6741 
 H                    -0.1668    6.0828   -4.3691 
 H                     0.2602    7.7977   -4.3804 
 

 GradGradGradGradGradGradGradGradGradGradGradGradGradGradGradGradGradGrad
 Berny optimization.
 Initialization pass.
                           ----------------------------
                           !    Initial Parameters    !
                           ! (Angstroms and Degrees)  !
 --------------------------                            --------------------------
 ! Name  Definition              Value          Derivative Info.                !
 --------------------------------------------------------------------------------
 ! R1    R(1,2)                  1.3405         estimate D2E/DX2                !
 ! R2    R(1,6)                  1.4934         estimate D2E/DX2                !
 ! R3    R(1,33)                 1.088          estimate D2E/DX2                !
 ! R4    R(2,3)                  1.5055         estimate D2E/DX2                !
 ! R5    R(2,32)                 1.5022         estimate D2E/DX2                !
 ! R6    R(3,4)                  1.5583         estimate D2E/DX2                !
 ! R7    R(3,20)                 1.5339         estimate D2E/DX2                !
 ! R8    R(3,31)                 1.1005         estimate D2E/DX2                !
 ! R9    R(4,5)                  1.5501         estimate D2E/DX2                !
 ! R10   R(4,7)                  1.5448         estimate D2E/DX2                !
 ! R11   R(4,24)                 1.4584         estimate D2E/DX2                !
 ! R12   R(5,6)                  1.5441         estimate D2E/DX2                !
 ! R13   R(5,10)                 1.5404         estimate D2E/DX2                !
 ! R14   R(5,22)                 1.5409         estimate D2E/DX2                !
 ! R15   R(6,34)                 1.0981         estimate D2E/DX2                !
 ! R16   R(6,35)                 1.0981         estimate D2E/DX2                !
 ! R17   R(7,8)                  1.4881         estimate D2E/DX2                !
 ! R18   R(7,17)                 1.5161         estimate D2E/DX2                !
 ! R19   R(7,21)                 1.4211         estimate D2E/DX2                !
 ! R20   R(8,9)                  1.3352         estimate D2E/DX2                !
 ! R21   R(8,19)                 1.3862         estimate D2E/DX2                !
 ! R22   R(9,10)                 1.4786         estimate D2E/DX2                !
 ! R23   R(9,11)                 1.4766         estimate D2E/DX2                !
 ! R24   R(10,16)                1.2297         estimate D2E/DX2                !
 ! R25   R(11,12)                1.2308         estimate D2E/DX2                !
 ! R26   R(11,13)                1.5262         estimate D2E/DX2                !
 ! R27   R(13,14)                1.5367         estimate D2E/DX2                !
 ! R28   R(13,15)                1.528          estimate D2E/DX2                !
 ! R29   R(13,36)                1.098          estimate D2E/DX2                !
 ! R30   R(14,37)                1.0971         estimate D2E/DX2                !
 ! R31   R(14,38)                1.0965         estimate D2E/DX2                !
 ! R32   R(14,62)                1.5233         estimate D2E/DX2                !
 ! R33   R(15,39)                1.0948         estimate D2E/DX2                !
 ! R34   R(15,40)                1.0957         estimate D2E/DX2                !
 ! R35   R(15,41)                1.0949         estimate D2E/DX2                !
 ! R36   R(17,18)                1.5411         estimate D2E/DX2                !
 ! R37   R(17,20)                1.5347         estimate D2E/DX2                !
 ! R38   R(17,30)                1.0971         estimate D2E/DX2                !
 ! R39   R(18,19)                1.448          estimate D2E/DX2                !
 ! R40   R(18,28)                1.5368         estimate D2E/DX2                !
 ! R41   R(18,29)                1.5308         estimate D2E/DX2                !
 ! R42   R(20,42)                1.0953         estimate D2E/DX2                !
 ! R43   R(20,43)                1.097          estimate D2E/DX2                !
 ! R44   R(21,44)                0.9808         estimate D2E/DX2                !
 ! R45   R(22,23)                1.5176         estimate D2E/DX2                !
 ! R46   R(22,45)                1.0962         estimate D2E/DX2                !
 ! R47   R(22,46)                1.0953         estimate D2E/DX2                !
 ! R48   R(23,24)                1.4297         estimate D2E/DX2                !
 ! R49   R(23,25)                1.5079         estimate D2E/DX2                !
 ! R50   R(23,47)                1.0976         estimate D2E/DX2                !
 ! R51   R(24,44)                1.8681         estimate D2E/DX2                !
 ! R52   R(25,26)                1.5051         estimate D2E/DX2                !
 ! R53   R(25,27)                1.3442         estimate D2E/DX2                !
 ! R54   R(26,48)                1.0945         estimate D2E/DX2                !
 ! R55   R(26,49)                1.0937         estimate D2E/DX2                !
 ! R56   R(26,50)                1.0955         estimate D2E/DX2                !
 ! R57   R(27,51)                1.0857         estimate D2E/DX2                !
 ! R58   R(27,52)                1.0859         estimate D2E/DX2                !
 ! R59   R(28,53)                1.094          estimate D2E/DX2                !
 ! R60   R(28,54)                1.0964         estimate D2E/DX2                !
 ! R61   R(28,55)                1.0949         estimate D2E/DX2                !
 ! R62   R(29,56)                1.0946         estimate D2E/DX2                !
 ! R63   R(29,57)                1.0964         estimate D2E/DX2                !
 ! R64   R(29,58)                1.0948         estimate D2E/DX2                !
 ! R65   R(32,59)                1.095          estimate D2E/DX2                !
 ! R66   R(32,60)                1.0945         estimate D2E/DX2                !
 ! R67   R(32,61)                1.0948         estimate D2E/DX2                !
 ! R68   R(62,63)                1.0937         estimate D2E/DX2                !
 ! R69   R(62,64)                1.0938         estimate D2E/DX2                !
 ! R70   R(62,65)                1.095          estimate D2E/DX2                !
 ! A1    A(2,1,6)              122.4805         estimate D2E/DX2                !
 ! A2    A(2,1,33)             120.4085         estimate D2E/DX2                !
 ! A3    A(6,1,33)             117.0115         estimate D2E/DX2                !
 ! A4    A(1,2,3)              121.1772         estimate D2E/DX2                !
 ! A5    A(1,2,32)             121.952          estimate D2E/DX2                !
 ! A6    A(3,2,32)             116.8657         estimate D2E/DX2                !
 ! A7    A(2,3,4)              116.2246         estimate D2E/DX2                !
 ! A8    A(2,3,20)             112.6702         estimate D2E/DX2                !
 ! A9    A(2,3,31)             107.3307         estimate D2E/DX2                !
 ! A10   A(4,3,20)             104.6509         estimate D2E/DX2                !
 ! A11   A(4,3,31)             107.6848         estimate D2E/DX2                !
 ! A12   A(20,3,31)            107.9402         estimate D2E/DX2                !
 ! A13   A(3,4,5)              117.4126         estimate D2E/DX2                !
 ! A14   A(3,4,7)              104.1029         estimate D2E/DX2                !
 ! A15   A(3,4,24)             106.7681         estimate D2E/DX2                !
 ! A16   A(5,4,7)              115.273          estimate D2E/DX2                !
 ! A17   A(5,4,24)             105.803          estimate D2E/DX2                !
 ! A18   A(7,4,24)             106.7986         estimate D2E/DX2                !
 ! A19   A(4,5,6)              114.2735         estimate D2E/DX2                !
 ! A20   A(4,5,10)             112.6633         estimate D2E/DX2                !
 ! A21   A(4,5,22)             103.9295         estimate D2E/DX2                !
 ! A22   A(6,5,10)             104.8429         estimate D2E/DX2                !
 ! A23   A(6,5,22)             111.3265         estimate D2E/DX2                !
 ! A24   A(10,5,22)            109.9219         estimate D2E/DX2                !
 ! A25   A(1,6,5)              114.6222         estimate D2E/DX2                !
 ! A26   A(1,6,34)             108.6507         estimate D2E/DX2                !
 ! A27   A(1,6,35)             107.1112         estimate D2E/DX2                !
 ! A28   A(5,6,34)             109.3504         estimate D2E/DX2                !
 ! A29   A(5,6,35)             111.4789         estimate D2E/DX2                !
 ! A30   A(34,6,35)            105.1648         estimate D2E/DX2                !
 ! A31   A(4,7,8)              115.4063         estimate D2E/DX2                !
 ! A32   A(4,7,17)             108.1878         estimate D2E/DX2                !
 ! A33   A(4,7,21)             111.8456         estimate D2E/DX2                !
 ! A34   A(8,7,17)             100.4896         estimate D2E/DX2                !
 ! A35   A(8,7,21)             108.5196         estimate D2E/DX2                !
 ! A36   A(17,7,21)            111.9062         estimate D2E/DX2                !
 ! A37   A(7,8,9)              122.7722         estimate D2E/DX2                !
 ! A38   A(7,8,19)             113.5109         estimate D2E/DX2                !
 ! A39   A(9,8,19)             123.5057         estimate D2E/DX2                !
 ! A40   A(8,9,10)             117.0045         estimate D2E/DX2                !
 ! A41   A(8,9,11)             121.4073         estimate D2E/DX2                !
 ! A42   A(10,9,11)            121.3656         estimate D2E/DX2                !
 ! A43   A(5,10,9)             117.4851         estimate D2E/DX2                !
 ! A44   A(5,10,16)            122.6639         estimate D2E/DX2                !
 ! A45   A(9,10,16)            119.4609         estimate D2E/DX2                !
 ! A46   A(9,11,12)            119.0973         estimate D2E/DX2                !
 ! A47   A(9,11,13)            117.3379         estimate D2E/DX2                !
 ! A48   A(12,11,13)           123.5571         estimate D2E/DX2                !
 ! A49   A(11,13,14)           111.5199         estimate D2E/DX2                !
 ! A50   A(11,13,15)           110.6442         estimate D2E/DX2                !
 ! A51   A(11,13,36)           107.2471         estimate D2E/DX2                !
 ! A52   A(14,13,15)           112.8121         estimate D2E/DX2                !
 ! A53   A(14,13,36)           107.6216         estimate D2E/DX2                !
 ! A54   A(15,13,36)           106.6711         estimate D2E/DX2                !
 ! A55   A(13,14,37)           108.9101         estimate D2E/DX2                !
 ! A56   A(13,14,38)           109.6103         estimate D2E/DX2                !
 ! A57   A(13,14,62)           114.9454         estimate D2E/DX2                !
 ! A58   A(37,14,38)           106.2021         estimate D2E/DX2                !
 ! A59   A(37,14,62)           108.4184         estimate D2E/DX2                !
 ! A60   A(38,14,62)           108.3935         estimate D2E/DX2                !
 ! A61   A(13,15,39)           110.8621         estimate D2E/DX2                !
 ! A62   A(13,15,40)           110.3826         estimate D2E/DX2                !
 ! A63   A(13,15,41)           112.1571         estimate D2E/DX2                !
 ! A64   A(39,15,40)           107.9248         estimate D2E/DX2                !
 ! A65   A(39,15,41)           108.2889         estimate D2E/DX2                !
 ! A66   A(40,15,41)           107.0525         estimate D2E/DX2                !
 ! A67   A(7,17,18)            103.1725         estimate D2E/DX2                !
 ! A68   A(7,17,20)            102.3776         estimate D2E/DX2                !
 ! A69   A(7,17,30)            112.6929         estimate D2E/DX2                !
 ! A70   A(18,17,20)           116.7601         estimate D2E/DX2                !
 ! A71   A(18,17,30)           111.5098         estimate D2E/DX2                !
 ! A72   A(20,17,30)           109.8534         estimate D2E/DX2                !
 ! A73   A(17,18,19)           106.4821         estimate D2E/DX2                !
 ! A74   A(17,18,28)           112.1341         estimate D2E/DX2                !
 ! A75   A(17,18,29)           113.6114         estimate D2E/DX2                !
 ! A76   A(19,18,28)           107.5439         estimate D2E/DX2                !
 ! A77   A(19,18,29)           108.1894         estimate D2E/DX2                !
 ! A78   A(28,18,29)           108.6226         estimate D2E/DX2                !
 ! A79   A(8,19,18)            106.4857         estimate D2E/DX2                !
 ! A80   A(3,20,17)            103.1706         estimate D2E/DX2                !
 ! A81   A(3,20,42)            112.0143         estimate D2E/DX2                !
 ! A82   A(3,20,43)            110.5075         estimate D2E/DX2                !
 ! A83   A(17,20,42)           111.3147         estimate D2E/DX2                !
 ! A84   A(17,20,43)           112.1464         estimate D2E/DX2                !
 ! A85   A(42,20,43)           107.7249         estimate D2E/DX2                !
 ! A86   A(7,21,44)            105.493          estimate D2E/DX2                !
 ! A87   A(5,22,23)            105.1181         estimate D2E/DX2                !
 ! A88   A(5,22,45)            113.577          estimate D2E/DX2                !
 ! A89   A(5,22,46)            111.2674         estimate D2E/DX2                !
 ! A90   A(23,22,45)           110.4732         estimate D2E/DX2                !
 ! A91   A(23,22,46)           110.5153         estimate D2E/DX2                !
 ! A92   A(45,22,46)           105.9702         estimate D2E/DX2                !
 ! A93   A(22,23,24)           104.947          estimate D2E/DX2                !
 ! A94   A(22,23,25)           114.9373         estimate D2E/DX2                !
 ! A95   A(22,23,47)           109.6541         estimate D2E/DX2                !
 ! A96   A(24,23,25)           109.5265         estimate D2E/DX2                !
 ! A97   A(24,23,47)           107.3364         estimate D2E/DX2                !
 ! A98   A(25,23,47)           110.0742         estimate D2E/DX2                !
 ! A99   A(4,24,23)            107.2393         estimate D2E/DX2                !
 ! A100  A(23,25,26)           118.0158         estimate D2E/DX2                !
 ! A101  A(23,25,27)           121.1965         estimate D2E/DX2                !
 ! A102  A(26,25,27)           120.7826         estimate D2E/DX2                !
 ! A103  A(25,26,48)           110.6161         estimate D2E/DX2                !
 ! A104  A(25,26,49)           111.0428         estimate D2E/DX2                !
 ! A105  A(25,26,50)           111.8942         estimate D2E/DX2                !
 ! A106  A(48,26,49)           108.5553         estimate D2E/DX2                !
 ! A107  A(48,26,50)           107.3            estimate D2E/DX2                !
 ! A108  A(49,26,50)           107.2655         estimate D2E/DX2                !
 ! A109  A(25,27,51)           121.6826         estimate D2E/DX2                !
 ! A110  A(25,27,52)           121.5404         estimate D2E/DX2                !
 ! A111  A(51,27,52)           116.777          estimate D2E/DX2                !
 ! A112  A(18,28,53)           112.1358         estimate D2E/DX2                !
 ! A113  A(18,28,54)           110.6088         estimate D2E/DX2                !
 ! A114  A(18,28,55)           111.345          estimate D2E/DX2                !
 ! A115  A(53,28,54)           105.6579         estimate D2E/DX2                !
 ! A116  A(53,28,55)           108.4921         estimate D2E/DX2                !
 ! A117  A(54,28,55)           108.3709         estimate D2E/DX2                !
 ! A118  A(18,29,56)           111.4549         estimate D2E/DX2                !
 ! A119  A(18,29,57)           110.695          estimate D2E/DX2                !
 ! A120  A(18,29,58)           111.7919         estimate D2E/DX2                !
 ! A121  A(56,29,57)           108.3246         estimate D2E/DX2                !
 ! A122  A(56,29,58)           108.897          estimate D2E/DX2                !
 ! A123  A(57,29,58)           105.443          estimate D2E/DX2                !
 ! A124  A(2,32,59)            112.0628         estimate D2E/DX2                !
 ! A125  A(2,32,60)            110.4443         estimate D2E/DX2                !
 ! A126  A(2,32,61)            110.2526         estimate D2E/DX2                !
 ! A127  A(59,32,60)           107.6986         estimate D2E/DX2                !
 ! A128  A(59,32,61)           107.6773         estimate D2E/DX2                !
 ! A129  A(60,32,61)           108.5824         estimate D2E/DX2                !
 ! A130  A(14,62,63)           111.5131         estimate D2E/DX2                !
 ! A131  A(14,62,64)           111.6487         estimate D2E/DX2                !
 ! A132  A(14,62,65)           109.826          estimate D2E/DX2                !
 ! A133  A(63,62,64)           108.5199         estimate D2E/DX2                !
 ! A134  A(63,62,65)           107.4742         estimate D2E/DX2                !
 ! A135  A(64,62,65)           107.6944         estimate D2E/DX2                !
 ! D1    D(6,1,2,3)              1.8195         estimate D2E/DX2                !
 ! D2    D(6,1,2,32)          -177.3265         estimate D2E/DX2                !
 ! D3    D(33,1,2,3)           178.0823         estimate D2E/DX2                !
 ! D4    D(33,1,2,32)           -1.0636         estimate D2E/DX2                !
 ! D5    D(2,1,6,5)            -33.6616         estimate D2E/DX2                !
 ! D6    D(2,1,6,34)          -156.3027         estimate D2E/DX2                !
 ! D7    D(2,1,6,35)            90.5692         estimate D2E/DX2                !
 ! D8    D(33,1,6,5)           149.956          estimate D2E/DX2                !
 ! D9    D(33,1,6,34)           27.3149         estimate D2E/DX2                !
 ! D10   D(33,1,6,35)          -85.8133         estimate D2E/DX2                !
 ! D11   D(1,2,3,4)             23.4191         estimate D2E/DX2                !
 ! D12   D(1,2,3,20)           -97.3322         estimate D2E/DX2                !
 ! D13   D(1,2,3,31)           143.9801         estimate D2E/DX2                !
 ! D14   D(32,2,3,4)          -157.3933         estimate D2E/DX2                !
 ! D15   D(32,2,3,20)           81.8554         estimate D2E/DX2                !
 ! D16   D(32,2,3,31)          -36.8322         estimate D2E/DX2                !
 ! D17   D(1,2,32,59)           -0.1924         estimate D2E/DX2                !
 ! D18   D(1,2,32,60)          119.885          estimate D2E/DX2                !
 ! D19   D(1,2,32,61)         -120.112          estimate D2E/DX2                !
 ! D20   D(3,2,32,59)         -179.3733         estimate D2E/DX2                !
 ! D21   D(3,2,32,60)          -59.2959         estimate D2E/DX2                !
 ! D22   D(3,2,32,61)           60.7071         estimate D2E/DX2                !
 ! D23   D(2,3,4,5)            -15.7235         estimate D2E/DX2                !
 ! D24   D(2,3,4,7)           -144.4922         estimate D2E/DX2                !
 ! D25   D(2,3,4,24)           102.7447         estimate D2E/DX2                !
 ! D26   D(20,3,4,5)           109.227          estimate D2E/DX2                !
 ! D27   D(20,3,4,7)           -19.5417         estimate D2E/DX2                !
 ! D28   D(20,3,4,24)         -132.3049         estimate D2E/DX2                !
 ! D29   D(31,3,4,5)          -136.0946         estimate D2E/DX2                !
 ! D30   D(31,3,4,7)            95.1367         estimate D2E/DX2                !
 ! D31   D(31,3,4,24)          -17.6265         estimate D2E/DX2                !
 ! D32   D(2,3,20,17)          165.2445         estimate D2E/DX2                !
 ! D33   D(2,3,20,42)          -74.9353         estimate D2E/DX2                !
 ! D34   D(2,3,20,43)           45.1863         estimate D2E/DX2                !
 ! D35   D(4,3,20,17)           38.0744         estimate D2E/DX2                !
 ! D36   D(4,3,20,42)          157.8947         estimate D2E/DX2                !
 ! D37   D(4,3,20,43)          -81.9838         estimate D2E/DX2                !
 ! D38   D(31,3,20,17)         -76.4246         estimate D2E/DX2                !
 ! D39   D(31,3,20,42)          43.3956         estimate D2E/DX2                !
 ! D40   D(31,3,20,43)         163.5172         estimate D2E/DX2                !
 ! D41   D(3,4,5,6)            -14.0257         estimate D2E/DX2                !
 ! D42   D(3,4,5,10)          -133.5524         estimate D2E/DX2                !
 ! D43   D(3,4,5,22)           107.5005         estimate D2E/DX2                !
 ! D44   D(7,4,5,6)            109.2312         estimate D2E/DX2                !
 ! D45   D(7,4,5,10)           -10.2955         estimate D2E/DX2                !
 ! D46   D(7,4,5,22)          -129.2426         estimate D2E/DX2                !
 ! D47   D(24,4,5,6)          -133.0083         estimate D2E/DX2                !
 ! D48   D(24,4,5,10)          107.465          estimate D2E/DX2                !
 ! D49   D(24,4,5,22)          -11.4821         estimate D2E/DX2                !
 ! D50   D(3,4,7,8)            105.2523         estimate D2E/DX2                !
 ! D51   D(3,4,7,17)            -6.3523         estimate D2E/DX2                !
 ! D52   D(3,4,7,21)          -130.0495         estimate D2E/DX2                !
 ! D53   D(5,4,7,8)            -24.8057         estimate D2E/DX2                !
 ! D54   D(5,4,7,17)          -136.4102         estimate D2E/DX2                !
 ! D55   D(5,4,7,21)            99.8926         estimate D2E/DX2                !
 ! D56   D(24,4,7,8)          -142.0064         estimate D2E/DX2                !
 ! D57   D(24,4,7,17)          106.389          estimate D2E/DX2                !
 ! D58   D(24,4,7,21)          -17.3082         estimate D2E/DX2                !
 ! D59   D(3,4,24,23)          -95.072          estimate D2E/DX2                !
 ! D60   D(5,4,24,23)           30.7315         estimate D2E/DX2                !
 ! D61   D(7,4,24,23)          154.0247         estimate D2E/DX2                !
 ! D62   D(4,5,6,1)             37.8062         estimate D2E/DX2                !
 ! D63   D(4,5,6,34)           160.0683         estimate D2E/DX2                !
 ! D64   D(4,5,6,35)           -84.0741         estimate D2E/DX2                !
 ! D65   D(10,5,6,1)           161.6399         estimate D2E/DX2                !
 ! D66   D(10,5,6,34)          -76.098          estimate D2E/DX2                !
 ! D67   D(10,5,6,35)           39.7596         estimate D2E/DX2                !
 ! D68   D(22,5,6,1)           -79.5519         estimate D2E/DX2                !
 ! D69   D(22,5,6,34)           42.7103         estimate D2E/DX2                !
 ! D70   D(22,5,6,35)          158.5679         estimate D2E/DX2                !
 ! D71   D(4,5,10,9)            41.3182         estimate D2E/DX2                !
 ! D72   D(4,5,10,16)         -145.8986         estimate D2E/DX2                !
 ! D73   D(6,5,10,9)           -83.5387         estimate D2E/DX2                !
 ! D74   D(6,5,10,16)           89.2445         estimate D2E/DX2                !
 ! D75   D(22,5,10,9)          156.7102         estimate D2E/DX2                !
 ! D76   D(22,5,10,16)         -30.5066         estimate D2E/DX2                !
 ! D77   D(4,5,22,23)          -10.2098         estimate D2E/DX2                !
 ! D78   D(4,5,22,45)         -131.0876         estimate D2E/DX2                !
 ! D79   D(4,5,22,46)          109.4405         estimate D2E/DX2                !
 ! D80   D(6,5,22,23)          113.2612         estimate D2E/DX2                !
 ! D81   D(6,5,22,45)           -7.6165         estimate D2E/DX2                !
 ! D82   D(6,5,22,46)         -127.0885         estimate D2E/DX2                !
 ! D83   D(10,5,22,23)        -131.0169         estimate D2E/DX2                !
 ! D84   D(10,5,22,45)         108.1054         estimate D2E/DX2                !
 ! D85   D(10,5,22,46)         -11.3666         estimate D2E/DX2                !
 ! D86   D(4,7,8,9)             35.071          estimate D2E/DX2                !
 ! D87   D(4,7,8,19)          -139.8147         estimate D2E/DX2                !
 ! D88   D(17,7,8,9)           151.1344         estimate D2E/DX2                !
 ! D89   D(17,7,8,19)          -23.7512         estimate D2E/DX2                !
 ! D90   D(21,7,8,9)           -91.3382         estimate D2E/DX2                !
 ! D91   D(21,7,8,19)           93.7761         estimate D2E/DX2                !
 ! D92   D(4,7,17,18)          151.2309         estimate D2E/DX2                !
 ! D93   D(4,7,17,20)           29.5769         estimate D2E/DX2                !
 ! D94   D(4,7,17,30)          -88.3691         estimate D2E/DX2                !
 ! D95   D(8,7,17,18)           29.8917         estimate D2E/DX2                !
 ! D96   D(8,7,17,20)          -91.7623         estimate D2E/DX2                !
 ! D97   D(8,7,17,30)          150.2917         estimate D2E/DX2                !
 ! D98   D(21,7,17,18)         -85.1084         estimate D2E/DX2                !
 ! D99   D(21,7,17,20)         153.2376         estimate D2E/DX2                !
 ! D100  D(21,7,17,30)          35.2916         estimate D2E/DX2                !
 ! D101  D(4,7,21,44)           22.7272         estimate D2E/DX2                !
 ! D102  D(8,7,21,44)          151.1721         estimate D2E/DX2                !
 ! D103  D(17,7,21,44)         -98.8509         estimate D2E/DX2                !
 ! D104  D(7,8,9,10)            -4.4463         estimate D2E/DX2                !
 ! D105  D(7,8,9,11)          -179.0954         estimate D2E/DX2                !
 ! D106  D(19,8,9,10)          169.9277         estimate D2E/DX2                !
 ! D107  D(19,8,9,11)           -4.7213         estimate D2E/DX2                !
 ! D108  D(7,8,19,18)            6.2184         estimate D2E/DX2                !
 ! D109  D(9,8,19,18)         -168.6242         estimate D2E/DX2                !
 ! D110  D(8,9,10,5)           -35.2922         estimate D2E/DX2                !
 ! D111  D(8,9,10,16)          151.6843         estimate D2E/DX2                !
 ! D112  D(11,9,10,5)          139.3592         estimate D2E/DX2                !
 ! D113  D(11,9,10,16)         -33.6642         estimate D2E/DX2                !
 ! D114  D(8,9,11,12)           80.9031         estimate D2E/DX2                !
 ! D115  D(8,9,11,13)         -100.0724         estimate D2E/DX2                !
 ! D116  D(10,9,11,12)         -93.5127         estimate D2E/DX2                !
 ! D117  D(10,9,11,13)          85.5118         estimate D2E/DX2                !
 ! D118  D(9,11,13,14)          81.424          estimate D2E/DX2                !
 ! D119  D(9,11,13,15)        -152.1404         estimate D2E/DX2                !
 ! D120  D(9,11,13,36)         -36.1666         estimate D2E/DX2                !
 ! D121  D(12,11,13,14)        -99.5989         estimate D2E/DX2                !
 ! D122  D(12,11,13,15)         26.8367         estimate D2E/DX2                !
 ! D123  D(12,11,13,36)        142.8106         estimate D2E/DX2                !
 ! D124  D(11,13,14,37)       -173.0906         estimate D2E/DX2                !
 ! D125  D(11,13,14,38)        -57.295          estimate D2E/DX2                !
 ! D126  D(11,13,14,62)         65.0599         estimate D2E/DX2                !
 ! D127  D(15,13,14,37)         61.6701         estimate D2E/DX2                !
 ! D128  D(15,13,14,38)        177.4657         estimate D2E/DX2                !
 ! D129  D(15,13,14,62)        -60.1794         estimate D2E/DX2                !
 ! D130  D(36,13,14,37)        -55.7262         estimate D2E/DX2                !
 ! D131  D(36,13,14,38)         60.0694         estimate D2E/DX2                !
 ! D132  D(36,13,14,62)       -177.5757         estimate D2E/DX2                !
 ! D133  D(11,13,15,39)        179.2547         estimate D2E/DX2                !
 ! D134  D(11,13,15,40)         59.7194         estimate D2E/DX2                !
 ! D135  D(11,13,15,41)        -59.5609         estimate D2E/DX2                !
 ! D136  D(14,13,15,39)        -55.0323         estimate D2E/DX2                !
 ! D137  D(14,13,15,40)       -174.5676         estimate D2E/DX2                !
 ! D138  D(14,13,15,41)         66.1521         estimate D2E/DX2                !
 ! D139  D(36,13,15,39)         62.9231         estimate D2E/DX2                !
 ! D140  D(36,13,15,40)        -56.6122         estimate D2E/DX2                !
 ! D141  D(36,13,15,41)       -175.8925         estimate D2E/DX2                !
 ! D142  D(13,14,62,63)         63.6029         estimate D2E/DX2                !
 ! D143  D(13,14,62,64)        -57.9834         estimate D2E/DX2                !
 ! D144  D(13,14,62,65)       -177.3707         estimate D2E/DX2                !
 ! D145  D(37,14,62,63)        -58.5126         estimate D2E/DX2                !
 ! D146  D(37,14,62,64)        179.9011         estimate D2E/DX2                !
 ! D147  D(37,14,62,65)         60.5138         estimate D2E/DX2                !
 ! D148  D(38,14,62,63)       -173.389          estimate D2E/DX2                !
 ! D149  D(38,14,62,64)         65.0247         estimate D2E/DX2                !
 ! D150  D(38,14,62,65)        -54.3626         estimate D2E/DX2                !
 ! D151  D(7,17,18,19)         -28.4703         estimate D2E/DX2                !
 ! D152  D(7,17,18,28)          88.8981         estimate D2E/DX2                !
 ! D153  D(7,17,18,29)        -147.4574         estimate D2E/DX2                !
 ! D154  D(20,17,18,19)         82.9108         estimate D2E/DX2                !
 ! D155  D(20,17,18,28)       -159.7209         estimate D2E/DX2                !
 ! D156  D(20,17,18,29)        -36.0764         estimate D2E/DX2                !
 ! D157  D(30,17,18,19)       -149.6761         estimate D2E/DX2                !
 ! D158  D(30,17,18,28)        -32.3078         estimate D2E/DX2                !
 ! D159  D(30,17,18,29)         91.3367         estimate D2E/DX2                !
 ! D160  D(7,17,20,3)          -41.4381         estimate D2E/DX2                !
 ! D161  D(7,17,20,42)        -161.7385         estimate D2E/DX2                !
 ! D162  D(7,17,20,43)          77.4888         estimate D2E/DX2                !
 ! D163  D(18,17,20,3)        -153.2742         estimate D2E/DX2                !
 ! D164  D(18,17,20,42)         86.4254         estimate D2E/DX2                !
 ! D165  D(18,17,20,43)        -34.3473         estimate D2E/DX2                !
 ! D166  D(30,17,20,3)          78.507          estimate D2E/DX2                !
 ! D167  D(30,17,20,42)        -41.7934         estimate D2E/DX2                !
 ! D168  D(30,17,20,43)       -162.5661         estimate D2E/DX2                !
 ! D169  D(17,18,19,8)          14.2072         estimate D2E/DX2                !
 ! D170  D(28,18,19,8)        -106.1658         estimate D2E/DX2                !
 ! D171  D(29,18,19,8)         136.6789         estimate D2E/DX2                !
 ! D172  D(17,18,28,53)        -59.8056         estimate D2E/DX2                !
 ! D173  D(17,18,28,54)       -177.468          estimate D2E/DX2                !
 ! D174  D(17,18,28,55)         61.9701         estimate D2E/DX2                !
 ! D175  D(19,18,28,53)         56.9265         estimate D2E/DX2                !
 ! D176  D(19,18,28,54)        -60.7359         estimate D2E/DX2                !
 ! D177  D(19,18,28,55)        178.7022         estimate D2E/DX2                !
 ! D178  D(29,18,28,53)        173.7991         estimate D2E/DX2                !
 ! D179  D(29,18,28,54)         56.1367         estimate D2E/DX2                !
 ! D180  D(29,18,28,55)        -64.4252         estimate D2E/DX2                !
 ! D181  D(17,18,29,56)        -57.6157         estimate D2E/DX2                !
 ! D182  D(17,18,29,57)       -178.2511         estimate D2E/DX2                !
 ! D183  D(17,18,29,58)         64.5173         estimate D2E/DX2                !
 ! D184  D(19,18,29,56)       -175.6211         estimate D2E/DX2                !
 ! D185  D(19,18,29,57)         63.7435         estimate D2E/DX2                !
 ! D186  D(19,18,29,58)        -53.4881         estimate D2E/DX2                !
 ! D187  D(28,18,29,56)         67.9207         estimate D2E/DX2                !
 ! D188  D(28,18,29,57)        -52.7147         estimate D2E/DX2                !
 ! D189  D(28,18,29,58)       -169.9463         estimate D2E/DX2                !
 ! D190  D(5,22,23,24)          28.9485         estimate D2E/DX2                !
 ! D191  D(5,22,23,25)         149.3229         estimate D2E/DX2                !
 ! D192  D(5,22,23,47)         -86.0655         estimate D2E/DX2                !
 ! D193  D(45,22,23,24)        151.8448         estimate D2E/DX2                !
 ! D194  D(45,22,23,25)        -87.7809         estimate D2E/DX2                !
 ! D195  D(45,22,23,47)         36.8308         estimate D2E/DX2                !
 ! D196  D(46,22,23,24)        -91.2009         estimate D2E/DX2                !
 ! D197  D(46,22,23,25)         29.1734         estimate D2E/DX2                !
 ! D198  D(46,22,23,47)        153.785          estimate D2E/DX2                !
 ! D199  D(22,23,24,4)         -37.501          estimate D2E/DX2                !
 ! D200  D(25,23,24,4)        -161.3976         estimate D2E/DX2                !
 ! D201  D(47,23,24,4)          79.1159         estimate D2E/DX2                !
 ! D202  D(22,23,25,26)        -70.7273         estimate D2E/DX2                !
 ! D203  D(22,23,25,27)        110.0848         estimate D2E/DX2                !
 ! D204  D(24,23,25,26)         47.0931         estimate D2E/DX2                !
 ! D205  D(24,23,25,27)       -132.0948         estimate D2E/DX2                !
 ! D206  D(47,23,25,26)        164.8819         estimate D2E/DX2                !
 ! D207  D(47,23,25,27)        -14.306          estimate D2E/DX2                !
 ! D208  D(23,25,26,48)        -61.7098         estimate D2E/DX2                !
 ! D209  D(23,25,26,49)         58.8885         estimate D2E/DX2                !
 ! D210  D(23,25,26,50)        178.7125         estimate D2E/DX2                !
 ! D211  D(27,25,26,48)        117.4816         estimate D2E/DX2                !
 ! D212  D(27,25,26,49)       -121.9201         estimate D2E/DX2                !
 ! D213  D(27,25,26,50)         -2.0961         estimate D2E/DX2                !
 ! D214  D(23,25,27,51)         -0.4242         estimate D2E/DX2                !
 ! D215  D(23,25,27,52)        179.5336         estimate D2E/DX2                !
 ! D216  D(26,25,27,51)       -179.5897         estimate D2E/DX2                !
 ! D217  D(26,25,27,52)          0.3681         estimate D2E/DX2                !
 --------------------------------------------------------------------------------
 Trust Radius=3.00D-01 FncErr=1.00D-07 GrdErr=1.00D-06
 Number of steps in this run=    390 maximum allowed number of steps=    390.
 GradGradGradGradGradGradGradGradGradGradGradGradGradGradGradGradGradGrad

 Stoichiometry    C26H34O5
 Framework group  C1[X(C26H34O5)]
 Deg. of freedom   189
 Full point group                 C1      NOp   1
 Largest Abelian subgroup         C1      NOp   1
 Largest concise Abelian subgroup C1      NOp   1
                         Standard orientation:                         
 ---------------------------------------------------------------------
 Center     Atomic      Atomic             Coordinates (Angstroms)
 Number     Number       Type             X           Y           Z
 ---------------------------------------------------------------------
      1          6           0       -2.135635    0.562925    2.746520
      2          6           0       -2.462993    1.572700    1.927904
      3          6           0       -1.887723    1.668634    0.539910
      4          6           0       -1.387616    0.334852   -0.091915
      5          6           0       -1.174614   -0.869936    0.859874
      6          6           0       -1.160706   -0.499926    2.358901
      7          6           0       -0.149626    0.750244   -0.917253
      8          6           0        1.165129    0.380743   -0.326125
      9          6           0        1.355580   -0.745014    0.366020
     10          6           0        0.166819   -1.587429    0.618076
     11          6           0        2.668758   -1.072435    0.956466
     12          8           0        2.988500   -0.557517    2.027725
     13          6           0        3.550509   -2.061851    0.199542
     14          6           0        4.313955   -1.375997   -0.944260
     15          6           0        4.472084   -2.808533    1.162868
     16          8           0        0.304103   -2.801787    0.755006
     17          6           0       -0.048914    2.262731   -0.890669
     18          6           0        1.464056    2.516603   -1.037618
     19          8           0        2.131185    1.364692   -0.467648
     20          6           0       -0.679529    2.610641    0.464501
     21          8           0       -0.205479    0.245840   -2.244658
     22          6           0       -2.343924   -1.816754    0.527181
     23          6           0       -3.265648   -1.008316   -0.367277
     24          8           0       -2.407349   -0.087507   -1.045167
     25          6           0       -4.038368   -1.815764   -1.379484
     26          6           0       -3.280239   -2.415014   -2.533352
     27          6           0       -5.367291   -1.984167   -1.267843
     28          6           0        1.893639    2.619412   -2.509524
     29          6           0        1.950933    3.765294   -0.297921
     30          1           0       -0.617147    2.739048   -1.699330
     31          1           0       -2.674814    2.073819   -0.113900
     32          6           0       -3.400100    2.667730    2.351552
     33          1           0       -2.534490    0.522518    3.757958
     34          1           0       -1.363932   -1.398022    2.957266
     35          1           0       -0.167203   -0.159652    2.679861
     36          1           0        2.886691   -2.813499   -0.247656
     37          1           0        4.834157   -2.141280   -1.533621
     38          1           0        3.601909   -0.896181   -1.626250
     39          1           0        5.097078   -3.528820    0.625096
     40          1           0        3.883086   -3.360335    1.903968
     41          1           0        5.128930   -2.129294    1.715945
     42          1           0       -0.976928    3.663977    0.506562
     43          1           0        0.006356    2.423629    1.300013
     44          1           0       -1.155590    0.079002   -2.421762
     45          1           0       -2.884145   -2.173906    1.411588
     46          1           0       -1.992823   -2.713744    0.005913
     47          1           0       -3.955441   -0.418641    0.250138
     48          1           0       -2.820567   -1.629888   -3.141745
     49          1           0       -2.493076   -3.086845   -2.179497
     50          1           0       -3.933049   -2.997733   -3.192505
     51          1           0       -5.929629   -1.552960   -0.445241
     52          1           0       -5.930421   -2.558268   -1.997589
     53          1           0        1.669826    1.706306   -3.069015
     54          1           0        2.978936    2.754940   -2.586234
     55          1           0        1.404506    3.461742   -3.009521
     56          1           0        1.421743    4.662233   -0.635120
     57          1           0        3.024658    3.917354   -0.459488
     58          1           0        1.830019    3.668680    0.785873
     59          1           0       -3.762079    2.526166    3.375264
     60          1           0       -2.897723    3.639137    2.307602
     61          1           0       -4.272937    2.696155    1.691246
     62          6           0        5.333109   -0.333696   -0.502189
     63          1           0        6.136489   -0.783446    0.088171
     64          1           0        4.868202    0.459100    0.090808
     65          1           0        5.791864    0.132886   -1.380168
 ---------------------------------------------------------------------
 Rotational constants (GHZ):      0.2168562      0.1251079      0.1093527
 Standard basis: 6-31G(d) (6D, 7F)
 There are   533 symmetry adapted basis functions of A   symmetry.
 Integral buffers will be    131072 words long.
 Raffenetti 2 integral format.
 Two-electron integral symmetry is turned on.
   533 basis functions,  1004 primitive gaussians,   533 cartesian basis functions
   115 alpha electrons      115 beta electrons
       nuclear repulsion energy      3517.7615594328 Hartrees.
 NAtoms=   65 NActive=   65 NUniq=   65 SFac= 1.00D+00 NAtFMM=   50 NAOKFM=T Big=T
 One-electron integrals computed using PRISM.
 NBasis=   533 RedAO= T  NBF=   533
 NBsUse=   533 1.00D-06 NBFU=   533
 Harris functional with IExCor=  402 diagonalized for initial guess.
 ExpMin= 1.61D-01 ExpMax= 5.48D+03 ExpMxC= 8.25D+02 IAcc=1 IRadAn=         1 AccDes= 0.00D+00
 HarFok:  IExCor=  402 AccDes= 0.00D+00 IRadAn=         1 IDoV= 1
 ScaDFX=  1.000000  1.000000  1.000000  1.000000
 FoFCou: FMM=F IPFlag=           0 FMFlag=      100000 FMFlg1=        2001
         NFxFlg=           0 DoJE=T BraDBF=F KetDBF=T FulRan=T
         Omega=  0.000000  0.000000  1.000000  0.000000  0.000000 ICntrl=     500 IOpCl=  0
         NMat0=    1 NMatS0=    1 NMatT0=    0 NMatD0=    1 NMtDS0=    0 NMtDT0=    0
         I1Cent=           4 NGrid=           0.
 Petite list used in FoFCou.
 Initial guess orbital symmetries:
       Occupied  (A) (A) (A) (A) (A) (A) (A) (A) (A) (A) (A) (A)
                 (A) (A) (A) (A) (A) (A) (A) (A) (A) (A) (A) (A)
                 (A) (A) (A) (A) (A) (A) (A) (A) (A) (A) (A) (A)
                 (A) (A) (A) (A) (A) (A) (A) (A) (A) (A) (A) (A)
                 (A) (A) (A) (A) (A) (A) (A) (A) (A) (A) (A) (A)
                 (A) (A) (A) (A) (A) (A) (A) (A) (A) (A) (A) (A)
                 (A) (A) (A) (A) (A) (A) (A) (A) (A) (A) (A) (A)
                 (A) (A) (A) (A) (A) (A) (A) (A) (A) (A) (A) (A)
                 (A) (A) (A) (A) (A) (A) (A) (A) (A) (A) (A) (A)
                 (A) (A) (A) (A) (A) (A) (A)
       Virtual   (A) (A) (A) (A) (A) (A) (A) (A) (A) (A) (A) (A)
                 (A) (A) (A) (A) (A) (A) (A) (A) (A) (A) (A) (A)
                 (A) (A) (A) (A) (A) (A) (A) (A) (A) (A) (A) (A)
                 (A) (A) (A) (A) (A) (A) (A) (A) (A) (A) (A) (A)
                 (A) (A) (A) (A) (A) (A) (A) (A) (A) (A) (A) (A)
                 (A) (A) (A) (A) (A) (A) (A) (A) (A) (A) (A) (A)
                 (A) (A) (A) (A) (A) (A) (A) (A) (A) (A) (A) (A)
                 (A) (A) (A) (A) (A) (A) (A) (A) (A) (A) (A) (A)
                 (A) (A) (A) (A) (A) (A) (A) (A) (A) (A) (A) (A)
                 (A) (A) (A) (A) (A) (A) (A) (A) (A) (A) (A) (A)
                 (A) (A) (A) (A) (A) (A) (A) (A) (A) (A) (A) (A)
                 (A) (A) (A) (A) (A) (A) (A) (A) (A) (A) (A) (A)
                 (A) (A) (A) (A) (A) (A) (A) (A) (A) (A) (A) (A)
                 (A) (A) (A) (A) (A) (A) (A) (A) (A) (A) (A) (A)
                 (A) (A) (A) (A) (A) (A) (A) (A) (A) (A) (A) (A)
                 (A) (A) (A) (A) (A) (A) (A) (A) (A) (A) (A) (A)
                 (A) (A) (A) (A) (A) (A) (A) (A) (A) (A) (A) (A)
                 (A) (A) (A) (A) (A) (A) (A) (A) (A) (A) (A) (A)
                 (A) (A) (A) (A) (A) (A) (A) (A) (A) (A) (A) (A)
                 (A) (A) (A) (A) (A) (A) (A) (A) (A) (A) (A) (A)
                 (A) (A) (A) (A) (A) (A) (A) (A) (A) (A) (A) (A)
                 (A) (A) (A) (A) (A) (A) (A) (A) (A) (A) (A) (A)
                 (A) (A) (A) (A) (A) (A) (A) (A) (A) (A) (A) (A)
                 (A) (A) (A) (A) (A) (A) (A) (A) (A) (A) (A) (A)
                 (A) (A) (A) (A) (A) (A) (A) (A) (A) (A) (A) (A)
                 (A) (A) (A) (A) (A) (A) (A) (A) (A) (A) (A) (A)
                 (A) (A) (A) (A) (A) (A) (A) (A) (A) (A) (A) (A)
                 (A) (A) (A) (A) (A) (A) (A) (A) (A) (A) (A) (A)
                 (A) (A) (A) (A) (A) (A) (A) (A) (A) (A) (A) (A)
                 (A) (A) (A) (A) (A) (A) (A) (A) (A) (A) (A) (A)
                 (A) (A) (A) (A) (A) (A) (A) (A) (A) (A) (A) (A)
                 (A) (A) (A) (A) (A) (A) (A) (A) (A) (A) (A) (A)
                 (A) (A) (A) (A) (A) (A) (A) (A) (A) (A) (A) (A)
                 (A) (A) (A) (A) (A) (A) (A) (A) (A) (A) (A) (A)
                 (A) (A) (A) (A) (A) (A) (A) (A) (A) (A)
 The electronic state of the initial guess is 1-A.
 Requested convergence on RMS density matrix=1.00D-08 within 128 cycles.
 Requested convergence on MAX density matrix=1.00D-06.
 Requested convergence on             energy=1.00D-06.
 No special actions if energy rises.
 Integral accuracy reduced to 1.0D-05 until final iterations.
 Initial convergence to 1.0D-05 achieved.  Increase integral accuracy.
 SCF Done:  E(RB3LYP) =  -1387.30272987     A.U. after   15 cycles
             Convg  =    0.9450D-08             -V/T =  2.0090

 **********************************************************************

            Population analysis using the SCF density.

 **********************************************************************

 Orbital symmetries:
       Occupied  (A) (A) (A) (A) (A) (A) (A) (A) (A) (A) (A) (A)
                 (A) (A) (A) (A) (A) (A) (A) (A) (A) (A) (A) (A)
                 (A) (A) (A) (A) (A) (A) (A) (A) (A) (A) (A) (A)
                 (A) (A) (A) (A) (A) (A) (A) (A) (A) (A) (A) (A)
                 (A) (A) (A) (A) (A) (A) (A) (A) (A) (A) (A) (A)
                 (A) (A) (A) (A) (A) (A) (A) (A) (A) (A) (A) (A)
                 (A) (A) (A) (A) (A) (A) (A) (A) (A) (A) (A) (A)
                 (A) (A) (A) (A) (A) (A) (A) (A) (A) (A) (A) (A)
                 (A) (A) (A) (A) (A) (A) (A) (A) (A) (A) (A) (A)
                 (A) (A) (A) (A) (A) (A) (A)
       Virtual   (A) (A) (A) (A) (A) (A) (A) (A) (A) (A) (A) (A)
                 (A) (A) (A) (A) (A) (A) (A) (A) (A) (A) (A) (A)
                 (A) (A) (A) (A) (A) (A) (A) (A) (A) (A) (A) (A)
                 (A) (A) (A) (A) (A) (A) (A) (A) (A) (A) (A) (A)
                 (A) (A) (A) (A) (A) (A) (A) (A) (A) (A) (A) (A)
                 (A) (A) (A) (A) (A) (A) (A) (A) (A) (A) (A) (A)
                 (A) (A) (A) (A) (A) (A) (A) (A) (A) (A) (A) (A)
                 (A) (A) (A) (A) (A) (A) (A) (A) (A) (A) (A) (A)
                 (A) (A) (A) (A) (A) (A) (A) (A) (A) (A) (A) (A)
                 (A) (A) (A) (A) (A) (A) (A) (A) (A) (A) (A) (A)
                 (A) (A) (A) (A) (A) (A) (A) (A) (A) (A) (A) (A)
                 (A) (A) (A) (A) (A) (A) (A) (A) (A) (A) (A) (A)
                 (A) (A) (A) (A) (A) (A) (A) (A) (A) (A) (A) (A)
                 (A) (A) (A) (A) (A) (A) (A) (A) (A) (A) (A) (A)
                 (A) (A) (A) (A) (A) (A) (A) (A) (A) (A) (A) (A)
                 (A) (A) (A) (A) (A) (A) (A) (A) (A) (A) (A) (A)
                 (A) (A) (A) (A) (A) (A) (A) (A) (A) (A) (A) (A)
                 (A) (A) (A) (A) (A) (A) (A) (A) (A) (A) (A) (A)
                 (A) (A) (A) (A) (A) (A) (A) (A) (A) (A) (A) (A)
                 (A) (A) (A) (A) (A) (A) (A) (A) (A) (A) (A) (A)
                 (A) (A) (A) (A) (A) (A) (A) (A) (A) (A) (A) (A)
                 (A) (A) (A) (A) (A) (A) (A) (A) (A) (A) (A) (A)
                 (A) (A) (A) (A) (A) (A) (A) (A) (A) (A) (A) (A)
                 (A) (A) (A) (A) (A) (A) (A) (A) (A) (A) (A) (A)
                 (A) (A) (A) (A) (A) (A) (A) (A) (A) (A) (A) (A)
                 (A) (A) (A) (A) (A) (A) (A) (A) (A) (A) (A) (A)
                 (A) (A) (A) (A) (A) (A) (A) (A) (A) (A) (A) (A)
                 (A) (A) (A) (A) (A) (A) (A) (A) (A) (A) (A) (A)
                 (A) (A) (A) (A) (A) (A) (A) (A) (A) (A) (A) (A)
                 (A) (A) (A) (A) (A) (A) (A) (A) (A) (A) (A) (A)
                 (A) (A) (A) (A) (A) (A) (A) (A) (A) (A) (A) (A)
                 (A) (A) (A) (A) (A) (A) (A) (A) (A) (A) (A) (A)
                 (A) (A) (A) (A) (A) (A) (A) (A) (A) (A) (A) (A)
                 (A) (A) (A) (A) (A) (A) (A) (A) (A) (A) (A) (A)
                 (A) (A) (A) (A) (A) (A) (A) (A) (A) (A)
 The electronic state is 1-A.
 Alpha  occ. eigenvalues --  -19.19364 -19.16919 -19.14596 -19.13705 -19.13624
 Alpha  occ. eigenvalues --  -10.27865 -10.27120 -10.26406 -10.26265 -10.25912
 Alpha  occ. eigenvalues --  -10.25545 -10.24537 -10.21883 -10.20367 -10.20203
 Alpha  occ. eigenvalues --  -10.19914 -10.19802 -10.19760 -10.19693 -10.19113
 Alpha  occ. eigenvalues --  -10.18885 -10.18839 -10.18674 -10.18517 -10.18407
 Alpha  occ. eigenvalues --  -10.18406 -10.18293 -10.17836 -10.17674 -10.16171
 Alpha  occ. eigenvalues --  -10.16151  -1.08387  -1.06303  -1.03540  -1.02615
 Alpha  occ. eigenvalues --   -1.01887  -0.87636  -0.83977  -0.82656  -0.81601
 Alpha  occ. eigenvalues --   -0.80402  -0.79921  -0.77055  -0.74314  -0.73526
 Alpha  occ. eigenvalues --   -0.72462  -0.71649  -0.69627  -0.69192  -0.68352
 Alpha  occ. eigenvalues --   -0.65859  -0.63963  -0.63489  -0.62160  -0.61088
 Alpha  occ. eigenvalues --   -0.59097  -0.58985  -0.57165  -0.55012  -0.53704
 Alpha  occ. eigenvalues --   -0.52923  -0.51872  -0.51004  -0.50375  -0.49565
 Alpha  occ. eigenvalues --   -0.47888  -0.47671  -0.46834  -0.46286  -0.45673
 Alpha  occ. eigenvalues --   -0.45329  -0.45112  -0.44526  -0.43989  -0.43484
 Alpha  occ. eigenvalues --   -0.43145  -0.42761  -0.42506  -0.41809  -0.41616
 Alpha  occ. eigenvalues --   -0.41201  -0.40600  -0.40237  -0.39845  -0.39659
 Alpha  occ. eigenvalues --   -0.39344  -0.38675  -0.38341  -0.38150  -0.37689
 Alpha  occ. eigenvalues --   -0.37552  -0.37155  -0.36781  -0.36646  -0.36516
 Alpha  occ. eigenvalues --   -0.36019  -0.35520  -0.35045  -0.34892  -0.34265
 Alpha  occ. eigenvalues --   -0.34040  -0.33682  -0.33268  -0.32688  -0.32221
 Alpha  occ. eigenvalues --   -0.31870  -0.31563  -0.31477  -0.28128  -0.27045
 Alpha  occ. eigenvalues --   -0.25306  -0.25108  -0.24351  -0.23736  -0.23147
 Alpha virt. eigenvalues --   -0.04520  -0.01788   0.00672   0.01597   0.02761
 Alpha virt. eigenvalues --    0.06399   0.08162   0.08407   0.09266   0.10061
 Alpha virt. eigenvalues --    0.10330   0.10627   0.11177   0.11726   0.12221
 Alpha virt. eigenvalues --    0.12786   0.13320   0.13421   0.13607   0.14085
 Alpha virt. eigenvalues --    0.14551   0.14681   0.14938   0.15709   0.15857
 Alpha virt. eigenvalues --    0.16029   0.16673   0.16742   0.17004   0.17292
 Alpha virt. eigenvalues --    0.17770   0.18231   0.18691   0.18956   0.19338
 Alpha virt. eigenvalues --    0.19377   0.19536   0.20185   0.20411   0.20922
 Alpha virt. eigenvalues --    0.21271   0.21412   0.21667   0.22195   0.22543
 Alpha virt. eigenvalues --    0.23306   0.23669   0.23985   0.24441   0.24641
 Alpha virt. eigenvalues --    0.24910   0.25211   0.25705   0.26097   0.26704
 Alpha virt. eigenvalues --    0.27284   0.27967   0.28266   0.29298   0.30385
 Alpha virt. eigenvalues --    0.31792   0.32453   0.32795   0.33966   0.34389
 Alpha virt. eigenvalues --    0.35019   0.36312   0.37052   0.37919   0.40285
 Alpha virt. eigenvalues --    0.40757   0.44911   0.46605   0.47154   0.48391
 Alpha virt. eigenvalues --    0.49047   0.49721   0.50245   0.50988   0.51722
 Alpha virt. eigenvalues --    0.52242   0.52474   0.52905   0.53050   0.53423
 Alpha virt. eigenvalues --    0.53868   0.54304   0.54953   0.55773   0.56013
 Alpha virt. eigenvalues --    0.56731   0.57522   0.57850   0.58534   0.58843
 Alpha virt. eigenvalues --    0.59760   0.60368   0.60686   0.61369   0.61732
 Alpha virt. eigenvalues --    0.62457   0.62601   0.63484   0.63639   0.64055
 Alpha virt. eigenvalues --    0.64199   0.66036   0.66250   0.66979   0.67277
 Alpha virt. eigenvalues --    0.67759   0.68442   0.68984   0.69540   0.69673
 Alpha virt. eigenvalues --    0.70634   0.71146   0.71906   0.72244   0.72985
 Alpha virt. eigenvalues --    0.73464   0.73975   0.74705   0.75421   0.76121
 Alpha virt. eigenvalues --    0.76621   0.77251   0.77750   0.77998   0.79295
 Alpha virt. eigenvalues --    0.79970   0.80605   0.80935   0.81836   0.82535
 Alpha virt. eigenvalues --    0.83301   0.83496   0.83841   0.83982   0.84735
 Alpha virt. eigenvalues --    0.85446   0.85645   0.85849   0.86279   0.86606
 Alpha virt. eigenvalues --    0.87328   0.87902   0.88165   0.88411   0.88963
 Alpha virt. eigenvalues --    0.89451   0.89787   0.90129   0.90330   0.90620
 Alpha virt. eigenvalues --    0.90893   0.91150   0.91453   0.91878   0.92008
 Alpha virt. eigenvalues --    0.92504   0.93146   0.94223   0.94281   0.94526
 Alpha virt. eigenvalues --    0.95177   0.95665   0.96413   0.97015   0.97298
 Alpha virt. eigenvalues --    0.97672   0.98332   0.98574   0.98731   0.99828
 Alpha virt. eigenvalues --    1.00726   1.01890   1.02218   1.02915   1.03126
 Alpha virt. eigenvalues --    1.03635   1.04943   1.05645   1.06814   1.07777
 Alpha virt. eigenvalues --    1.09316   1.10322   1.10731   1.11300   1.12527
 Alpha virt. eigenvalues --    1.12795   1.13705   1.14636   1.15673   1.16930
 Alpha virt. eigenvalues --    1.17220   1.17930   1.19148   1.19426   1.20705
 Alpha virt. eigenvalues --    1.20945   1.23429   1.24182   1.25935   1.26585
 Alpha virt. eigenvalues --    1.28773   1.29731   1.30701   1.32039   1.33259
 Alpha virt. eigenvalues --    1.34262   1.37578   1.38010   1.38272   1.40726
 Alpha virt. eigenvalues --    1.41813   1.43720   1.44976   1.45193   1.45735
 Alpha virt. eigenvalues --    1.47964   1.49612   1.50627   1.52451   1.52791
 Alpha virt. eigenvalues --    1.54097   1.54762   1.55784   1.57126   1.57930
 Alpha virt. eigenvalues --    1.59149   1.59716   1.60988   1.62362   1.63716
 Alpha virt. eigenvalues --    1.64817   1.65836   1.67222   1.68194   1.69321
 Alpha virt. eigenvalues --    1.70705   1.72420   1.73460   1.73644   1.74170
 Alpha virt. eigenvalues --    1.75270   1.75684   1.75999   1.77179   1.78289
 Alpha virt. eigenvalues --    1.78798   1.79586   1.80018   1.81008   1.81537
 Alpha virt. eigenvalues --    1.82263   1.83289   1.83537   1.84446   1.85099
 Alpha virt. eigenvalues --    1.86441   1.86535   1.87292   1.88372   1.88916
 Alpha virt. eigenvalues --    1.89620   1.90267   1.90723   1.91084   1.91806
 Alpha virt. eigenvalues --    1.93033   1.94013   1.94540   1.95081   1.96040
 Alpha virt. eigenvalues --    1.96566   1.96862   1.97257   1.97743   1.98542
 Alpha virt. eigenvalues --    1.99162   1.99638   2.00236   2.00950   2.01543
 Alpha virt. eigenvalues --    2.01868   2.03526   2.04001   2.05341   2.06175
 Alpha virt. eigenvalues --    2.06698   2.07750   2.08817   2.09174   2.10365
 Alpha virt. eigenvalues --    2.10819   2.11030   2.12344   2.14085   2.14703
 Alpha virt. eigenvalues --    2.15355   2.16033   2.16250   2.16967   2.18174
 Alpha virt. eigenvalues --    2.19363   2.19957   2.20795   2.21055   2.22606
 Alpha virt. eigenvalues --    2.23510   2.24874   2.25239   2.26636   2.27148
 Alpha virt. eigenvalues --    2.28065   2.28722   2.29753   2.30076   2.30946
 Alpha virt. eigenvalues --    2.32416   2.32746   2.33528   2.33841   2.35360
 Alpha virt. eigenvalues --    2.35727   2.36511   2.38053   2.39738   2.40342
 Alpha virt. eigenvalues --    2.40924   2.41632   2.41882   2.43028   2.44416
 Alpha virt. eigenvalues --    2.46027   2.46346   2.47571   2.48096   2.48552
 Alpha virt. eigenvalues --    2.50223   2.50606   2.51892   2.52917   2.53514
 Alpha virt. eigenvalues --    2.55646   2.58138   2.58724   2.60410   2.61110
 Alpha virt. eigenvalues --    2.62159   2.62995   2.63923   2.64625   2.66059
 Alpha virt. eigenvalues --    2.66858   2.68459   2.69874   2.70808   2.72119
 Alpha virt. eigenvalues --    2.73317   2.73708   2.75554   2.76256   2.78205
 Alpha virt. eigenvalues --    2.78951   2.80065   2.80833   2.81632   2.87413
 Alpha virt. eigenvalues --    2.88395   2.91274   2.93805   2.94639   2.95076
 Alpha virt. eigenvalues --    2.96533   2.97991   3.00498   3.00988   3.01927
 Alpha virt. eigenvalues --    3.06105   3.07470   3.12091   3.16139   3.20530
 Alpha virt. eigenvalues --    3.22130   3.28794   3.99877   4.07987   4.10900
 Alpha virt. eigenvalues --    4.13727   4.15066   4.17347   4.18099   4.19551
 Alpha virt. eigenvalues --    4.23506   4.24129   4.26244   4.28123   4.31745
 Alpha virt. eigenvalues --    4.33068   4.33577   4.37885   4.41666   4.44073
 Alpha virt. eigenvalues --    4.49734   4.50527   4.51921   4.57960   4.62642
 Alpha virt. eigenvalues --    4.65121   4.65594   4.69958   4.74452   4.78038
 Alpha virt. eigenvalues --    4.89298   4.96705   5.26504
          Condensed to atoms (all electrons):
 Mulliken atomic charges:
              1
     1  C   -0.196184
     2  C    0.195999
     3  C   -0.195107
     4  C    0.317169
     5  C   -0.017625
     6  C   -0.332918
     7  C    0.196150
     8  C    0.420578
     9  C   -0.102038
    10  C    0.396207
    11  C    0.418711
    12  O   -0.457487
    13  C   -0.157108
    14  C   -0.266050
    15  C   -0.450993
    16  O   -0.488906
    17  C   -0.154102
    18  C    0.306741
    19  O   -0.537290
    20  C   -0.307540
    21  O   -0.675568
    22  C   -0.326726
    23  C    0.103061
    24  O   -0.589755
    25  C    0.209177
    26  C   -0.517647
    27  C   -0.399837
    28  C   -0.460955
    29  C   -0.463183
    30  H    0.145509
    31  H    0.150312
    32  C   -0.519864
    33  H    0.126166
    34  H    0.162905
    35  H    0.180663
    36  H    0.161894
    37  H    0.139131
    38  H    0.148708
    39  H    0.135639
    40  H    0.154063
    41  H    0.164495
    42  H    0.149095
    43  H    0.166876
    44  H    0.425427
    45  H    0.154100
    46  H    0.181407
    47  H    0.131648
    48  H    0.163516
    49  H    0.167381
    50  H    0.155323
    51  H    0.136837
    52  H    0.141077
    53  H    0.183027
    54  H    0.150354
    55  H    0.140111
    56  H    0.148432
    57  H    0.158777
    58  H    0.160900
    59  H    0.157977
    60  H    0.157081
    61  H    0.154991
    62  C   -0.450599
    63  H    0.146177
    64  H    0.166903
    65  H    0.136786
 Sum of Mulliken atomic charges =   0.00000
 Mulliken charges with hydrogens summed into heavy atoms:
              1
     1  C   -0.070019
     2  C    0.195999
     3  C   -0.044794
     4  C    0.317169
     5  C   -0.017625
     6  C    0.010651
     7  C    0.196150
     8  C    0.420578
     9  C   -0.102038
    10  C    0.396207
    11  C    0.418711
    12  O   -0.457487
    13  C    0.004786
    14  C    0.021789
    15  C    0.003204
    16  O   -0.488906
    17  C   -0.008593
    18  C    0.306741
    19  O   -0.537290
    20  C    0.008431
    21  O   -0.250141
    22  C    0.008781
    23  C    0.234709
    24  O   -0.589755
    25  C    0.209177
    26  C   -0.031427
    27  C   -0.121923
    28  C    0.012537
    29  C    0.004926
    32  C   -0.049815
    62  C   -0.000733
 Sum of Mulliken charges with hydrogens summed into heavy atoms =   0.00000
 Electronic spatial extent (au):  <R**2>=          11588.2779
 Charge=              0.0000 electrons
 Dipole moment (field-independent basis, Debye):
    X=             -3.4524    Y=              3.2469    Z=             -1.1966  Tot=              4.8881
 Quadrupole moment (field-independent basis, Debye-Ang):
   XX=           -181.5477   YY=           -179.9065   ZZ=           -186.5296
   XY=              0.6252   XZ=             -9.0483   YZ=              2.1688
 Traceless Quadrupole moment (field-independent basis, Debye-Ang):
   XX=              1.1136   YY=              2.7548   ZZ=             -3.8683
   XY=              0.6252   XZ=             -9.0483   YZ=              2.1688
 Octapole moment (field-independent basis, Debye-Ang**2):
  XXX=            -14.7722  YYY=             51.6387  ZZZ=             -6.2764  XYY=              3.2610
  XXY=            -18.6147  XXZ=            -23.8973  XZZ=            -29.7883  YZZ=             -3.4552
  YYZ=            -21.3296  XYZ=             -9.0909
 Hexadecapole moment (field-independent basis, Debye-Ang**3):
 XXXX=          -8766.6457 YYYY=          -4202.5042 ZZZZ=          -2523.3611 XXXY=              5.9026
 XXXZ=            -58.5136 YYYX=              4.0800 YYYZ=              4.1621 ZZZX=            -19.1622
 ZZZY=             -6.4715 XXYY=          -2103.9493 XXZZ=          -1905.7207 YYZZ=          -1094.7092
 XXYZ=             49.6133 YYXZ=             21.7233 ZZXY=             37.7876
 N-N= 3.517761559433D+03 E-N=-1.026184907252D+04  KE= 1.374869615256D+03
 Calling FoFJK, ICntrl=      2127 FMM=T ISym2X=0 I1Cent= 0 IOpClX= 0 NMat=1 NMatS=1 NMatT=0.
 ***** Axes restored to original set *****
 -------------------------------------------------------------------
 Center     Atomic                   Forces (Hartrees/Bohr)
 Number     Number              X              Y              Z
 -------------------------------------------------------------------
      1        6           0.009734376   -0.000085722    0.000793130
      2        6          -0.009158326   -0.006237209    0.003782414
      3        6          -0.006984790   -0.009840551   -0.003239752
      4        6           0.010642290   -0.006662166    0.011559424
      5        6          -0.008163753    0.005452998    0.004323331
      6        6          -0.009165202   -0.008010097   -0.005801525
      7        6           0.020919840    0.014853402    0.011223509
      8        6          -0.006110569   -0.003404076   -0.024773213
      9        6           0.011921607   -0.006994134    0.008600756
     10        6          -0.014804012    0.018401415   -0.003340383
     11        6          -0.019572469   -0.004086657   -0.017946307
     12        8           0.004105763    0.012772461    0.011714495
     13        6          -0.010777975   -0.001375209    0.001913192
     14        6           0.008073779    0.002919188   -0.000572985
     15        6          -0.005283826   -0.002199867   -0.004921544
     16        8           0.006502121   -0.010091984    0.002032202
     17        6           0.002772421   -0.006550037   -0.011927828
     18        6           0.030079468    0.005040793   -0.013643372
     19        8          -0.011176612   -0.009153204    0.032617384
     20        6           0.009438583   -0.001535437   -0.005992075
     21        8          -0.003104241    0.005008491    0.005605932
     22        6          -0.008004589   -0.000357993    0.007556311
     23        6           0.004492134   -0.004388288    0.009486597
     24        8          -0.004597079    0.004245530   -0.013246662
     25        6           0.006392961   -0.005214082    0.015199753
     26        6           0.000450628    0.001131082    0.001091599
     27        6          -0.001202451    0.002561836   -0.009742081
     28        6          -0.001621204    0.008361931    0.001929142
     29        6          -0.008502518   -0.000627637   -0.007369590
     30        1          -0.002993964    0.001966517    0.000204979
     31        1          -0.001701651    0.005767610    0.000597596
     32        6          -0.002485436   -0.000448850    0.000249363
     33        1           0.000663577   -0.000828226    0.000030755
     34        1           0.000603530    0.005065586   -0.000126718
     35        1          -0.000889219    0.005110544   -0.001321074
     36        1           0.004085513   -0.002641113    0.001344078
     37        1          -0.001797618   -0.000555199    0.002841509
     38        1          -0.000013957   -0.000145101    0.002028926
     39        1           0.000497886    0.001207749    0.000499541
     40        1           0.000093751    0.000465848   -0.000063112
     41        1           0.000596087   -0.000027956    0.001093449
     42        1          -0.002082321   -0.001532288   -0.001384521
     43        1           0.000224549    0.000765087    0.000997184
     44        1          -0.003116303    0.001331027   -0.004141787
     45        1           0.000916153    0.000543286   -0.002686173
     46        1          -0.000186988    0.000115442   -0.004252164
     47        1          -0.000697916   -0.001287510    0.003218903
     48        1          -0.001225806    0.002254965   -0.002006949
     49        1           0.000094339    0.003139261   -0.002875309
     50        1          -0.000385982   -0.002523293   -0.000331609
     51        1           0.001016958   -0.001453297    0.000090058
     52        1          -0.001712023    0.000010246    0.000483618
     53        1           0.000380967   -0.004523457    0.003233531
     54        1           0.000446065   -0.003308291   -0.002274163
     55        1           0.000147881   -0.000753117   -0.000427990
     56        1           0.000028597    0.000715302    0.001349327
     57        1           0.001925600    0.001514387    0.001768820
     58        1           0.001273683   -0.001685497    0.002603108
     59        1          -0.000668436    0.000824583   -0.000343134
     60        1           0.004011381   -0.001552257   -0.000098189
     61        1           0.004246769   -0.001174954    0.000050864
     62        6           0.001538633    0.000392653   -0.004173472
     63        1          -0.000260749   -0.000668082   -0.001492474
     64        1          -0.000381057   -0.000545719   -0.000752798
     65        1           0.000511148    0.000529340   -0.000845825
 -------------------------------------------------------------------
 Cartesian Forces:  Max     0.032617384 RMS     0.006777548

 GradGradGradGradGradGradGradGradGradGradGradGradGradGradGradGradGradGrad
 Berny optimization.
 Internal  Forces:  Max     0.020227380 RMS     0.003376926
 Search for a local minimum.
 Step number   1 out of a maximum of  390
 All quantities printed in internal units (Hartrees-Bohrs-Radians)
 Mixed Optimization -- RFO/linear search
 Second derivative matrix not updated -- first step.
 ITU=  0
     Eigenvalues ---    0.00280   0.00280   0.00358   0.00395   0.00419
     Eigenvalues ---    0.00458   0.00479   0.00561   0.00592   0.00662
     Eigenvalues ---    0.00668   0.00699   0.00719   0.00736   0.00875
     Eigenvalues ---    0.01076   0.01164   0.01241   0.01298   0.01464
     Eigenvalues ---    0.01523   0.01719   0.01736   0.01839   0.02092
     Eigenvalues ---    0.02624   0.02827   0.02827   0.03108   0.03223
     Eigenvalues ---    0.03322   0.03612   0.03711   0.03888   0.04080
     Eigenvalues ---    0.04275   0.04338   0.04465   0.04517   0.04774
     Eigenvalues ---    0.04781   0.04834   0.05009   0.05137   0.05289
     Eigenvalues ---    0.05311   0.05341   0.05343   0.05420   0.05440
     Eigenvalues ---    0.05458   0.05503   0.05573   0.05613   0.05650
     Eigenvalues ---    0.05707   0.05853   0.05881   0.05922   0.06130
     Eigenvalues ---    0.06580   0.06793   0.07123   0.07150   0.07152
     Eigenvalues ---    0.07199   0.07227   0.07316   0.07474   0.07989
     Eigenvalues ---    0.08345   0.08641   0.08726   0.09347   0.09444
     Eigenvalues ---    0.09876   0.10239   0.11440   0.11894   0.12483
     Eigenvalues ---    0.12626   0.13324   0.14552   0.15375   0.15932
     Eigenvalues ---    0.15970   0.16000   0.16000   0.16000   0.16000
     Eigenvalues ---    0.16000   0.16000   0.16000   0.16000   0.16000
     Eigenvalues ---    0.16000   0.16000   0.16000   0.16000   0.16000
     Eigenvalues ---    0.16000   0.16000   0.16000   0.16000   0.16000
     Eigenvalues ---    0.16000   0.16557   0.17293   0.18095   0.18271
     Eigenvalues ---    0.19720   0.20899   0.21946   0.22314   0.22486
     Eigenvalues ---    0.23397   0.24739   0.24894   0.24997   0.24997
     Eigenvalues ---    0.24997   0.24998   0.25000   0.26071   0.26668
     Eigenvalues ---    0.26993   0.27247   0.27349   0.27718   0.28302
     Eigenvalues ---    0.28808   0.28811   0.28981   0.29347   0.29607
     Eigenvalues ---    0.29775   0.30049   0.30322   0.30711   0.31567
     Eigenvalues ---    0.31826   0.31850   0.32143   0.33329   0.33624
     Eigenvalues ---    0.33888   0.33892   0.33904   0.33949   0.34001
     Eigenvalues ---    0.34005   0.34012   0.34071   0.34082   0.34083
     Eigenvalues ---    0.34110   0.34158   0.34180   0.34205   0.34212
     Eigenvalues ---    0.34240   0.34242   0.34254   0.34258   0.34260
     Eigenvalues ---    0.34262   0.34265   0.34281   0.34297   0.34301
     Eigenvalues ---    0.34352   0.34382   0.34386   0.34388   0.34965
     Eigenvalues ---    0.35046   0.35288   0.35309   0.35326   0.36653
     Eigenvalues ---    0.37869   0.41005   0.44589   0.50245   0.53431
     Eigenvalues ---    0.54552   0.56275   0.90737   0.91195
 RFO step:  Lambda=-2.12984074D-02 EMin= 2.79739739D-03
 Linear search not attempted -- first point.
 Iteration  1 RMS(Cart)=  0.03815009 RMS(Int)=  0.00059390
 Iteration  2 RMS(Cart)=  0.00108322 RMS(Int)=  0.00023741
 Iteration  3 RMS(Cart)=  0.00000058 RMS(Int)=  0.00023741
 Variable       Old X    -DE/DX   Delta X   Delta X   Delta X     New X
                                 (Linear)    (Quad)   (Total)
    R1        2.53318  -0.00196   0.00000  -0.00410  -0.00418   2.52900
    R2        2.82221   0.00880   0.00000   0.02554   0.02541   2.84762
    R3        2.05601   0.00038   0.00000   0.00102   0.00102   2.05702
    R4        2.84507   0.00495   0.00000   0.01252   0.01257   2.85764
    R5        2.83883   0.00469   0.00000   0.01368   0.01368   2.85251
    R6        2.94475   0.00664   0.00000   0.01671   0.01667   2.96142
    R7        2.89862   0.01024   0.00000   0.03451   0.03445   2.93307
    R8        2.07969  -0.00189   0.00000  -0.00528  -0.00528   2.07441
    R9        2.92925   0.01136   0.00000   0.03463   0.03453   2.96378
   R10        2.91922   0.00803   0.00000   0.03171   0.03199   2.95121
   R11        2.75598  -0.00550   0.00000  -0.01553  -0.01554   2.74043
   R12        2.91789   0.00531   0.00000   0.01963   0.01959   2.93748
   R13        2.91086   0.00492   0.00000   0.00898   0.00865   2.91950
   R14        2.91192   0.00597   0.00000   0.01990   0.01983   2.93175
   R15        2.07519  -0.00152   0.00000  -0.00423  -0.00423   2.07096
   R16        2.07513   0.00251   0.00000   0.00696   0.00696   2.08209
   R17        2.81217   0.01100   0.00000   0.02551   0.02529   2.83746
   R18        2.86496   0.01517   0.00000   0.05343   0.05296   2.91792
   R19        2.68550   0.00276   0.00000   0.00718   0.00722   2.69272
   R20        2.52309   0.01201   0.00000   0.02134   0.02147   2.54456
   R21        2.61947  -0.01748   0.00000  -0.04061  -0.04036   2.57911
   R22        2.79421   0.00140   0.00000   0.00006   0.00020   2.79440
   R23        2.79032   0.02023   0.00000   0.05453   0.05453   2.84485
   R24        2.32387  -0.00831   0.00000  -0.00890  -0.00890   2.31497
   R25        2.32595  -0.01766   0.00000  -0.01902  -0.01902   2.30694
   R26        2.88415  -0.00170   0.00000  -0.00533  -0.00533   2.87882
   R27        2.90399   0.00747   0.00000   0.02414   0.02414   2.92814
   R28        2.88753   0.00506   0.00000   0.01594   0.01594   2.90347
   R29        2.07493   0.00032   0.00000   0.00089   0.00089   2.07582
   R30        2.07321   0.00062   0.00000   0.00171   0.00171   2.07492
   R31        2.07211   0.00099   0.00000   0.00273   0.00273   2.07484
   R32        2.87865   0.00740   0.00000   0.02301   0.02301   2.90166
   R33        2.06891   0.00101   0.00000   0.00279   0.00279   2.07170
   R34        2.07064  -0.00038   0.00000  -0.00104  -0.00104   2.06960
   R35        2.06897  -0.00105   0.00000  -0.00289  -0.00289   2.06609
   R36        2.91234   0.00000   0.00000   0.01168   0.01185   2.92419
   R37        2.90010   0.00579   0.00000   0.01955   0.01955   2.91965
[...]
     55          1           0        0.424069    3.749630   -3.301602
     56          1           0       -0.025932    5.111457   -1.126405
     57          1           0        1.666800    4.773447   -0.713441
     58          1           0        0.384569    4.382995    0.442174
     59          1           0       -4.704456    1.617530    3.058184
     60          1           0       -4.352436    2.844882    1.828506
     61          1           0       -5.167424    1.355430    1.363703
     62          6           0        4.792686   -1.215777   -1.176783
     63          1           0        5.796874   -1.022924   -0.783823
     64          1           0        4.343625   -0.246190   -1.420802
     65          1           0        4.906580   -1.775346   -2.112451
 ---------------------------------------------------------------------
 Rotational constants (GHZ):      0.1888654      0.1426514      0.1132725

 **********************************************************************

            Population analysis using the SCF density.

 **********************************************************************

 Orbital symmetries:
       Occupied  (A) (A) (A) (A) (A) (A) (A) (A) (A) (A) (A) (A)
                 (A) (A) (A) (A) (A) (A) (A) (A) (A) (A) (A) (A)
                 (A) (A) (A) (A) (A) (A) (A) (A) (A) (A) (A) (A)
                 (A) (A) (A) (A) (A) (A) (A) (A) (A) (A) (A) (A)
                 (A) (A) (A) (A) (A) (A) (A) (A) (A) (A) (A) (A)
                 (A) (A) (A) (A) (A) (A) (A) (A) (A) (A) (A) (A)
                 (A) (A) (A) (A) (A) (A) (A) (A) (A) (A) (A) (A)
                 (A) (A) (A) (A) (A) (A) (A) (A) (A) (A) (A) (A)
                 (A) (A) (A) (A) (A) (A) (A) (A) (A) (A) (A) (A)
                 (A) (A) (A) (A) (A) (A) (A)
       Virtual   (A) (A) (A) (A) (A) (A) (A) (A) (A) (A) (A) (A)
                 (A) (A) (A) (A) (A) (A) (A) (A) (A) (A) (A) (A)
                 (A) (A) (A) (A) (A) (A) (A) (A) (A) (A) (A) (A)
                 (A) (A) (A) (A) (A) (A) (A) (A) (A) (A) (A) (A)
                 (A) (A) (A) (A) (A) (A) (A) (A) (A) (A) (A) (A)
                 (A) (A) (A) (A) (A) (A) (A) (A) (A) (A) (A) (A)
                 (A) (A) (A) (A) (A) (A) (A) (A) (A) (A) (A) (A)
                 (A) (A) (A) (A) (A) (A) (A) (A) (A) (A) (A) (A)
                 (A) (A) (A) (A) (A) (A) (A) (A) (A) (A) (A) (A)
                 (A) (A) (A) (A) (A) (A) (A) (A) (A) (A) (A) (A)
                 (A) (A) (A) (A) (A) (A) (A) (A) (A) (A) (A) (A)
                 (A) (A) (A) (A) (A) (A) (A) (A) (A) (A) (A) (A)
                 (A) (A) (A) (A) (A) (A) (A) (A) (A) (A) (A) (A)
                 (A) (A) (A) (A) (A) (A) (A) (A) (A) (A) (A) (A)
                 (A) (A) (A) (A) (A) (A) (A) (A) (A) (A) (A) (A)
                 (A) (A) (A) (A) (A) (A) (A) (A) (A) (A) (A) (A)
                 (A) (A) (A) (A) (A) (A) (A) (A) (A) (A) (A) (A)
                 (A) (A) (A) (A) (A) (A) (A) (A) (A) (A) (A) (A)
                 (A) (A) (A) (A) (A) (A) (A) (A) (A) (A) (A) (A)
                 (A) (A) (A) (A) (A) (A) (A) (A) (A) (A) (A) (A)
                 (A) (A) (A) (A) (A) (A) (A) (A) (A) (A) (A) (A)
                 (A) (A) (A) (A) (A) (A) (A) (A) (A) (A) (A) (A)
                 (A) (A) (A) (A) (A) (A) (A) (A) (A) (A) (A) (A)
                 (A) (A) (A) (A) (A) (A) (A) (A) (A) (A) (A) (A)
                 (A) (A) (A) (A) (A) (A) (A) (A) (A) (A) (A) (A)
                 (A) (A) (A) (A) (A) (A) (A) (A) (A) (A) (A) (A)
                 (A) (A) (A) (A) (A) (A) (A) (A) (A) (A) (A) (A)
                 (A) (A) (A) (A) (A) (A) (A) (A) (A) (A) (A) (A)
                 (A) (A) (A) (A) (A) (A) (A) (A) (A) (A) (A) (A)
                 (A) (A) (A) (A) (A) (A) (A) (A) (A) (A) (A) (A)
                 (A) (A) (A) (A) (A) (A) (A) (A) (A) (A) (A) (A)
                 (A) (A) (A) (A) (A) (A) (A) (A) (A) (A) (A) (A)
                 (A) (A) (A) (A) (A) (A) (A) (A) (A) (A) (A) (A)
                 (A) (A) (A) (A) (A) (A) (A) (A) (A) (A) (A) (A)
                 (A) (A) (A) (A) (A) (A) (A) (A) (A) (A)
 The electronic state is 1-A.
 Alpha  occ. eigenvalues --  -19.20016 -19.16934 -19.15439 -19.13570 -19.11567
 Alpha  occ. eigenvalues --  -10.27555 -10.27544 -10.26722 -10.26247 -10.26066
 Alpha  occ. eigenvalues --  -10.25812 -10.24751 -10.21635 -10.20623 -10.20589
 Alpha  occ. eigenvalues --  -10.20395 -10.20109 -10.20065 -10.19832 -10.19239
 Alpha  occ. eigenvalues --  -10.19142 -10.19028 -10.18974 -10.18647 -10.18278
 Alpha  occ. eigenvalues --  -10.18097 -10.17678 -10.17256 -10.16881 -10.15850
 Alpha  occ. eigenvalues --  -10.15497  -1.09659  -1.06283  -1.03527  -1.02376
 Alpha  occ. eigenvalues --   -1.01576  -0.87175  -0.83875  -0.82113  -0.81321
 Alpha  occ. eigenvalues --   -0.80029  -0.78851  -0.76778  -0.73972  -0.73175
 Alpha  occ. eigenvalues --   -0.72170  -0.70776  -0.70164  -0.68914  -0.68266
 Alpha  occ. eigenvalues --   -0.65447  -0.63847  -0.63555  -0.61641  -0.60708
 Alpha  occ. eigenvalues --   -0.59080  -0.58396  -0.56778  -0.54506  -0.53653
 Alpha  occ. eigenvalues --   -0.52731  -0.51753  -0.51176  -0.49933  -0.49222
 Alpha  occ. eigenvalues --   -0.47636  -0.47330  -0.46853  -0.46521  -0.46042
 Alpha  occ. eigenvalues --   -0.45182  -0.44698  -0.44222  -0.43779  -0.43176
 Alpha  occ. eigenvalues --   -0.42737  -0.42492  -0.42468  -0.41339  -0.41060
 Alpha  occ. eigenvalues --   -0.40748  -0.40402  -0.40126  -0.40032  -0.39497
 Alpha  occ. eigenvalues --   -0.39427  -0.38825  -0.38496  -0.37934  -0.37534
 Alpha  occ. eigenvalues --   -0.37318  -0.36920  -0.36782  -0.36527  -0.36101
 Alpha  occ. eigenvalues --   -0.35889  -0.35582  -0.35171  -0.34643  -0.34330
 Alpha  occ. eigenvalues --   -0.33941  -0.33563  -0.33026  -0.32923  -0.32369
 Alpha  occ. eigenvalues --   -0.31595  -0.30801  -0.30433  -0.27824  -0.27606
 Alpha  occ. eigenvalues --   -0.25370  -0.24799  -0.24382  -0.23589  -0.22145
 Alpha virt. eigenvalues --   -0.05164  -0.01028   0.00763   0.01348   0.05576
 Alpha virt. eigenvalues --    0.07067   0.08286   0.08648   0.09522   0.10101
 Alpha virt. eigenvalues --    0.10326   0.10948   0.11065   0.12041   0.12660
 Alpha virt. eigenvalues --    0.12965   0.13133   0.13649   0.13843   0.14404
 Alpha virt. eigenvalues --    0.14711   0.15121   0.15243   0.15658   0.16072
 Alpha virt. eigenvalues --    0.16208   0.16652   0.16758   0.17246   0.17602
 Alpha virt. eigenvalues --    0.17696   0.18214   0.18376   0.18746   0.19253
 Alpha virt. eigenvalues --    0.19393   0.19649   0.20009   0.20418   0.20687
 Alpha virt. eigenvalues --    0.21195   0.21505   0.21813   0.22174   0.22683
 Alpha virt. eigenvalues --    0.23446   0.23672   0.23981   0.24491   0.24676
 Alpha virt. eigenvalues --    0.25241   0.25401   0.25671   0.26138   0.26333
 Alpha virt. eigenvalues --    0.26944   0.27178   0.27859   0.28638   0.30118
 Alpha virt. eigenvalues --    0.31765   0.32260   0.32625   0.33316   0.34421
 Alpha virt. eigenvalues --    0.35089   0.36085   0.36823   0.38002   0.39746
 Alpha virt. eigenvalues --    0.40441   0.43292   0.46008   0.47359   0.47725
 Alpha virt. eigenvalues --    0.48204   0.49600   0.50401   0.50829   0.51243
 Alpha virt. eigenvalues --    0.51581   0.52219   0.52773   0.53251   0.53311
 Alpha virt. eigenvalues --    0.53504   0.54079   0.54461   0.55160   0.56387
 Alpha virt. eigenvalues --    0.56910   0.57201   0.57794   0.58278   0.59116
 Alpha virt. eigenvalues --    0.59772   0.60005   0.60825   0.61083   0.61618
 Alpha virt. eigenvalues --    0.62239   0.63207   0.63841   0.63992   0.64418
 Alpha virt. eigenvalues --    0.65410   0.65580   0.66369   0.67022   0.67456
 Alpha virt. eigenvalues --    0.67819   0.68251   0.69143   0.69838   0.69943
 Alpha virt. eigenvalues --    0.70596   0.71178   0.71740   0.72515   0.72858
 Alpha virt. eigenvalues --    0.73861   0.74197   0.75038   0.75799   0.76261
 Alpha virt. eigenvalues --    0.76588   0.77264   0.77938   0.78520   0.78814
 Alpha virt. eigenvalues --    0.79097   0.79879   0.80402   0.80791   0.81593
 Alpha virt. eigenvalues --    0.82971   0.83385   0.84048   0.84335   0.84859
 Alpha virt. eigenvalues --    0.85163   0.85612   0.85967   0.86695   0.87290
 Alpha virt. eigenvalues --    0.87923   0.88173   0.88406   0.88714   0.89082
 Alpha virt. eigenvalues --    0.89389   0.89864   0.89925   0.90233   0.90763
 Alpha virt. eigenvalues --    0.91148   0.91310   0.91537   0.91733   0.92213
 Alpha virt. eigenvalues --    0.92608   0.93508   0.93668   0.93905   0.94093
 Alpha virt. eigenvalues --    0.94995   0.96078   0.96263   0.96623   0.97064
 Alpha virt. eigenvalues --    0.98183   0.98520   0.98917   0.99301   1.00080
 Alpha virt. eigenvalues --    1.01099   1.01586   1.02839   1.03197   1.03792
 Alpha virt. eigenvalues --    1.04167   1.04900   1.05599   1.07497   1.09051
 Alpha virt. eigenvalues --    1.10127   1.10650   1.12016   1.12311   1.12656
 Alpha virt. eigenvalues --    1.14162   1.15370   1.15490   1.16710   1.17489
 Alpha virt. eigenvalues --    1.18065   1.19020   1.19954   1.20624   1.21185
 Alpha virt. eigenvalues --    1.21806   1.22581   1.24375   1.24943   1.27851
 Alpha virt. eigenvalues --    1.29292   1.30673   1.31599   1.32137   1.33854
 Alpha virt. eigenvalues --    1.34344   1.37046   1.37739   1.38620   1.39862
 Alpha virt. eigenvalues --    1.41193   1.42311   1.44280   1.45484   1.46563
 Alpha virt. eigenvalues --    1.47394   1.50550   1.51419   1.52155   1.53087
 Alpha virt. eigenvalues --    1.54498   1.55052   1.55544   1.56950   1.57426
 Alpha virt. eigenvalues --    1.58694   1.60972   1.62073   1.62116   1.63691
 Alpha virt. eigenvalues --    1.64011   1.65889   1.67279   1.68717   1.69230
 Alpha virt. eigenvalues --    1.70971   1.71550   1.71852   1.72769   1.74095
 Alpha virt. eigenvalues --    1.74251   1.74913   1.75507   1.76991   1.77898
 Alpha virt. eigenvalues --    1.78330   1.79374   1.79753   1.80105   1.80559
 Alpha virt. eigenvalues --    1.80922   1.82365   1.82793   1.83519   1.84445
 Alpha virt. eigenvalues --    1.84717   1.85969   1.86736   1.87102   1.87391
 Alpha virt. eigenvalues --    1.88073   1.88832   1.89616   1.90740   1.92169
 Alpha virt. eigenvalues --    1.92342   1.92691   1.93631   1.94357   1.95098
 Alpha virt. eigenvalues --    1.95471   1.96841   1.97276   1.97553   1.98293
 Alpha virt. eigenvalues --    1.98954   1.99147   1.99960   2.00919   2.01316
 Alpha virt. eigenvalues --    2.01891   2.03103   2.03541   2.04097   2.04696
 Alpha virt. eigenvalues --    2.06251   2.06821   2.08176   2.08592   2.09302
 Alpha virt. eigenvalues --    2.10328   2.10877   2.11888   2.12500   2.12972
 Alpha virt. eigenvalues --    2.13353   2.15453   2.16671   2.17201   2.18637
 Alpha virt. eigenvalues --    2.19437   2.20292   2.20915   2.21536   2.22906
 Alpha virt. eigenvalues --    2.23513   2.23986   2.25119   2.25593   2.26718
 Alpha virt. eigenvalues --    2.27342   2.28835   2.29784   2.30161   2.31386
 Alpha virt. eigenvalues --    2.31796   2.32545   2.32917   2.34754   2.35228
 Alpha virt. eigenvalues --    2.36303   2.36765   2.37208   2.37843   2.40344
 Alpha virt. eigenvalues --    2.40865   2.41117   2.42451   2.43160   2.43657
 Alpha virt. eigenvalues --    2.44637   2.45637   2.46886   2.48380   2.49004
 Alpha virt. eigenvalues --    2.49814   2.50468   2.51387   2.53513   2.54043
 Alpha virt. eigenvalues --    2.55083   2.55874   2.57704   2.59232   2.59710
 Alpha virt. eigenvalues --    2.60892   2.61705   2.62533   2.64378   2.64921
 Alpha virt. eigenvalues --    2.65693   2.68397   2.68644   2.69305   2.70621
 Alpha virt. eigenvalues --    2.72668   2.74133   2.74651   2.76559   2.77497
 Alpha virt. eigenvalues --    2.78195   2.78956   2.79608   2.81184   2.81736
 Alpha virt. eigenvalues --    2.86565   2.88157   2.91092   2.94643   2.94819
 Alpha virt. eigenvalues --    2.95954   2.97431   2.99407   3.01065   3.03322
 Alpha virt. eigenvalues --    3.04383   3.06537   3.09591   3.14214   3.17470
 Alpha virt. eigenvalues --    3.22860   3.29366   3.98136   4.06306   4.09269
 Alpha virt. eigenvalues --    4.12310   4.14919   4.15271   4.17167   4.18633
 Alpha virt. eigenvalues --    4.22666   4.25339   4.26381   4.27477   4.30875
 Alpha virt. eigenvalues --    4.32295   4.35242   4.36853   4.41924   4.43003
 Alpha virt. eigenvalues --    4.46794   4.50522   4.54315   4.56444   4.60324
 Alpha virt. eigenvalues --    4.64518   4.67310   4.69256   4.73619   4.77140
 Alpha virt. eigenvalues --    4.88240   4.93644   5.23079
          Condensed to atoms (all electrons):
 Mulliken atomic charges:
              1
     1  C   -0.197745
     2  C    0.203716
     3  C   -0.203030
     4  C    0.328708
     5  C   -0.030780
     6  C   -0.327799
     7  C    0.186973
     8  C    0.403814
     9  C   -0.070884
    10  C    0.389956
    11  C    0.406562
    12  O   -0.471378
    13  C   -0.159827
    14  C   -0.263906
    15  C   -0.442334
    16  O   -0.498722
    17  C   -0.152806
    18  C    0.291025
    19  O   -0.487001
    20  C   -0.309594
    21  O   -0.665292
    22  C   -0.351775
    23  C    0.096046
    24  O   -0.589378
    25  C    0.223823
    26  C   -0.540398
    27  C   -0.403427
    28  C   -0.468147
    29  C   -0.459603
    30  H    0.147748
    31  H    0.148657
    32  C   -0.521017
    33  H    0.125971
    34  H    0.162190
    35  H    0.165677
    36  H    0.162790
    37  H    0.133689
    38  H    0.153859
    39  H    0.130388
    40  H    0.142184
    41  H    0.161662
    42  H    0.152497
    43  H    0.162636
    44  H    0.430723
    45  H    0.152639
    46  H    0.195066
    47  H    0.130576
    48  H    0.160629
    49  H    0.187909
    50  H    0.152663
    51  H    0.137518
    52  H    0.140523
    53  H    0.193096
    54  H    0.163298
    55  H    0.145007
    56  H    0.149653
    57  H    0.171093
    58  H    0.162738
    59  H    0.158194
    60  H    0.156086
    61  H    0.156984
    62  C   -0.448732
    63  H    0.145996
    64  H    0.154417
    65  H    0.138195
 Sum of Mulliken atomic charges =   0.00000
 Mulliken charges with hydrogens summed into heavy atoms:
              1
     1  C   -0.071773
     2  C    0.203716
     3  C   -0.054373
     4  C    0.328708
     5  C   -0.030780
     6  C    0.000068
     7  C    0.186973
     8  C    0.403814
     9  C   -0.070884
    10  C    0.389956
    11  C    0.406562
    12  O   -0.471378
    13  C    0.002963
    14  C    0.023642
    15  C   -0.008100
    16  O   -0.498722
    17  C   -0.005058
    18  C    0.291025
    19  O   -0.487001
    20  C    0.005539
    21  O   -0.234569
    22  C   -0.004070
    23  C    0.226623
    24  O   -0.589378
    25  C    0.223823
    26  C   -0.039197
    27  C   -0.125386
    28  C    0.033254
    29  C    0.023881
    32  C   -0.049753
    62  C   -0.010125
 Sum of Mulliken charges with hydrogens summed into heavy atoms =   0.00000
 Electronic spatial extent (au):  <R**2>=          11265.7631
 Charge=              0.0000 electrons
 Dipole moment (field-independent basis, Debye):
    X=             -5.2669    Y=              2.0464    Z=             -0.4302  Tot=              5.6669
 Quadrupole moment (field-independent basis, Debye-Ang):
   XX=           -188.5561   YY=           -177.0793   ZZ=           -182.3742
   XY=             -5.8351   XZ=             -6.3194   YZ=             -2.8947
 Traceless Quadrupole moment (field-independent basis, Debye-Ang):
   XX=             -5.8862   YY=              5.5905   ZZ=              0.2956
   XY=             -5.8351   XZ=             -6.3194   YZ=             -2.8947
 Octapole moment (field-independent basis, Debye-Ang**2):
  XXX=            -49.7374  YYY=             50.5233  ZZZ=              5.6609  XYY=            -18.2960
  XXY=            -19.5993  XXZ=             -7.8168  XZZ=             -6.9449  YZZ=              1.6483
  YYZ=            -39.8261  XYZ=            -10.3156
 Hexadecapole moment (field-independent basis, Debye-Ang**3):
 XXXX=          -7492.7938 YYYY=          -4968.5955 ZZZZ=          -2554.6505 XXXY=            -64.8186
 XXXZ=            -63.1380 YYYX=             42.7354 YYYZ=              3.0221 ZZZX=            -11.1300
 ZZZY=            -20.0321 XXYY=          -2074.5331 XXZZ=          -1689.2156 YYZZ=          -1235.6257
 XXYZ=            -26.4496 YYXZ=              9.5934 ZZXY=              9.5624
 N-N= 3.528043431379D+03 E-N=-1.028242010981D+04  KE= 1.374454865312D+03
 1\1\GINC-B0803\FOpt\RB3LYP\6-31G(d)\C26H34O5\CAOFEI\24-Mar-2021\0\\# o
 pt rb3lyp/6-31g(d) geom=connectivity\\Title Card Required\\0,1\C,-0.06
 86735259,-0.0629981161,-0.1573576473\C,1.2542085817,-0.222772146,-0.02
 86998152\C,2.1648633182,0.9816129186,-0.1053363027\C,1.556276313,2.332
 102908,0.3985203436\C,0.0044924215,2.394292814,0.5052715713\C,-0.70064
 49121,1.2917863887,-0.3429305502\C,2.1736204223,3.4116006888,-0.553676
 6001\C,1.1886483685,3.9163342368,-1.5983418812\C,-0.1062386664,4.24109
 46056,-1.2998084147\C,-0.5892119099,3.7542026787,0.0099125531\C,-0.970
 5625128,4.9674030869,-2.2954775079\O,-0.6980959934,4.9023753765,-3.486
 1929858\C,-2.1455700661,5.8121947597,-1.8009472818\C,-1.617520739,7.05
 92937567,-1.0382781534\C,-3.0843286967,6.1704789575,-2.9580496\O,-1.51
 96358528,4.2602866947,0.6281572322\C,3.2198084828,2.7223679048,-1.4544
 130491\C,3.1893926142,3.5780250288,-2.739939191\O,1.7852041366,4.07107
 35835,-2.7733498333\C,2.6840290721,1.28117591,-1.5380245573\O,2.650862
 3559,4.5340414935,0.1614858227\C,-0.2738071235,2.1776368605,2.00935861
 2\C,1.0628322488,2.3983365141,2.7485574065\O,2.0506781025,2.6306996535
 ,1.7096634187\C,1.0907347946,3.5431491536,3.740782869\C,0.7284119084,4
 .923098078,3.2485413267\C,1.4131491807,3.2962495285,5.0144990031\C,4.1
 003277369,4.8044459923,-2.6482384338\C,3.3970953737,2.8315311493,-4.05
 36587671\H,4.2087446596,2.7455814054,-0.9869651585\H,3.0422089379,0.81
 50477046,0.5335721242\C,1.9065817069,-1.5689840389,0.1466600855\H,-0.7
 254382783,-0.9313016312,-0.1390072881\H,-1.7580664467,1.2681698008,-0.
 055849424\H,-0.6853410986,1.5742591556,-1.4046585108\H,-2.690357289,5.
 2202144319,-1.0582780531\H,-2.4895673196,7.5900808615,-0.6333636307\H,
 -1.0416658553,6.7170399953,-0.1716492845\H,-3.9094770144,6.7935618843,
 -2.5933619494\H,-3.5111928843,5.268987483,-3.4102048503\H,-2.562035365
 9,6.7104534842,-3.7518290261\H,3.4412901787,0.5610630539,-1.8627861199
 \H,1.8513212577,1.2147306196,-2.2485125176\H,2.7588142739,4.2038286103
 ,1.0779655168\H,-0.6242421357,1.1579304479,2.1866411607\H,-1.057847265
 5,2.8637034579,2.3355338808\H,1.3601975469,1.4817205221,3.2714981367\H
 ,1.349114394,5.2239738528,2.3971066231\H,-0.3089387184,4.9660209351,2.
 8961285546\H,0.8524967915,5.665959031,4.0416886208\H,1.6733544689,2.29
 71717321,5.3563258523\H,1.4221927396,4.0821818292,5.7654889271\H,3.943
 3265642,5.3384260567,-1.7082497241\H,3.89718903,5.4822677586,-3.483355
 95\H,5.1504942961,4.4954134903,-2.7028247272\H,4.4111026568,2.41842708
 95,-4.0913438557\H,3.2742311597,3.5176998163,-4.8971061949\H,2.6822349
 171,2.0140426697,-4.1756003611\H,1.1672722923,-2.3760257804,0.16279412
 31\H,2.6173894917,-1.7799139885,-0.6643879588\H,2.4806925648,-1.612353
 4022,1.0825945583\C,-0.7733626451,8.0277884904,-1.8750644551\H,-1.3487
 424826,8.4632133628,-2.6992894017\H,0.1007104882,7.5307479998,-2.31123
 69206\H,-0.410931051,8.8544513494,-1.2531023891\\Version=EM64L-G09RevB
 .01\State=1-A\HF=-1387.3217814\RMSD=4.519e-09\RMSF=3.770e-06\Dipole=1.
 3477109,-1.6747186,0.5913954\Quadrupole=1.4905537,3.5241862,-5.01474,0
 .0381526,-6.0476288,2.7008095\PG=C01 [X(C26H34O5)]\\@


 THE REAL VOYAGE OF DISCOVERY CONSISTS NOT IN SEEKING NEW LANDSCAPES 
 BUT IN HAVING NEW EYES.
                                                    -- MARCEL PROUST
 Job cpu time:  0 days 11 hours 54 minutes  8.2 seconds.
 File lengths (MBytes):  RWF=    186 Int=      0 D2E=      0 Chk=     20 Scr=      1
 Normal termination of Gaussian 09 at Wed Mar 24 16:35:37 2021.
