 Entering Gaussian System, Link 0=g09
 Initial command:
 /public/software/g09/g09/l1.exe /tmp/Gau-14561.inp -scrdir=/tmp/
 Entering Link 1 = /public/software/g09/g09/l1.exe PID=     14562.
  
 Copyright (c) 1988,1990,1992,1993,1995,1998,2003,2009,2010,
            Gaussian, Inc.  All Rights Reserved.
  
 This is part of the Gaussian(R) 09 program.  It is based on
 the Gaussian(R) 03 system (copyright 2003, Gaussian, Inc.),
 the Gaussian(R) 98 system (copyright 1998, Gaussian, Inc.),
 the Gaussian(R) 94 system (copyright 1995, Gaussian, Inc.),
 the Gaussian 92(TM) system (copyright 1992, Gaussian, Inc.),
 the Gaussian 90(TM) system (copyright 1990, Gaussian, Inc.),
 the Gaussian 88(TM) system (copyright 1988, Gaussian, Inc.),
 the Gaussian 86(TM) system (copyright 1986, Carnegie Mellon
 University), and the Gaussian 82(TM) system (copyright 1983,
 Carnegie Mellon University). Gaussian is a federally registered
 trademark of Gaussian, Inc.
  
 This software contains proprietary and confidential information,
 including trade secrets, belonging to Gaussian, Inc.
  
 This software is provided under written license and may be
 used, copied, transmitted, or stored only in accord with that
 written license.
  
 The following legend is applicable only to US Government
 contracts under FAR:
  
                    RESTRICTED RIGHTS LEGEND
  
 Use, reproduction and disclosure by the US Government is
 subject to restrictions as set forth in subparagraphs (a)
 and (c) of the Commercial Computer Software - Restricted
 Rights clause in FAR 52.227-19.
  
 Gaussian, Inc.
 340 Quinnipiac St., Bldg. 40, Wallingford CT 06492
  
  
 ---------------------------------------------------------------
 Warning -- This program may not be used in any manner that
 competes with the business of Gaussian, Inc. or will provide
 assistance to any competitor of Gaussian, Inc.  The licensee
 of this program is prohibited from giving any competitor of
 Gaussian, Inc. access to this program.  By using this program,
 the user acknowledges that Gaussian, Inc. is engaged in the
 business of creating and licensing software in the field of
 computational chemistry and represents and warrants to the
 licensee that it is not a competitor of Gaussian, Inc. and that
 it will not use this program in any manner prohibited above.
 ---------------------------------------------------------------
  

 Cite this work as:
 Gaussian 09, Revision B.01,
 M. J. Frisch, G. W. Trucks, H. B. Schlegel, G. E. Scuseria, 
 M. A. Robb, J. R. Cheeseman, G. Scalmani, V. Barone, B. Mennucci, 
 G. A. Petersson, H. Nakatsuji, M. Caricato, X. Li, H. P. Hratchian, 
 A. F. Izmaylov, J. Bloino, G. Zheng, J. L. Sonnenberg, M. Hada, 
 M. Ehara, K. Toyota, R. Fukuda, J. Hasegawa, M. Ishida, T. Nakajima, 
 Y. Honda, O. Kitao, H. Nakai, T. Vreven, J. A. Montgomery, Jr., 
 J. E. Peralta, F. Ogliaro, M. Bearpark, J. J. Heyd, E. Brothers, 
 K. N. Kudin, V. N. Staroverov, T. Keith, R. Kobayashi, J. Normand, 
 K. Raghavachari, A. Rendell, J. C. Burant, S. S. Iyengar, J. Tomasi, 
 M. Cossi, N. Rega, J. M. Millam, M. Klene, J. E. Knox, J. B. Cross, 
 V. Bakken, C. Adamo, J. Jaramillo, R. Gomperts, R. E. Stratmann, 
 O. Yazyev, A. J. Austin, R. Cammi, C. Pomelli, J. W. Ochterski, 
 R. L. Martin, K. Morokuma, V. G. Zakrzewski, G. A. Voth, 
 P. Salvador, J. J. Dannenberg, S. Dapprich, A. D. Daniels, 
 O. Farkas, J. B. Foresman, J. V. Ortiz, J. Cioslowski, 
 and D. J. Fox, Gaussian, Inc., Wallingford CT, 2010.
 
 ******************************************
 Gaussian 09:  EM64L-G09RevB.01 12-Aug-2010
                24-Mar-2021 
 ******************************************
 %mem=600MW
 %nprocshared=10
 Will use up to   10 processors via shared memory.
 ---------------------------------------
 # opt rb3lyp/6-31g(d) geom=connectivity
 ---------------------------------------
 1/14=-1,18=20,19=15,26=3,38=1,57=2/1,3;
 2/9=110,12=2,17=6,18=5,40=1/2;
 3/5=1,6=6,7=1,11=2,16=1,25=1,30=1,71=1,74=-5,116=1/1,2,3;
 4//1;
 5/5=2,38=5/2;
 6/7=2,8=2,9=2,10=2,28=1/1;
 7//1,2,3,16;
 1/14=-1,18=20,19=15/3(2);
 2/9=110/2;
 99//99;
 2/9=110/2;
 3/5=1,6=6,7=1,11=2,16=1,25=1,30=1,71=1,74=-5,116=1/1,2,3;
 4/5=5,16=3/1;
 5/5=2,38=5/2;
 7//1,2,3,16;
 1/14=-1,18=20,19=15/3(-5);
 2/9=110/2;
 6/7=2,8=2,9=2,10=2,19=2,28=1/1;
 99/9=1/99;
 -------------------
 Title Card Required
 -------------------
 Symbolic Z-matrix:
 Charge =  0 Multiplicity = 1
 C                     0.        0.        0. 
 C                     1.3402    0.        0. 
 C                     2.1231    1.2847    0. 
 C                     1.3744    2.5516    0.5108 
 C                    -0.17      2.4832    0.6214 
 C                    -0.8119    1.2518   -0.0515 
 C                     1.9193    3.6977   -0.3706 
 C                     0.9989    4.1723   -1.4429 
 C                    -0.3282    4.2113   -1.2954 
 C                    -0.8707    3.6942   -0.0197 
 C                    -1.2239    4.6217   -2.3981 
 O                    -2.0508    3.8142   -2.8215 
 C                    -1.1043    6.0477   -2.928 
 C                    -0.8163    6.066    -4.4385 
 C                    -2.3443    6.8403   -2.5246 
 O                    -1.9066    4.1745    0.4381 
 C                     3.0516    3.1398   -1.2127 
 C                     3.0161    4.0173   -2.4775 
 O                     1.6366    4.4225   -2.65 
 C                     2.6394    1.6712   -1.3897 
 O                     2.3311    4.8148    0.4028 
 C                    -0.4182    2.5005    2.1438 
 C                     0.9266    2.1611    2.7609 
 O                     1.856     2.7917    1.8688 
 C                     1.2125    2.6222    4.1707 
 C                     2.6312    2.4158    4.6358 
 C                     0.3003    3.148     5.0066 
 C                     3.8631    5.2907   -2.3283 
 C                     3.4595    3.2823   -3.7454 
 H                     4.024     3.1983   -0.7079 
 H                     2.9974    1.1298    0.6506 
 C                     2.1325   -1.2769   -0.009 
 H                    -0.5481   -0.9398   -0.026 
 H                    -1.7888    1.0533    0.4089 
 H                    -1.0298    1.445    -1.1105 
 H                    -0.2444    6.5206   -2.436 
 H                    -0.023     5.3448   -4.6694 
 H                    -0.4232    7.0555   -4.7042 
 H                    -3.2655    6.3732   -2.8886 
 H                    -2.4245    6.8949   -1.433 
 H                    -2.2971    7.8636   -2.9107 
 H                     1.8485    1.5497   -2.1403 
 H                     3.49      1.0541   -1.6985 
 H                     2.4627    4.474     1.3135 
 H                    -0.7254    3.5049    2.4593 
 H                    -1.1985    1.8067    2.4744 
 H                     1.0929    1.0771    2.7209 
 H                     3.3222    3.0317    4.0514 
 H                     2.7638    2.6815    5.6901 
 H                     2.9184    1.3652    4.5227 
 H                     0.5674    3.4504    6.0153 
 H                    -0.7373    3.2926    4.7252 
 H                     3.7863    5.9125   -3.2281 
 H                     4.9185    5.05     -2.1647 
 H                     3.5192    5.922    -1.5039 
 H                     2.7786    2.464    -4.0008 
 H                     3.4425    3.9564   -4.61 
 H                     4.4727    2.881    -3.6417 
 H                     1.4872   -2.1616   -0.0113 
 H                     2.7677   -1.3265   -0.899 
 H                     2.7706   -1.3334    0.8787 
 C                    -2.006     5.7791   -5.3457 
 H                    -2.7847    6.54     -5.2389 
 H                    -1.6835    5.7868   -6.3923 
 H                    -2.4459    4.7994   -5.1431 
 

 GradGradGradGradGradGradGradGradGradGradGradGradGradGradGradGradGradGrad
 Berny optimization.
 Initialization pass.
                           ----------------------------
                           !    Initial Parameters    !
                           ! (Angstroms and Degrees)  !
 --------------------------                            --------------------------
 ! Name  Definition              Value          Derivative Info.                !
 --------------------------------------------------------------------------------
 ! R1    R(1,2)                  1.3402         estimate D2E/DX2                !
 ! R2    R(1,6)                  1.4929         estimate D2E/DX2                !
 ! R3    R(1,33)                 1.0883         estimate D2E/DX2                !
 ! R4    R(2,3)                  1.5045         estimate D2E/DX2                !
 ! R5    R(2,32)                 1.5028         estimate D2E/DX2                !
 ! R6    R(3,4)                  1.5577         estimate D2E/DX2                !
 ! R7    R(3,20)                 1.5321         estimate D2E/DX2                !
 ! R8    R(3,31)                 1.1008         estimate D2E/DX2                !
 ! R9    R(4,5)                  1.5499         estimate D2E/DX2                !
 ! R10   R(4,7)                  1.5451         estimate D2E/DX2                !
 ! R11   R(4,24)                 1.4607         estimate D2E/DX2                !
 ! R12   R(5,6)                  1.5431         estimate D2E/DX2                !
 ! R13   R(5,10)                 1.539          estimate D2E/DX2                !
 ! R14   R(5,22)                 1.5426         estimate D2E/DX2                !
 ! R15   R(6,34)                 1.098          estimate D2E/DX2                !
 ! R16   R(6,35)                 1.0983         estimate D2E/DX2                !
 ! R17   R(7,8)                  1.4907         estimate D2E/DX2                !
 ! R18   R(7,17)                 1.5174         estimate D2E/DX2                !
 ! R19   R(7,21)                 1.4197         estimate D2E/DX2                !
 ! R20   R(8,9)                  1.3358         estimate D2E/DX2                !
 ! R21   R(8,19)                 1.3879         estimate D2E/DX2                !
 ! R22   R(9,10)                 1.4796         estimate D2E/DX2                !
 ! R23   R(9,11)                 1.4787         estimate D2E/DX2                !
 ! R24   R(10,16)                1.2302         estimate D2E/DX2                !
 ! R25   R(11,12)                1.2309         estimate D2E/DX2                !
 ! R26   R(11,13)                1.526          estimate D2E/DX2                !
 ! R27   R(13,14)                1.5378         estimate D2E/DX2                !
 ! R28   R(13,15)                1.526          estimate D2E/DX2                !
 ! R29   R(13,36)                1.0978         estimate D2E/DX2                !
 ! R30   R(14,37)                1.0967         estimate D2E/DX2                !
 ! R31   R(14,38)                1.0974         estimate D2E/DX2                !
 ! R32   R(14,62)                1.5234         estimate D2E/DX2                !
 ! R33   R(15,39)                1.0951         estimate D2E/DX2                !
 ! R34   R(15,40)                1.0959         estimate D2E/DX2                !
 ! R35   R(15,41)                1.0947         estimate D2E/DX2                !
 ! R36   R(17,18)                1.5398         estimate D2E/DX2                !
 ! R37   R(17,20)                1.5356         estimate D2E/DX2                !
 ! R38   R(17,30)                1.0972         estimate D2E/DX2                !
 ! R39   R(18,19)                1.4481         estimate D2E/DX2                !
 ! R40   R(18,28)                1.5366         estimate D2E/DX2                !
 ! R41   R(18,29)                1.5311         estimate D2E/DX2                !
 ! R42   R(20,42)                1.0971         estimate D2E/DX2                !
 ! R43   R(20,43)                1.0953         estimate D2E/DX2                !
 ! R44   R(21,44)                0.9812         estimate D2E/DX2                !
 ! R45   R(22,23)                1.5181         estimate D2E/DX2                !
 ! R46   R(22,45)                1.0967         estimate D2E/DX2                !
 ! R47   R(22,46)                1.0952         estimate D2E/DX2                !
 ! R48   R(23,24)                1.4343         estimate D2E/DX2                !
 ! R49   R(23,25)                1.5106         estimate D2E/DX2                !
 ! R50   R(23,47)                1.0974         estimate D2E/DX2                !
 ! R51   R(24,44)                1.8726         estimate D2E/DX2                !
 ! R52   R(25,26)                1.5072         estimate D2E/DX2                !
 ! R53   R(25,27)                1.3444         estimate D2E/DX2                !
 ! R54   R(26,48)                1.0947         estimate D2E/DX2                !
 ! R55   R(26,49)                1.0953         estimate D2E/DX2                !
 ! R56   R(26,50)                1.095          estimate D2E/DX2                !
 ! R57   R(27,51)                1.0864         estimate D2E/DX2                !
 ! R58   R(27,52)                1.0848         estimate D2E/DX2                !
 ! R59   R(28,53)                1.0964         estimate D2E/DX2                !
 ! R60   R(28,54)                1.0948         estimate D2E/DX2                !
 ! R61   R(28,55)                1.0938         estimate D2E/DX2                !
 ! R62   R(29,56)                1.0947         estimate D2E/DX2                !
 ! R63   R(29,57)                1.0965         estimate D2E/DX2                !
 ! R64   R(29,58)                1.0947         estimate D2E/DX2                !
 ! R65   R(32,59)                1.095          estimate D2E/DX2                !
 ! R66   R(32,60)                1.0945         estimate D2E/DX2                !
 ! R67   R(32,61)                1.0947         estimate D2E/DX2                !
 ! R68   R(62,63)                1.094          estimate D2E/DX2                !
 ! R69   R(62,64)                1.0952         estimate D2E/DX2                !
 ! R70   R(62,65)                1.0929         estimate D2E/DX2                !
 ! A1    A(2,1,6)              122.9448         estimate D2E/DX2                !
 ! A2    A(2,1,33)             120.2416         estimate D2E/DX2                !
 ! A3    A(6,1,33)             116.7037         estimate D2E/DX2                !
 ! A4    A(1,2,3)              121.3583         estimate D2E/DX2                !
 ! A5    A(1,2,32)             121.8184         estimate D2E/DX2                !
 ! A6    A(3,2,32)             116.8222         estimate D2E/DX2                !
 ! A7    A(2,3,4)              116.384          estimate D2E/DX2                !
 ! A8    A(2,3,20)             113.0039         estimate D2E/DX2                !
 ! A9    A(2,3,31)             107.0473         estimate D2E/DX2                !
 ! A10   A(4,3,20)             104.7287         estimate D2E/DX2                !
 ! A11   A(4,3,31)             107.6013         estimate D2E/DX2                !
 ! A12   A(20,3,31)            107.6955         estimate D2E/DX2                !
 ! A13   A(3,4,5)              117.8041         estimate D2E/DX2                !
 ! A14   A(3,4,7)              104.2834         estimate D2E/DX2                !
 ! A15   A(3,4,24)             106.2643         estimate D2E/DX2                !
 ! A16   A(5,4,7)              115.1421         estimate D2E/DX2                !
 ! A17   A(5,4,24)             105.6313         estimate D2E/DX2                !
 ! A18   A(7,4,24)             106.9857         estimate D2E/DX2                !
 ! A19   A(4,5,6)              114.747          estimate D2E/DX2                !
 ! A20   A(4,5,10)             112.907          estimate D2E/DX2                !
 ! A21   A(4,5,22)             103.3125         estimate D2E/DX2                !
 ! A22   A(6,5,10)             104.8851         estimate D2E/DX2                !
 ! A23   A(6,5,22)             111.8624         estimate D2E/DX2                !
 ! A24   A(10,5,22)            109.2102         estimate D2E/DX2                !
 ! A25   A(1,6,5)              115.3311         estimate D2E/DX2                !
 ! A26   A(1,6,34)             108.5292         estimate D2E/DX2                !
 ! A27   A(1,6,35)             106.7771         estimate D2E/DX2                !
 ! A28   A(5,6,34)             109.3601         estimate D2E/DX2                !
 ! A29   A(5,6,35)             111.2609         estimate D2E/DX2                !
 ! A30   A(34,6,35)            105.0449         estimate D2E/DX2                !
 ! A31   A(4,7,8)              115.3883         estimate D2E/DX2                !
 ! A32   A(4,7,17)             107.8795         estimate D2E/DX2                !
 ! A33   A(4,7,21)             112.036          estimate D2E/DX2                !
 ! A34   A(8,7,17)             100.2875         estimate D2E/DX2                !
 ! A35   A(8,7,21)             108.689          estimate D2E/DX2                !
 ! A36   A(17,7,21)            112.0349         estimate D2E/DX2                !
 ! A37   A(7,8,9)              122.9054         estimate D2E/DX2                !
 ! A38   A(7,8,19)             113.5353         estimate D2E/DX2                !
 ! A39   A(9,8,19)             123.1767         estimate D2E/DX2                !
 ! A40   A(8,9,10)             116.6964         estimate D2E/DX2                !
 ! A41   A(8,9,11)             121.8381         estimate D2E/DX2                !
 ! A42   A(10,9,11)            121.1888         estimate D2E/DX2                !
 ! A43   A(5,10,9)             117.8554         estimate D2E/DX2                !
 ! A44   A(5,10,16)            122.3838         estimate D2E/DX2                !
 ! A45   A(9,10,16)            119.5488         estimate D2E/DX2                !
 ! A46   A(9,11,12)            118.7739         estimate D2E/DX2                !
 ! A47   A(9,11,13)            118.0881         estimate D2E/DX2                !
 ! A48   A(12,11,13)           123.1106         estimate D2E/DX2                !
 ! A49   A(11,13,14)           111.5236         estimate D2E/DX2                !
 ! A50   A(11,13,15)           109.2624         estimate D2E/DX2                !
 ! A51   A(11,13,36)           107.9579         estimate D2E/DX2                !
 ! A52   A(14,13,15)           113.9328         estimate D2E/DX2                !
 ! A53   A(14,13,36)           106.7617         estimate D2E/DX2                !
 ! A54   A(15,13,36)           107.1149         estimate D2E/DX2                !
 ! A55   A(13,14,37)           109.5385         estimate D2E/DX2                !
 ! A56   A(13,14,38)           108.3993         estimate D2E/DX2                !
 ! A57   A(13,14,62)           115.8768         estimate D2E/DX2                !
 ! A58   A(37,14,38)           106.4314         estimate D2E/DX2                !
 ! A59   A(37,14,62)           108.4017         estimate D2E/DX2                !
 ! A60   A(38,14,62)           107.7811         estimate D2E/DX2                !
 ! A61   A(13,15,39)           111.9711         estimate D2E/DX2                !
 ! A62   A(13,15,40)           110.4058         estimate D2E/DX2                !
 ! A63   A(13,15,41)           110.9312         estimate D2E/DX2                !
 ! A64   A(39,15,40)           106.904          estimate D2E/DX2                !
 ! A65   A(39,15,41)           108.5261         estimate D2E/DX2                !
 ! A66   A(40,15,41)           107.932          estimate D2E/DX2                !
 ! A67   A(7,17,18)            103.2452         estimate D2E/DX2                !
 ! A68   A(7,17,20)            102.4327         estimate D2E/DX2                !
 ! A69   A(7,17,30)            112.7314         estimate D2E/DX2                !
 ! A70   A(18,17,20)           116.369          estimate D2E/DX2                !
 ! A71   A(18,17,30)           111.5903         estimate D2E/DX2                !
 ! A72   A(20,17,30)           109.9944         estimate D2E/DX2                !
 ! A73   A(17,18,19)           106.2168         estimate D2E/DX2                !
 ! A74   A(17,18,28)           112.321          estimate D2E/DX2                !
 ! A75   A(17,18,29)           113.5749         estimate D2E/DX2                !
 ! A76   A(19,18,28)           107.745          estimate D2E/DX2                !
 ! A77   A(19,18,29)           108.1527         estimate D2E/DX2                !
 ! A78   A(28,18,29)           108.5773         estimate D2E/DX2                !
 ! A79   A(8,19,18)            106.4784         estimate D2E/DX2                !
 ! A80   A(3,20,17)            103.1308         estimate D2E/DX2                !
 ! A81   A(3,20,42)            110.4693         estimate D2E/DX2                !
 ! A82   A(3,20,43)            112.0434         estimate D2E/DX2                !
 ! A83   A(17,20,42)           112.2272         estimate D2E/DX2                !
 ! A84   A(17,20,43)           111.2762         estimate D2E/DX2                !
 ! A85   A(42,20,43)           107.7312         estimate D2E/DX2                !
 ! A86   A(7,21,44)            105.7362         estimate D2E/DX2                !
 ! A87   A(5,22,23)            104.8413         estimate D2E/DX2                !
 ! A88   A(5,22,45)            109.8317         estimate D2E/DX2                !
 ! A89   A(5,22,46)            113.9181         estimate D2E/DX2                !
 ! A90   A(23,22,45)           109.631          estimate D2E/DX2                !
 ! A91   A(23,22,46)           111.5188         estimate D2E/DX2                !
 ! A92   A(45,22,46)           107.0831         estimate D2E/DX2                !
 ! A93   A(22,23,24)           102.8788         estimate D2E/DX2                !
 ! A94   A(22,23,25)           118.6071         estimate D2E/DX2                !
 ! A95   A(22,23,47)           109.8933         estimate D2E/DX2                !
 ! A96   A(24,23,25)           108.8825         estimate D2E/DX2                !
 ! A97   A(24,23,47)           108.2651         estimate D2E/DX2                !
 ! A98   A(25,23,47)           107.8696         estimate D2E/DX2                !
 ! A99   A(4,24,23)            106.9971         estimate D2E/DX2                !
 ! A100  A(23,25,26)           115.1093         estimate D2E/DX2                !
 ! A101  A(23,25,27)           124.838          estimate D2E/DX2                !
 ! A102  A(26,25,27)           120.0255         estimate D2E/DX2                !
 ! A103  A(25,26,48)           110.6331         estimate D2E/DX2                !
 ! A104  A(25,26,49)           112.1952         estimate D2E/DX2                !
 ! A105  A(25,26,50)           110.2672         estimate D2E/DX2                !
 ! A106  A(48,26,49)           107.5153         estimate D2E/DX2                !
 ! A107  A(48,26,50)           108.6092         estimate D2E/DX2                !
 ! A108  A(49,26,50)           107.4821         estimate D2E/DX2                !
 ! A109  A(25,27,51)           121.2891         estimate D2E/DX2                !
 ! A110  A(25,27,52)           122.6752         estimate D2E/DX2                !
 ! A111  A(51,27,52)           116.0352         estimate D2E/DX2                !
 ! A112  A(18,28,53)           110.5896         estimate D2E/DX2                !
 ! A113  A(18,28,54)           111.3268         estimate D2E/DX2                !
 ! A114  A(18,28,55)           112.22           estimate D2E/DX2                !
 ! A115  A(53,28,54)           108.3514         estimate D2E/DX2                !
 ! A116  A(53,28,55)           105.6161         estimate D2E/DX2                !
 ! A117  A(54,28,55)           108.503          estimate D2E/DX2                !
 ! A118  A(18,29,56)           111.832          estimate D2E/DX2                !
 ! A119  A(18,29,57)           110.6926         estimate D2E/DX2                !
 ! A120  A(18,29,58)           111.4419         estimate D2E/DX2                !
 ! A121  A(56,29,57)           105.4229         estimate D2E/DX2                !
 ! A122  A(56,29,58)           108.8899         estimate D2E/DX2                !
 ! A123  A(57,29,58)           108.3259         estimate D2E/DX2                !
 ! A124  A(2,32,59)            112.0742         estimate D2E/DX2                !
 ! A125  A(2,32,60)            110.447          estimate D2E/DX2                !
 ! A126  A(2,32,61)            110.2623         estimate D2E/DX2                !
 ! A127  A(59,32,60)           107.6779         estimate D2E/DX2                !
 ! A128  A(59,32,61)           107.6681         estimate D2E/DX2                !
 ! A129  A(60,32,61)           108.5874         estimate D2E/DX2                !
 ! A130  A(14,62,63)           111.5164         estimate D2E/DX2                !
 ! A131  A(14,62,64)           109.743          estimate D2E/DX2                !
 ! A132  A(14,62,65)           111.887          estimate D2E/DX2                !
 ! A133  A(63,62,64)           107.3384         estimate D2E/DX2                !
 ! A134  A(63,62,65)           108.5965         estimate D2E/DX2                !
 ! A135  A(64,62,65)           107.5772         estimate D2E/DX2                !
 ! D1    D(6,1,2,3)              2.3559         estimate D2E/DX2                !
 ! D2    D(6,1,2,32)          -177.2403         estimate D2E/DX2                !
 ! D3    D(33,1,2,3)           178.4153         estimate D2E/DX2                !
 ! D4    D(33,1,2,32)           -1.1809         estimate D2E/DX2                !
 ! D5    D(2,1,6,5)            -31.221          estimate D2E/DX2                !
 ! D6    D(2,1,6,34)          -154.2781         estimate D2E/DX2                !
 ! D7    D(2,1,6,35)            92.9549         estimate D2E/DX2                !
 ! D8    D(33,1,6,5)           152.5895         estimate D2E/DX2                !
 ! D9    D(33,1,6,34)           29.5324         estimate D2E/DX2                !
 ! D10   D(33,1,6,35)          -83.2346         estimate D2E/DX2                !
 ! D11   D(1,2,3,4)             21.4718         estimate D2E/DX2                !
 ! D12   D(1,2,3,20)           -99.7884         estimate D2E/DX2                !
 ! D13   D(1,2,3,31)           141.8146         estimate D2E/DX2                !
 ! D14   D(32,2,3,4)          -158.9127         estimate D2E/DX2                !
 ! D15   D(32,2,3,20)           79.827          estimate D2E/DX2                !
 ! D16   D(32,2,3,31)          -38.5699         estimate D2E/DX2                !
 ! D17   D(1,2,32,59)           -0.2222         estimate D2E/DX2                !
 ! D18   D(1,2,32,60)          119.8384         estimate D2E/DX2                !
 ! D19   D(1,2,32,61)         -120.1444         estimate D2E/DX2                !
 ! D20   D(3,2,32,59)         -179.8358         estimate D2E/DX2                !
 ! D21   D(3,2,32,60)          -59.7752         estimate D2E/DX2                !
 ! D22   D(3,2,32,61)           60.242          estimate D2E/DX2                !
 ! D23   D(2,3,4,5)            -15.5183         estimate D2E/DX2                !
 ! D24   D(2,3,4,7)           -144.5604         estimate D2E/DX2                !
 ! D25   D(2,3,4,24)           102.5912         estimate D2E/DX2                !
 ! D26   D(20,3,4,5)           110.0349         estimate D2E/DX2                !
 ! D27   D(20,3,4,7)           -19.0072         estimate D2E/DX2                !
 ! D28   D(20,3,4,24)         -131.8556         estimate D2E/DX2                !
 ! D29   D(31,3,4,5)          -135.5642         estimate D2E/DX2                !
 ! D30   D(31,3,4,7)            95.3937         estimate D2E/DX2                !
 ! D31   D(31,3,4,24)          -17.4546         estimate D2E/DX2                !
 ! D32   D(2,3,20,17)          165.4315         estimate D2E/DX2                !
 ! D33   D(2,3,20,42)           45.3196         estimate D2E/DX2                !
 ! D34   D(2,3,20,43)          -74.8033         estimate D2E/DX2                !
 ! D35   D(4,3,20,17)           37.7851         estimate D2E/DX2                !
 ! D36   D(4,3,20,42)          -82.3268         estimate D2E/DX2                !
 ! D37   D(4,3,20,43)          157.5503         estimate D2E/DX2                !
 ! D38   D(31,3,20,17)         -76.5496         estimate D2E/DX2                !
 ! D39   D(31,3,20,42)         163.3385         estimate D2E/DX2                !
 ! D40   D(31,3,20,43)          43.2156         estimate D2E/DX2                !
 ! D41   D(3,4,5,6)            -11.4475         estimate D2E/DX2                !
 ! D42   D(3,4,5,10)          -131.57           estimate D2E/DX2                !
 ! D43   D(3,4,5,22)           110.5866         estimate D2E/DX2                !
 ! D44   D(7,4,5,6)            112.3047         estimate D2E/DX2                !
 ! D45   D(7,4,5,10)            -7.8178         estimate D2E/DX2                !
 ! D46   D(7,4,5,22)          -125.6611         estimate D2E/DX2                !
 ! D47   D(24,4,5,6)          -129.8934         estimate D2E/DX2                !
 ! D48   D(24,4,5,10)          109.9842         estimate D2E/DX2                !
 ! D49   D(24,4,5,22)           -7.8592         estimate D2E/DX2                !
 ! D50   D(3,4,7,8)            104.1506         estimate D2E/DX2                !
 ! D51   D(3,4,7,17)            -6.9994         estimate D2E/DX2                !
 ! D52   D(3,4,7,21)          -130.7687         estimate D2E/DX2                !
 ! D53   D(5,4,7,8)            -26.4807         estimate D2E/DX2                !
 ! D54   D(5,4,7,17)          -137.6307         estimate D2E/DX2                !
 ! D55   D(5,4,7,21)            98.6            estimate D2E/DX2                !
 ! D56   D(24,4,7,8)          -143.5188         estimate D2E/DX2                !
 ! D57   D(24,4,7,17)          105.3312         estimate D2E/DX2                !
 ! D58   D(24,4,7,21)          -18.4381         estimate D2E/DX2                !
 ! D59   D(3,4,24,23)          -94.7456         estimate D2E/DX2                !
 ! D60   D(5,4,24,23)           31.1411         estimate D2E/DX2                !
 ! D61   D(7,4,24,23)          154.2867         estimate D2E/DX2                !
 ! D62   D(4,5,6,1)             33.8704         estimate D2E/DX2                !
 ! D63   D(4,5,6,34)           156.4856         estimate D2E/DX2                !
 ! D64   D(4,5,6,35)           -87.9233         estimate D2E/DX2                !
 ! D65   D(10,5,6,1)           158.342          estimate D2E/DX2                !
 ! D66   D(10,5,6,34)          -79.0428         estimate D2E/DX2                !
 ! D67   D(10,5,6,35)           36.5483         estimate D2E/DX2                !
 ! D68   D(22,5,6,1)           -83.3968         estimate D2E/DX2                !
 ! D69   D(22,5,6,34)           39.2184         estimate D2E/DX2                !
 ! D70   D(22,5,6,35)          154.8095         estimate D2E/DX2                !
 ! D71   D(4,5,10,9)            39.9651         estimate D2E/DX2                !
 ! D72   D(4,5,10,16)         -145.3547         estimate D2E/DX2                !
 ! D73   D(6,5,10,9)           -85.6649         estimate D2E/DX2                !
 ! D74   D(6,5,10,16)           89.0154         estimate D2E/DX2                !
 ! D75   D(22,5,10,9)          154.2926         estimate D2E/DX2                !
 ! D76   D(22,5,10,16)         -31.0272         estimate D2E/DX2                !
 ! D77   D(4,5,22,23)          -16.3008         estimate D2E/DX2                !
 ! D78   D(4,5,22,45)          101.4116         estimate D2E/DX2                !
 ! D79   D(4,5,22,46)         -138.4847         estimate D2E/DX2                !
 ! D80   D(6,5,22,23)          107.6476         estimate D2E/DX2                !
 ! D81   D(6,5,22,45)         -134.64           estimate D2E/DX2                !
 ! D82   D(6,5,22,46)          -14.5362         estimate D2E/DX2                !
 ! D83   D(10,5,22,23)        -136.6998         estimate D2E/DX2                !
 ! D84   D(10,5,22,45)         -18.9874         estimate D2E/DX2                !
 ! D85   D(10,5,22,46)         101.1164         estimate D2E/DX2                !
 ! D86   D(4,7,8,9)             34.5638         estimate D2E/DX2                !
 ! D87   D(4,7,8,19)          -138.5349         estimate D2E/DX2                !
 ! D88   D(17,7,8,9)           150.1285         estimate D2E/DX2                !
 ! D89   D(17,7,8,19)          -22.9702         estimate D2E/DX2                !
 ! D90   D(21,7,8,9)           -92.231          estimate D2E/DX2                !
 ! D91   D(21,7,8,19)           94.6703         estimate D2E/DX2                !
 ! D92   D(4,7,17,18)          151.3303         estimate D2E/DX2                !
 ! D93   D(4,7,17,20)           30.0558         estimate D2E/DX2                !
 ! D94   D(4,7,17,30)          -88.1076         estimate D2E/DX2                !
 ! D95   D(8,7,17,18)           30.2377         estimate D2E/DX2                !
 ! D96   D(8,7,17,20)          -91.0368         estimate D2E/DX2                !
 ! D97   D(8,7,17,30)          150.7997         estimate D2E/DX2                !
 ! D98   D(21,7,17,18)         -84.8997         estimate D2E/DX2                !
 ! D99   D(21,7,17,20)         153.8258         estimate D2E/DX2                !
 ! D100  D(21,7,17,30)          35.6623         estimate D2E/DX2                !
 ! D101  D(4,7,21,44)           19.4055         estimate D2E/DX2                !
 ! D102  D(8,7,21,44)          148.1026         estimate D2E/DX2                !
 ! D103  D(17,7,21,44)        -102.0026         estimate D2E/DX2                !
 ! D104  D(7,8,9,10)            -2.8278         estimate D2E/DX2                !
 ! D105  D(7,8,9,11)          -176.8511         estimate D2E/DX2                !
 ! D106  D(19,8,9,10)          169.609          estimate D2E/DX2                !
 ! D107  D(19,8,9,11)           -4.4143         estimate D2E/DX2                !
 ! D108  D(7,8,19,18)            4.6848         estimate D2E/DX2                !
 ! D109  D(9,8,19,18)         -168.3925         estimate D2E/DX2                !
 ! D110  D(8,9,10,5)           -35.9777         estimate D2E/DX2                !
 ! D111  D(8,9,10,16)          149.1859         estimate D2E/DX2                !
 ! D112  D(11,9,10,5)          138.0872         estimate D2E/DX2                !
 ! D113  D(11,9,10,16)         -36.7492         estimate D2E/DX2                !
 ! D114  D(8,9,11,12)          118.5895         estimate D2E/DX2                !
 ! D115  D(8,9,11,13)          -63.254          estimate D2E/DX2                !
 ! D116  D(10,9,11,12)         -55.1677         estimate D2E/DX2                !
 ! D117  D(10,9,11,13)         122.9888         estimate D2E/DX2                !
 ! D118  D(9,11,13,14)         123.2163         estimate D2E/DX2                !
 ! D119  D(9,11,13,15)        -109.9313         estimate D2E/DX2                !
 ! D120  D(9,11,13,36)           6.2343         estimate D2E/DX2                !
 ! D121  D(12,11,13,14)        -58.7129         estimate D2E/DX2                !
 ! D122  D(12,11,13,15)         68.1395         estimate D2E/DX2                !
 ! D123  D(12,11,13,36)       -175.6949         estimate D2E/DX2                !
 ! D124  D(11,13,14,37)        -46.1438         estimate D2E/DX2                !
 ! D125  D(11,13,14,38)       -161.8889         estimate D2E/DX2                !
 ! D126  D(11,13,14,62)         76.8422         estimate D2E/DX2                !
 ! D127  D(15,13,14,37)       -170.4088         estimate D2E/DX2                !
 ! D128  D(15,13,14,38)         73.8461         estimate D2E/DX2                !
 ! D129  D(15,13,14,62)        -47.4228         estimate D2E/DX2                !
 ! D130  D(36,13,14,37)         71.5613         estimate D2E/DX2                !
 ! D131  D(36,13,14,38)        -44.1838         estimate D2E/DX2                !
 ! D132  D(36,13,14,62)       -165.4527         estimate D2E/DX2                !
 ! D133  D(11,13,15,39)        -57.3339         estimate D2E/DX2                !
 ! D134  D(11,13,15,40)         61.6536         estimate D2E/DX2                !
 ! D135  D(11,13,15,41)       -178.7425         estimate D2E/DX2                !
 ! D136  D(14,13,15,39)         68.1376         estimate D2E/DX2                !
 ! D137  D(14,13,15,40)       -172.8749         estimate D2E/DX2                !
 ! D138  D(14,13,15,41)        -53.271          estimate D2E/DX2                !
 ! D139  D(36,13,15,39)       -174.0354         estimate D2E/DX2                !
 ! D140  D(36,13,15,40)        -55.0479         estimate D2E/DX2                !
 ! D141  D(36,13,15,41)         64.556          estimate D2E/DX2                !
 ! D142  D(13,14,62,63)         62.9239         estimate D2E/DX2                !
 ! D143  D(13,14,62,64)       -178.2706         estimate D2E/DX2                !
 ! D144  D(13,14,62,65)        -58.9328         estimate D2E/DX2                !
 ! D145  D(37,14,62,63)       -173.4948         estimate D2E/DX2                !
 ! D146  D(37,14,62,64)        -54.6893         estimate D2E/DX2                !
 ! D147  D(37,14,62,65)         64.6484         estimate D2E/DX2                !
 ! D148  D(38,14,62,63)        -58.6754         estimate D2E/DX2                !
 ! D149  D(38,14,62,64)         60.1301         estimate D2E/DX2                !
 ! D150  D(38,14,62,65)        179.4678         estimate D2E/DX2                !
 ! D151  D(7,17,18,19)         -29.7317         estimate D2E/DX2                !
 ! D152  D(7,17,18,28)          87.8188         estimate D2E/DX2                !
 ! D153  D(7,17,18,29)        -148.4773         estimate D2E/DX2                !
 ! D154  D(20,17,18,19)         81.5865         estimate D2E/DX2                !
 ! D155  D(20,17,18,28)       -160.8631         estimate D2E/DX2                !
 ! D156  D(20,17,18,29)        -37.1591         estimate D2E/DX2                !
 ! D157  D(30,17,18,19)       -151.0688         estimate D2E/DX2                !
 ! D158  D(30,17,18,28)        -33.5183         estimate D2E/DX2                !
 ! D159  D(30,17,18,29)         90.1857         estimate D2E/DX2                !
 ! D160  D(7,17,20,3)          -41.6132         estimate D2E/DX2                !
 ! D161  D(7,17,20,42)          77.2844         estimate D2E/DX2                !
 ! D162  D(7,17,20,43)        -161.9055         estimate D2E/DX2                !
 ! D163  D(18,17,20,3)        -153.4003         estimate D2E/DX2                !
 ! D164  D(18,17,20,42)        -34.5026         estimate D2E/DX2                !
 ! D165  D(18,17,20,43)         86.3074         estimate D2E/DX2                !
 ! D166  D(30,17,20,3)          78.4719         estimate D2E/DX2                !
 ! D167  D(30,17,20,42)       -162.6304         estimate D2E/DX2                !
 ! D168  D(30,17,20,43)        -41.8204         estimate D2E/DX2                !
 ! D169  D(17,18,19,8)          15.8555         estimate D2E/DX2                !
 ! D170  D(28,18,19,8)        -104.6994         estimate D2E/DX2                !
 ! D171  D(29,18,19,8)         138.1109         estimate D2E/DX2                !
 ! D172  D(17,18,28,53)       -177.7772         estimate D2E/DX2                !
 ! D173  D(17,18,28,54)         61.7107         estimate D2E/DX2                !
 ! D174  D(17,18,28,55)        -60.1261         estimate D2E/DX2                !
 ! D175  D(19,18,28,53)        -61.139          estimate D2E/DX2                !
 ! D176  D(19,18,28,54)        178.3489         estimate D2E/DX2                !
 ! D177  D(19,18,28,55)         56.5121         estimate D2E/DX2                !
 ! D178  D(29,18,28,53)         55.7747         estimate D2E/DX2                !
 ! D179  D(29,18,28,54)        -64.7374         estimate D2E/DX2                !
 ! D180  D(29,18,28,55)        173.4258         estimate D2E/DX2                !
 ! D181  D(17,18,29,56)         64.3165         estimate D2E/DX2                !
 ! D182  D(17,18,29,57)       -178.4533         estimate D2E/DX2                !
 ! D183  D(17,18,29,58)        -57.8267         estimate D2E/DX2                !
 ! D184  D(19,18,29,56)        -53.3118         estimate D2E/DX2                !
 ! D185  D(19,18,29,57)         63.9183         estimate D2E/DX2                !
 ! D186  D(19,18,29,58)       -175.4551         estimate D2E/DX2                !
 ! D187  D(28,18,29,56)       -169.9639         estimate D2E/DX2                !
 ! D188  D(28,18,29,57)        -52.7337         estimate D2E/DX2                !
 ! D189  D(28,18,29,58)         67.8929         estimate D2E/DX2                !
 ! D190  D(5,22,23,24)          35.176          estimate D2E/DX2                !
 ! D191  D(5,22,23,25)         155.364          estimate D2E/DX2                !
 ! D192  D(5,22,23,47)         -79.9519         estimate D2E/DX2                !
 ! D193  D(45,22,23,24)        -82.673          estimate D2E/DX2                !
 ! D194  D(45,22,23,25)         37.515          estimate D2E/DX2                !
 ! D195  D(45,22,23,47)        162.1991         estimate D2E/DX2                !
 ! D196  D(46,22,23,24)        158.9094         estimate D2E/DX2                !
 ! D197  D(46,22,23,25)        -80.9027         estimate D2E/DX2                !
 ! D198  D(46,22,23,47)         43.7814         estimate D2E/DX2                !
 ! D199  D(22,23,24,4)         -41.4843         estimate D2E/DX2                !
 ! D200  D(25,23,24,4)        -168.1608         estimate D2E/DX2                !
 ! D201  D(47,23,24,4)          74.8131         estimate D2E/DX2                !
 ! D202  D(22,23,25,26)       -171.7537         estimate D2E/DX2                !
 ! D203  D(22,23,25,27)         10.1477         estimate D2E/DX2                !
 ! D204  D(24,23,25,26)        -54.6977         estimate D2E/DX2                !
 ! D205  D(24,23,25,27)        127.2037         estimate D2E/DX2                !
 ! D206  D(47,23,25,26)         62.58           estimate D2E/DX2                !
 ! D207  D(47,23,25,27)       -115.5186         estimate D2E/DX2                !
 ! D208  D(23,25,26,48)         65.1177         estimate D2E/DX2                !
 ! D209  D(23,25,26,49)       -174.8195         estimate D2E/DX2                !
 ! D210  D(23,25,26,50)        -55.0496         estimate D2E/DX2                !
 ! D211  D(27,25,26,48)       -116.6848         estimate D2E/DX2                !
 ! D212  D(27,25,26,49)          3.378          estimate D2E/DX2                !
 ! D213  D(27,25,26,50)        123.1479         estimate D2E/DX2                !
 ! D214  D(23,25,27,51)        179.2705         estimate D2E/DX2                !
 ! D215  D(23,25,27,52)         -0.4502         estimate D2E/DX2                !
 ! D216  D(26,25,27,51)          1.2591         estimate D2E/DX2                !
 ! D217  D(26,25,27,52)       -178.4616         estimate D2E/DX2                !
 --------------------------------------------------------------------------------
 Trust Radius=3.00D-01 FncErr=1.00D-07 GrdErr=1.00D-06
 Number of steps in this run=    390 maximum allowed number of steps=    390.
 GradGradGradGradGradGradGradGradGradGradGradGradGradGradGradGradGradGrad

 Stoichiometry    C26H34O5
 Framework group  C1[X(C26H34O5)]
 Deg. of freedom   189
 Full point group                 C1      NOp   1
 Largest Abelian subgroup         C1      NOp   1
 Largest concise Abelian subgroup C1      NOp   1
                         Standard orientation:                         
 ---------------------------------------------------------------------
 Center     Atomic      Atomic             Coordinates (Angstroms)
 Number     Number       Type             X           Y           Z
 ---------------------------------------------------------------------
      1          6           0       -1.866573    0.122707    2.884758
      2          6           0       -2.228922    1.246517    2.250810
      3          6           0       -1.805162    1.516898    0.832815
      4          6           0       -1.398023    0.276190   -0.016528
      5          6           0       -1.105650   -1.048555    0.732907
      6          6           0       -0.985362   -0.910922    2.265148
      7          6           0       -0.250443    0.789206   -0.914972
      8          6           0        1.118857    0.362083   -0.509025
      9          6           0        1.375121   -0.829495    0.037732
     10          6           0        0.212318   -1.708732    0.290598
     11          6           0        2.731098   -1.202797    0.494488
     12          8           0        2.904988   -1.461080    1.685344
     13          6           0        3.841774   -1.290272   -0.548259
     14          6           0        5.020614   -0.367827   -0.195668
     15          6           0        4.235862   -2.751598   -0.742599
     16          8           0        0.351821   -2.929774    0.236249
     17          6           0       -0.136964    2.289051   -0.714778
     18          6           0        1.351368    2.570342   -0.991775
     19          8           0        2.067245    1.370189   -0.612146
     20          6           0       -0.605710    2.465224    0.736864
     21          8           0       -0.448065    0.447306   -2.278676
     22          6           0       -2.287471   -1.953734    0.328489
     23          6           0       -3.328654   -1.004503   -0.236657
     24          8           0       -2.531167   -0.009274   -0.893024
     25          6           0       -4.342363   -1.544029   -1.218081
     26          6           0       -5.212192   -0.503726   -1.875953
     27          6           0       -4.526106   -2.846846   -1.494143
     28          6           0        1.628971    2.830066   -2.480632
     29          6           0        1.915214    3.739248   -0.179287
     30          1           0       -0.787895    2.857458   -1.390802
     31          1           0       -2.655550    2.000922    0.328597
     32          6           0       -3.067277    2.298748    2.920336
     33          1           0       -2.161747   -0.042628    3.919093
     34          1           0       -1.199703   -1.879661    2.735580
     35          1           0        0.043833   -0.670443    2.563839
     36          1           0        3.436801   -0.934930   -1.504739
     37          1           0        4.640134    0.619072    0.094219
     38          1           0        5.623219   -0.214839   -1.099934
     39          1           0        4.554551   -3.218256    0.195460
     40          1           0        3.382903   -3.331336   -1.113233
     41          1           0        5.048154   -2.844104   -1.470657
     42          1           0        0.168016    2.179650    1.460384
     43          1           0       -0.885849    3.504286    0.940733
     44          1           0       -1.404438    0.246216   -2.366721
     45          1           0       -1.968221   -2.656580   -0.450496
     46          1           0       -2.692737   -2.549769    1.153125
     47          1           0       -3.876740   -0.521084    0.582013
     48          1           0       -4.611676    0.156179   -2.510180
     49          1           0       -5.987462   -0.951517   -2.506957
     50          1           0       -5.716066    0.104254   -1.117331
     51          1           0       -5.281924   -3.172161   -2.203490
     52          1           0       -3.941616   -3.632491   -1.027407
     53          1           0        2.700511    2.987701   -2.651298
     54          1           0        1.089438    3.713053   -2.838134
     55          1           0        1.353258    1.977309   -3.107713
     56          1           0        1.905522    3.530290    0.895288
     57          1           0        2.967380    3.915312   -0.432629
     58          1           0        1.357131    4.662338   -0.365883
     59          1           0       -3.328494    2.024577    3.947812
     60          1           0       -2.528419    3.250755    2.957130
     61          1           0       -4.000975    2.447385    2.368530
     62          6           0        5.949704   -0.866933    0.903602
     63          1           0        6.448378   -1.797124    0.615821
     64          1           0        6.730797   -0.123191    1.093809
     65          1           0        5.416719   -1.033433    1.843058
 ---------------------------------------------------------------------
 Rotational constants (GHZ):      0.2253097      0.1181354      0.1045128
 Standard basis: 6-31G(d) (6D, 7F)
 There are   533 symmetry adapted basis functions of A   symmetry.
 Integral buffers will be    131072 words long.
 Raffenetti 2 integral format.
 Two-electron integral symmetry is turned on.
   533 basis functions,  1004 primitive gaussians,   533 cartesian basis functions
   115 alpha electrons      115 beta electrons
       nuclear repulsion energy      3495.8509326654 Hartrees.
 NAtoms=   65 NActive=   65 NUniq=   65 SFac= 1.00D+00 NAtFMM=   50 NAOKFM=T Big=T
 One-electron integrals computed using PRISM.
 NBasis=   533 RedAO= T  NBF=   533
 NBsUse=   533 1.00D-06 NBFU=   533
 Harris functional with IExCor=  402 diagonalized for initial guess.
 ExpMin= 1.61D-01 ExpMax= 5.48D+03 ExpMxC= 8.25D+02 IAcc=1 IRadAn=         1 AccDes= 0.00D+00
 HarFok:  IExCor=  402 AccDes= 0.00D+00 IRadAn=         1 IDoV= 1
 ScaDFX=  1.000000  1.000000  1.000000  1.000000
 FoFCou: FMM=F IPFlag=           0 FMFlag=      100000 FMFlg1=        2001
         NFxFlg=           0 DoJE=T BraDBF=F KetDBF=T FulRan=T
         Omega=  0.000000  0.000000  1.000000  0.000000  0.000000 ICntrl=     500 IOpCl=  0
         NMat0=    1 NMatS0=    1 NMatT0=    0 NMatD0=    1 NMtDS0=    0 NMtDT0=    0
         I1Cent=           4 NGrid=           0.
 Petite list used in FoFCou.
 Initial guess orbital symmetries:
       Occupied  (A) (A) (A) (A) (A) (A) (A) (A) (A) (A) (A) (A)
                 (A) (A) (A) (A) (A) (A) (A) (A) (A) (A) (A) (A)
                 (A) (A) (A) (A) (A) (A) (A) (A) (A) (A) (A) (A)
                 (A) (A) (A) (A) (A) (A) (A) (A) (A) (A) (A) (A)
                 (A) (A) (A) (A) (A) (A) (A) (A) (A) (A) (A) (A)
                 (A) (A) (A) (A) (A) (A) (A) (A) (A) (A) (A) (A)
                 (A) (A) (A) (A) (A) (A) (A) (A) (A) (A) (A) (A)
                 (A) (A) (A) (A) (A) (A) (A) (A) (A) (A) (A) (A)
                 (A) (A) (A) (A) (A) (A) (A) (A) (A) (A) (A) (A)
                 (A) (A) (A) (A) (A) (A) (A)
       Virtual   (A) (A) (A) (A) (A) (A) (A) (A) (A) (A) (A) (A)
                 (A) (A) (A) (A) (A) (A) (A) (A) (A) (A) (A) (A)
                 (A) (A) (A) (A) (A) (A) (A) (A) (A) (A) (A) (A)
                 (A) (A) (A) (A) (A) (A) (A) (A) (A) (A) (A) (A)
                 (A) (A) (A) (A) (A) (A) (A) (A) (A) (A) (A) (A)
                 (A) (A) (A) (A) (A) (A) (A) (A) (A) (A) (A) (A)
                 (A) (A) (A) (A) (A) (A) (A) (A) (A) (A) (A) (A)
                 (A) (A) (A) (A) (A) (A) (A) (A) (A) (A) (A) (A)
                 (A) (A) (A) (A) (A) (A) (A) (A) (A) (A) (A) (A)
                 (A) (A) (A) (A) (A) (A) (A) (A) (A) (A) (A) (A)
                 (A) (A) (A) (A) (A) (A) (A) (A) (A) (A) (A) (A)
                 (A) (A) (A) (A) (A) (A) (A) (A) (A) (A) (A) (A)
                 (A) (A) (A) (A) (A) (A) (A) (A) (A) (A) (A) (A)
                 (A) (A) (A) (A) (A) (A) (A) (A) (A) (A) (A) (A)
                 (A) (A) (A) (A) (A) (A) (A) (A) (A) (A) (A) (A)
                 (A) (A) (A) (A) (A) (A) (A) (A) (A) (A) (A) (A)
                 (A) (A) (A) (A) (A) (A) (A) (A) (A) (A) (A) (A)
                 (A) (A) (A) (A) (A) (A) (A) (A) (A) (A) (A) (A)
                 (A) (A) (A) (A) (A) (A) (A) (A) (A) (A) (A) (A)
                 (A) (A) (A) (A) (A) (A) (A) (A) (A) (A) (A) (A)
                 (A) (A) (A) (A) (A) (A) (A) (A) (A) (A) (A) (A)
                 (A) (A) (A) (A) (A) (A) (A) (A) (A) (A) (A) (A)
                 (A) (A) (A) (A) (A) (A) (A) (A) (A) (A) (A) (A)
                 (A) (A) (A) (A) (A) (A) (A) (A) (A) (A) (A) (A)
                 (A) (A) (A) (A) (A) (A) (A) (A) (A) (A) (A) (A)
                 (A) (A) (A) (A) (A) (A) (A) (A) (A) (A) (A) (A)
                 (A) (A) (A) (A) (A) (A) (A) (A) (A) (A) (A) (A)
                 (A) (A) (A) (A) (A) (A) (A) (A) (A) (A) (A) (A)
                 (A) (A) (A) (A) (A) (A) (A) (A) (A) (A) (A) (A)
                 (A) (A) (A) (A) (A) (A) (A) (A) (A) (A) (A) (A)
                 (A) (A) (A) (A) (A) (A) (A) (A) (A) (A) (A) (A)
                 (A) (A) (A) (A) (A) (A) (A) (A) (A) (A) (A) (A)
                 (A) (A) (A) (A) (A) (A) (A) (A) (A) (A) (A) (A)
                 (A) (A) (A) (A) (A) (A) (A) (A) (A) (A) (A) (A)
                 (A) (A) (A) (A) (A) (A) (A) (A) (A) (A)
 The electronic state of the initial guess is 1-A.
 Requested convergence on RMS density matrix=1.00D-08 within 128 cycles.
 Requested convergence on MAX density matrix=1.00D-06.
 Requested convergence on             energy=1.00D-06.
 No special actions if energy rises.
 Integral accuracy reduced to 1.0D-05 until final iterations.
 Initial convergence to 1.0D-05 achieved.  Increase integral accuracy.
 SCF Done:  E(RB3LYP) =  -1387.30043004     A.U. after   16 cycles
             Convg  =    0.3964D-08             -V/T =  2.0091

 **********************************************************************

            Population analysis using the SCF density.

 **********************************************************************

 Orbital symmetries:
       Occupied  (A) (A) (A) (A) (A) (A) (A) (A) (A) (A) (A) (A)
                 (A) (A) (A) (A) (A) (A) (A) (A) (A) (A) (A) (A)
                 (A) (A) (A) (A) (A) (A) (A) (A) (A) (A) (A) (A)
                 (A) (A) (A) (A) (A) (A) (A) (A) (A) (A) (A) (A)
                 (A) (A) (A) (A) (A) (A) (A) (A) (A) (A) (A) (A)
                 (A) (A) (A) (A) (A) (A) (A) (A) (A) (A) (A) (A)
                 (A) (A) (A) (A) (A) (A) (A) (A) (A) (A) (A) (A)
                 (A) (A) (A) (A) (A) (A) (A) (A) (A) (A) (A) (A)
                 (A) (A) (A) (A) (A) (A) (A) (A) (A) (A) (A) (A)
                 (A) (A) (A) (A) (A) (A) (A)
       Virtual   (A) (A) (A) (A) (A) (A) (A) (A) (A) (A) (A) (A)
                 (A) (A) (A) (A) (A) (A) (A) (A) (A) (A) (A) (A)
                 (A) (A) (A) (A) (A) (A) (A) (A) (A) (A) (A) (A)
                 (A) (A) (A) (A) (A) (A) (A) (A) (A) (A) (A) (A)
                 (A) (A) (A) (A) (A) (A) (A) (A) (A) (A) (A) (A)
                 (A) (A) (A) (A) (A) (A) (A) (A) (A) (A) (A) (A)
                 (A) (A) (A) (A) (A) (A) (A) (A) (A) (A) (A) (A)
                 (A) (A) (A) (A) (A) (A) (A) (A) (A) (A) (A) (A)
                 (A) (A) (A) (A) (A) (A) (A) (A) (A) (A) (A) (A)
                 (A) (A) (A) (A) (A) (A) (A) (A) (A) (A) (A) (A)
                 (A) (A) (A) (A) (A) (A) (A) (A) (A) (A) (A) (A)
                 (A) (A) (A) (A) (A) (A) (A) (A) (A) (A) (A) (A)
                 (A) (A) (A) (A) (A) (A) (A) (A) (A) (A) (A) (A)
                 (A) (A) (A) (A) (A) (A) (A) (A) (A) (A) (A) (A)
                 (A) (A) (A) (A) (A) (A) (A) (A) (A) (A) (A) (A)
                 (A) (A) (A) (A) (A) (A) (A) (A) (A) (A) (A) (A)
                 (A) (A) (A) (A) (A) (A) (A) (A) (A) (A) (A) (A)
                 (A) (A) (A) (A) (A) (A) (A) (A) (A) (A) (A) (A)
                 (A) (A) (A) (A) (A) (A) (A) (A) (A) (A) (A) (A)
                 (A) (A) (A) (A) (A) (A) (A) (A) (A) (A) (A) (A)
                 (A) (A) (A) (A) (A) (A) (A) (A) (A) (A) (A) (A)
                 (A) (A) (A) (A) (A) (A) (A) (A) (A) (A) (A) (A)
                 (A) (A) (A) (A) (A) (A) (A) (A) (A) (A) (A) (A)
                 (A) (A) (A) (A) (A) (A) (A) (A) (A) (A) (A) (A)
                 (A) (A) (A) (A) (A) (A) (A) (A) (A) (A) (A) (A)
                 (A) (A) (A) (A) (A) (A) (A) (A) (A) (A) (A) (A)
                 (A) (A) (A) (A) (A) (A) (A) (A) (A) (A) (A) (A)
                 (A) (A) (A) (A) (A) (A) (A) (A) (A) (A) (A) (A)
                 (A) (A) (A) (A) (A) (A) (A) (A) (A) (A) (A) (A)
                 (A) (A) (A) (A) (A) (A) (A) (A) (A) (A) (A) (A)
                 (A) (A) (A) (A) (A) (A) (A) (A) (A) (A) (A) (A)
                 (A) (A) (A) (A) (A) (A) (A) (A) (A) (A) (A) (A)
                 (A) (A) (A) (A) (A) (A) (A) (A) (A) (A) (A) (A)
                 (A) (A) (A) (A) (A) (A) (A) (A) (A) (A) (A) (A)
                 (A) (A) (A) (A) (A) (A) (A) (A) (A) (A)
 The electronic state is 1-A.
 Alpha  occ. eigenvalues --  -19.19769 -19.16978 -19.14694 -19.13458 -19.13273
 Alpha  occ. eigenvalues --  -10.27574 -10.26889 -10.26629 -10.26338 -10.26146
 Alpha  occ. eigenvalues --  -10.25730 -10.24699 -10.21702 -10.20414 -10.20336
 Alpha  occ. eigenvalues --  -10.20055 -10.19926 -10.19642 -10.19579 -10.19142
 Alpha  occ. eigenvalues --  -10.18910 -10.18820 -10.18677 -10.18660 -10.18461
 Alpha  occ. eigenvalues --  -10.18440 -10.18350 -10.17851 -10.17268 -10.16804
 Alpha  occ. eigenvalues --  -10.15573  -1.08665  -1.06293  -1.03296  -1.02267
 Alpha  occ. eigenvalues --   -1.01982  -0.87643  -0.84046  -0.82643  -0.81560
 Alpha  occ. eigenvalues --   -0.80436  -0.79775  -0.77139  -0.74311  -0.73603
 Alpha  occ. eigenvalues --   -0.72565  -0.71538  -0.69788  -0.69053  -0.68237
 Alpha  occ. eigenvalues --   -0.65626  -0.64171  -0.63713  -0.62263  -0.61179
 Alpha  occ. eigenvalues --   -0.59320  -0.58617  -0.57184  -0.55084  -0.53505
 Alpha  occ. eigenvalues --   -0.52963  -0.51771  -0.50944  -0.50424  -0.49473
 Alpha  occ. eigenvalues --   -0.48381  -0.47834  -0.46697  -0.46492  -0.45791
 Alpha  occ. eigenvalues --   -0.45147  -0.44797  -0.44279  -0.44080  -0.43328
 Alpha  occ. eigenvalues --   -0.42890  -0.42533  -0.42463  -0.42079  -0.41577
 Alpha  occ. eigenvalues --   -0.41125  -0.40676  -0.40324  -0.39786  -0.39755
 Alpha  occ. eigenvalues --   -0.39218  -0.38804  -0.38656  -0.38564  -0.38042
 Alpha  occ. eigenvalues --   -0.37732  -0.37037  -0.36955  -0.36733  -0.36514
 Alpha  occ. eigenvalues --   -0.35964  -0.35520  -0.35292  -0.34798  -0.33988
 Alpha  occ. eigenvalues --   -0.33925  -0.33070  -0.33007  -0.32731  -0.32376
 Alpha  occ. eigenvalues --   -0.31828  -0.31498  -0.31249  -0.27911  -0.27061
 Alpha  occ. eigenvalues --   -0.25719  -0.24855  -0.24230  -0.23634  -0.23208
 Alpha virt. eigenvalues --   -0.04796  -0.02334   0.00811   0.01594   0.03948
 Alpha virt. eigenvalues --    0.06640   0.08110   0.08902   0.09455   0.10107
 Alpha virt. eigenvalues --    0.10336   0.11298   0.11560   0.11968   0.12329
 Alpha virt. eigenvalues --    0.12888   0.13015   0.13477   0.13697   0.14044
 Alpha virt. eigenvalues --    0.14286   0.14603   0.15342   0.15506   0.15852
 Alpha virt. eigenvalues --    0.15935   0.16220   0.16671   0.16888   0.17564
 Alpha virt. eigenvalues --    0.17756   0.17957   0.18502   0.18765   0.18928
 Alpha virt. eigenvalues --    0.19090   0.19464   0.19842   0.20142   0.20255
 Alpha virt. eigenvalues --    0.20777   0.21187   0.21228   0.21675   0.22006
 Alpha virt. eigenvalues --    0.22050   0.23078   0.23796   0.23997   0.24555
 Alpha virt. eigenvalues --    0.24654   0.25321   0.25725   0.26357   0.27005
 Alpha virt. eigenvalues --    0.27517   0.27692   0.28424   0.29363   0.30422
 Alpha virt. eigenvalues --    0.30933   0.31407   0.32334   0.33864   0.34273
 Alpha virt. eigenvalues --    0.34916   0.35679   0.37466   0.38443   0.40361
 Alpha virt. eigenvalues --    0.41901   0.44754   0.45988   0.47976   0.48527
 Alpha virt. eigenvalues --    0.49781   0.50683   0.51443   0.51721   0.51901
 Alpha virt. eigenvalues --    0.52096   0.52635   0.52870   0.53224   0.53834
 Alpha virt. eigenvalues --    0.54191   0.54696   0.55020   0.55495   0.56465
 Alpha virt. eigenvalues --    0.56802   0.57159   0.57614   0.57998   0.58787
 Alpha virt. eigenvalues --    0.59398   0.59557   0.60777   0.61150   0.61287
 Alpha virt. eigenvalues --    0.62130   0.62723   0.63134   0.64017   0.64553
 Alpha virt. eigenvalues --    0.65269   0.65941   0.66370   0.66638   0.67008
 Alpha virt. eigenvalues --    0.67475   0.67950   0.68622   0.68975   0.69380
 Alpha virt. eigenvalues --    0.69713   0.70483   0.71600   0.72351   0.72488
 Alpha virt. eigenvalues --    0.73598   0.74450   0.75182   0.75866   0.76461
 Alpha virt. eigenvalues --    0.76903   0.77790   0.77918   0.78725   0.79311
 Alpha virt. eigenvalues --    0.79739   0.80198   0.81061   0.81498   0.82713
 Alpha virt. eigenvalues --    0.82992   0.83460   0.83693   0.84101   0.84589
 Alpha virt. eigenvalues --    0.85193   0.85485   0.86094   0.86370   0.87090
 Alpha virt. eigenvalues --    0.87306   0.88103   0.88291   0.88738   0.89390
 Alpha virt. eigenvalues --    0.89711   0.89818   0.90065   0.90302   0.90579
 Alpha virt. eigenvalues --    0.90743   0.91161   0.91447   0.91773   0.92154
 Alpha virt. eigenvalues --    0.92652   0.93154   0.93411   0.93869   0.94591
 Alpha virt. eigenvalues --    0.94889   0.95526   0.96010   0.96314   0.96983
 Alpha virt. eigenvalues --    0.97117   0.98151   0.98527   0.99130   0.99562
 Alpha virt. eigenvalues --    1.00563   1.00924   1.02135   1.02796   1.02906
 Alpha virt. eigenvalues --    1.03798   1.04622   1.06268   1.06595   1.07126
 Alpha virt. eigenvalues --    1.08353   1.09186   1.09910   1.11986   1.12456
 Alpha virt. eigenvalues --    1.13909   1.14351   1.15813   1.16163   1.16397
 Alpha virt. eigenvalues --    1.16683   1.17822   1.19031   1.19783   1.20422
 Alpha virt. eigenvalues --    1.21505   1.23091   1.23808   1.25528   1.26514
 Alpha virt. eigenvalues --    1.27925   1.28883   1.30750   1.31492   1.32965
 Alpha virt. eigenvalues --    1.33792   1.34977   1.37597   1.39606   1.39764
 Alpha virt. eigenvalues --    1.40910   1.41773   1.42857   1.45088   1.46381
 Alpha virt. eigenvalues --    1.48083   1.49439   1.50355   1.50965   1.51970
 Alpha virt. eigenvalues --    1.53265   1.54893   1.55564   1.57050   1.58545
 Alpha virt. eigenvalues --    1.59800   1.61540   1.62340   1.62794   1.64442
 Alpha virt. eigenvalues --    1.65385   1.65720   1.67091   1.68770   1.69765
 Alpha virt. eigenvalues --    1.70564   1.71282   1.72253   1.72929   1.74341
 Alpha virt. eigenvalues --    1.75252   1.76211   1.76381   1.77743   1.78144
 Alpha virt. eigenvalues --    1.79824   1.80010   1.80427   1.80753   1.81586
 Alpha virt. eigenvalues --    1.82346   1.83039   1.84232   1.84758   1.85704
 Alpha virt. eigenvalues --    1.86363   1.87051   1.87743   1.88044   1.88328
 Alpha virt. eigenvalues --    1.89029   1.89649   1.90290   1.90846   1.91798
 Alpha virt. eigenvalues --    1.92471   1.93798   1.93990   1.95798   1.96161
 Alpha virt. eigenvalues --    1.96198   1.96962   1.97176   1.98326   1.98861
 Alpha virt. eigenvalues --    1.99315   1.99584   2.00104   2.00502   2.00663
 Alpha virt. eigenvalues --    2.02183   2.03384   2.03794   2.04620   2.06066
 Alpha virt. eigenvalues --    2.07480   2.07716   2.08717   2.09836   2.10055
 Alpha virt. eigenvalues --    2.10723   2.11803   2.12068   2.12774   2.14040
 Alpha virt. eigenvalues --    2.14863   2.15165   2.16247   2.16729   2.17719
 Alpha virt. eigenvalues --    2.18537   2.18938   2.19609   2.21547   2.22736
 Alpha virt. eigenvalues --    2.23463   2.24465   2.25580   2.26040   2.27485
 Alpha virt. eigenvalues --    2.28262   2.28517   2.29824   2.30873   2.31997
 Alpha virt. eigenvalues --    2.32811   2.33233   2.33611   2.33901   2.34962
 Alpha virt. eigenvalues --    2.36142   2.36288   2.38093   2.38674   2.39195
 Alpha virt. eigenvalues --    2.41396   2.41828   2.42903   2.43603   2.45118
 Alpha virt. eigenvalues --    2.46310   2.46596   2.47154   2.47781   2.48819
 Alpha virt. eigenvalues --    2.49721   2.50888   2.51895   2.53151   2.54204
 Alpha virt. eigenvalues --    2.56552   2.57408   2.58372   2.60197   2.61481
 Alpha virt. eigenvalues --    2.62290   2.63608   2.64008   2.65901   2.66674
 Alpha virt. eigenvalues --    2.66921   2.68352   2.69787   2.70403   2.71082
 Alpha virt. eigenvalues --    2.72333   2.73966   2.74890   2.76733   2.78115
 Alpha virt. eigenvalues --    2.78774   2.79387   2.81141   2.81634   2.87082
 Alpha virt. eigenvalues --    2.89200   2.91023   2.92202   2.93163   2.95511
 Alpha virt. eigenvalues --    2.97142   2.99895   3.00115   3.00968   3.03021
 Alpha virt. eigenvalues --    3.04420   3.07759   3.12263   3.16425   3.22888
 Alpha virt. eigenvalues --    3.23948   3.28163   3.99732   4.10311   4.13026
 Alpha virt. eigenvalues --    4.14443   4.15949   4.17639   4.19062   4.20128
 Alpha virt. eigenvalues --    4.22105   4.22928   4.25528   4.26815   4.29512
 Alpha virt. eigenvalues --    4.31904   4.33394   4.36564   4.39252   4.42374
 Alpha virt. eigenvalues --    4.44942   4.48215   4.51623   4.57003   4.62016
 Alpha virt. eigenvalues --    4.65575   4.66059   4.69633   4.72808   4.77572
 Alpha virt. eigenvalues --    4.88360   4.95154   5.26158
          Condensed to atoms (all electrons):
 Mulliken atomic charges:
              1
     1  C   -0.195106
     2  C    0.194127
     3  C   -0.191145
     4  C    0.316990
     5  C   -0.034094
     6  C   -0.330587
     7  C    0.203942
     8  C    0.407549
     9  C   -0.095979
    10  C    0.400556
    11  C    0.423074
    12  O   -0.466640
    13  C   -0.139917
    14  C   -0.259558
    15  C   -0.458808
    16  O   -0.480654
    17  C   -0.153189
    18  C    0.306179
    19  O   -0.538155
    20  C   -0.307166
    21  O   -0.672029
    22  C   -0.312400
    23  C    0.098757
    24  O   -0.584555
    25  C    0.188534
    26  C   -0.504604
    27  C   -0.394997
    28  C   -0.460038
    29  C   -0.464335
    30  H    0.146286
    31  H    0.149138
    32  C   -0.519236
    33  H    0.126101
    34  H    0.164200
    35  H    0.182686
    36  H    0.139561
    37  H    0.145374
    38  H    0.129162
    39  H    0.169291
    40  H    0.162754
    41  H    0.144087
    42  H    0.163181
    43  H    0.149329
    44  H    0.419116
    45  H    0.177848
    46  H    0.151414
    47  H    0.136780
    48  H    0.166349
    49  H    0.153243
    50  H    0.149911
    51  H    0.141088
    52  H    0.149737
    53  H    0.149575
    54  H    0.141143
    55  H    0.185049
    56  H    0.158472
    57  H    0.158260
    58  H    0.150486
    59  H    0.158425
    60  H    0.156406
    61  H    0.153118
    62  C   -0.450814
    63  H    0.140273
    64  H    0.131537
    65  H    0.174920
 Sum of Mulliken atomic charges =   0.00000
 Mulliken charges with hydrogens summed into heavy atoms:
              1
     1  C   -0.069005
     2  C    0.194127
     3  C   -0.042007
     4  C    0.316990
     5  C   -0.034094
     6  C    0.016299
     7  C    0.203942
     8  C    0.407549
     9  C   -0.095979
    10  C    0.400556
    11  C    0.423074
    12  O   -0.466640
    13  C   -0.000356
    14  C    0.014978
    15  C    0.017323
    16  O   -0.480654
    17  C   -0.006903
    18  C    0.306179
    19  O   -0.538155
    20  C    0.005344
    21  O   -0.252914
    22  C    0.016862
    23  C    0.235537
    24  O   -0.584555
    25  C    0.188534
    26  C   -0.035102
    27  C   -0.104172
    28  C    0.015728
    29  C    0.002883
    32  C   -0.051286
    62  C   -0.004084
 Sum of Mulliken charges with hydrogens summed into heavy atoms =   0.00000
 Electronic spatial extent (au):  <R**2>=          11973.9900
 Charge=              0.0000 electrons
 Dipole moment (field-independent basis, Debye):
    X=             -3.5576    Y=              4.6617    Z=             -0.4763  Tot=              5.8834
 Quadrupole moment (field-independent basis, Debye-Ang):
   XX=           -178.6330   YY=           -182.9648   ZZ=           -186.2324
   XY=              4.7825   XZ=             -7.5990   YZ=              2.8896
 Traceless Quadrupole moment (field-independent basis, Debye-Ang):
   XX=              3.9771   YY=             -0.3547   ZZ=             -3.6223
   XY=              4.7825   XZ=             -7.5990   YZ=              2.8896
 Octapole moment (field-independent basis, Debye-Ang**2):
  XXX=            -24.3488  YYY=             51.0543  ZZZ=              1.5654  XYY=             -8.7838
  XXY=             -3.3097  XXZ=            -40.0441  XZZ=            -24.9275  YZZ=              2.1838
  YYZ=            -15.5931  XYZ=              5.1287
 Hexadecapole moment (field-independent basis, Debye-Ang**3):
 XXXX=          -9560.0863 YYYY=          -3996.1676 ZZZZ=          -2452.4056 XXXY=             13.5985
 XXXZ=             13.9082 YYYX=             44.1188 YYYZ=            -18.4862 ZZZX=            -16.3191
 ZZZY=            -18.0875 XXYY=          -2222.5705 XXZZ=          -1993.7062 YYZZ=          -1070.8058
 XXYZ=             73.3219 YYXZ=             -5.7769 ZZXY=             31.3460
 N-N= 3.495850932665D+03 E-N=-1.021799974504D+04  KE= 1.374838815914D+03
 Calling FoFJK, ICntrl=      2127 FMM=T ISym2X=0 I1Cent= 0 IOpClX= 0 NMat=1 NMatS=1 NMatT=0.
 ***** Axes restored to original set *****
 -------------------------------------------------------------------
 Center     Atomic                   Forces (Hartrees/Bohr)
 Number     Number              X              Y              Z
 -------------------------------------------------------------------
      1        6           0.009702744    0.000095019    0.000803609
      2        6          -0.009828847   -0.006496620    0.003578639
      3        6          -0.006482116   -0.009796380   -0.003114807
      4        6           0.010465457   -0.007855769    0.012751283
      5        6          -0.008003570    0.005703681    0.006722450
      6        6          -0.008571298   -0.008531209   -0.005959843
      7        6           0.021157134    0.013686451    0.010702752
      8        6          -0.003891943   -0.002611458   -0.023863320
      9        6           0.005005397   -0.003220783    0.004890114
     10        6          -0.019584309    0.015821834   -0.001525140
     11        6          -0.020327847   -0.006078001   -0.006511062
     12        8           0.007683512    0.010730715    0.003189769
     13        6           0.007957588   -0.000982698   -0.000709026
     14        6          -0.000113471   -0.000116014   -0.007941989
     15        6          -0.008347789    0.001687195    0.005136289
     16        8           0.011211924   -0.011273109   -0.000080759
     17        6           0.003607729   -0.006620751   -0.011702803
     18        6           0.030926293    0.004700217   -0.012569108
     19        8          -0.012617063   -0.007658400    0.033004726
     20        6           0.009717485   -0.001418558   -0.005558022
     21        8          -0.003853576    0.004870643    0.005189321
     22        6          -0.005668361    0.000090982    0.011408043
     23        6          -0.004754242    0.003455962    0.007587341
     24        8           0.000732529    0.002879395   -0.012049767
     25        6          -0.002505356    0.006534808    0.013175867
     26        6           0.001155872    0.001456408    0.001145172
     27        6           0.001262435   -0.004234856   -0.010620948
     28        6          -0.002006176    0.008510916    0.001491143
     29        6          -0.008187295   -0.000684176   -0.007771315
     30        1          -0.003013868    0.001805298   -0.000011922
     31        1          -0.001728331    0.005954890    0.000576673
     32        6          -0.002437565   -0.000209287   -0.000072134
     33        1           0.000645305   -0.000719348    0.000022546
     34        1           0.000440820    0.005192436   -0.000565468
     35        1          -0.001590317    0.005176373   -0.001288409
     36        1           0.000006175   -0.002651866    0.000533190
     37        1           0.001817439    0.001129511    0.002336322
     38        1           0.001758130    0.001097970    0.002137986
     39        1           0.001300758   -0.000044999   -0.001044304
     40        1           0.000065186    0.000267435    0.000246650
     41        1           0.000626243    0.000777316   -0.000766089
     42        1           0.000363291    0.000967128    0.000800994
     43        1          -0.002045595   -0.001501611   -0.001467957
     44        1          -0.002996676    0.000725827   -0.003824471
     45        1           0.000168428   -0.002041406   -0.001848373
     46        1          -0.000099975    0.000553496   -0.003119575
     47        1           0.001354857   -0.003340017   -0.000620409
     48        1           0.002346378   -0.002365007   -0.001763586
     49        1          -0.002079890    0.000238475   -0.000617672
     50        1           0.003376497   -0.001229153   -0.001943185
     51        1           0.000623458   -0.001309830    0.000107158
     52        1          -0.000889472    0.000832084   -0.000778812
     53        1           0.000610706   -0.003350322   -0.002146676
     54        1           0.000133766   -0.000805376   -0.000324259
     55        1           0.000218140   -0.004537564    0.003527110
     56        1           0.001207338   -0.001813563    0.002780484
     57        1           0.001921364    0.001607740    0.001806488
     58        1          -0.000180018    0.000787529    0.001308665
     59        1          -0.000674455    0.000903819   -0.000297130
     60        1           0.004044235   -0.001666414   -0.000060293
     61        1           0.004308587   -0.001216701    0.000173589
     62        6          -0.003090530   -0.002428155   -0.004649898
     63        1          -0.001569756   -0.000189784   -0.000083270
     64        1          -0.000022608    0.000580252   -0.001373468
     65        1          -0.000760882    0.000177380    0.001510896
 -------------------------------------------------------------------
 Cartesian Forces:  Max     0.033004726 RMS     0.006587374

 GradGradGradGradGradGradGradGradGradGradGradGradGradGradGradGradGradGrad
 Berny optimization.
 Internal  Forces:  Max     0.017895642 RMS     0.003335243
 Search for a local minimum.
 Step number   1 out of a maximum of  390
 All quantities printed in internal units (Hartrees-Bohrs-Radians)
 Mixed Optimization -- RFO/linear search
 Second derivative matrix not updated -- first step.
 ITU=  0
     Eigenvalues ---    0.00266   0.00281   0.00354   0.00422   0.00423
     Eigenvalues ---    0.00457   0.00475   0.00561   0.00586   0.00626
     Eigenvalues ---    0.00662   0.00671   0.00729   0.00733   0.00890
     Eigenvalues ---    0.01047   0.01168   0.01253   0.01304   0.01455
     Eigenvalues ---    0.01524   0.01713   0.01738   0.01833   0.02089
     Eigenvalues ---    0.02622   0.02825   0.02825   0.03103   0.03203
     Eigenvalues ---    0.03243   0.03618   0.03703   0.03788   0.04073
     Eigenvalues ---    0.04247   0.04300   0.04376   0.04492   0.04659
     Eigenvalues ---    0.04727   0.04768   0.04974   0.05145   0.05284
     Eigenvalues ---    0.05318   0.05337   0.05407   0.05429   0.05448
     Eigenvalues ---    0.05463   0.05504   0.05569   0.05634   0.05641
     Eigenvalues ---    0.05715   0.05862   0.05931   0.05941   0.06145
     Eigenvalues ---    0.06552   0.06791   0.07094   0.07104   0.07147
     Eigenvalues ---    0.07179   0.07255   0.07310   0.07421   0.08039
     Eigenvalues ---    0.08339   0.08865   0.08949   0.09425   0.09441
     Eigenvalues ---    0.09985   0.10243   0.11427   0.11915   0.12560
     Eigenvalues ---    0.12582   0.13296   0.14558   0.15400   0.15899
     Eigenvalues ---    0.15967   0.16000   0.16000   0.16000   0.16000
     Eigenvalues ---    0.16000   0.16000   0.16000   0.16000   0.16000
     Eigenvalues ---    0.16000   0.16000   0.16000   0.16000   0.16000
     Eigenvalues ---    0.16000   0.16000   0.16000   0.16000   0.16000
     Eigenvalues ---    0.16000   0.16587   0.17378   0.18112   0.18133
     Eigenvalues ---    0.19785   0.20989   0.21977   0.22356   0.22495
     Eigenvalues ---    0.23391   0.24808   0.24902   0.24984   0.24989
     Eigenvalues ---    0.24992   0.24999   0.25000   0.26111   0.26651
     Eigenvalues ---    0.26953   0.27118   0.27384   0.27730   0.28382
     Eigenvalues ---    0.28713   0.28820   0.28909   0.29318   0.29799
     Eigenvalues ---    0.29800   0.30043   0.30212   0.30865   0.31291
     Eigenvalues ---    0.31634   0.31877   0.32089   0.33224   0.33598
     Eigenvalues ---    0.33870   0.33899   0.33929   0.33970   0.33974
     Eigenvalues ---    0.33996   0.34002   0.34049   0.34051   0.34076
     Eigenvalues ---    0.34079   0.34139   0.34205   0.34207   0.34215
     Eigenvalues ---    0.34220   0.34228   0.34237   0.34241   0.34265
     Eigenvalues ---    0.34270   0.34271   0.34275   0.34275   0.34277
     Eigenvalues ---    0.34292   0.34359   0.34375   0.34483   0.34715
     Eigenvalues ---    0.34992   0.35014   0.35232   0.35425   0.36609
     Eigenvalues ---    0.37135   0.41159   0.44312   0.50128   0.53543
     Eigenvalues ---    0.54416   0.56239   0.90717   0.91009
 RFO step:  Lambda=-2.09262520D-02 EMin= 2.65666556D-03
 Linear search not attempted -- first point.
 Iteration  1 RMS(Cart)=  0.06732989 RMS(Int)=  0.00106657
 Iteration  2 RMS(Cart)=  0.00197956 RMS(Int)=  0.00023905
 Iteration  3 RMS(Cart)=  0.00000204 RMS(Int)=  0.00023904
 Iteration  4 RMS(Cart)=  0.00000000 RMS(Int)=  0.00023904
 Variable       Old X    -DE/DX   Delta X   Delta X   Delta X     New X
                                 (Linear)    (Quad)   (Total)
    R1        2.53261  -0.00171   0.00000  -0.00378  -0.00386   2.52875
    R2        2.82123   0.00875   0.00000   0.02528   0.02516   2.84639
    R3        2.05652   0.00030   0.00000   0.00080   0.00080   2.05731
    R4        2.84301   0.00537   0.00000   0.01366   0.01369   2.85670
    R5        2.83981   0.00463   0.00000   0.01353   0.01353   2.85334
    R6        2.94367   0.00658   0.00000   0.01690   0.01686   2.96053
    R7        2.89518   0.01067   0.00000   0.03650   0.03647   2.93164
    R8        2.08014  -0.00187   0.00000  -0.00524  -0.00524   2.07490
    R9        2.92882   0.01331   0.00000   0.04179   0.04176   2.97058
   R10        2.91981   0.00803   0.00000   0.03101   0.03127   2.95108
   R11        2.76039  -0.00638   0.00000  -0.01784  -0.01786   2.74253
   R12        2.91605   0.00549   0.00000   0.02036   0.02032   2.93637
   R13        2.90828   0.00476   0.00000   0.00858   0.00825   2.91654
   R14        2.91509   0.00619   0.00000   0.02073   0.02072   2.93580
   R15        2.07501  -0.00157   0.00000  -0.00436  -0.00436   2.07065
   R16        2.07551   0.00247   0.00000   0.00686   0.00686   2.08237
   R17        2.81703   0.01128   0.00000   0.02562   0.02534   2.84237
   R18        2.86746   0.01501   0.00000   0.05283   0.05228   2.91974
   R19        2.68290   0.00270   0.00000   0.00684   0.00688   2.68979
   R20        2.52437   0.01328   0.00000   0.02337   0.02349   2.54786
   R21        2.62281  -0.01790   0.00000  -0.04188  -0.04157   2.58124
   R22        2.79597   0.00335   0.00000   0.00554   0.00570   2.80167
   R23        2.79440   0.01495   0.00000   0.04061   0.04061   2.83501
   R24        2.32471  -0.01387   0.00000  -0.01490  -0.01490   2.30981
   R25        2.32604  -0.01330   0.00000  -0.01433  -0.01433   2.31172
   R26        2.88366   0.00093   0.00000   0.00290   0.00290   2.88656
   R27        2.90606   0.00756   0.00000   0.02453   0.02453   2.93059
   R28        2.88364   0.00750   0.00000   0.02353   0.02353   2.90717
   R29        2.07451  -0.00090   0.00000  -0.00250  -0.00250   2.07201
   R30        2.07248   0.00008   0.00000   0.00022   0.00022   2.07270
   R31        2.07374   0.00110   0.00000   0.00305   0.00305   2.07679
   R32        2.87879   0.00734   0.00000   0.02285   0.02285   2.90163
   R33        2.06948  -0.00073   0.00000  -0.00200  -0.00200   2.06748
   R34        2.07096   0.00025   0.00000   0.00070   0.00070   2.07166
   R35        2.06875   0.00102   0.00000   0.00281   0.00281   2.07156
   R36        2.90980  -0.00013   0.00000   0.01157   0.01175   2.92155
[...]
     54          1           0        1.232998    3.756804   -2.867874
     55          1           0        1.099109    2.006522   -3.138668
     56          1           0        2.075405    3.449861    0.822886
     57          1           0        3.196056    3.665260   -0.532555
     58          1           0        1.707806    4.625547   -0.456765
     59          1           0       -3.093914    1.947144    4.142326
     60          1           0       -2.411686    3.241515    3.142174
     61          1           0       -3.868086    2.407099    2.611724
     62          6           0        5.399641   -0.893646    1.589230
     63          1           0        6.104635   -1.678180    1.293541
     64          1           0        5.951432   -0.167792    2.198438
     65          1           0        4.634972   -1.359376    2.217357
 ---------------------------------------------------------------------
 Rotational constants (GHZ):      0.2210850      0.1197075      0.1065594

 **********************************************************************

            Population analysis using the SCF density.

 **********************************************************************

 Orbital symmetries:
       Occupied  (A) (A) (A) (A) (A) (A) (A) (A) (A) (A) (A) (A)
                 (A) (A) (A) (A) (A) (A) (A) (A) (A) (A) (A) (A)
                 (A) (A) (A) (A) (A) (A) (A) (A) (A) (A) (A) (A)
                 (A) (A) (A) (A) (A) (A) (A) (A) (A) (A) (A) (A)
                 (A) (A) (A) (A) (A) (A) (A) (A) (A) (A) (A) (A)
                 (A) (A) (A) (A) (A) (A) (A) (A) (A) (A) (A) (A)
                 (A) (A) (A) (A) (A) (A) (A) (A) (A) (A) (A) (A)
                 (A) (A) (A) (A) (A) (A) (A) (A) (A) (A) (A) (A)
                 (A) (A) (A) (A) (A) (A) (A) (A) (A) (A) (A) (A)
                 (A) (A) (A) (A) (A) (A) (A)
       Virtual   (A) (A) (A) (A) (A) (A) (A) (A) (A) (A) (A) (A)
                 (A) (A) (A) (A) (A) (A) (A) (A) (A) (A) (A) (A)
                 (A) (A) (A) (A) (A) (A) (A) (A) (A) (A) (A) (A)
                 (A) (A) (A) (A) (A) (A) (A) (A) (A) (A) (A) (A)
                 (A) (A) (A) (A) (A) (A) (A) (A) (A) (A) (A) (A)
                 (A) (A) (A) (A) (A) (A) (A) (A) (A) (A) (A) (A)
                 (A) (A) (A) (A) (A) (A) (A) (A) (A) (A) (A) (A)
                 (A) (A) (A) (A) (A) (A) (A) (A) (A) (A) (A) (A)
                 (A) (A) (A) (A) (A) (A) (A) (A) (A) (A) (A) (A)
                 (A) (A) (A) (A) (A) (A) (A) (A) (A) (A) (A) (A)
                 (A) (A) (A) (A) (A) (A) (A) (A) (A) (A) (A) (A)
                 (A) (A) (A) (A) (A) (A) (A) (A) (A) (A) (A) (A)
                 (A) (A) (A) (A) (A) (A) (A) (A) (A) (A) (A) (A)
                 (A) (A) (A) (A) (A) (A) (A) (A) (A) (A) (A) (A)
                 (A) (A) (A) (A) (A) (A) (A) (A) (A) (A) (A) (A)
                 (A) (A) (A) (A) (A) (A) (A) (A) (A) (A) (A) (A)
                 (A) (A) (A) (A) (A) (A) (A) (A) (A) (A) (A) (A)
                 (A) (A) (A) (A) (A) (A) (A) (A) (A) (A) (A) (A)
                 (A) (A) (A) (A) (A) (A) (A) (A) (A) (A) (A) (A)
                 (A) (A) (A) (A) (A) (A) (A) (A) (A) (A) (A) (A)
                 (A) (A) (A) (A) (A) (A) (A) (A) (A) (A) (A) (A)
                 (A) (A) (A) (A) (A) (A) (A) (A) (A) (A) (A) (A)
                 (A) (A) (A) (A) (A) (A) (A) (A) (A) (A) (A) (A)
                 (A) (A) (A) (A) (A) (A) (A) (A) (A) (A) (A) (A)
                 (A) (A) (A) (A) (A) (A) (A) (A) (A) (A) (A) (A)
                 (A) (A) (A) (A) (A) (A) (A) (A) (A) (A) (A) (A)
                 (A) (A) (A) (A) (A) (A) (A) (A) (A) (A) (A) (A)
                 (A) (A) (A) (A) (A) (A) (A) (A) (A) (A) (A) (A)
                 (A) (A) (A) (A) (A) (A) (A) (A) (A) (A) (A) (A)
                 (A) (A) (A) (A) (A) (A) (A) (A) (A) (A) (A) (A)
                 (A) (A) (A) (A) (A) (A) (A) (A) (A) (A) (A) (A)
                 (A) (A) (A) (A) (A) (A) (A) (A) (A) (A) (A) (A)
                 (A) (A) (A) (A) (A) (A) (A) (A) (A) (A) (A) (A)
                 (A) (A) (A) (A) (A) (A) (A) (A) (A) (A) (A) (A)
                 (A) (A) (A) (A) (A) (A) (A) (A) (A) (A)
 The electronic state is 1-A.
 Alpha  occ. eigenvalues --  -19.20108 -19.17072 -19.15178 -19.12980 -19.11946
 Alpha  occ. eigenvalues --  -10.27088 -10.27043 -10.26840 -10.26213 -10.26140
 Alpha  occ. eigenvalues --  -10.26016 -10.24855 -10.21230 -10.20767 -10.20632
 Alpha  occ. eigenvalues --  -10.20494 -10.20229 -10.19976 -10.19595 -10.19521
 Alpha  occ. eigenvalues --  -10.19200 -10.18973 -10.18869 -10.18566 -10.18543
 Alpha  occ. eigenvalues --  -10.18346 -10.18160 -10.18058 -10.17529 -10.16232
 Alpha  occ. eigenvalues --  -10.15855  -1.09398  -1.06504  -1.03280  -1.02350
 Alpha  occ. eigenvalues --   -1.01665  -0.87027  -0.83940  -0.82153  -0.81339
 Alpha  occ. eigenvalues --   -0.80154  -0.79127  -0.76872  -0.74019  -0.73154
 Alpha  occ. eigenvalues --   -0.72213  -0.71202  -0.70434  -0.69107  -0.68245
 Alpha  occ. eigenvalues --   -0.65220  -0.64220  -0.63702  -0.61787  -0.60764
 Alpha  occ. eigenvalues --   -0.59181  -0.58463  -0.56790  -0.55032  -0.53224
 Alpha  occ. eigenvalues --   -0.52948  -0.51674  -0.51113  -0.49658  -0.49430
 Alpha  occ. eigenvalues --   -0.48171  -0.47398  -0.46849  -0.46655  -0.46079
 Alpha  occ. eigenvalues --   -0.45121  -0.44443  -0.44251  -0.43965  -0.43280
 Alpha  occ. eigenvalues --   -0.42758  -0.42649  -0.42275  -0.41657  -0.41419
 Alpha  occ. eigenvalues --   -0.41128  -0.40597  -0.40430  -0.39916  -0.39770
 Alpha  occ. eigenvalues --   -0.39273  -0.38987  -0.38561  -0.38167  -0.38005
 Alpha  occ. eigenvalues --   -0.37658  -0.37295  -0.37017  -0.36930  -0.36296
 Alpha  occ. eigenvalues --   -0.35865  -0.35776  -0.35213  -0.34854  -0.34391
 Alpha  occ. eigenvalues --   -0.33612  -0.33221  -0.33130  -0.32976  -0.32355
 Alpha  occ. eigenvalues --   -0.31326  -0.31265  -0.30793  -0.28145  -0.27395
 Alpha  occ. eigenvalues --   -0.25756  -0.24533  -0.24309  -0.23456  -0.22217
 Alpha virt. eigenvalues --   -0.04464  -0.01551   0.01078   0.01115   0.05309
 Alpha virt. eigenvalues --    0.07326   0.07793   0.08465   0.09430   0.10135
 Alpha virt. eigenvalues --    0.10575   0.10647   0.11504   0.11824   0.12400
 Alpha virt. eigenvalues --    0.12805   0.12874   0.13502   0.13790   0.14098
 Alpha virt. eigenvalues --    0.14256   0.14846   0.15175   0.15261   0.15542
 Alpha virt. eigenvalues --    0.16048   0.16198   0.16506   0.16912   0.17107
 Alpha virt. eigenvalues --    0.17697   0.17784   0.18283   0.18754   0.18877
 Alpha virt. eigenvalues --    0.19266   0.19649   0.19800   0.19921   0.20522
 Alpha virt. eigenvalues --    0.20826   0.21160   0.21292   0.21894   0.22158
 Alpha virt. eigenvalues --    0.22278   0.22575   0.23703   0.23864   0.24352
 Alpha virt. eigenvalues --    0.24429   0.24717   0.25395   0.26058   0.26350
 Alpha virt. eigenvalues --    0.26833   0.28066   0.28469   0.29248   0.29882
 Alpha virt. eigenvalues --    0.30424   0.31451   0.31757   0.33696   0.33987
 Alpha virt. eigenvalues --    0.34785   0.35351   0.38168   0.38834   0.39349
 Alpha virt. eigenvalues --    0.42425   0.44718   0.45855   0.47356   0.48069
 Alpha virt. eigenvalues --    0.49451   0.50137   0.50705   0.51196   0.51457
 Alpha virt. eigenvalues --    0.51743   0.52058   0.52679   0.52952   0.53489
 Alpha virt. eigenvalues --    0.53658   0.54149   0.54391   0.55225   0.55252
 Alpha virt. eigenvalues --    0.56920   0.57162   0.57612   0.57709   0.58994
 Alpha virt. eigenvalues --    0.59482   0.59985   0.60111   0.61041   0.61907
 Alpha virt. eigenvalues --    0.62121   0.62252   0.62756   0.63425   0.63856
 Alpha virt. eigenvalues --    0.65290   0.65982   0.66638   0.67223   0.67491
 Alpha virt. eigenvalues --    0.67638   0.68524   0.68822   0.69174   0.69494
 Alpha virt. eigenvalues --    0.70010   0.70582   0.71336   0.71618   0.73010
 Alpha virt. eigenvalues --    0.73390   0.74264   0.74835   0.75330   0.75917
 Alpha virt. eigenvalues --    0.76664   0.76861   0.78203   0.78373   0.78839
 Alpha virt. eigenvalues --    0.79240   0.79682   0.81186   0.81745   0.82094
 Alpha virt. eigenvalues --    0.83198   0.83498   0.83752   0.84354   0.84886
 Alpha virt. eigenvalues --    0.85558   0.86055   0.86266   0.86532   0.86700
 Alpha virt. eigenvalues --    0.87706   0.88216   0.88334   0.88576   0.88867
 Alpha virt. eigenvalues --    0.89348   0.89723   0.89751   0.90222   0.90571
 Alpha virt. eigenvalues --    0.90967   0.91267   0.91444   0.91897   0.92281
 Alpha virt. eigenvalues --    0.92692   0.93098   0.93474   0.93916   0.94473
 Alpha virt. eigenvalues --    0.94795   0.95566   0.95896   0.96317   0.96968
 Alpha virt. eigenvalues --    0.97462   0.97912   0.98658   0.99110   0.99863
 Alpha virt. eigenvalues --    1.00524   1.00805   1.01384   1.02202   1.02553
 Alpha virt. eigenvalues --    1.03660   1.04143   1.05068   1.07026   1.08768
 Alpha virt. eigenvalues --    1.09863   1.10559   1.12017   1.12675   1.13259
 Alpha virt. eigenvalues --    1.13720   1.14522   1.14808   1.15623   1.16397
 Alpha virt. eigenvalues --    1.16703   1.18019   1.18394   1.20767   1.21126
 Alpha virt. eigenvalues --    1.21867   1.22803   1.24370   1.25734   1.25988
 Alpha virt. eigenvalues --    1.28531   1.30733   1.30864   1.32019   1.33361
 Alpha virt. eigenvalues --    1.34484   1.36036   1.37219   1.39160   1.39456
 Alpha virt. eigenvalues --    1.42557   1.42755   1.44206   1.44924   1.46139
 Alpha virt. eigenvalues --    1.47532   1.48873   1.49768   1.51850   1.52873
 Alpha virt. eigenvalues --    1.53866   1.54637   1.54903   1.56903   1.57588
 Alpha virt. eigenvalues --    1.59183   1.60763   1.62083   1.62486   1.63745
 Alpha virt. eigenvalues --    1.64607   1.65256   1.65793   1.67293   1.68763
 Alpha virt. eigenvalues --    1.70720   1.71234   1.71939   1.73170   1.73879
 Alpha virt. eigenvalues --    1.74504   1.75125   1.75777   1.77070   1.78052
 Alpha virt. eigenvalues --    1.78444   1.79377   1.79540   1.80348   1.81448
 Alpha virt. eigenvalues --    1.82022   1.82333   1.83907   1.84200   1.84628
 Alpha virt. eigenvalues --    1.85943   1.86263   1.86555   1.87237   1.87517
 Alpha virt. eigenvalues --    1.88281   1.89094   1.89952   1.90270   1.91053
 Alpha virt. eigenvalues --    1.92194   1.92957   1.93240   1.93594   1.95163
 Alpha virt. eigenvalues --    1.95854   1.96544   1.97122   1.97335   1.97829
 Alpha virt. eigenvalues --    1.98291   1.98637   1.98989   1.99620   2.00587
 Alpha virt. eigenvalues --    2.01779   2.02672   2.03047   2.03677   2.05776
 Alpha virt. eigenvalues --    2.05824   2.06742   2.08055   2.09275   2.09788
 Alpha virt. eigenvalues --    2.10218   2.11006   2.11452   2.11807   2.13745
 Alpha virt. eigenvalues --    2.13966   2.14705   2.15974   2.16823   2.17211
 Alpha virt. eigenvalues --    2.18414   2.18551   2.20129   2.20319   2.22410
 Alpha virt. eigenvalues --    2.23302   2.24256   2.25187   2.25877   2.26440
 Alpha virt. eigenvalues --    2.27788   2.27943   2.29501   2.30523   2.31541
 Alpha virt. eigenvalues --    2.32550   2.32998   2.33201   2.33879   2.34502
 Alpha virt. eigenvalues --    2.35658   2.36344   2.37740   2.38809   2.39909
 Alpha virt. eigenvalues --    2.40869   2.41658   2.42259   2.43439   2.44779
 Alpha virt. eigenvalues --    2.45269   2.46334   2.46679   2.48316   2.49389
 Alpha virt. eigenvalues --    2.49834   2.49984   2.51384   2.52109   2.54935
 Alpha virt. eigenvalues --    2.55713   2.56213   2.58125   2.59307   2.60785
 Alpha virt. eigenvalues --    2.62119   2.63178   2.64641   2.65130   2.65681
 Alpha virt. eigenvalues --    2.66997   2.68296   2.69418   2.69816   2.70532
 Alpha virt. eigenvalues --    2.71449   2.73352   2.75110   2.76054   2.76710
 Alpha virt. eigenvalues --    2.76871   2.77953   2.78809   2.79954   2.86321
 Alpha virt. eigenvalues --    2.87075   2.89097   2.91723   2.94759   2.96921
 Alpha virt. eigenvalues --    2.97638   2.98799   2.99999   3.01364   3.02073
 Alpha virt. eigenvalues --    3.05124   3.06371   3.10968   3.13617   3.21830
 Alpha virt. eigenvalues --    3.25680   3.27573   4.00272   4.09366   4.11050
 Alpha virt. eigenvalues --    4.11682   4.14186   4.15575   4.17632   4.18803
 Alpha virt. eigenvalues --    4.22251   4.22826   4.24818   4.26158   4.28395
 Alpha virt. eigenvalues --    4.31441   4.32964   4.35631   4.39742   4.41669
 Alpha virt. eigenvalues --    4.45342   4.47805   4.51916   4.57695   4.61651
 Alpha virt. eigenvalues --    4.65545   4.67185   4.68065   4.75237   4.76775
 Alpha virt. eigenvalues --    4.87693   4.94117   5.23765
          Condensed to atoms (all electrons):
 Mulliken atomic charges:
              1
     1  C   -0.193540
     2  C    0.197473
     3  C   -0.196840
     4  C    0.312576
     5  C   -0.030293
     6  C   -0.327950
     7  C    0.202135
     8  C    0.389273
     9  C   -0.087828
    10  C    0.398100
    11  C    0.431580
    12  O   -0.472088
    13  C   -0.146955
    14  C   -0.264332
    15  C   -0.452858
    16  O   -0.453603
    17  C   -0.155315
    18  C    0.298234
    19  O   -0.533513
    20  C   -0.308651
    21  O   -0.669103
    22  C   -0.335655
    23  C    0.103953
    24  O   -0.585182
    25  C    0.187707
    26  C   -0.505913
    27  C   -0.393213
    28  C   -0.467670
    29  C   -0.462887
    30  H    0.148414
    31  H    0.147049
    32  C   -0.520986
    33  H    0.125778
    34  H    0.167157
    35  H    0.167965
    36  H    0.136872
    37  H    0.139308
    38  H    0.129903
    39  H    0.173205
    40  H    0.150343
    41  H    0.134581
    42  H    0.160294
    43  H    0.151465
    44  H    0.423364
    45  H    0.190545
    46  H    0.149318
    47  H    0.135659
    48  H    0.168007
    49  H    0.154042
    50  H    0.150683
    51  H    0.139083
    52  H    0.153882
    53  H    0.156665
    54  H    0.145789
    55  H    0.197224
    56  H    0.161467
    57  H    0.164718
    58  H    0.152822
    59  H    0.158892
    60  H    0.155102
    61  H    0.154455
    62  C   -0.446739
    63  H    0.145115
    64  H    0.131277
    65  H    0.169641
 Sum of Mulliken atomic charges =   0.00000
 Mulliken charges with hydrogens summed into heavy atoms:
              1
     1  C   -0.067762
     2  C    0.197473
     3  C   -0.049791
     4  C    0.312576
     5  C   -0.030293
     6  C    0.007171
     7  C    0.202135
     8  C    0.389273
     9  C   -0.087828
    10  C    0.398100
    11  C    0.431580
    12  O   -0.472088
    13  C   -0.010083
    14  C    0.004879
    15  C    0.005271
    16  O   -0.453603
    17  C   -0.006901
    18  C    0.298234
    19  O   -0.533513
    20  C    0.003108
    21  O   -0.245740
    22  C    0.004208
    23  C    0.239612
    24  O   -0.585182
    25  C    0.187707
    26  C   -0.033182
    27  C   -0.100247
    28  C    0.032008
    29  C    0.016120
    32  C   -0.052538
    62  C   -0.000706
 Sum of Mulliken charges with hydrogens summed into heavy atoms =   0.00000
 Electronic spatial extent (au):  <R**2>=          11853.7650
 Charge=              0.0000 electrons
 Dipole moment (field-independent basis, Debye):
    X=             -3.0955    Y=              6.5375    Z=              0.4059  Tot=              7.2447
 Quadrupole moment (field-independent basis, Debye-Ang):
   XX=           -177.5159   YY=           -188.0233   ZZ=           -183.1942
   XY=              9.2705   XZ=             -5.2364   YZ=              1.4968
 Traceless Quadrupole moment (field-independent basis, Debye-Ang):
   XX=              5.3952   YY=             -5.1122   ZZ=             -0.2831
   XY=              9.2705   XZ=             -5.2364   YZ=              1.4968
 Octapole moment (field-independent basis, Debye-Ang**2):
  XXX=            -22.9543  YYY=             74.2239  ZZZ=              2.8221  XYY=            -21.0843
  XXY=              7.6269  XXZ=            -32.5159  XZZ=            -15.6673  YZZ=              0.3902
  YYZ=            -18.1614  XYZ=              1.3706
 Hexadecapole moment (field-independent basis, Debye-Ang**3):
 XXXX=          -9261.2898 YYYY=          -3972.7119 ZZZZ=          -2587.9550 XXXY=             41.4042
 XXXZ=             41.8460 YYYX=             97.4582 YYYZ=            -20.0971 ZZZX=             -8.0296
 ZZZY=            -24.0607 XXYY=          -2209.0791 XXZZ=          -1959.8702 YYZZ=          -1080.7791
 XXYZ=             61.7280 YYXZ=            -31.3670 ZZXY=             25.6242
 N-N= 3.494927810111D+03 E-N=-1.021598574790D+04  KE= 1.374453661743D+03
 1\1\GINC-B0604\FOpt\RB3LYP\6-31G(d)\C26H34O5\CAOFEI\24-Mar-2021\0\\# o
 pt rb3lyp/6-31g(d) geom=connectivity\\Title Card Required\\0,1\C,-0.08
 34475744,0.1057141998,-0.2301439302\C,1.250404121,0.0227769243,-0.1541
 534339\C,2.0872729654,1.2798103305,-0.0880773682\C,1.397067941,2.53694
 62086,0.5356050233\C,-0.1654490371,2.5033239712,0.6503649286\C,-0.8204
 949196,1.4179764588,-0.2533211443\C,1.9630491491,3.743592099,-0.283435
 5851\C,0.9843354063,4.2662126474,-1.3255335436\C,-0.3433728104,4.40887
 8915,-1.0918239131\C,-0.81833338,3.8465165779,0.2075905807\C,-1.356911
 6871,4.999275051,-2.0197351927\O,-2.5179774737,4.6181968632,-1.9618484
 725\C,-0.9383205827,6.0812273679,-3.022542959\C,-0.835884093,5.5003633
 609,-4.4603503928\C,-1.9141078291,7.2664291824,-2.9311946313\O,-1.7285
 686774,4.3392098115,0.8459388864\C,3.0864526918,3.2099985822,-1.199954
 0201\C,3.0559339066,4.1806389031,-2.4002131937\O,1.6208427277,4.566787
 9185,-2.4681136546\C,2.6361772008,1.7588146572,-1.4577536813\O,2.32667
 32666,4.8254219585,0.5490684577\C,-0.4231467058,2.2446893446,2.1573079
 194\C,0.9592582115,2.0333259413,2.7791428669\O,1.8645168983,2.72034895
 88,1.8790309841\C,1.2197720524,2.5169614852,4.1886908041\C,2.661383429
 1,2.4517619444,4.6326575926\C,0.2395599979,2.9088991745,5.0072212064\C
 ,3.8634529593,5.4547468369,-2.1396281395\C,3.3968422477,3.5785324626,-
 3.7594943903\H,4.0531988512,3.238223782,-0.6885945749\H,2.9562265765,1
 .0944209027,0.5583222711\C,1.9910791696,-1.2895142174,-0.1636822269\H,
 -0.676526979,-0.8045760701,-0.3062380261\H,-1.8576116581,1.2874869791,
 0.0739785804\H,-0.8877629181,1.7876492928,-1.2865372521\H,0.0633633556
 ,6.4322251463,-2.7551053742\H,-0.1069175549,4.6805307045,-4.4514783328
 \H,-0.3988321007,6.2854865757,-5.0932519541\H,-2.9449693634,6.93926772
 75,-3.0872960381\H,-1.8614315078,7.7410698583,-1.9450481432\H,-1.66577
 1614,8.023075392,-3.6850279063\H,1.8318637413,1.7282385566,-2.20261051
 44\H,3.4436864184,1.1197437002,-1.8280072306\H,2.2964740072,4.46453878
 21,1.4589148968\H,-0.926716957,3.1203266358,2.573019484\H,-1.069405716
 7,1.3782765512,2.3206699295\H,1.2212010449,0.9628143777,2.7380751212\H
 ,3.2956752164,3.0975480218,4.0147789671\H,2.7695640373,2.7566831472,5.
 6775690962\H,3.0590444671,1.4325669208,4.5294490418\H,0.4516047369,3.2
 035809766,6.0318130885\H,-0.801172334,2.9467267412,4.70279292\H,3.6628
 51198,6.1920394556,-2.9238185513\H,4.9355027253,5.2270123038,-2.149082
 0115\H,3.6090686516,5.8859356799,-1.1687073327\H,2.7583395736,2.724605
 3111,-3.9993502896\H,3.2723958277,4.3297571867,-4.545893202\H,4.440595
 1795,3.2459845998,-3.7690197454\H,1.3034933985,-2.1387471302,-0.227092
 3876\H,2.6843947515,-1.3542888914,-1.0137762169\H,2.5994994531,-1.4095
 591424,0.7436266895\C,-2.1476188344,5.0158810372,-5.0881614783\H,-2.86
 13855511,5.8364134077,-5.2193329395\H,-1.9553519788,4.5854087187,-6.07
 82123472\H,-2.6325277155,4.2547888415,-4.4702876145\\Version=EM64L-G09
 RevB.01\State=1-A\HF=-1387.3169601\RMSD=8.733e-09\RMSF=4.686e-06\Dipol
 e=2.4274247,-1.4818692,-0.1894806\Quadrupole=-7.3625704,2.2632793,5.09
 92911,3.2195567,-3.7133592,-3.51695\PG=C01 [X(C26H34O5)]\\@


 IT IS BETTER TO THINK YOU ARE HALF DRY THAN TO KNOW YOU
 ARE ALL WET.  -- SNOOPY
 Job cpu time:  0 days  5 hours 12 minutes 37.2 seconds.
 File lengths (MBytes):  RWF=    186 Int=      0 D2E=      0 Chk=     20 Scr=      1
 Normal termination of Gaussian 09 at Wed Mar 24 15:52:15 2021.
