 Entering Gaussian System, Link 0=g09
 Initial command:
 /public/software/g09/g09/l1.exe /tmp/Gau-27466.inp -scrdir=/tmp/
 Entering Link 1 = /public/software/g09/g09/l1.exe PID=     27467.
  
 Copyright (c) 1988,1990,1992,1993,1995,1998,2003,2009,2010,
            Gaussian, Inc.  All Rights Reserved.
  
 This is part of the Gaussian(R) 09 program.  It is based on
 the Gaussian(R) 03 system (copyright 2003, Gaussian, Inc.),
 the Gaussian(R) 98 system (copyright 1998, Gaussian, Inc.),
 the Gaussian(R) 94 system (copyright 1995, Gaussian, Inc.),
 the Gaussian 92(TM) system (copyright 1992, Gaussian, Inc.),
 the Gaussian 90(TM) system (copyright 1990, Gaussian, Inc.),
 the Gaussian 88(TM) system (copyright 1988, Gaussian, Inc.),
 the Gaussian 86(TM) system (copyright 1986, Carnegie Mellon
 University), and the Gaussian 82(TM) system (copyright 1983,
 Carnegie Mellon University). Gaussian is a federally registered
 trademark of Gaussian, Inc.
  
 This software contains proprietary and confidential information,
 including trade secrets, belonging to Gaussian, Inc.
  
 This software is provided under written license and may be
 used, copied, transmitted, or stored only in accord with that
 written license.
  
 The following legend is applicable only to US Government
 contracts under FAR:
  
                    RESTRICTED RIGHTS LEGEND
  
 Use, reproduction and disclosure by the US Government is
 subject to restrictions as set forth in subparagraphs (a)
 and (c) of the Commercial Computer Software - Restricted
 Rights clause in FAR 52.227-19.
  
 Gaussian, Inc.
 340 Quinnipiac St., Bldg. 40, Wallingford CT 06492
  
  
 ---------------------------------------------------------------
 Warning -- This program may not be used in any manner that
 competes with the business of Gaussian, Inc. or will provide
 assistance to any competitor of Gaussian, Inc.  The licensee
 of this program is prohibited from giving any competitor of
 Gaussian, Inc. access to this program.  By using this program,
 the user acknowledges that Gaussian, Inc. is engaged in the
 business of creating and licensing software in the field of
 computational chemistry and represents and warrants to the
 licensee that it is not a competitor of Gaussian, Inc. and that
 it will not use this program in any manner prohibited above.
 ---------------------------------------------------------------
  

 Cite this work as:
 Gaussian 09, Revision B.01,
 M. J. Frisch, G. W. Trucks, H. B. Schlegel, G. E. Scuseria, 
 M. A. Robb, J. R. Cheeseman, G. Scalmani, V. Barone, B. Mennucci, 
 G. A. Petersson, H. Nakatsuji, M. Caricato, X. Li, H. P. Hratchian, 
 A. F. Izmaylov, J. Bloino, G. Zheng, J. L. Sonnenberg, M. Hada, 
 M. Ehara, K. Toyota, R. Fukuda, J. Hasegawa, M. Ishida, T. Nakajima, 
 Y. Honda, O. Kitao, H. Nakai, T. Vreven, J. A. Montgomery, Jr., 
 J. E. Peralta, F. Ogliaro, M. Bearpark, J. J. Heyd, E. Brothers, 
 K. N. Kudin, V. N. Staroverov, T. Keith, R. Kobayashi, J. Normand, 
 K. Raghavachari, A. Rendell, J. C. Burant, S. S. Iyengar, J. Tomasi, 
 M. Cossi, N. Rega, J. M. Millam, M. Klene, J. E. Knox, J. B. Cross, 
 V. Bakken, C. Adamo, J. Jaramillo, R. Gomperts, R. E. Stratmann, 
 O. Yazyev, A. J. Austin, R. Cammi, C. Pomelli, J. W. Ochterski, 
 R. L. Martin, K. Morokuma, V. G. Zakrzewski, G. A. Voth, 
 P. Salvador, J. J. Dannenberg, S. Dapprich, A. D. Daniels, 
 O. Farkas, J. B. Foresman, J. V. Ortiz, J. Cioslowski, 
 and D. J. Fox, Gaussian, Inc., Wallingford CT, 2010.
 
 ******************************************
 Gaussian 09:  EM64L-G09RevB.01 12-Aug-2010
                24-Mar-2021 
 ******************************************
 %mem=600MW
 %nprocshared=10
 Will use up to   10 processors via shared memory.
 ---------------------------------------
 # opt rb3lyp/6-31g(d) geom=connectivity
 ---------------------------------------
 1/14=-1,18=20,19=15,26=3,38=1,57=2/1,3;
 2/9=110,12=2,17=6,18=5,40=1/2;
 3/5=1,6=6,7=1,11=2,16=1,25=1,30=1,71=1,74=-5,116=1/1,2,3;
 4//1;
 5/5=2,38=5/2;
 6/7=2,8=2,9=2,10=2,28=1/1;
 7//1,2,3,16;
 1/14=-1,18=20,19=15/3(2);
 2/9=110/2;
 99//99;
 2/9=110/2;
 3/5=1,6=6,7=1,11=2,16=1,25=1,30=1,71=1,74=-5,116=1/1,2,3;
 4/5=5,16=3/1;
 5/5=2,38=5/2;
 7//1,2,3,16;
 1/14=-1,18=20,19=15/3(-5);
 2/9=110/2;
 6/7=2,8=2,9=2,10=2,19=2,28=1/1;
 99/9=1/99;
 -------------------
 Title Card Required
 -------------------
 Symbolic Z-matrix:
 Charge =  0 Multiplicity = 1
 C                     0.        0.        0. 
 C                     1.3415    0.        0. 
 C                     2.1357    1.2847    0. 
 C                     1.3362    2.5825   -0.3116 
 C                    -0.159     2.4574   -0.6492 
 C                    -0.8326    1.2406    0.0163 
 C                     2.1446    3.2891   -1.4185 
 C                     1.7823    2.9091   -2.8121 
 C                     0.5628    2.4918   -3.1632 
 C                    -0.5076    2.4458   -2.1457 
 C                     0.321     2.026    -4.5453 
 O                     0.376     0.8148   -4.7739 
 C                     0.0179    3.0375   -5.6545 
 C                    -0.2477    4.4713   -5.1632 
 C                     1.1446    2.9812   -6.6874 
 O                    -1.6828    2.4321   -2.5194 
 C                     3.5539    2.7404   -1.3718 
 C                     4.054     2.9702   -2.8142 
 O                     2.8829    2.8442   -3.6614 
 C                     3.3103    1.2697   -0.9951 
 O                     2.099     4.701    -1.2993 
 C                    -0.7191    3.7554   -0.0601 
 C                     0.12      3.9556    1.1945 
 O                     1.4237    3.4383    0.8707 
 C                     0.2793    5.3579    1.7365 
 C                     1.2104    5.4848    2.9159 
 C                    -0.3612    6.4429    1.2682 
 C                     4.6425    4.3746   -3.0229 
 C                     5.0937    1.9422   -3.2736 
 H                     4.1882    3.2353   -0.6274 
 H                     2.5708    1.3795    1.006 
 C                     2.1107   -1.2915    0.0911 
 H                    -0.5433   -0.9424    0.0466 
 H                    -1.0886    1.4424    1.0634 
 H                    -1.7869    1.0136   -0.4755 
 H                    -0.9055    2.6743   -6.1262 
 H                    -0.9994    4.4534   -4.3653 
 H                     0.6621    4.904    -4.7304 
 H                     1.3717    1.9483   -6.9733 
 H                     0.8742    3.5183   -7.6015 
 H                     2.066     3.422    -6.2924 
 H                     3.051     0.6636   -1.8717 
 H                     4.2092    0.8263   -0.552 
 H                     2.1617    4.8906   -0.341 
 H                    -1.7909    3.7095    0.1639 
 H                    -0.5746    4.5751   -0.775 
 H                    -0.2768    3.3286    2.0026 
 H                     1.2245    6.501     3.3245 
 H                     0.8976    4.8113    3.7206 
 H                     2.2354    5.2319    2.6268 
 H                    -1.0588    6.402     0.4388 
 H                    -0.2093    7.4228    1.7127 
 H                     4.9772    4.5014   -4.0594 
 H                     5.4977    4.5493   -2.362 
 H                     3.9069    5.1662   -2.8578 
 H                     5.442     2.1706   -4.2879 
 H                     5.962     1.9278   -2.6072 
 H                     4.6759    0.9325   -3.3332 
 H                     1.4513   -2.1537    0.2388 
 H                     2.6833   -1.4692   -0.8241 
 H                     2.804    -1.2603    0.9379 
 C                    -0.7571    5.4004   -6.2574 
 H                    -1.6499    4.9893   -6.7388 
 H                    -1.0212    6.373    -5.8294 
 H                     0.0034    5.5739   -7.0241 
 

 GradGradGradGradGradGradGradGradGradGradGradGradGradGradGradGradGradGrad
 Berny optimization.
 Initialization pass.
                           ----------------------------
                           !    Initial Parameters    !
                           ! (Angstroms and Degrees)  !
 --------------------------                            --------------------------
 ! Name  Definition              Value          Derivative Info.                !
 --------------------------------------------------------------------------------
 ! R1    R(1,2)                  1.3415         estimate D2E/DX2                !
 ! R2    R(1,6)                  1.4942         estimate D2E/DX2                !
 ! R3    R(1,33)                 1.0888         estimate D2E/DX2                !
 ! R4    R(2,3)                  1.5104         estimate D2E/DX2                !
 ! R5    R(2,32)                 1.506          estimate D2E/DX2                !
 ! R6    R(3,4)                  1.5558         estimate D2E/DX2                !
 ! R7    R(3,20)                 1.5395         estimate D2E/DX2                !
 ! R8    R(3,31)                 1.1002         estimate D2E/DX2                !
 ! R9    R(4,5)                  1.5379         estimate D2E/DX2                !
 ! R10   R(4,7)                  1.5421         estimate D2E/DX2                !
 ! R11   R(4,24)                 1.4622         estimate D2E/DX2                !
 ! R12   R(5,6)                  1.5418         estimate D2E/DX2                !
 ! R13   R(5,10)                 1.5366         estimate D2E/DX2                !
 ! R14   R(5,22)                 1.5315         estimate D2E/DX2                !
 ! R15   R(6,34)                 1.0967         estimate D2E/DX2                !
 ! R16   R(6,35)                 1.0973         estimate D2E/DX2                !
 ! R17   R(7,8)                  1.4892         estimate D2E/DX2                !
 ! R18   R(7,17)                 1.5131         estimate D2E/DX2                !
 ! R19   R(7,21)                 1.4177         estimate D2E/DX2                !
 ! R20   R(8,9)                  1.3359         estimate D2E/DX2                !
 ! R21   R(8,19)                 1.3917         estimate D2E/DX2                !
 ! R22   R(9,10)                 1.4776         estimate D2E/DX2                !
 ! R23   R(9,11)                 1.4784         estimate D2E/DX2                !
 ! R24   R(10,16)                1.2333         estimate D2E/DX2                !
 ! R25   R(11,12)                1.2338         estimate D2E/DX2                !
 ! R26   R(11,13)                1.5314         estimate D2E/DX2                !
 ! R27   R(13,14)                1.5387         estimate D2E/DX2                !
 ! R28   R(13,15)                1.5295         estimate D2E/DX2                !
 ! R29   R(13,36)                1.0987         estimate D2E/DX2                !
 ! R30   R(14,37)                1.0964         estimate D2E/DX2                !
 ! R31   R(14,38)                1.0965         estimate D2E/DX2                !
 ! R32   R(14,62)                1.5232         estimate D2E/DX2                !
 ! R33   R(15,39)                1.0955         estimate D2E/DX2                !
 ! R34   R(15,40)                1.0942         estimate D2E/DX2                !
 ! R35   R(15,41)                1.0951         estimate D2E/DX2                !
 ! R36   R(17,18)                1.5438         estimate D2E/DX2                !
 ! R37   R(17,20)                1.5376         estimate D2E/DX2                !
 ! R38   R(17,30)                1.0961         estimate D2E/DX2                !
 ! R39   R(18,19)                1.4509         estimate D2E/DX2                !
 ! R40   R(18,28)                1.537          estimate D2E/DX2                !
 ! R41   R(18,29)                1.5326         estimate D2E/DX2                !
 ! R42   R(20,42)                1.0968         estimate D2E/DX2                !
 ! R43   R(20,43)                1.0959         estimate D2E/DX2                !
 ! R44   R(21,44)                0.9789         estimate D2E/DX2                !
 ! R45   R(22,23)                1.5226         estimate D2E/DX2                !
 ! R46   R(22,45)                1.0959         estimate D2E/DX2                !
 ! R47   R(22,46)                1.0972         estimate D2E/DX2                !
 ! R48   R(23,24)                1.4395         estimate D2E/DX2                !
 ! R49   R(23,25)                1.5118         estimate D2E/DX2                !
 ! R50   R(23,47)                1.0971         estimate D2E/DX2                !
 ! R51   R(25,26)                1.508          estimate D2E/DX2                !
 ! R52   R(25,27)                1.3442         estimate D2E/DX2                !
 ! R53   R(26,48)                1.0954         estimate D2E/DX2                !
 ! R54   R(26,49)                1.095          estimate D2E/DX2                !
 ! R55   R(26,50)                1.0946         estimate D2E/DX2                !
 ! R56   R(27,51)                1.0845         estimate D2E/DX2                !
 ! R57   R(27,52)                1.0867         estimate D2E/DX2                !
 ! R58   R(28,53)                1.0966         estimate D2E/DX2                !
 ! R59   R(28,54)                1.0948         estimate D2E/DX2                !
 ! R60   R(28,55)                1.0932         estimate D2E/DX2                !
 ! R61   R(29,56)                1.0965         estimate D2E/DX2                !
 ! R62   R(29,57)                1.0946         estimate D2E/DX2                !
 ! R63   R(29,58)                1.0944         estimate D2E/DX2                !
 ! R64   R(32,59)                1.0955         estimate D2E/DX2                !
 ! R65   R(32,60)                1.0941         estimate D2E/DX2                !
 ! R66   R(32,61)                1.0949         estimate D2E/DX2                !
 ! R67   R(62,63)                1.0945         estimate D2E/DX2                !
 ! R68   R(62,64)                1.0949         estimate D2E/DX2                !
 ! R69   R(62,65)                1.0938         estimate D2E/DX2                !
 ! A1    A(2,1,6)              123.8643         estimate D2E/DX2                !
 ! A2    A(2,1,33)             119.9335         estimate D2E/DX2                !
 ! A3    A(6,1,33)             116.1124         estimate D2E/DX2                !
 ! A4    A(1,2,3)              121.7243         estimate D2E/DX2                !
 ! A5    A(1,2,32)             120.715          estimate D2E/DX2                !
 ! A6    A(3,2,32)             117.4436         estimate D2E/DX2                !
 ! A7    A(2,3,4)              116.06           estimate D2E/DX2                !
 ! A8    A(2,3,20)             113.1353         estimate D2E/DX2                !
 ! A9    A(2,3,31)             106.3352         estimate D2E/DX2                !
 ! A10   A(4,3,20)             105.7084         estimate D2E/DX2                !
 ! A11   A(4,3,31)             108.3303         estimate D2E/DX2                !
 ! A12   A(20,3,31)            106.8667         estimate D2E/DX2                !
 ! A13   A(3,4,5)              118.4055         estimate D2E/DX2                !
 ! A14   A(3,4,7)              104.868          estimate D2E/DX2                !
 ! A15   A(3,4,24)             107.1896         estimate D2E/DX2                !
 ! A16   A(5,4,7)              112.9149         estimate D2E/DX2                !
 ! A17   A(5,4,24)             106.4567         estimate D2E/DX2                !
 ! A18   A(7,4,24)             106.3108         estimate D2E/DX2                !
 ! A19   A(4,5,6)              113.2155         estimate D2E/DX2                !
 ! A20   A(4,5,10)             115.7826         estimate D2E/DX2                !
 ! A21   A(4,5,22)             101.6642         estimate D2E/DX2                !
 ! A22   A(6,5,10)             108.3785         estimate D2E/DX2                !
 ! A23   A(6,5,22)             110.0633         estimate D2E/DX2                !
 ! A24   A(10,5,22)            107.34           estimate D2E/DX2                !
 ! A25   A(1,6,5)              114.0231         estimate D2E/DX2                !
 ! A26   A(1,6,34)             107.0541         estimate D2E/DX2                !
 ! A27   A(1,6,35)             107.9361         estimate D2E/DX2                !
 ! A28   A(5,6,34)             111.6469         estimate D2E/DX2                !
 ! A29   A(5,6,35)             110.4724         estimate D2E/DX2                !
 ! A30   A(34,6,35)            105.2473         estimate D2E/DX2                !
 ! A31   A(4,7,8)              115.2932         estimate D2E/DX2                !
 ! A32   A(4,7,17)             107.4548         estimate D2E/DX2                !
 ! A33   A(4,7,21)             112.2801         estimate D2E/DX2                !
 ! A34   A(8,7,17)              99.3779         estimate D2E/DX2                !
 ! A35   A(8,7,21)             108.9649         estimate D2E/DX2                !
 ! A36   A(17,7,21)            112.8632         estimate D2E/DX2                !
 ! A37   A(7,8,9)              123.2121         estimate D2E/DX2                !
 ! A38   A(7,8,19)             112.9906         estimate D2E/DX2                !
 ! A39   A(9,8,19)             123.1596         estimate D2E/DX2                !
 ! A40   A(8,9,10)             119.3445         estimate D2E/DX2                !
 ! A41   A(8,9,11)             119.5664         estimate D2E/DX2                !
 ! A42   A(10,9,11)            121.0301         estimate D2E/DX2                !
 ! A43   A(5,10,9)             120.4029         estimate D2E/DX2                !
 ! A44   A(5,10,16)            120.7554         estimate D2E/DX2                !
 ! A45   A(9,10,16)            118.8167         estimate D2E/DX2                !
 ! A46   A(9,11,12)            118.3737         estimate D2E/DX2                !
 ! A47   A(9,11,13)            120.0912         estimate D2E/DX2                !
 ! A48   A(12,11,13)           121.5344         estimate D2E/DX2                !
 ! A49   A(11,13,14)           114.7306         estimate D2E/DX2                !
 ! A50   A(11,13,15)           108.6028         estimate D2E/DX2                !
 ! A51   A(11,13,36)           105.0084         estimate D2E/DX2                !
 ! A52   A(14,13,15)           112.1518         estimate D2E/DX2                !
 ! A53   A(14,13,36)           107.4604         estimate D2E/DX2                !
 ! A54   A(15,13,36)           108.4823         estimate D2E/DX2                !
 ! A55   A(13,14,37)           109.603          estimate D2E/DX2                !
 ! A56   A(13,14,38)           110.5191         estimate D2E/DX2                !
 ! A57   A(13,14,62)           113.3748         estimate D2E/DX2                !
 ! A58   A(37,14,38)           106.7428         estimate D2E/DX2                !
 ! A59   A(37,14,62)           107.6663         estimate D2E/DX2                !
 ! A60   A(38,14,62)           108.6833         estimate D2E/DX2                !
 ! A61   A(13,15,39)           111.3236         estimate D2E/DX2                !
 ! A62   A(13,15,40)           111.3498         estimate D2E/DX2                !
 ! A63   A(13,15,41)           111.185          estimate D2E/DX2                !
 ! A64   A(39,15,40)           107.2189         estimate D2E/DX2                !
 ! A65   A(39,15,41)           107.4104         estimate D2E/DX2                !
 ! A66   A(40,15,41)           108.1603         estimate D2E/DX2                !
 ! A67   A(7,17,18)            102.6446         estimate D2E/DX2                !
 ! A68   A(7,17,20)            101.9384         estimate D2E/DX2                !
 ! A69   A(7,17,30)            113.3429         estimate D2E/DX2                !
 ! A70   A(18,17,20)           114.9983         estimate D2E/DX2                !
 ! A71   A(18,17,30)           112.3248         estimate D2E/DX2                !
 ! A72   A(20,17,30)           110.9265         estimate D2E/DX2                !
 ! A73   A(17,18,19)           105.7332         estimate D2E/DX2                !
 ! A74   A(17,18,28)           112.7626         estimate D2E/DX2                !
 ! A75   A(17,18,29)           113.5765         estimate D2E/DX2                !
 ! A76   A(19,18,28)           108.0065         estimate D2E/DX2                !
 ! A77   A(19,18,29)           108.318          estimate D2E/DX2                !
 ! A78   A(28,18,29)           108.2071         estimate D2E/DX2                !
 ! A79   A(8,19,18)            106.1369         estimate D2E/DX2                !
 ! A80   A(3,20,17)            105.659          estimate D2E/DX2                !
 ! A81   A(3,20,42)            109.9744         estimate D2E/DX2                !
 ! A82   A(3,20,43)            111.618          estimate D2E/DX2                !
 ! A83   A(17,20,42)           111.7283         estimate D2E/DX2                !
 ! A84   A(17,20,43)           110.8614         estimate D2E/DX2                !
 ! A85   A(42,20,43)           107.0665         estimate D2E/DX2                !
 ! A86   A(7,21,44)            105.8522         estimate D2E/DX2                !
 ! A87   A(5,22,23)            103.1114         estimate D2E/DX2                !
 ! A88   A(5,22,45)            113.6276         estimate D2E/DX2                !
 ! A89   A(5,22,46)            109.5347         estimate D2E/DX2                !
 ! A90   A(23,22,45)           112.0903         estimate D2E/DX2                !
 ! A91   A(23,22,46)           111.474          estimate D2E/DX2                !
 ! A92   A(45,22,46)           107.0535         estimate D2E/DX2                !
 ! A93   A(22,23,24)           105.4574         estimate D2E/DX2                !
 ! A94   A(22,23,25)           118.3886         estimate D2E/DX2                !
 ! A95   A(22,23,47)           109.4191         estimate D2E/DX2                !
 ! A96   A(24,23,25)           108.5752         estimate D2E/DX2                !
 ! A97   A(24,23,47)           106.7309         estimate D2E/DX2                !
 ! A98   A(25,23,47)           107.707          estimate D2E/DX2                !
 ! A99   A(4,24,23)            109.7569         estimate D2E/DX2                !
 ! A100  A(23,25,26)           115.0562         estimate D2E/DX2                !
 ! A101  A(23,25,27)           125.0023         estimate D2E/DX2                !
 ! A102  A(26,25,27)           119.9186         estimate D2E/DX2                !
 ! A103  A(25,26,48)           112.1952         estimate D2E/DX2                !
 ! A104  A(25,26,49)           110.2807         estimate D2E/DX2                !
 ! A105  A(25,26,50)           110.6204         estimate D2E/DX2                !
 ! A106  A(48,26,49)           107.4676         estimate D2E/DX2                !
 ! A107  A(48,26,50)           107.5064         estimate D2E/DX2                !
 ! A108  A(49,26,50)           108.632          estimate D2E/DX2                !
 ! A109  A(25,27,51)           122.8536         estimate D2E/DX2                !
 ! A110  A(25,27,52)           121.2494         estimate D2E/DX2                !
 ! A111  A(51,27,52)           115.8959         estimate D2E/DX2                !
 ! A112  A(18,28,53)           110.5415         estimate D2E/DX2                !
 ! A113  A(18,28,54)           111.2801         estimate D2E/DX2                !
 ! A114  A(18,28,55)           112.5519         estimate D2E/DX2                !
 ! A115  A(53,28,54)           108.2834         estimate D2E/DX2                !
 ! A116  A(53,28,55)           105.3322         estimate D2E/DX2                !
 ! A117  A(54,28,55)           108.5968         estimate D2E/DX2                !
 ! A118  A(18,29,56)           110.6746         estimate D2E/DX2                !
 ! A119  A(18,29,57)           111.3744         estimate D2E/DX2                !
 ! A120  A(18,29,58)           112.0988         estimate D2E/DX2                !
 ! A121  A(56,29,57)           108.2958         estimate D2E/DX2                !
 ! A122  A(56,29,58)           105.253          estimate D2E/DX2                !
 ! A123  A(57,29,58)           108.8962         estimate D2E/DX2                !
 ! A124  A(2,32,59)            112.0668         estimate D2E/DX2                !
 ! A125  A(2,32,60)            110.8547         estimate D2E/DX2                !
 ! A126  A(2,32,61)            110.2297         estimate D2E/DX2                !
 ! A127  A(59,32,60)           107.4565         estimate D2E/DX2                !
 ! A128  A(59,32,61)           107.4167         estimate D2E/DX2                !
 ! A129  A(60,32,61)           108.6747         estimate D2E/DX2                !
 ! A130  A(14,62,63)           111.0802         estimate D2E/DX2                !
 ! A131  A(14,62,64)           109.98           estimate D2E/DX2                !
 ! A132  A(14,62,65)           111.5795         estimate D2E/DX2                !
 ! A133  A(63,62,64)           107.9886         estimate D2E/DX2                !
 ! A134  A(63,62,65)           108.5695         estimate D2E/DX2                !
 ! A135  A(64,62,65)           107.5064         estimate D2E/DX2                !
 ! D1    D(6,1,2,3)             -0.7528         estimate D2E/DX2                !
 ! D2    D(6,1,2,32)           175.2124         estimate D2E/DX2                !
 ! D3    D(33,1,2,3)          -177.1691         estimate D2E/DX2                !
 ! D4    D(33,1,2,32)           -1.204          estimate D2E/DX2                !
 ! D5    D(2,1,6,5)             28.9387         estimate D2E/DX2                !
 ! D6    D(2,1,6,34)           -95.0598         estimate D2E/DX2                !
 ! D7    D(2,1,6,35)           152.0835         estimate D2E/DX2                !
 ! D8    D(33,1,6,5)          -154.5197         estimate D2E/DX2                !
 ! D9    D(33,1,6,34)           81.4818         estimate D2E/DX2                !
 ! D10   D(33,1,6,35)          -31.375          estimate D2E/DX2                !
 ! D11   D(1,2,3,4)            -12.8821         estimate D2E/DX2                !
 ! D12   D(1,2,3,20)          -135.3402         estimate D2E/DX2                !
 ! D13   D(1,2,3,31)           107.6579         estimate D2E/DX2                !
 ! D14   D(32,2,3,4)           171.0264         estimate D2E/DX2                !
 ! D15   D(32,2,3,20)           48.5683         estimate D2E/DX2                !
 ! D16   D(32,2,3,31)          -68.4336         estimate D2E/DX2                !
 ! D17   D(1,2,32,59)           -4.8972         estimate D2E/DX2                !
 ! D18   D(1,2,32,60)          115.157          estimate D2E/DX2                !
 ! D19   D(1,2,32,61)         -124.4747         estimate D2E/DX2                !
 ! D20   D(3,2,32,59)          171.2358         estimate D2E/DX2                !
 ! D21   D(3,2,32,60)          -68.71           estimate D2E/DX2                !
 ! D22   D(3,2,32,61)           51.6583         estimate D2E/DX2                !
 ! D23   D(2,3,4,5)             -2.5517         estimate D2E/DX2                !
 ! D24   D(2,3,4,7)           -129.5342         estimate D2E/DX2                !
 ! D25   D(2,3,4,24)           117.7419         estimate D2E/DX2                !
 ! D26   D(20,3,4,5)           123.7384         estimate D2E/DX2                !
 ! D27   D(20,3,4,7)            -3.2441         estimate D2E/DX2                !
 ! D28   D(20,3,4,24)         -115.968          estimate D2E/DX2                !
 ! D29   D(31,3,4,5)          -122.0133         estimate D2E/DX2                !
 ! D30   D(31,3,4,7)           111.0042         estimate D2E/DX2                !
 ! D31   D(31,3,4,24)           -1.7197         estimate D2E/DX2                !
 ! D32   D(2,3,20,17)          153.2718         estimate D2E/DX2                !
 ! D33   D(2,3,20,42)           32.5434         estimate D2E/DX2                !
 ! D34   D(2,3,20,43)          -86.1374         estimate D2E/DX2                !
 ! D35   D(4,3,20,17)           25.2158         estimate D2E/DX2                !
 ! D36   D(4,3,20,42)          -95.5126         estimate D2E/DX2                !
 ! D37   D(4,3,20,43)          145.8066         estimate D2E/DX2                !
 ! D38   D(31,3,20,17)         -90.0394         estimate D2E/DX2                !
 ! D39   D(31,3,20,42)         149.2322         estimate D2E/DX2                !
 ! D40   D(31,3,20,43)          30.5514         estimate D2E/DX2                !
 ! D41   D(3,4,5,6)             28.8904         estimate D2E/DX2                !
 ! D42   D(3,4,5,10)           -97.1382         estimate D2E/DX2                !
 ! D43   D(3,4,5,22)           146.9052         estimate D2E/DX2                !
 ! D44   D(7,4,5,6)            151.9373         estimate D2E/DX2                !
 ! D45   D(7,4,5,10)            25.9088         estimate D2E/DX2                !
 ! D46   D(7,4,5,22)           -90.0478         estimate D2E/DX2                !
 ! D47   D(24,4,5,6)           -91.7797         estimate D2E/DX2                !
 ! D48   D(24,4,5,10)          142.1917         estimate D2E/DX2                !
 ! D49   D(24,4,5,22)           26.2352         estimate D2E/DX2                !
 ! D50   D(3,4,7,8)             89.3416         estimate D2E/DX2                !
 ! D51   D(3,4,7,17)           -20.3835         estimate D2E/DX2                !
 ! D52   D(3,4,7,21)          -145.0625         estimate D2E/DX2                !
 ! D53   D(5,4,7,8)            -40.9428         estimate D2E/DX2                !
 ! D54   D(5,4,7,17)          -150.668          estimate D2E/DX2                !
 ! D55   D(5,4,7,21)            84.6531         estimate D2E/DX2                !
 ! D56   D(24,4,7,8)          -157.3125         estimate D2E/DX2                !
 ! D57   D(24,4,7,17)           92.9624         estimate D2E/DX2                !
 ! D58   D(24,4,7,21)          -31.7165         estimate D2E/DX2                !
 ! D59   D(3,4,24,23)         -133.6168         estimate D2E/DX2                !
 ! D60   D(5,4,24,23)           -5.9837         estimate D2E/DX2                !
 ! D61   D(7,4,24,23)          114.6442         estimate D2E/DX2                !
 ! D62   D(4,5,6,1)            -41.1281         estimate D2E/DX2                !
 ! D63   D(4,5,6,34)            80.3614         estimate D2E/DX2                !
 ! D64   D(4,5,6,35)          -162.8833         estimate D2E/DX2                !
 ! D65   D(10,5,6,1)            88.7549         estimate D2E/DX2                !
 ! D66   D(10,5,6,34)         -149.7556         estimate D2E/DX2                !
 ! D67   D(10,5,6,35)          -33.0003         estimate D2E/DX2                !
 ! D68   D(22,5,6,1)          -154.1357         estimate D2E/DX2                !
 ! D69   D(22,5,6,34)          -32.6462         estimate D2E/DX2                !
 ! D70   D(22,5,6,35)           84.1091         estimate D2E/DX2                !
 ! D71   D(4,5,10,9)             2.6507         estimate D2E/DX2                !
 ! D72   D(4,5,10,16)         -175.51           estimate D2E/DX2                !
 ! D73   D(6,5,10,9)          -125.796          estimate D2E/DX2                !
 ! D74   D(6,5,10,16)           56.0434         estimate D2E/DX2                !
 ! D75   D(22,5,10,9)          115.3589         estimate D2E/DX2                !
 ! D76   D(22,5,10,16)         -62.8017         estimate D2E/DX2                !
 ! D77   D(4,5,22,23)          -35.838          estimate D2E/DX2                !
 ! D78   D(4,5,22,45)         -157.3957         estimate D2E/DX2                !
 ! D79   D(4,5,22,46)           82.9437         estimate D2E/DX2                !
 ! D80   D(6,5,22,23)           84.4205         estimate D2E/DX2                !
 ! D81   D(6,5,22,45)          -37.1372         estimate D2E/DX2                !
 ! D82   D(6,5,22,46)         -156.7978         estimate D2E/DX2                !
 ! D83   D(10,5,22,23)        -157.8254         estimate D2E/DX2                !
 ! D84   D(10,5,22,45)          80.6169         estimate D2E/DX2                !
 ! D85   D(10,5,22,46)         -39.0437         estimate D2E/DX2                !
 ! D86   D(4,7,8,9)             28.135          estimate D2E/DX2                !
 ! D87   D(4,7,8,19)          -142.9602         estimate D2E/DX2                !
 ! D88   D(17,7,8,9)           142.61           estimate D2E/DX2                !
 ! D89   D(17,7,8,19)          -28.4853         estimate D2E/DX2                !
 ! D90   D(21,7,8,9)           -99.1509         estimate D2E/DX2                !
 ! D91   D(21,7,8,19)           89.7538         estimate D2E/DX2                !
 ! D92   D(4,7,17,18)          154.9106         estimate D2E/DX2                !
 ! D93   D(4,7,17,20)           35.5633         estimate D2E/DX2                !
 ! D94   D(4,7,17,30)          -83.7022         estimate D2E/DX2                !
 ! D95   D(8,7,17,18)           34.5215         estimate D2E/DX2                !
 ! D96   D(8,7,17,20)          -84.8259         estimate D2E/DX2                !
 ! D97   D(8,7,17,30)          155.9087         estimate D2E/DX2                !
 ! D98   D(21,7,17,18)         -80.7631         estimate D2E/DX2                !
 ! D99   D(21,7,17,20)         159.8895         estimate D2E/DX2                !
 ! D100  D(21,7,17,30)          40.6241         estimate D2E/DX2                !
 ! D101  D(4,7,21,44)           39.7953         estimate D2E/DX2                !
 ! D102  D(8,7,21,44)          168.7734         estimate D2E/DX2                !
 ! D103  D(17,7,21,44)         -81.8431         estimate D2E/DX2                !
 ! D104  D(7,8,9,10)             2.3972         estimate D2E/DX2                !
 ! D105  D(7,8,9,11)          -174.84           estimate D2E/DX2                !
 ! D106  D(19,8,9,10)          172.5968         estimate D2E/DX2                !
 ! D107  D(19,8,9,11)           -4.6404         estimate D2E/DX2                !
 ! D108  D(7,8,19,18)            8.9622         estimate D2E/DX2                !
 ! D109  D(9,8,19,18)         -162.1384         estimate D2E/DX2                !
 ! D110  D(8,9,10,5)           -18.39           estimate D2E/DX2                !
 ! D111  D(8,9,10,16)          159.8059         estimate D2E/DX2                !
 ! D112  D(11,9,10,5)          158.8056         estimate D2E/DX2                !
 ! D113  D(11,9,10,16)         -22.9985         estimate D2E/DX2                !
 ! D114  D(8,9,11,12)           96.0128         estimate D2E/DX2                !
 ! D115  D(8,9,11,13)          -83.6921         estimate D2E/DX2                !
 ! D116  D(10,9,11,12)         -81.1766         estimate D2E/DX2                !
 ! D117  D(10,9,11,13)          99.1185         estimate D2E/DX2                !
 ! D118  D(9,11,13,14)         -10.1393         estimate D2E/DX2                !
 ! D119  D(9,11,13,15)         116.2348         estimate D2E/DX2                !
 ! D120  D(9,11,13,36)        -127.8818         estimate D2E/DX2                !
 ! D121  D(12,11,13,14)        170.1653         estimate D2E/DX2                !
 ! D122  D(12,11,13,15)        -63.4606         estimate D2E/DX2                !
 ! D123  D(12,11,13,36)         52.4229         estimate D2E/DX2                !
 ! D124  D(11,13,14,37)        -50.6475         estimate D2E/DX2                !
 ! D125  D(11,13,14,38)         66.7272         estimate D2E/DX2                !
 ! D126  D(11,13,14,62)       -170.9707         estimate D2E/DX2                !
 ! D127  D(15,13,14,37)       -175.1694         estimate D2E/DX2                !
 ! D128  D(15,13,14,38)        -57.7947         estimate D2E/DX2                !
 ! D129  D(15,13,14,62)         64.5074         estimate D2E/DX2                !
 ! D130  D(36,13,14,37)         65.6962         estimate D2E/DX2                !
 ! D131  D(36,13,14,38)       -176.929          estimate D2E/DX2                !
 ! D132  D(36,13,14,62)        -54.627          estimate D2E/DX2                !
 ! D133  D(11,13,15,39)         48.0015         estimate D2E/DX2                !
 ! D134  D(11,13,15,40)        167.5906         estimate D2E/DX2                !
 ! D135  D(11,13,15,41)        -71.7195         estimate D2E/DX2                !
 ! D136  D(14,13,15,39)        175.8534         estimate D2E/DX2                !
 ! D137  D(14,13,15,40)        -64.5575         estimate D2E/DX2                !
 ! D138  D(14,13,15,41)         56.1325         estimate D2E/DX2                !
 ! D139  D(36,13,15,39)        -65.6143         estimate D2E/DX2                !
 ! D140  D(36,13,15,40)         53.9748         estimate D2E/DX2                !
 ! D141  D(36,13,15,41)        174.6647         estimate D2E/DX2                !
 ! D142  D(13,14,62,63)         54.9126         estimate D2E/DX2                !
 ! D143  D(13,14,62,64)        174.4059         estimate D2E/DX2                !
 ! D144  D(13,14,62,65)        -66.3847         estimate D2E/DX2                !
 ! D145  D(37,14,62,63)        -66.5032         estimate D2E/DX2                !
 ! D146  D(37,14,62,64)         52.9901         estimate D2E/DX2                !
 ! D147  D(37,14,62,65)        172.1995         estimate D2E/DX2                !
 ! D148  D(38,14,62,63)        178.2288         estimate D2E/DX2                !
 ! D149  D(38,14,62,64)        -62.278          estimate D2E/DX2                !
 ! D150  D(38,14,62,65)         56.9315         estimate D2E/DX2                !
 ! D151  D(7,17,18,19)         -31.8607         estimate D2E/DX2                !
 ! D152  D(7,17,18,28)          85.9459         estimate D2E/DX2                !
 ! D153  D(7,17,18,29)        -150.4939         estimate D2E/DX2                !
 ! D154  D(20,17,18,19)         77.9261         estimate D2E/DX2                !
 ! D155  D(20,17,18,28)       -164.2674         estimate D2E/DX2                !
 ! D156  D(20,17,18,29)        -40.7072         estimate D2E/DX2                !
 ! D157  D(30,17,18,19)       -153.941          estimate D2E/DX2                !
 ! D158  D(30,17,18,28)        -36.1345         estimate D2E/DX2                !
 ! D159  D(30,17,18,29)         87.4257         estimate D2E/DX2                !
 ! D160  D(7,17,20,3)          -37.2324         estimate D2E/DX2                !
 ! D161  D(7,17,20,42)          82.346          estimate D2E/DX2                !
 ! D162  D(7,17,20,43)        -158.3158         estimate D2E/DX2                !
 ! D163  D(18,17,20,3)        -147.4419         estimate D2E/DX2                !
 ! D164  D(18,17,20,42)        -27.8635         estimate D2E/DX2                !
 ! D165  D(18,17,20,43)         91.4747         estimate D2E/DX2                !
 ! D166  D(30,17,20,3)          83.7278         estimate D2E/DX2                !
 ! D167  D(30,17,20,42)       -156.6938         estimate D2E/DX2                !
 ! D168  D(30,17,20,43)        -37.3556         estimate D2E/DX2                !
 ! D169  D(17,18,19,8)          14.5984         estimate D2E/DX2                !
 ! D170  D(28,18,19,8)        -106.3486         estimate D2E/DX2                !
 ! D171  D(29,18,19,8)         136.6706         estimate D2E/DX2                !
 ! D172  D(17,18,28,53)       -179.4836         estimate D2E/DX2                !
 ! D173  D(17,18,28,54)         60.1535         estimate D2E/DX2                !
 ! D174  D(17,18,28,55)        -62.0089         estimate D2E/DX2                !
 ! D175  D(19,18,28,53)        -63.0223         estimate D2E/DX2                !
 ! D176  D(19,18,28,54)        176.6147         estimate D2E/DX2                !
 ! D177  D(19,18,28,55)         54.4523         estimate D2E/DX2                !
 ! D178  D(29,18,28,53)         54.0302         estimate D2E/DX2                !
 ! D179  D(29,18,28,54)        -66.3327         estimate D2E/DX2                !
 ! D180  D(29,18,28,55)        171.5049         estimate D2E/DX2                !
 ! D181  D(17,18,29,56)       -177.9526         estimate D2E/DX2                !
 ! D182  D(17,18,29,57)        -57.4215         estimate D2E/DX2                !
 ! D183  D(17,18,29,58)         64.8726         estimate D2E/DX2                !
 ! D184  D(19,18,29,56)         64.9102         estimate D2E/DX2                !
 ! D185  D(19,18,29,57)       -174.5587         estimate D2E/DX2                !
 ! D186  D(19,18,29,58)        -52.2647         estimate D2E/DX2                !
 ! D187  D(28,18,29,56)        -51.9415         estimate D2E/DX2                !
 ! D188  D(28,18,29,57)         68.5896         estimate D2E/DX2                !
 ! D189  D(28,18,29,58)       -169.1163         estimate D2E/DX2                !
 ! D190  D(5,22,23,24)          33.4993         estimate D2E/DX2                !
 ! D191  D(5,22,23,25)         155.176          estimate D2E/DX2                !
 ! D192  D(5,22,23,47)         -80.9684         estimate D2E/DX2                !
 ! D193  D(45,22,23,24)        156.0912         estimate D2E/DX2                !
 ! D194  D(45,22,23,25)        -82.2321         estimate D2E/DX2                !
 ! D195  D(45,22,23,47)         41.6235         estimate D2E/DX2                !
 ! D196  D(46,22,23,24)        -83.9243         estimate D2E/DX2                !
 ! D197  D(46,22,23,25)         37.7525         estimate D2E/DX2                !
 ! D198  D(46,22,23,47)        161.608          estimate D2E/DX2                !
 ! D199  D(22,23,24,4)         -17.2423         estimate D2E/DX2                !
 ! D200  D(25,23,24,4)        -145.0728         estimate D2E/DX2                !
 ! D201  D(47,23,24,4)          99.074          estimate D2E/DX2                !
 ! D202  D(22,23,25,26)       -175.4536         estimate D2E/DX2                !
 ! D203  D(22,23,25,27)          6.2994         estimate D2E/DX2                !
 ! D204  D(24,23,25,26)        -55.3728         estimate D2E/DX2                !
 ! D205  D(24,23,25,27)        126.3802         estimate D2E/DX2                !
 ! D206  D(47,23,25,26)         59.8472         estimate D2E/DX2                !
 ! D207  D(47,23,25,27)       -118.3997         estimate D2E/DX2                !
 ! D208  D(23,25,26,48)       -175.0432         estimate D2E/DX2                !
 ! D209  D(23,25,26,49)        -55.2823         estimate D2E/DX2                !
 ! D210  D(23,25,26,50)         64.9141         estimate D2E/DX2                !
 ! D211  D(27,25,26,48)          3.3001         estimate D2E/DX2                !
 ! D212  D(27,25,26,49)        123.0609         estimate D2E/DX2                !
 ! D213  D(27,25,26,50)       -116.7427         estimate D2E/DX2                !
 ! D214  D(23,25,27,51)         -0.3325         estimate D2E/DX2                !
 ! D215  D(23,25,27,52)        179.2622         estimate D2E/DX2                !
 ! D216  D(26,25,27,51)       -178.5002         estimate D2E/DX2                !
 ! D217  D(26,25,27,52)          1.0945         estimate D2E/DX2                !
 --------------------------------------------------------------------------------
 Trust Radius=3.00D-01 FncErr=1.00D-07 GrdErr=1.00D-06
 Number of steps in this run=    390 maximum allowed number of steps=    390.
 GradGradGradGradGradGradGradGradGradGradGradGradGradGradGradGradGradGrad

 Stoichiometry    C26H34O5
 Framework group  C1[X(C26H34O5)]
 Deg. of freedom   189
 Full point group                 C1      NOp   1
 Largest Abelian subgroup         C1      NOp   1
 Largest concise Abelian subgroup C1      NOp   1
                         Standard orientation:                         
 ---------------------------------------------------------------------
 Center     Atomic      Atomic             Coordinates (Angstroms)
 Number     Number       Type             X           Y           Z
 ---------------------------------------------------------------------
      1          6           0        1.750457    1.451221   -2.800659
      2          6           0        1.702323    2.331024   -1.789100
      3          6           0        1.713026    1.883910   -0.346469
      4          6           0        1.470057    0.367209   -0.099155
      5          6           0        1.182663   -0.534860   -1.311147
      6          6           0        1.834467   -0.028818   -2.613569
      7          6           0        0.356940    0.313434    0.966724
      8          6           0       -1.033709    0.297238    0.434167
      9          6           0       -1.353396   -0.204483   -0.761938
     10          6           0       -0.300022   -0.824441   -1.592139
     11          6           0       -2.739498   -0.076468   -1.259902
     12          8           0       -3.006774    0.861554   -2.015525
     13          6           0       -3.805729   -1.089042   -0.831915
     14          6           0       -3.261696   -2.320671   -0.087052
     15          6           0       -4.879627   -0.355799   -0.026557
     16          8           0       -0.631558   -1.602260   -2.489923
     17          6           0        0.336279    1.653304    1.669363
     18          6           0       -1.115452    1.740963    2.187260
     19          8           0       -1.923537    1.028395    1.215486
     20          6           0        0.676427    2.619210    0.522398
     21          8           0        0.520724   -0.774740    1.860482
     22          6           0        1.830811   -1.852756   -0.876855
     23          6           0        3.060020   -1.394858   -0.103832
     24          8           0        2.674018   -0.165159    0.537199
     25          6           0        3.638490   -2.321727    0.941095
     26          6           0        4.787044   -1.751765    1.734821
     27          6           0        3.226797   -3.581110    1.167440
     28          6           0       -1.302185    1.059034    3.551932
     29          6           0       -1.643014    3.176002    2.292852
     30          1           0        1.072195    1.731079    2.477925
     31          1           0        2.705191    2.144687    0.050947
     32          6           0        1.726317    3.812837   -2.056672
     33          1           0        1.787745    1.807143   -3.828956
     34          1           0        2.895747   -0.299994   -2.666714
     35          1           0        1.370527   -0.506549   -3.485703
     36          1           0       -4.254855   -1.442950   -1.770061
     37          1           0       -2.438256   -2.763014   -0.660024
     38          1           0       -2.848818   -2.029860    0.886212
     39          1           0       -5.204874    0.558082   -0.535706
     40          1           0       -5.766622   -0.980396    0.115883
     41          1           0       -4.504676   -0.065244    0.960508
     42          1           0       -0.208389    2.865002   -0.077358
     43          1           0        1.073254    3.563464    0.912112
     44          1           0        1.481496   -0.831845    2.039017
     45          1           0        2.091619   -2.510663   -1.713620
     46          1           0        1.136531   -2.408900   -0.234555
     47          1           0        3.862329   -1.145034   -0.809163
     48          1           0        5.225692   -2.489161    2.415741
     49          1           0        5.581525   -1.411973    1.062266
     50          1           0        4.453771   -0.902447    2.339594
     51          1           0        2.422100   -4.046432    0.608726
     52          1           0        3.695252   -4.199109    1.928680
     53          1           0       -2.345675    1.134729    3.880313
     54          1           0       -0.667373    1.519054    4.316178
     55          1           0       -1.086721   -0.012153    3.518317
     56          1           0       -2.661716    3.185099    2.698372
     57          1           0       -1.008948    3.787350    2.942818
     58          1           0       -1.718365    3.659994    1.314242
     59          1           0        1.871205    4.036897   -3.119130
     60          1           0        0.786165    4.279635   -1.748040
     61          1           0        2.548253    4.283457   -1.507449
     62          6           0       -4.308055   -3.405759    0.131362
     63          1           0       -4.769430   -3.703959   -0.815238
     64          1           0       -3.841378   -4.291853    0.574005
     65          1           0       -5.095897   -3.073431    0.813383
 ---------------------------------------------------------------------
 Rotational constants (GHZ):      0.1930798      0.1338254      0.1232397
 Standard basis: 6-31G(d) (6D, 7F)
 There are   533 symmetry adapted basis functions of A   symmetry.
 Integral buffers will be    131072 words long.
 Raffenetti 2 integral format.
 Two-electron integral symmetry is turned on.
   533 basis functions,  1004 primitive gaussians,   533 cartesian basis functions
   115 alpha electrons      115 beta electrons
       nuclear repulsion energy      3539.2622934536 Hartrees.
 NAtoms=   65 NActive=   65 NUniq=   65 SFac= 1.00D+00 NAtFMM=   50 NAOKFM=T Big=T
 One-electron integrals computed using PRISM.
 NBasis=   533 RedAO= T  NBF=   533
 NBsUse=   533 1.00D-06 NBFU=   533
 Harris functional with IExCor=  402 diagonalized for initial guess.
 ExpMin= 1.61D-01 ExpMax= 5.48D+03 ExpMxC= 8.25D+02 IAcc=1 IRadAn=         1 AccDes= 0.00D+00
 HarFok:  IExCor=  402 AccDes= 0.00D+00 IRadAn=         1 IDoV= 1
 ScaDFX=  1.000000  1.000000  1.000000  1.000000
 FoFCou: FMM=F IPFlag=           0 FMFlag=      100000 FMFlg1=        2001
         NFxFlg=           0 DoJE=T BraDBF=F KetDBF=T FulRan=T
         Omega=  0.000000  0.000000  1.000000  0.000000  0.000000 ICntrl=     500 IOpCl=  0
         NMat0=    1 NMatS0=    1 NMatT0=    0 NMatD0=    1 NMtDS0=    0 NMtDT0=    0
         I1Cent=           4 NGrid=           0.
 Petite list used in FoFCou.
 Initial guess orbital symmetries:
       Occupied  (A) (A) (A) (A) (A) (A) (A) (A) (A) (A) (A) (A)
                 (A) (A) (A) (A) (A) (A) (A) (A) (A) (A) (A) (A)
                 (A) (A) (A) (A) (A) (A) (A) (A) (A) (A) (A) (A)
                 (A) (A) (A) (A) (A) (A) (A) (A) (A) (A) (A) (A)
                 (A) (A) (A) (A) (A) (A) (A) (A) (A) (A) (A) (A)
                 (A) (A) (A) (A) (A) (A) (A) (A) (A) (A) (A) (A)
                 (A) (A) (A) (A) (A) (A) (A) (A) (A) (A) (A) (A)
                 (A) (A) (A) (A) (A) (A) (A) (A) (A) (A) (A) (A)
                 (A) (A) (A) (A) (A) (A) (A) (A) (A) (A) (A) (A)
                 (A) (A) (A) (A) (A) (A) (A)
       Virtual   (A) (A) (A) (A) (A) (A) (A) (A) (A) (A) (A) (A)
                 (A) (A) (A) (A) (A) (A) (A) (A) (A) (A) (A) (A)
                 (A) (A) (A) (A) (A) (A) (A) (A) (A) (A) (A) (A)
                 (A) (A) (A) (A) (A) (A) (A) (A) (A) (A) (A) (A)
                 (A) (A) (A) (A) (A) (A) (A) (A) (A) (A) (A) (A)
                 (A) (A) (A) (A) (A) (A) (A) (A) (A) (A) (A) (A)
                 (A) (A) (A) (A) (A) (A) (A) (A) (A) (A) (A) (A)
                 (A) (A) (A) (A) (A) (A) (A) (A) (A) (A) (A) (A)
                 (A) (A) (A) (A) (A) (A) (A) (A) (A) (A) (A) (A)
                 (A) (A) (A) (A) (A) (A) (A) (A) (A) (A) (A) (A)
                 (A) (A) (A) (A) (A) (A) (A) (A) (A) (A) (A) (A)
                 (A) (A) (A) (A) (A) (A) (A) (A) (A) (A) (A) (A)
                 (A) (A) (A) (A) (A) (A) (A) (A) (A) (A) (A) (A)
                 (A) (A) (A) (A) (A) (A) (A) (A) (A) (A) (A) (A)
                 (A) (A) (A) (A) (A) (A) (A) (A) (A) (A) (A) (A)
                 (A) (A) (A) (A) (A) (A) (A) (A) (A) (A) (A) (A)
                 (A) (A) (A) (A) (A) (A) (A) (A) (A) (A) (A) (A)
                 (A) (A) (A) (A) (A) (A) (A) (A) (A) (A) (A) (A)
                 (A) (A) (A) (A) (A) (A) (A) (A) (A) (A) (A) (A)
                 (A) (A) (A) (A) (A) (A) (A) (A) (A) (A) (A) (A)
                 (A) (A) (A) (A) (A) (A) (A) (A) (A) (A) (A) (A)
                 (A) (A) (A) (A) (A) (A) (A) (A) (A) (A) (A) (A)
                 (A) (A) (A) (A) (A) (A) (A) (A) (A) (A) (A) (A)
                 (A) (A) (A) (A) (A) (A) (A) (A) (A) (A) (A) (A)
                 (A) (A) (A) (A) (A) (A) (A) (A) (A) (A) (A) (A)
                 (A) (A) (A) (A) (A) (A) (A) (A) (A) (A) (A) (A)
                 (A) (A) (A) (A) (A) (A) (A) (A) (A) (A) (A) (A)
                 (A) (A) (A) (A) (A) (A) (A) (A) (A) (A) (A) (A)
                 (A) (A) (A) (A) (A) (A) (A) (A) (A) (A) (A) (A)
                 (A) (A) (A) (A) (A) (A) (A) (A) (A) (A) (A) (A)
                 (A) (A) (A) (A) (A) (A) (A) (A) (A) (A) (A) (A)
                 (A) (A) (A) (A) (A) (A) (A) (A) (A) (A) (A) (A)
                 (A) (A) (A) (A) (A) (A) (A) (A) (A) (A) (A) (A)
                 (A) (A) (A) (A) (A) (A) (A) (A) (A) (A) (A) (A)
                 (A) (A) (A) (A) (A) (A) (A) (A) (A) (A)
 The electronic state of the initial guess is 1-A.
 Requested convergence on RMS density matrix=1.00D-08 within 128 cycles.
 Requested convergence on MAX density matrix=1.00D-06.
 Requested convergence on             energy=1.00D-06.
 No special actions if energy rises.
 Integral accuracy reduced to 1.0D-05 until final iterations.
 Initial convergence to 1.0D-05 achieved.  Increase integral accuracy.
 SCF Done:  E(RB3LYP) =  -1387.30029479     A.U. after   16 cycles
             Convg  =    0.4498D-08             -V/T =  2.0091

 **********************************************************************

            Population analysis using the SCF density.

 **********************************************************************

 Orbital symmetries:
       Occupied  (A) (A) (A) (A) (A) (A) (A) (A) (A) (A) (A) (A)
                 (A) (A) (A) (A) (A) (A) (A) (A) (A) (A) (A) (A)
                 (A) (A) (A) (A) (A) (A) (A) (A) (A) (A) (A) (A)
                 (A) (A) (A) (A) (A) (A) (A) (A) (A) (A) (A) (A)
                 (A) (A) (A) (A) (A) (A) (A) (A) (A) (A) (A) (A)
                 (A) (A) (A) (A) (A) (A) (A) (A) (A) (A) (A) (A)
                 (A) (A) (A) (A) (A) (A) (A) (A) (A) (A) (A) (A)
                 (A) (A) (A) (A) (A) (A) (A) (A) (A) (A) (A) (A)
                 (A) (A) (A) (A) (A) (A) (A) (A) (A) (A) (A) (A)
                 (A) (A) (A) (A) (A) (A) (A)
       Virtual   (A) (A) (A) (A) (A) (A) (A) (A) (A) (A) (A) (A)
                 (A) (A) (A) (A) (A) (A) (A) (A) (A) (A) (A) (A)
                 (A) (A) (A) (A) (A) (A) (A) (A) (A) (A) (A) (A)
                 (A) (A) (A) (A) (A) (A) (A) (A) (A) (A) (A) (A)
                 (A) (A) (A) (A) (A) (A) (A) (A) (A) (A) (A) (A)
                 (A) (A) (A) (A) (A) (A) (A) (A) (A) (A) (A) (A)
                 (A) (A) (A) (A) (A) (A) (A) (A) (A) (A) (A) (A)
                 (A) (A) (A) (A) (A) (A) (A) (A) (A) (A) (A) (A)
                 (A) (A) (A) (A) (A) (A) (A) (A) (A) (A) (A) (A)
                 (A) (A) (A) (A) (A) (A) (A) (A) (A) (A) (A) (A)
                 (A) (A) (A) (A) (A) (A) (A) (A) (A) (A) (A) (A)
                 (A) (A) (A) (A) (A) (A) (A) (A) (A) (A) (A) (A)
                 (A) (A) (A) (A) (A) (A) (A) (A) (A) (A) (A) (A)
                 (A) (A) (A) (A) (A) (A) (A) (A) (A) (A) (A) (A)
                 (A) (A) (A) (A) (A) (A) (A) (A) (A) (A) (A) (A)
                 (A) (A) (A) (A) (A) (A) (A) (A) (A) (A) (A) (A)
                 (A) (A) (A) (A) (A) (A) (A) (A) (A) (A) (A) (A)
                 (A) (A) (A) (A) (A) (A) (A) (A) (A) (A) (A) (A)
                 (A) (A) (A) (A) (A) (A) (A) (A) (A) (A) (A) (A)
                 (A) (A) (A) (A) (A) (A) (A) (A) (A) (A) (A) (A)
                 (A) (A) (A) (A) (A) (A) (A) (A) (A) (A) (A) (A)
                 (A) (A) (A) (A) (A) (A) (A) (A) (A) (A) (A) (A)
                 (A) (A) (A) (A) (A) (A) (A) (A) (A) (A) (A) (A)
                 (A) (A) (A) (A) (A) (A) (A) (A) (A) (A) (A) (A)
                 (A) (A) (A) (A) (A) (A) (A) (A) (A) (A) (A) (A)
                 (A) (A) (A) (A) (A) (A) (A) (A) (A) (A) (A) (A)
                 (A) (A) (A) (A) (A) (A) (A) (A) (A) (A) (A) (A)
                 (A) (A) (A) (A) (A) (A) (A) (A) (A) (A) (A) (A)
                 (A) (A) (A) (A) (A) (A) (A) (A) (A) (A) (A) (A)
                 (A) (A) (A) (A) (A) (A) (A) (A) (A) (A) (A) (A)
                 (A) (A) (A) (A) (A) (A) (A) (A) (A) (A) (A) (A)
                 (A) (A) (A) (A) (A) (A) (A) (A) (A) (A) (A) (A)
                 (A) (A) (A) (A) (A) (A) (A) (A) (A) (A) (A) (A)
                 (A) (A) (A) (A) (A) (A) (A) (A) (A) (A) (A) (A)
                 (A) (A) (A) (A) (A) (A) (A) (A) (A) (A)
 The electronic state is 1-A.
 Alpha  occ. eigenvalues --  -19.19531 -19.16724 -19.15295 -19.13409 -19.13077
 Alpha  occ. eigenvalues --  -10.27892 -10.26944 -10.26674 -10.26045 -10.25870
 Alpha  occ. eigenvalues --  -10.25415 -10.24983 -10.21563 -10.20630 -10.20151
 Alpha  occ. eigenvalues --  -10.20041 -10.19425 -10.19410 -10.19355 -10.19149
 Alpha  occ. eigenvalues --  -10.19050 -10.18746 -10.18670 -10.18598 -10.18535
 Alpha  occ. eigenvalues --  -10.18234 -10.17908 -10.17688 -10.17227 -10.16730
 Alpha  occ. eigenvalues --  -10.16703  -1.08410  -1.05953  -1.03233  -1.02248
 Alpha  occ. eigenvalues --   -1.02012  -0.87322  -0.83922  -0.82611  -0.81658
 Alpha  occ. eigenvalues --   -0.80414  -0.79944  -0.76845  -0.74350  -0.73598
 Alpha  occ. eigenvalues --   -0.72229  -0.71676  -0.69505  -0.69176  -0.67833
 Alpha  occ. eigenvalues --   -0.65647  -0.64386  -0.63443  -0.61849  -0.60789
 Alpha  occ. eigenvalues --   -0.59393  -0.58505  -0.57338  -0.55553  -0.53975
 Alpha  occ. eigenvalues --   -0.53153  -0.52170  -0.51004  -0.50434  -0.49138
 Alpha  occ. eigenvalues --   -0.48053  -0.47535  -0.46595  -0.46090  -0.45888
 Alpha  occ. eigenvalues --   -0.45319  -0.44999  -0.44455  -0.43683  -0.43151
 Alpha  occ. eigenvalues --   -0.42889  -0.42570  -0.41987  -0.41714  -0.41485
 Alpha  occ. eigenvalues --   -0.40862  -0.40827  -0.40364  -0.40011  -0.39731
 Alpha  occ. eigenvalues --   -0.39023  -0.38459  -0.38343  -0.38100  -0.37862
 Alpha  occ. eigenvalues --   -0.37652  -0.37173  -0.37036  -0.36791  -0.36713
 Alpha  occ. eigenvalues --   -0.36458  -0.35753  -0.34782  -0.34569  -0.34224
 Alpha  occ. eigenvalues --   -0.34058  -0.33590  -0.33181  -0.32412  -0.32112
 Alpha  occ. eigenvalues --   -0.31503  -0.31375  -0.31192  -0.27842  -0.26551
 Alpha  occ. eigenvalues --   -0.26057  -0.25150  -0.24552  -0.23316  -0.23121
 Alpha virt. eigenvalues --   -0.05084  -0.01904   0.00411   0.02377   0.03873
 Alpha virt. eigenvalues --    0.07096   0.08605   0.08870   0.09248   0.10091
 Alpha virt. eigenvalues --    0.10531   0.10876   0.11487   0.11965   0.12370
 Alpha virt. eigenvalues --    0.12970   0.13260   0.13575   0.13837   0.13948
 Alpha virt. eigenvalues --    0.14447   0.14612   0.14921   0.15439   0.15739
 Alpha virt. eigenvalues --    0.15881   0.16261   0.16764   0.17088   0.17587
 Alpha virt. eigenvalues --    0.17786   0.18027   0.18212   0.18542   0.18932
 Alpha virt. eigenvalues --    0.19044   0.19570   0.19805   0.20193   0.20255
 Alpha virt. eigenvalues --    0.20737   0.21319   0.21646   0.21857   0.22366
 Alpha virt. eigenvalues --    0.23083   0.23452   0.23574   0.24072   0.24673
 Alpha virt. eigenvalues --    0.24883   0.25395   0.25813   0.26473   0.26752
 Alpha virt. eigenvalues --    0.27135   0.27858   0.28584   0.29227   0.30465
 Alpha virt. eigenvalues --    0.30854   0.32092   0.32542   0.33288   0.34445
 Alpha virt. eigenvalues --    0.34992   0.35878   0.37737   0.38959   0.40558
 Alpha virt. eigenvalues --    0.42265   0.45393   0.45594   0.48093   0.48376
 Alpha virt. eigenvalues --    0.50125   0.50545   0.51165   0.51938   0.52061
 Alpha virt. eigenvalues --    0.52334   0.52673   0.52940   0.53458   0.53976
 Alpha virt. eigenvalues --    0.54284   0.54768   0.55277   0.55814   0.56652
 Alpha virt. eigenvalues --    0.57328   0.57565   0.57760   0.58408   0.59184
 Alpha virt. eigenvalues --    0.59275   0.59366   0.60252   0.61579   0.61762
 Alpha virt. eigenvalues --    0.62653   0.62818   0.63121   0.63850   0.63913
 Alpha virt. eigenvalues --    0.65212   0.66034   0.66742   0.67149   0.67402
 Alpha virt. eigenvalues --    0.68120   0.68552   0.68896   0.69297   0.69624
 Alpha virt. eigenvalues --    0.70817   0.71314   0.71909   0.72713   0.73245
 Alpha virt. eigenvalues --    0.73714   0.75024   0.75176   0.75674   0.76240
 Alpha virt. eigenvalues --    0.76825   0.77441   0.78849   0.80384   0.80519
 Alpha virt. eigenvalues --    0.81034   0.81137   0.81735   0.82341   0.82882
 Alpha virt. eigenvalues --    0.83374   0.83697   0.84387   0.84699   0.85055
 Alpha virt. eigenvalues --    0.85323   0.86032   0.86619   0.86801   0.87166
 Alpha virt. eigenvalues --    0.87365   0.87795   0.88364   0.88856   0.89171
 Alpha virt. eigenvalues --    0.89733   0.90116   0.90443   0.90532   0.90703
 Alpha virt. eigenvalues --    0.91103   0.91286   0.91721   0.91809   0.92325
 Alpha virt. eigenvalues --    0.93105   0.93446   0.93791   0.94047   0.94446
 Alpha virt. eigenvalues --    0.94722   0.95255   0.95858   0.96345   0.96688
 Alpha virt. eigenvalues --    0.97131   0.97515   0.98170   0.98719   0.99878
 Alpha virt. eigenvalues --    1.00511   1.01697   1.02042   1.02436   1.03378
 Alpha virt. eigenvalues --    1.04300   1.04740   1.05792   1.06158   1.07054
 Alpha virt. eigenvalues --    1.08924   1.10095   1.10337   1.11197   1.11689
 Alpha virt. eigenvalues --    1.12526   1.13506   1.14157   1.16026   1.17153
 Alpha virt. eigenvalues --    1.18049   1.18070   1.18742   1.19131   1.20531
 Alpha virt. eigenvalues --    1.21913   1.24295   1.24743   1.25205   1.26253
 Alpha virt. eigenvalues --    1.26458   1.30025   1.30535   1.31922   1.34325
 Alpha virt. eigenvalues --    1.35896   1.36025   1.37647   1.39018   1.39795
 Alpha virt. eigenvalues --    1.40348   1.41770   1.42719   1.43411   1.45276
 Alpha virt. eigenvalues --    1.47658   1.49034   1.50464   1.51324   1.52825
 Alpha virt. eigenvalues --    1.53293   1.54831   1.55746   1.56055   1.58110
 Alpha virt. eigenvalues --    1.60402   1.62370   1.62634   1.62898   1.64959
 Alpha virt. eigenvalues --    1.65934   1.66882   1.67630   1.68911   1.70480
 Alpha virt. eigenvalues --    1.71577   1.72306   1.73473   1.73711   1.74546
 Alpha virt. eigenvalues --    1.75265   1.76088   1.76399   1.77434   1.77952
 Alpha virt. eigenvalues --    1.78508   1.79623   1.80836   1.81365   1.82548
 Alpha virt. eigenvalues --    1.83156   1.83968   1.84269   1.85216   1.85728
 Alpha virt. eigenvalues --    1.86134   1.87061   1.87447   1.87859   1.88354
 Alpha virt. eigenvalues --    1.88578   1.89968   1.90819   1.91066   1.91917
 Alpha virt. eigenvalues --    1.92461   1.93347   1.93769   1.94697   1.94954
 Alpha virt. eigenvalues --    1.95942   1.96776   1.96968   1.98131   1.98595
 Alpha virt. eigenvalues --    1.99534   1.99966   2.00545   2.01712   2.02096
 Alpha virt. eigenvalues --    2.02663   2.03317   2.04582   2.05588   2.06125
 Alpha virt. eigenvalues --    2.06415   2.07108   2.07693   2.08719   2.09435
 Alpha virt. eigenvalues --    2.09850   2.10298   2.11771   2.13308   2.13825
 Alpha virt. eigenvalues --    2.14081   2.14574   2.16146   2.16798   2.17079
 Alpha virt. eigenvalues --    2.18865   2.20248   2.21277   2.22218   2.23144
 Alpha virt. eigenvalues --    2.23518   2.24361   2.25421   2.26163   2.27344
 Alpha virt. eigenvalues --    2.28725   2.29653   2.30626   2.30769   2.31324
 Alpha virt. eigenvalues --    2.32493   2.32992   2.33754   2.34294   2.34786
 Alpha virt. eigenvalues --    2.35439   2.36130   2.37359   2.38234   2.39182
 Alpha virt. eigenvalues --    2.39539   2.41084   2.42623   2.43589   2.44932
 Alpha virt. eigenvalues --    2.45130   2.46201   2.48094   2.48807   2.49879
 Alpha virt. eigenvalues --    2.50267   2.50478   2.51053   2.54782   2.55431
 Alpha virt. eigenvalues --    2.56967   2.57420   2.58695   2.59625   2.60749
 Alpha virt. eigenvalues --    2.61327   2.62149   2.63118   2.64331   2.66725
 Alpha virt. eigenvalues --    2.66868   2.68287   2.68807   2.69739   2.70154
 Alpha virt. eigenvalues --    2.71527   2.72008   2.74244   2.76880   2.78974
 Alpha virt. eigenvalues --    2.79801   2.81710   2.82728   2.85087   2.86951
 Alpha virt. eigenvalues --    2.87151   2.89586   2.93093   2.95289   2.95830
 Alpha virt. eigenvalues --    2.96991   2.99477   3.00873   3.02031   3.04015
 Alpha virt. eigenvalues --    3.05826   3.07548   3.12941   3.18600   3.21172
 Alpha virt. eigenvalues --    3.21697   3.29215   4.01071   4.08671   4.11365
 Alpha virt. eigenvalues --    4.13359   4.15049   4.16786   4.19801   4.20302
 Alpha virt. eigenvalues --    4.22898   4.24672   4.26145   4.27242   4.30034
 Alpha virt. eigenvalues --    4.32358   4.35454   4.38110   4.39445   4.43857
 Alpha virt. eigenvalues --    4.45207   4.47629   4.53360   4.55451   4.59967
 Alpha virt. eigenvalues --    4.63148   4.65612   4.71828   4.75409   4.82453
 Alpha virt. eigenvalues --    4.91212   5.01223   5.19048
          Condensed to atoms (all electrons):
 Mulliken atomic charges:
              1
     1  C   -0.190180
     2  C    0.191297
     3  C   -0.186133
     4  C    0.320847
     5  C   -0.045792
     6  C   -0.332466
     7  C    0.214142
     8  C    0.399237
     9  C   -0.090542
    10  C    0.431462
    11  C    0.415037
    12  O   -0.455444
    13  C   -0.140052
    14  C   -0.275242
    15  C   -0.461282
    16  O   -0.506448
    17  C   -0.162594
    18  C    0.312959
    19  O   -0.541819
    20  C   -0.320931
    21  O   -0.661763
    22  C   -0.325597
    23  C    0.105407
    24  O   -0.584849
    25  C    0.178614
    26  C   -0.504843
    27  C   -0.392185
    28  C   -0.462478
    29  C   -0.462660
    30  H    0.142548
    31  H    0.162883
    32  C   -0.517551
    33  H    0.123974
    34  H    0.151478
    35  H    0.180006
    36  H    0.161409
    37  H    0.153460
    38  H    0.141888
    39  H    0.166479
    40  H    0.146849
    41  H    0.154878
    42  H    0.173048
    43  H    0.147316
    44  H    0.410755
    45  H    0.167863
    46  H    0.171316
    47  H    0.136402
    48  H    0.153505
    49  H    0.154671
    50  H    0.165828
    51  H    0.149224
    52  H    0.142506
    53  H    0.148108
    54  H    0.139369
    55  H    0.184270
    56  H    0.157388
    57  H    0.149181
    58  H    0.162525
    59  H    0.158383
    60  H    0.161947
    61  H    0.147804
    62  C   -0.448310
    63  H    0.143751
    64  H    0.143328
    65  H    0.145817
 Sum of Mulliken atomic charges =   0.00000
 Mulliken charges with hydrogens summed into heavy atoms:
              1
     1  C   -0.066206
     2  C    0.191297
     3  C   -0.023250
     4  C    0.320847
     5  C   -0.045792
     6  C   -0.000983
     7  C    0.214142
     8  C    0.399237
     9  C   -0.090542
    10  C    0.431462
    11  C    0.415037
    12  O   -0.455444
    13  C    0.021357
    14  C    0.020107
    15  C    0.006924
    16  O   -0.506448
    17  C   -0.020046
    18  C    0.312959
    19  O   -0.541819
    20  C   -0.000567
    21  O   -0.251008
    22  C    0.013582
    23  C    0.241809
    24  O   -0.584849
    25  C    0.178614
    26  C   -0.030839
    27  C   -0.100455
    28  C    0.009269
    29  C    0.006435
    32  C   -0.049417
    62  C   -0.015413
 Sum of Mulliken charges with hydrogens summed into heavy atoms =   0.00000
 Electronic spatial extent (au):  <R**2>=          11088.9677
 Charge=              0.0000 electrons
 Dipole moment (field-independent basis, Debye):
    X=              3.8599    Y=              1.1566    Z=              3.5061  Tot=              5.3413
 Quadrupole moment (field-independent basis, Debye-Ang):
   XX=           -181.2425   YY=           -178.2013   ZZ=           -187.8730
   XY=              1.6617   XZ=             -7.4984   YZ=              2.3585
 Traceless Quadrupole moment (field-independent basis, Debye-Ang):
   XX=              1.1965   YY=              4.2376   ZZ=             -5.4341
   XY=              1.6617   XZ=             -7.4984   YZ=              2.3585
 Octapole moment (field-independent basis, Debye-Ang**2):
  XXX=             10.0248  YYY=             13.5963  ZZZ=             28.3492  XYY=             13.5660
  XXY=            -30.2346  XXZ=             21.7397  XZZ=             30.1406  YZZ=             18.1410
  YYZ=             20.4701  XYZ=            -16.9078
 Hexadecapole moment (field-independent basis, Debye-Ang**3):
 XXXX=          -7250.3495 YYYY=          -4254.2993 ZZZZ=          -3215.2432 XXXY=             -4.3309
 XXXZ=             27.7149 YYYX=            -37.4837 YYYZ=            -18.2525 ZZZX=            -36.2709
 ZZZY=             -7.5233 XXYY=          -1933.7520 XXZZ=          -1757.1905 YYZZ=          -1246.8330
 XXYZ=             20.4600 YYXZ=             20.5832 ZZXY=            -11.7642
 N-N= 3.539262293454D+03 E-N=-1.030487925199D+04  KE= 1.374778927817D+03
 Calling FoFJK, ICntrl=      2127 FMM=T ISym2X=0 I1Cent= 0 IOpClX= 0 NMat=1 NMatS=1 NMatT=0.
 ***** Axes restored to original set *****
 -------------------------------------------------------------------
 Center     Atomic                   Forces (Hartrees/Bohr)
 Number     Number              X              Y              Z
 -------------------------------------------------------------------
      1        6           0.009503735   -0.000465527    0.000335605
      2        6          -0.012807453   -0.005161911    0.001938251
      3        6          -0.000922820   -0.008070028   -0.000638432
      4        6           0.003084334   -0.004399330    0.010531459
      5        6          -0.011096931   -0.001764799    0.000881588
      6        6          -0.004285476   -0.011048167   -0.000808531
      7        6           0.011379461    0.018942083    0.008619313
      8        6           0.008350986   -0.012065976   -0.013463491
      9        6           0.001319072    0.005914455    0.012132707
     10        6          -0.008164472    0.002317942   -0.020228294
     11        6          -0.010690119   -0.028860192   -0.016126551
     12        8          -0.001162943    0.023679258    0.001332287
     13        6          -0.000839392    0.001781989    0.001695753
     14        6          -0.002018519   -0.000467712    0.004292480
     15        6           0.006025558   -0.003488979   -0.008228589
     16        8           0.009017293   -0.003846399    0.009909172
     17        6           0.007788482   -0.010772512   -0.005632394
     18        6           0.032372727    0.007303640    0.000007384
     19        8          -0.026843411    0.002558953    0.025119064
     20        6           0.011430611   -0.004746463   -0.000088131
     21        8          -0.005668405    0.007053077   -0.002326063
     22        6          -0.007171357    0.013610686    0.001849772
     23        6          -0.005236605    0.008179552    0.000834105
     24        8           0.001697451   -0.006074391   -0.009650130
     25        6          -0.003008989    0.014625000    0.001512351
     26        6           0.001236723    0.001758418    0.000314772
     27        6           0.001052160   -0.009957808   -0.001548412
     28        6          -0.002905691    0.007833649   -0.004695105
     29        6          -0.003720666   -0.006369599   -0.009027976
     30        1          -0.001579934    0.001082197   -0.001757101
     31        1          -0.003262841    0.006051508   -0.000089361
     32        6          -0.001199206    0.000775794   -0.000991154
     33        1           0.001485863   -0.000818895   -0.000096129
     34        1          -0.000581557    0.005652040    0.001881498
     35        1           0.000466848    0.007288713   -0.001383479
     36        1           0.000132396   -0.002503940   -0.000400040
     37        1           0.000749954   -0.002535533    0.001601837
     38        1           0.001283946   -0.001497946    0.001223271
     39        1          -0.001763083   -0.000011431    0.001425697
     40        1          -0.000350230    0.001104960    0.000239592
     41        1          -0.000002776    0.000668274    0.000973763
     42        1           0.000009860    0.002785903   -0.000232983
     43        1          -0.001248037   -0.001953883   -0.001395759
     44        1          -0.001861505   -0.003506276   -0.002567223
     45        1           0.001468950   -0.002918999   -0.001354346
     46        1           0.002022149    0.000212423    0.003517043
     47        1          -0.001869772   -0.001350734    0.002988409
     48        1          -0.001364149   -0.000119408   -0.001670405
     49        1           0.002571819   -0.002666150    0.001640321
     50        1           0.001079961   -0.003359862    0.002256253
     51        1          -0.000212884   -0.000352578   -0.001331839
     52        1          -0.000020125   -0.000662919    0.000995767
     53        1           0.002090605   -0.003892756    0.000350858
     54        1           0.000471642   -0.000808197    0.000148295
     55        1          -0.001194555   -0.002678863    0.005506556
     56        1           0.000660171    0.002788214    0.001425089
     57        1          -0.000708418    0.001238408    0.000680190
     58        1          -0.000286232    0.000202337    0.003706513
     59        1          -0.001085708    0.001865649   -0.000641752
     60        1           0.004214815   -0.001673826    0.000289853
     61        1           0.004161264   -0.001147508    0.000205731
     62        6           0.000660114    0.002996768   -0.001475408
     63        1          -0.001238692    0.000247223   -0.001658109
     64        1          -0.000699725    0.000923263   -0.000877985
     65        1          -0.000716273    0.000577122   -0.001977429
 -------------------------------------------------------------------
 Cartesian Forces:  Max     0.032372727 RMS     0.006751206

 GradGradGradGradGradGradGradGradGradGradGradGradGradGradGradGradGradGrad
 Berny optimization.
 Internal  Forces:  Max     0.023543163 RMS     0.003478913
 Search for a local minimum.
 Step number   1 out of a maximum of  390
 All quantities printed in internal units (Hartrees-Bohrs-Radians)
 Mixed Optimization -- RFO/linear search
 Second derivative matrix not updated -- first step.
 ITU=  0
     Eigenvalues ---    0.00254   0.00277   0.00335   0.00350   0.00375
     Eigenvalues ---    0.00432   0.00460   0.00561   0.00610   0.00613
     Eigenvalues ---    0.00620   0.00660   0.00686   0.00687   0.00734
     Eigenvalues ---    0.01052   0.01083   0.01244   0.01251   0.01422
     Eigenvalues ---    0.01458   0.01632   0.01715   0.01827   0.01930
     Eigenvalues ---    0.02506   0.02827   0.02828   0.03030   0.03115
     Eigenvalues ---    0.03464   0.03519   0.03596   0.03748   0.04033
     Eigenvalues ---    0.04105   0.04313   0.04393   0.04586   0.04639
     Eigenvalues ---    0.04647   0.04805   0.04925   0.05096   0.05248
     Eigenvalues ---    0.05307   0.05381   0.05420   0.05458   0.05494
     Eigenvalues ---    0.05496   0.05504   0.05508   0.05550   0.05620
     Eigenvalues ---    0.05705   0.05925   0.05962   0.06274   0.06639
     Eigenvalues ---    0.06689   0.06860   0.07089   0.07111   0.07159
     Eigenvalues ---    0.07247   0.07250   0.07363   0.07675   0.08381
     Eigenvalues ---    0.08454   0.08822   0.09026   0.09180   0.09815
     Eigenvalues ---    0.10094   0.10643   0.10906   0.11633   0.12284
     Eigenvalues ---    0.13176   0.14701   0.15205   0.15972   0.16000
     Eigenvalues ---    0.16000   0.16000   0.16000   0.16000   0.16000
     Eigenvalues ---    0.16000   0.16000   0.16000   0.16000   0.16000
     Eigenvalues ---    0.16000   0.16000   0.16000   0.16000   0.16000
     Eigenvalues ---    0.16000   0.16000   0.16000   0.16000   0.16000
     Eigenvalues ---    0.16429   0.17071   0.17258   0.18324   0.18573
     Eigenvalues ---    0.19731   0.21565   0.21931   0.22723   0.23535
     Eigenvalues ---    0.24499   0.24933   0.24967   0.24987   0.24987
     Eigenvalues ---    0.24993   0.25000   0.25000   0.25893   0.27282
     Eigenvalues ---    0.27389   0.27714   0.27833   0.28081   0.28290
     Eigenvalues ---    0.28631   0.28662   0.28790   0.29186   0.29290
     Eigenvalues ---    0.29466   0.30065   0.30464   0.30586   0.31169
     Eigenvalues ---    0.31553   0.31759   0.31816   0.33433   0.33665
     Eigenvalues ---    0.33829   0.33982   0.33993   0.34006   0.34036
     Eigenvalues ---    0.34053   0.34066   0.34074   0.34074   0.34087
     Eigenvalues ---    0.34119   0.34138   0.34141   0.34181   0.34190
     Eigenvalues ---    0.34200   0.34227   0.34243   0.34248   0.34257
     Eigenvalues ---    0.34259   0.34282   0.34286   0.34302   0.34315
     Eigenvalues ---    0.34337   0.34344   0.34383   0.34450   0.34755
     Eigenvalues ---    0.34953   0.35200   0.35267   0.35452   0.36383
     Eigenvalues ---    0.37314   0.42815   0.43637   0.51602   0.53341
     Eigenvalues ---    0.54664   0.56282   0.89517   0.89741
 RFO step:  Lambda=-2.13144151D-02 EMin= 2.53574454D-03
 Linear search not attempted -- first point.
 Iteration  1 RMS(Cart)=  0.05197505 RMS(Int)=  0.00065723
 Iteration  2 RMS(Cart)=  0.00110262 RMS(Int)=  0.00024687
 Iteration  3 RMS(Cart)=  0.00000060 RMS(Int)=  0.00024687
 Variable       Old X    -DE/DX   Delta X   Delta X   Delta X     New X
                                 (Linear)    (Quad)   (Total)
    R1        2.53507  -0.00274   0.00000  -0.00578  -0.00579   2.52928
    R2        2.82359   0.00841   0.00000   0.02467   0.02462   2.84821
    R3        2.05752  -0.00004   0.00000  -0.00010  -0.00010   2.05742
    R4        2.85418   0.00382   0.00000   0.00843   0.00848   2.86266
    R5        2.84587   0.00320   0.00000   0.00945   0.00945   2.85532
    R6        2.94008   0.00500   0.00000   0.01236   0.01228   2.95236
    R7        2.90928   0.01112   0.00000   0.03811   0.03810   2.94738
    R8        2.07899  -0.00085   0.00000  -0.00238  -0.00238   2.07661
    R9        2.90628   0.00860   0.00000   0.02826   0.02811   2.93438
   R10        2.91412   0.00711   0.00000   0.02439   0.02450   2.93862
   R11        2.76306  -0.00440   0.00000  -0.01026  -0.01028   2.75279
   R12        2.91363   0.00019   0.00000   0.00355   0.00347   2.91710
   R13        2.90377   0.00615   0.00000   0.01363   0.01360   2.91737
   R14        2.89415   0.01245   0.00000   0.04034   0.04034   2.93450
   R15        2.07240   0.00297   0.00000   0.00821   0.00821   2.08061
   R16        2.07361  -0.00129   0.00000  -0.00358  -0.00358   2.07003
   R17        2.81422   0.00887   0.00000   0.01906   0.01866   2.83288
   R18        2.85929   0.01579   0.00000   0.05581   0.05530   2.91459
   R19        2.67898   0.00336   0.00000   0.00749   0.00749   2.68647
   R20        2.52446   0.01182   0.00000   0.02046   0.02046   2.54492
   R21        2.62994  -0.01871   0.00000  -0.04446  -0.04427   2.58568
   R22        2.79218  -0.00189   0.00000  -0.00916  -0.00899   2.78319
   R23        2.79375   0.02086   0.00000   0.05656   0.05656   2.85031
   R24        2.33053  -0.01155   0.00000  -0.01258  -0.01258   2.31795
   R25        2.33156  -0.02354   0.00000  -0.02569  -0.02569   2.30588
   R26        2.89401   0.00059   0.00000   0.00188   0.00188   2.89589
   R27        2.90779   0.00092   0.00000   0.00299   0.00299   2.91077
   R28        2.89042   0.00673   0.00000   0.02129   0.02129   2.91171
   R29        2.07619   0.00089   0.00000   0.00247   0.00247   2.07866
   R30        2.07183   0.00069   0.00000   0.00191   0.00191   2.07374
   R31        2.07206   0.00096   0.00000   0.00264   0.00264   2.07470
   R32        2.87834   0.00786   0.00000   0.02442   0.02442   2.90276
   R33        2.07026  -0.00073   0.00000  -0.00200  -0.00200   2.06826
   R34        2.06765   0.00043   0.00000   0.00118   0.00118   2.06883
   R35        2.06949   0.00062   0.00000   0.00171   0.00171   2.07120
   R36        2.91742  -0.00083   0.00000   0.00921   0.00947   2.92689
   R37        2.90564   0.00428   0.00000   0.01466   0.01472   2.92035
   R38        2.07129  -0.00162   0.00000  -0.00446  -0.00446   2.06683
[...]
     56          1           0        2.141029    4.051640   -1.998834
     57          1           0        0.458686    4.606768   -2.081819
     58          1           0        1.161644    4.113000   -0.525753
     59          1           0       -2.154475    3.003833    4.007607
     60          1           0       -1.302977    3.746620    2.644855
     61          1           0       -3.045443    3.501025    2.556168
     62          6           0        4.713982   -3.305891   -0.025723
     63          1           0        5.514344   -3.220340    0.719700
     64          1           0        4.367053   -4.345497   -0.019799
     65          1           0        5.154142   -3.113778   -1.010646
 ---------------------------------------------------------------------
 Rotational constants (GHZ):      0.1826077      0.1361464      0.1220401

 **********************************************************************

            Population analysis using the SCF density.

 **********************************************************************

 Orbital symmetries:
       Occupied  (A) (A) (A) (A) (A) (A) (A) (A) (A) (A) (A) (A)
                 (A) (A) (A) (A) (A) (A) (A) (A) (A) (A) (A) (A)
                 (A) (A) (A) (A) (A) (A) (A) (A) (A) (A) (A) (A)
                 (A) (A) (A) (A) (A) (A) (A) (A) (A) (A) (A) (A)
                 (A) (A) (A) (A) (A) (A) (A) (A) (A) (A) (A) (A)
                 (A) (A) (A) (A) (A) (A) (A) (A) (A) (A) (A) (A)
                 (A) (A) (A) (A) (A) (A) (A) (A) (A) (A) (A) (A)
                 (A) (A) (A) (A) (A) (A) (A) (A) (A) (A) (A) (A)
                 (A) (A) (A) (A) (A) (A) (A) (A) (A) (A) (A) (A)
                 (A) (A) (A) (A) (A) (A) (A)
       Virtual   (A) (A) (A) (A) (A) (A) (A) (A) (A) (A) (A) (A)
                 (A) (A) (A) (A) (A) (A) (A) (A) (A) (A) (A) (A)
                 (A) (A) (A) (A) (A) (A) (A) (A) (A) (A) (A) (A)
                 (A) (A) (A) (A) (A) (A) (A) (A) (A) (A) (A) (A)
                 (A) (A) (A) (A) (A) (A) (A) (A) (A) (A) (A) (A)
                 (A) (A) (A) (A) (A) (A) (A) (A) (A) (A) (A) (A)
                 (A) (A) (A) (A) (A) (A) (A) (A) (A) (A) (A) (A)
                 (A) (A) (A) (A) (A) (A) (A) (A) (A) (A) (A) (A)
                 (A) (A) (A) (A) (A) (A) (A) (A) (A) (A) (A) (A)
                 (A) (A) (A) (A) (A) (A) (A) (A) (A) (A) (A) (A)
                 (A) (A) (A) (A) (A) (A) (A) (A) (A) (A) (A) (A)
                 (A) (A) (A) (A) (A) (A) (A) (A) (A) (A) (A) (A)
                 (A) (A) (A) (A) (A) (A) (A) (A) (A) (A) (A) (A)
                 (A) (A) (A) (A) (A) (A) (A) (A) (A) (A) (A) (A)
                 (A) (A) (A) (A) (A) (A) (A) (A) (A) (A) (A) (A)
                 (A) (A) (A) (A) (A) (A) (A) (A) (A) (A) (A) (A)
                 (A) (A) (A) (A) (A) (A) (A) (A) (A) (A) (A) (A)
                 (A) (A) (A) (A) (A) (A) (A) (A) (A) (A) (A) (A)
                 (A) (A) (A) (A) (A) (A) (A) (A) (A) (A) (A) (A)
                 (A) (A) (A) (A) (A) (A) (A) (A) (A) (A) (A) (A)
                 (A) (A) (A) (A) (A) (A) (A) (A) (A) (A) (A) (A)
                 (A) (A) (A) (A) (A) (A) (A) (A) (A) (A) (A) (A)
                 (A) (A) (A) (A) (A) (A) (A) (A) (A) (A) (A) (A)
                 (A) (A) (A) (A) (A) (A) (A) (A) (A) (A) (A) (A)
                 (A) (A) (A) (A) (A) (A) (A) (A) (A) (A) (A) (A)
                 (A) (A) (A) (A) (A) (A) (A) (A) (A) (A) (A) (A)
                 (A) (A) (A) (A) (A) (A) (A) (A) (A) (A) (A) (A)
                 (A) (A) (A) (A) (A) (A) (A) (A) (A) (A) (A) (A)
                 (A) (A) (A) (A) (A) (A) (A) (A) (A) (A) (A) (A)
                 (A) (A) (A) (A) (A) (A) (A) (A) (A) (A) (A) (A)
                 (A) (A) (A) (A) (A) (A) (A) (A) (A) (A) (A) (A)
                 (A) (A) (A) (A) (A) (A) (A) (A) (A) (A) (A) (A)
                 (A) (A) (A) (A) (A) (A) (A) (A) (A) (A) (A) (A)
                 (A) (A) (A) (A) (A) (A) (A) (A) (A) (A) (A) (A)
                 (A) (A) (A) (A) (A) (A) (A) (A) (A) (A)
 The electronic state is 1-A.
 Alpha  occ. eigenvalues --  -19.19349 -19.16606 -19.15672 -19.12826 -19.12604
 Alpha  occ. eigenvalues --  -10.27056 -10.26823 -10.26651 -10.26582 -10.25674
 Alpha  occ. eigenvalues --  -10.25627 -10.25155 -10.21249 -10.20806 -10.20482
 Alpha  occ. eigenvalues --  -10.20203 -10.19698 -10.19577 -10.19144 -10.19052
 Alpha  occ. eigenvalues --  -10.18912 -10.18907 -10.18878 -10.18570 -10.18289
 Alpha  occ. eigenvalues --  -10.18282 -10.18149 -10.17904 -10.17131 -10.17073
 Alpha  occ. eigenvalues --  -10.16716  -1.08824  -1.05753  -1.03138  -1.02321
 Alpha  occ. eigenvalues --   -1.02277  -0.86545  -0.83525  -0.82342  -0.81301
 Alpha  occ. eigenvalues --   -0.80134  -0.79653  -0.76499  -0.74182  -0.73017
 Alpha  occ. eigenvalues --   -0.71932  -0.71285  -0.69883  -0.69488  -0.67706
 Alpha  occ. eigenvalues --   -0.65364  -0.64272  -0.63316  -0.61552  -0.60412
 Alpha  occ. eigenvalues --   -0.59193  -0.58288  -0.56865  -0.55463  -0.53657
 Alpha  occ. eigenvalues --   -0.52907  -0.52095  -0.50660  -0.50279  -0.49124
 Alpha  occ. eigenvalues --   -0.47976  -0.46924  -0.46440  -0.45982  -0.45614
 Alpha  occ. eigenvalues --   -0.45135  -0.45049  -0.44346  -0.43378  -0.43196
 Alpha  occ. eigenvalues --   -0.42604  -0.42417  -0.41891  -0.41504  -0.41233
 Alpha  occ. eigenvalues --   -0.40963  -0.40479  -0.40377  -0.40172  -0.39552
 Alpha  occ. eigenvalues --   -0.38863  -0.38770  -0.38232  -0.38055  -0.37844
 Alpha  occ. eigenvalues --   -0.37595  -0.37383  -0.37362  -0.36937  -0.36700
 Alpha  occ. eigenvalues --   -0.36317  -0.35737  -0.34996  -0.34859  -0.34188
 Alpha  occ. eigenvalues --   -0.33969  -0.33491  -0.33417  -0.32663  -0.31944
 Alpha  occ. eigenvalues --   -0.31626  -0.31191  -0.30888  -0.28002  -0.26667
 Alpha  occ. eigenvalues --   -0.26235  -0.24559  -0.23982  -0.23307  -0.22597
 Alpha virt. eigenvalues --   -0.04316  -0.00729   0.00316   0.02447   0.04591
 Alpha virt. eigenvalues --    0.07283   0.08749   0.08948   0.09298   0.10131
 Alpha virt. eigenvalues --    0.10714   0.10806   0.11258   0.11889   0.12298
 Alpha virt. eigenvalues --    0.13092   0.13253   0.13524   0.14016   0.14272
 Alpha virt. eigenvalues --    0.14517   0.14829   0.15089   0.15450   0.15726
 Alpha virt. eigenvalues --    0.16106   0.16535   0.16780   0.16939   0.17067
 Alpha virt. eigenvalues --    0.17551   0.17774   0.18027   0.18293   0.18449
 Alpha virt. eigenvalues --    0.18751   0.19047   0.19385   0.20352   0.20575
 Alpha virt. eigenvalues --    0.20862   0.21319   0.21583   0.22205   0.22377
 Alpha virt. eigenvalues --    0.22751   0.22945   0.23179   0.23851   0.24072
 Alpha virt. eigenvalues --    0.24912   0.25532   0.25907   0.26335   0.26829
 Alpha virt. eigenvalues --    0.27414   0.27973   0.28102   0.29465   0.29700
 Alpha virt. eigenvalues --    0.30334   0.31897   0.32495   0.32833   0.34010
 Alpha virt. eigenvalues --    0.34689   0.36377   0.37089   0.38983   0.39597
 Alpha virt. eigenvalues --    0.41520   0.45759   0.46236   0.48613   0.48877
 Alpha virt. eigenvalues --    0.49273   0.50317   0.51136   0.51492   0.51625
 Alpha virt. eigenvalues --    0.52121   0.52199   0.52607   0.53082   0.53536
 Alpha virt. eigenvalues --    0.53991   0.54471   0.54804   0.55492   0.56430
 Alpha virt. eigenvalues --    0.56956   0.57576   0.57668   0.58306   0.58419
 Alpha virt. eigenvalues --    0.58829   0.60233   0.60293   0.60632   0.61635
 Alpha virt. eigenvalues --    0.62487   0.62629   0.63093   0.63588   0.64609
 Alpha virt. eigenvalues --    0.65040   0.65827   0.66676   0.66877   0.67590
 Alpha virt. eigenvalues --    0.67879   0.68230   0.69009   0.69569   0.69656
 Alpha virt. eigenvalues --    0.69885   0.71071   0.71755   0.72567   0.72809
 Alpha virt. eigenvalues --    0.73391   0.74886   0.75149   0.75836   0.76750
 Alpha virt. eigenvalues --    0.77164   0.77604   0.78473   0.79672   0.80320
 Alpha virt. eigenvalues --    0.80744   0.80980   0.81601   0.82710   0.82864
 Alpha virt. eigenvalues --    0.83471   0.84090   0.84294   0.84657   0.84834
 Alpha virt. eigenvalues --    0.86085   0.86285   0.86646   0.86699   0.87532
 Alpha virt. eigenvalues --    0.87837   0.88129   0.88547   0.88745   0.89075
 Alpha virt. eigenvalues --    0.89443   0.89769   0.89925   0.90353   0.90712
 Alpha virt. eigenvalues --    0.91063   0.91245   0.91416   0.91734   0.92249
 Alpha virt. eigenvalues --    0.93177   0.93435   0.93896   0.94141   0.94683
 Alpha virt. eigenvalues --    0.95228   0.95432   0.96165   0.96448   0.96611
 Alpha virt. eigenvalues --    0.97310   0.97905   0.98079   0.98712   0.99714
 Alpha virt. eigenvalues --    1.00933   1.01337   1.01543   1.02284   1.03310
 Alpha virt. eigenvalues --    1.03709   1.04279   1.04737   1.06615   1.07295
 Alpha virt. eigenvalues --    1.08418   1.08522   1.09148   1.11383   1.13140
 Alpha virt. eigenvalues --    1.13597   1.14612   1.14701   1.15328   1.16499
 Alpha virt. eigenvalues --    1.16832   1.18064   1.18244   1.19226   1.22293
 Alpha virt. eigenvalues --    1.23284   1.23608   1.25404   1.26089   1.27169
 Alpha virt. eigenvalues --    1.28066   1.28859   1.31086   1.32079   1.33117
 Alpha virt. eigenvalues --    1.33669   1.36023   1.37503   1.38382   1.39141
 Alpha virt. eigenvalues --    1.40411   1.41382   1.42485   1.44241   1.45455
 Alpha virt. eigenvalues --    1.46514   1.48579   1.50289   1.52694   1.53682
 Alpha virt. eigenvalues --    1.53919   1.55219   1.56079   1.56290   1.58061
 Alpha virt. eigenvalues --    1.59678   1.61789   1.62566   1.63377   1.64796
 Alpha virt. eigenvalues --    1.65418   1.65736   1.67671   1.68123   1.69404
 Alpha virt. eigenvalues --    1.70867   1.72283   1.72741   1.73295   1.73567
 Alpha virt. eigenvalues --    1.74793   1.74886   1.76969   1.78050   1.78544
 Alpha virt. eigenvalues --    1.78642   1.79577   1.79880   1.81430   1.81975
 Alpha virt. eigenvalues --    1.83261   1.83545   1.84152   1.84805   1.85978
 Alpha virt. eigenvalues --    1.86356   1.86755   1.87019   1.87786   1.88179
 Alpha virt. eigenvalues --    1.89148   1.89399   1.90379   1.90764   1.91350
 Alpha virt. eigenvalues --    1.91616   1.92794   1.94068   1.94657   1.95236
 Alpha virt. eigenvalues --    1.95425   1.96498   1.97106   1.97657   1.97936
 Alpha virt. eigenvalues --    1.98592   1.99271   1.99655   1.99907   2.00707
 Alpha virt. eigenvalues --    2.01987   2.02744   2.03554   2.04405   2.04881
 Alpha virt. eigenvalues --    2.06210   2.06994   2.07101   2.08095   2.09019
 Alpha virt. eigenvalues --    2.09255   2.09994   2.11508   2.11794   2.13198
 Alpha virt. eigenvalues --    2.13949   2.15227   2.15414   2.16623   2.16810
 Alpha virt. eigenvalues --    2.17778   2.19541   2.20144   2.21012   2.22636
 Alpha virt. eigenvalues --    2.22834   2.24166   2.24639   2.26266   2.26526
 Alpha virt. eigenvalues --    2.28018   2.29227   2.30070   2.30313   2.30820
 Alpha virt. eigenvalues --    2.32734   2.33206   2.34089   2.34233   2.34997
 Alpha virt. eigenvalues --    2.35207   2.35982   2.36499   2.37741   2.39027
 Alpha virt. eigenvalues --    2.40519   2.40705   2.41162   2.42312   2.43117
 Alpha virt. eigenvalues --    2.44213   2.44827   2.46512   2.47473   2.48561
 Alpha virt. eigenvalues --    2.49841   2.50137   2.52063   2.53534   2.54453
 Alpha virt. eigenvalues --    2.56056   2.56778   2.58264   2.59337   2.59831
 Alpha virt. eigenvalues --    2.60711   2.61904   2.63912   2.64382   2.65768
 Alpha virt. eigenvalues --    2.67398   2.68271   2.68782   2.69629   2.70429
 Alpha virt. eigenvalues --    2.70693   2.72254   2.72867   2.76033   2.76693
 Alpha virt. eigenvalues --    2.77875   2.79915   2.82446   2.83092   2.85059
 Alpha virt. eigenvalues --    2.86583   2.89194   2.91389   2.93735   2.96270
 Alpha virt. eigenvalues --    2.98906   3.00060   3.00898   3.01676   3.03732
 Alpha virt. eigenvalues --    3.05827   3.06944   3.12175   3.17824   3.20130
 Alpha virt. eigenvalues --    3.23988   3.28064   4.03835   4.07860   4.12378
 Alpha virt. eigenvalues --    4.12914   4.14221   4.16390   4.17947   4.19855
 Alpha virt. eigenvalues --    4.21851   4.23404   4.24657   4.26944   4.30173
 Alpha virt. eigenvalues --    4.31966   4.34420   4.37598   4.38869   4.44622
 Alpha virt. eigenvalues --    4.44883   4.48159   4.53123   4.56235   4.59667
 Alpha virt. eigenvalues --    4.65037   4.66571   4.67981   4.74172   4.82155
 Alpha virt. eigenvalues --    4.88927   5.01317   5.16088
          Condensed to atoms (all electrons):
 Mulliken atomic charges:
              1
     1  C   -0.184811
     2  C    0.195096
     3  C   -0.188207
     4  C    0.324487
     5  C   -0.056901
     6  C   -0.334155
     7  C    0.202260
     8  C    0.405262
     9  C   -0.103758
    10  C    0.439942
    11  C    0.414096
    12  O   -0.437692
    13  C   -0.146996
    14  C   -0.274082
    15  C   -0.463478
    16  O   -0.511205
    17  C   -0.165562
    18  C    0.305900
    19  O   -0.536353
    20  C   -0.323536
    21  O   -0.660117
    22  C   -0.326279
    23  C    0.097663
    24  O   -0.592053
    25  C    0.180668
    26  C   -0.508121
    27  C   -0.392185
    28  C   -0.468368
    29  C   -0.458355
    30  H    0.142287
    31  H    0.162810
    32  C   -0.519875
    33  H    0.123009
    34  H    0.144806
    35  H    0.186224
    36  H    0.146831
    37  H    0.173602
    38  H    0.131558
    39  H    0.159324
    40  H    0.151180
    41  H    0.156483
    42  H    0.173618
    43  H    0.150475
    44  H    0.414109
    45  H    0.167084
    46  H    0.169619
    47  H    0.139294
    48  H    0.154350
    49  H    0.156891
    50  H    0.171001
    51  H    0.152142
    52  H    0.142226
    53  H    0.156043
    54  H    0.142854
    55  H    0.191420
    56  H    0.162944
    57  H    0.149072
    58  H    0.166772
    59  H    0.158232
    60  H    0.159682
    61  H    0.148576
    62  C   -0.448427
    63  H    0.144732
    64  H    0.143704
    65  H    0.142190
 Sum of Mulliken atomic charges =   0.00000
 Mulliken charges with hydrogens summed into heavy atoms:
              1
     1  C   -0.061802
     2  C    0.195096
     3  C   -0.025397
     4  C    0.324487
     5  C   -0.056901
     6  C   -0.003125
     7  C    0.202260
     8  C    0.405262
     9  C   -0.103758
    10  C    0.439942
    11  C    0.414096
    12  O   -0.437692
    13  C   -0.000165
    14  C    0.031078
    15  C    0.003509
    16  O   -0.511205
    17  C   -0.023275
    18  C    0.305900
    19  O   -0.536353
    20  C    0.000557
    21  O   -0.246008
    22  C    0.010424
    23  C    0.236957
    24  O   -0.592053
    25  C    0.180668
    26  C   -0.025880
    27  C   -0.097818
    28  C    0.021948
    29  C    0.020434
    32  C   -0.053384
    62  C   -0.017800
 Sum of Mulliken charges with hydrogens summed into heavy atoms =   0.00000
 Electronic spatial extent (au):  <R**2>=          11210.2079
 Charge=              0.0000 electrons
 Dipole moment (field-independent basis, Debye):
    X=             -4.3257    Y=              1.1768    Z=             -3.4958  Tot=              5.6848
 Quadrupole moment (field-independent basis, Debye-Ang):
   XX=           -183.3817   YY=           -173.8497   ZZ=           -188.4517
   XY=             -1.0901   XZ=             -8.0719   YZ=             -1.8538
 Traceless Quadrupole moment (field-independent basis, Debye-Ang):
   XX=             -1.4874   YY=              8.0447   ZZ=             -6.5573
   XY=             -1.0901   XZ=             -8.0719   YZ=             -1.8538
 Octapole moment (field-independent basis, Debye-Ang**2):
  XXX=            -10.7605  YYY=             27.9367  ZZZ=            -18.3152  XYY=            -16.9524
  XXY=            -26.1345  XXZ=            -32.3517  XZZ=            -32.1950  YZZ=             13.8060
  YYZ=            -26.6808  XYZ=            -13.0317
 Hexadecapole moment (field-independent basis, Debye-Ang**3):
 XXXX=          -7005.9274 YYYY=          -4567.0681 ZZZZ=          -3290.5979 XXXY=             10.5000
 XXXZ=             14.3935 YYYX=             28.0505 YYYZ=            -12.7300 ZZZX=            -15.1655
 ZZZY=              1.8533 XXYY=          -1945.4112 XXZZ=          -1744.1390 YYZZ=          -1288.6369
 XXYZ=            -20.0979 YYXZ=              4.6863 ZZXY=             30.6940
 N-N= 3.522952990455D+03 E-N=-1.027221386566D+04  KE= 1.374459753488D+03
 1\1\GINC-B0604\FOpt\RB3LYP\6-31G(d)\C26H34O5\CAOFEI\24-Mar-2021\0\\# o
 pt rb3lyp/6-31g(d) geom=connectivity\\Title Card Required\\0,1\C,-0.06
 81916932,0.0731537666,0.015589304\C,1.2662573317,-0.0107160219,0.05550
 60663\C,2.136230681,1.2277232538,0.0261579161\C,1.4117359844,2.5640709
 641,-0.3281973651\C,-0.0788778606,2.5094998442,-0.759796664\C,-0.83758
 90348,1.3628569923,-0.0487815433\C,2.3331415624,3.2332521928,-1.386996
 0656\C,1.9829480435,2.8494013968,-2.8058202958\C,0.7427983342,2.553343
 1015,-3.2492063806\C,-0.347778041,2.3970739248,-2.2846987144\C,0.47574
 02267,2.1230753993,-4.6864093905\O,0.6256496747,0.9553654849,-4.989169
 7543\C,0.0720173558,3.1730348259,-5.7213052821\C,-1.0012776205,4.15419
 97396,-5.2033958523\C,1.343897575,3.8913937274,-6.2229499058\O,-1.4928
 444394,2.1589064706,-2.6600643578\C,3.7268086701,2.5729597604,-1.29777
 75363\C,4.3099750489,2.8051253387,-2.7140053154\O,3.0893607733,2.79444
 96587,-3.5671985018\C,3.3564430299,1.1214685517,-0.9343785564\O,2.3149
 755829,4.6460980898,-1.2980195441\C,-0.5982110321,3.8850557065,-0.2623
 728414\C,0.150220146,4.0693191636,1.0553610241\O,1.4394803595,3.422733
 2097,0.8407871076\C,0.3975495198,5.4716399147,1.573757754\C,1.21212044
 54,5.5402160446,2.8434166923\C,-0.0976564521,6.5633418255,0.9827779425
 \C,4.9740393192,4.175345267,-2.8655021971\C,5.2127169855,1.6988053223,
 -3.2528968957\H,4.3467150947,3.0382800013,-0.52487743\H,2.5306330985,1
 .3897840016,1.0398937061\C,1.976406978,-1.3342882089,0.1981431548\H,-0
 .6559897236,-0.8421020624,0.0710507865\H,-1.1024875194,1.6717175248,0.
 9735210875\H,-1.7842252219,1.2229681362,-0.5786620257\H,-0.3441362537,
 2.5923583547,-6.5547649338\H,-1.7876963907,3.5827346638,-4.6994278986\
 H,-0.5555913218,4.805611559,-4.4388774732\H,2.0818639772,3.170201332,-
 6.5885018391\H,1.0987360874,4.5709211899,-7.0454774132\H,1.8115216821,
 4.4789891263,-5.4252318521\H,3.059079133,0.5732924029,-1.8351303205\H,
 4.1882835942,0.5734576834,-0.4826983463\H,2.2271471454,4.8260162399,-0
 .3408957881\H,-1.6848448242,3.8879734525,-0.1418476306\H,-0.3215837386
 ,4.6691716563,-0.9726539405\H,-0.3571013865,3.5060192229,1.8542068675\
 H,1.3699835487,6.5744494009,3.1631247305\H,0.7091681998,5.0025610502,3
 .6590488742\H,2.1885298014,5.0607503729,2.709761304\H,-0.6984671973,6.
 522584194,0.0800085645\H,0.0763573719,7.5525691764,1.3986931964\H,5.19
 72214093,4.3653460809,-3.9205023864\H,5.9173568275,4.1978920647,-2.307
 6398144\H,4.3240147294,4.9667266775,-2.4879252183\H,5.5134527973,1.927
 4734436,-4.2803311434\H,6.1186578143,1.6257531845,-2.6408113552\H,4.71
 29404663,0.7275954374,-3.2544647987\H,1.2610629548,-2.1575893543,0.286
 509339\H,2.6277820822,-1.5477428585,-0.6590267596\H,2.6177451718,-1.34
 54569404,1.0912158393\C,-1.6289181501,5.0137857334,-6.3070826398\H,-2.
 0851248404,4.3877283429,-7.0839236955\H,-2.4166164828,5.6546018168,-5.
 8946981085\H,-0.8967573905,5.6678729848,-6.7937354856\\Version=EM64L-G
 09RevB.01\State=1-A\HF=-1387.3158999\RMSD=9.554e-09\RMSF=2.002e-06\Dip
 ole=1.3411146,0.7646129,1.6183412\Quadrupole=2.6080799,-1.8602571,-0.7
 478228,-5.3195164,-3.4526074,-4.8295348\PG=C01 [X(C26H34O5)]\\@


 TO DETECT ERRORS, THE PROGRAMMER MUST HAVE A CONNIVING MIND,
 ONE THAT DELIGHTS IN UNCOVERING FLAWS WHERE BEAUTY AND
 PERFECTION WERE ONCE THOUGHT TO LIE.

             -- THE PSYCHOLOGY OF COMPUTER PROGRAMMING
                GERALD M. WEINBERG
 Job cpu time:  0 days  7 hours  0 minutes 23.0 seconds.
 File lengths (MBytes):  RWF=    186 Int=      0 D2E=      0 Chk=     20 Scr=      1
 Normal termination of Gaussian 09 at Wed Mar 24 15:13:58 2021.
