 Entering Gaussian System, Link 0=g09
 Initial command:
 /public/software/g09/g09/l1.exe /tmp/Gau-8366.inp -scrdir=/tmp/
 Entering Link 1 = /public/software/g09/g09/l1.exe PID=      8367.
  
 Copyright (c) 1988,1990,1992,1993,1995,1998,2003,2009,2010,
            Gaussian, Inc.  All Rights Reserved.
  
 This is part of the Gaussian(R) 09 program.  It is based on
 the Gaussian(R) 03 system (copyright 2003, Gaussian, Inc.),
 the Gaussian(R) 98 system (copyright 1998, Gaussian, Inc.),
 the Gaussian(R) 94 system (copyright 1995, Gaussian, Inc.),
 the Gaussian 92(TM) system (copyright 1992, Gaussian, Inc.),
 the Gaussian 90(TM) system (copyright 1990, Gaussian, Inc.),
 the Gaussian 88(TM) system (copyright 1988, Gaussian, Inc.),
 the Gaussian 86(TM) system (copyright 1986, Carnegie Mellon
 University), and the Gaussian 82(TM) system (copyright 1983,
 Carnegie Mellon University). Gaussian is a federally registered
 trademark of Gaussian, Inc.
  
 This software contains proprietary and confidential information,
 including trade secrets, belonging to Gaussian, Inc.
  
 This software is provided under written license and may be
 used, copied, transmitted, or stored only in accord with that
 written license.
  
 The following legend is applicable only to US Government
 contracts under FAR:
  
                    RESTRICTED RIGHTS LEGEND
  
 Use, reproduction and disclosure by the US Government is
 subject to restrictions as set forth in subparagraphs (a)
 and (c) of the Commercial Computer Software - Restricted
 Rights clause in FAR 52.227-19.
  
 Gaussian, Inc.
 340 Quinnipiac St., Bldg. 40, Wallingford CT 06492
  
  
 ---------------------------------------------------------------
 Warning -- This program may not be used in any manner that
 competes with the business of Gaussian, Inc. or will provide
 assistance to any competitor of Gaussian, Inc.  The licensee
 of this program is prohibited from giving any competitor of
 Gaussian, Inc. access to this program.  By using this program,
 the user acknowledges that Gaussian, Inc. is engaged in the
 business of creating and licensing software in the field of
 computational chemistry and represents and warrants to the
 licensee that it is not a competitor of Gaussian, Inc. and that
 it will not use this program in any manner prohibited above.
 ---------------------------------------------------------------
  

 Cite this work as:
 Gaussian 09, Revision B.01,
 M. J. Frisch, G. W. Trucks, H. B. Schlegel, G. E. Scuseria, 
 M. A. Robb, J. R. Cheeseman, G. Scalmani, V. Barone, B. Mennucci, 
 G. A. Petersson, H. Nakatsuji, M. Caricato, X. Li, H. P. Hratchian, 
 A. F. Izmaylov, J. Bloino, G. Zheng, J. L. Sonnenberg, M. Hada, 
 M. Ehara, K. Toyota, R. Fukuda, J. Hasegawa, M. Ishida, T. Nakajima, 
 Y. Honda, O. Kitao, H. Nakai, T. Vreven, J. A. Montgomery, Jr., 
 J. E. Peralta, F. Ogliaro, M. Bearpark, J. J. Heyd, E. Brothers, 
 K. N. Kudin, V. N. Staroverov, T. Keith, R. Kobayashi, J. Normand, 
 K. Raghavachari, A. Rendell, J. C. Burant, S. S. Iyengar, J. Tomasi, 
 M. Cossi, N. Rega, J. M. Millam, M. Klene, J. E. Knox, J. B. Cross, 
 V. Bakken, C. Adamo, J. Jaramillo, R. Gomperts, R. E. Stratmann, 
 O. Yazyev, A. J. Austin, R. Cammi, C. Pomelli, J. W. Ochterski, 
 R. L. Martin, K. Morokuma, V. G. Zakrzewski, G. A. Voth, 
 P. Salvador, J. J. Dannenberg, S. Dapprich, A. D. Daniels, 
 O. Farkas, J. B. Foresman, J. V. Ortiz, J. Cioslowski, 
 and D. J. Fox, Gaussian, Inc., Wallingford CT, 2010.
 
 ******************************************
 Gaussian 09:  EM64L-G09RevB.01 12-Aug-2010
                24-Mar-2021 
 ******************************************
 %mem=600MW
 %nprocshared=10
 Will use up to   10 processors via shared memory.
 ---------------------------------------
 # opt rb3lyp/6-31g(d) geom=connectivity
 ---------------------------------------
 1/14=-1,18=20,19=15,26=3,38=1,57=2/1,3;
 2/9=110,12=2,17=6,18=5,40=1/2;
 3/5=1,6=6,7=1,11=2,16=1,25=1,30=1,71=1,74=-5,116=1/1,2,3;
 4//1;
 5/5=2,38=5/2;
 6/7=2,8=2,9=2,10=2,28=1/1;
 7//1,2,3,16;
 1/14=-1,18=20,19=15/3(2);
 2/9=110/2;
 99//99;
 2/9=110/2;
 3/5=1,6=6,7=1,11=2,16=1,25=1,30=1,71=1,74=-5,116=1/1,2,3;
 4/5=5,16=3/1;
 5/5=2,38=5/2;
 7//1,2,3,16;
 1/14=-1,18=20,19=15/3(-5);
 2/9=110/2;
 6/7=2,8=2,9=2,10=2,19=2,28=1/1;
 99/9=1/99;
 -------------------
 Title Card Required
 -------------------
 Symbolic Z-matrix:
 Charge =  0 Multiplicity = 1
 C                     0.        0.        0. 
 C                     1.3398    0.        0. 
 C                     2.1409    1.2773    0. 
 C                     1.3501    2.5966   -0.237 
 C                    -0.1728    2.5148   -0.4918 
 C                    -0.847     1.2274    0.0318 
 C                     2.1094    3.3093   -1.3757 
 C                     1.6502    2.9818   -2.7536 
 C                     0.3852    2.6633   -3.0401 
 C                    -0.6124    2.7067   -1.952 
 C                     0.0082    2.2504   -4.4095 
 O                    -0.3356    1.0858   -4.6083 
 C                     0.0251    3.3161   -5.5014 
 C                     0.91      2.8951   -6.6868 
 C                    -1.4081    3.6638   -5.8921 
 O                    -1.7962    2.9055   -2.2338 
 C                     3.5068    2.7319   -1.4269 
 C                     3.9188    2.9721   -2.8946 
 O                     2.6944    2.8666   -3.666 
 C                     3.2587    1.2625   -1.0587 
 O                     2.1068    4.7164   -1.2106 
 C                    -0.69      3.7201    0.3068 
 C                     0.246     3.7413    1.5008 
 O                     1.5381    3.4318    0.9592 
 C                     0.2759    5.0398    2.2674 
 C                     0.91      6.2436    1.6299 
 C                    -0.2506    5.1237    3.502 
 C                     4.5097    4.3722   -3.1261 
 C                     4.9157    1.938    -3.4294 
 H                     4.1979    3.2021   -0.7181 
 H                     2.6289    1.3401    0.9838 
 C                     2.106    -1.2951    0.0812 
 H                    -0.5387   -0.946     0.038 
 H                    -1.188     1.3472    1.0677 
 H                    -1.7576    1.0137   -0.5428 
 H                     0.4773    4.2228   -5.0779 
 H                     1.1556    3.7911   -7.2708 
 H                     1.8614    2.4992   -6.3114 
 H                    -1.9478    4.0822   -5.0351 
 H                    -1.4252    4.407    -6.6956 
 H                    -1.9677    2.7819   -6.2214 
 H                     2.9413    0.6755   -1.9294 
 H                     4.1732    0.7971   -0.6736 
 H                     2.2755    4.8565   -0.2577 
 H                    -1.7411    3.6332    0.6044 
 H                    -0.5989    4.6372   -0.2887 
 H                    -0.0034    2.9207    2.1856 
 H                     0.7747    7.1465    2.2357 
 H                     1.987     6.0909    1.5129 
 H                     0.4716    6.4465    0.6488 
 H                    -0.7126    4.2682    3.9855 
 H                    -0.2329    6.0514    4.0663 
 H                     4.7806    4.506    -4.1802 
 H                     5.4064    4.5304   -2.5182 
 H                     3.7953    5.1704   -2.9078 
 H                     5.2019    2.1739   -4.4613 
 H                     5.8241    1.9072   -2.8193 
 H                     4.484     0.9334   -3.4731 
 H                     1.445    -2.1566    0.2254 
 H                     2.6762   -1.4691   -0.8363 
 H                     2.8015   -1.271     0.9265 
 C                     0.3038    1.8717   -7.6385 
 H                    -0.5907    2.2632   -8.1318 
 H                     1.0264    1.6222   -8.4227 
 H                     0.0403    0.9435   -7.1251 
 

 GradGradGradGradGradGradGradGradGradGradGradGradGradGradGradGradGradGrad
 Berny optimization.
 Initialization pass.
                           ----------------------------
                           !    Initial Parameters    !
                           ! (Angstroms and Degrees)  !
 --------------------------                            --------------------------
 ! Name  Definition              Value          Derivative Info.                !
 --------------------------------------------------------------------------------
 ! R1    R(1,2)                  1.3398         estimate D2E/DX2                !
 ! R2    R(1,6)                  1.4916         estimate D2E/DX2                !
 ! R3    R(1,33)                 1.0893         estimate D2E/DX2                !
 ! R4    R(2,3)                  1.5077         estimate D2E/DX2                !
 ! R5    R(2,32)                 1.507          estimate D2E/DX2                !
 ! R6    R(3,4)                  1.5563         estimate D2E/DX2                !
 ! R7    R(3,20)                 1.5397         estimate D2E/DX2                !
 ! R8    R(3,31)                 1.1            estimate D2E/DX2                !
 ! R9    R(4,5)                  1.5462         estimate D2E/DX2                !
 ! R10   R(4,7)                  1.5431         estimate D2E/DX2                !
 ! R11   R(4,24)                 1.471          estimate D2E/DX2                !
 ! R12   R(5,6)                  1.5447         estimate D2E/DX2                !
 ! R13   R(5,10)                 1.537          estimate D2E/DX2                !
 ! R14   R(5,22)                 1.5356         estimate D2E/DX2                !
 ! R15   R(6,34)                 1.0971         estimate D2E/DX2                !
 ! R16   R(6,35)                 1.0977         estimate D2E/DX2                !
 ! R17   R(7,8)                  1.4889         estimate D2E/DX2                !
 ! R18   R(7,17)                 1.5129         estimate D2E/DX2                !
 ! R19   R(7,21)                 1.4168         estimate D2E/DX2                !
 ! R20   R(8,9)                  1.3356         estimate D2E/DX2                !
 ! R21   R(8,19)                 1.3914         estimate D2E/DX2                !
 ! R22   R(9,10)                 1.4768         estimate D2E/DX2                !
 ! R23   R(9,11)                 1.4791         estimate D2E/DX2                !
 ! R24   R(10,16)                1.233          estimate D2E/DX2                !
 ! R25   R(11,12)                1.2305         estimate D2E/DX2                !
 ! R26   R(11,13)                1.5259         estimate D2E/DX2                !
 ! R27   R(13,14)                1.538          estimate D2E/DX2                !
 ! R28   R(13,15)                1.5256         estimate D2E/DX2                !
 ! R29   R(13,36)                1.0982         estimate D2E/DX2                !
 ! R30   R(14,37)                1.0974         estimate D2E/DX2                !
 ! R31   R(14,38)                1.0967         estimate D2E/DX2                !
 ! R32   R(14,62)                1.5233         estimate D2E/DX2                !
 ! R33   R(15,39)                1.0958         estimate D2E/DX2                !
 ! R34   R(15,40)                1.0946         estimate D2E/DX2                !
 ! R35   R(15,41)                1.0951         estimate D2E/DX2                !
 ! R36   R(17,18)                1.5432         estimate D2E/DX2                !
 ! R37   R(17,20)                1.535          estimate D2E/DX2                !
 ! R38   R(17,30)                1.0959         estimate D2E/DX2                !
 ! R39   R(18,19)                1.451          estimate D2E/DX2                !
 ! R40   R(18,28)                1.5372         estimate D2E/DX2                !
 ! R41   R(18,29)                1.5327         estimate D2E/DX2                !
 ! R42   R(20,42)                1.097          estimate D2E/DX2                !
 ! R43   R(20,43)                1.096          estimate D2E/DX2                !
 ! R44   R(21,44)                0.9778         estimate D2E/DX2                !
 ! R45   R(22,23)                1.5173         estimate D2E/DX2                !
 ! R46   R(22,45)                1.0959         estimate D2E/DX2                !
 ! R47   R(22,46)                1.0973         estimate D2E/DX2                !
 ! R48   R(23,24)                1.4348         estimate D2E/DX2                !
 ! R49   R(23,25)                1.5082         estimate D2E/DX2                !
 ! R50   R(23,47)                1.0975         estimate D2E/DX2                !
 ! R51   R(25,26)                1.5025         estimate D2E/DX2                !
 ! R52   R(25,27)                1.3448         estimate D2E/DX2                !
 ! R53   R(26,48)                1.0957         estimate D2E/DX2                !
 ! R54   R(26,49)                1.094          estimate D2E/DX2                !
 ! R55   R(26,50)                1.0936         estimate D2E/DX2                !
 ! R56   R(27,51)                1.0859         estimate D2E/DX2                !
 ! R57   R(27,52)                1.086          estimate D2E/DX2                !
 ! R58   R(28,53)                1.0965         estimate D2E/DX2                !
 ! R59   R(28,54)                1.0948         estimate D2E/DX2                !
 ! R60   R(28,55)                1.0932         estimate D2E/DX2                !
 ! R61   R(29,56)                1.0965         estimate D2E/DX2                !
 ! R62   R(29,57)                1.0947         estimate D2E/DX2                !
 ! R63   R(29,58)                1.0943         estimate D2E/DX2                !
 ! R64   R(32,59)                1.0954         estimate D2E/DX2                !
 ! R65   R(32,60)                1.0942         estimate D2E/DX2                !
 ! R66   R(32,61)                1.0949         estimate D2E/DX2                !
 ! R67   R(62,63)                1.094          estimate D2E/DX2                !
 ! R68   R(62,64)                1.0952         estimate D2E/DX2                !
 ! R69   R(62,65)                1.093          estimate D2E/DX2                !
 ! A1    A(2,1,6)              124.5997         estimate D2E/DX2                !
 ! A2    A(2,1,33)             119.6395         estimate D2E/DX2                !
 ! A3    A(6,1,33)             115.6616         estimate D2E/DX2                !
 ! A4    A(1,2,3)              122.0952         estimate D2E/DX2                !
 ! A5    A(1,2,32)             120.5599         estimate D2E/DX2                !
 ! A6    A(3,2,32)             117.2527         estimate D2E/DX2                !
 ! A7    A(2,3,4)              116.6265         estimate D2E/DX2                !
 ! A8    A(2,3,20)             112.1853         estimate D2E/DX2                !
 ! A9    A(2,3,31)             106.5043         estimate D2E/DX2                !
 ! A10   A(4,3,20)             105.8034         estimate D2E/DX2                !
 ! A11   A(4,3,31)             108.254          estimate D2E/DX2                !
 ! A12   A(20,3,31)            107.0649         estimate D2E/DX2                !
 ! A13   A(3,4,5)              118.7316         estimate D2E/DX2                !
 ! A14   A(3,4,7)              104.7069         estimate D2E/DX2                !
 ! A15   A(3,4,24)             107.01           estimate D2E/DX2                !
 ! A16   A(5,4,7)              112.7973         estimate D2E/DX2                !
 ! A17   A(5,4,24)             106.8531         estimate D2E/DX2                !
 ! A18   A(7,4,24)             105.9596         estimate D2E/DX2                !
 ! A19   A(4,5,6)              114.7151         estimate D2E/DX2                !
 ! A20   A(4,5,10)             115.5726         estimate D2E/DX2                !
 ! A21   A(4,5,22)             101.8005         estimate D2E/DX2                !
 ! A22   A(6,5,10)             107.5333         estimate D2E/DX2                !
 ! A23   A(6,5,22)             109.3224         estimate D2E/DX2                !
 ! A24   A(10,5,22)            107.4428         estimate D2E/DX2                !
 ! A25   A(1,6,5)              115.5141         estimate D2E/DX2                !
 ! A26   A(1,6,34)             106.6466         estimate D2E/DX2                !
 ! A27   A(1,6,35)             107.4389         estimate D2E/DX2                !
 ! A28   A(5,6,34)             111.3888         estimate D2E/DX2                !
 ! A29   A(5,6,35)             110.2962         estimate D2E/DX2                !
 ! A30   A(34,6,35)            104.9311         estimate D2E/DX2                !
 ! A31   A(4,7,8)              115.4408         estimate D2E/DX2                !
 ! A32   A(4,7,17)             107.6505         estimate D2E/DX2                !
 ! A33   A(4,7,21)             111.828          estimate D2E/DX2                !
 ! A34   A(8,7,17)              99.7652         estimate D2E/DX2                !
 ! A35   A(8,7,21)             109.011          estimate D2E/DX2                !
 ! A36   A(17,7,21)            112.6251         estimate D2E/DX2                !
 ! A37   A(7,8,9)              122.8955         estimate D2E/DX2                !
 ! A38   A(7,8,19)             113.1793         estimate D2E/DX2                !
 ! A39   A(9,8,19)             123.3936         estimate D2E/DX2                !
 ! A40   A(8,9,10)             118.3428         estimate D2E/DX2                !
 ! A41   A(8,9,11)             120.4362         estimate D2E/DX2                !
 ! A42   A(10,9,11)            121.208          estimate D2E/DX2                !
 ! A43   A(5,10,9)             120.2056         estimate D2E/DX2                !
 ! A44   A(5,10,16)            120.7882         estimate D2E/DX2                !
 ! A45   A(9,10,16)            119.0051         estimate D2E/DX2                !
 ! A46   A(9,11,12)            119.0126         estimate D2E/DX2                !
 ! A47   A(9,11,13)            117.6918         estimate D2E/DX2                !
 ! A48   A(12,11,13)           123.2659         estimate D2E/DX2                !
 ! A49   A(11,13,14)           111.514          estimate D2E/DX2                !
 ! A50   A(11,13,15)           109.3917         estimate D2E/DX2                !
 ! A51   A(11,13,36)           107.7735         estimate D2E/DX2                !
 ! A52   A(14,13,15)           113.9224         estimate D2E/DX2                !
 ! A53   A(14,13,36)           106.6378         estimate D2E/DX2                !
 ! A54   A(15,13,36)           107.3026         estimate D2E/DX2                !
 ! A55   A(13,14,37)           108.3877         estimate D2E/DX2                !
 ! A56   A(13,14,38)           109.5183         estimate D2E/DX2                !
 ! A57   A(13,14,62)           115.8779         estimate D2E/DX2                !
 ! A58   A(37,14,38)           106.4246         estimate D2E/DX2                !
 ! A59   A(37,14,62)           107.7655         estimate D2E/DX2                !
 ! A60   A(38,14,62)           108.4538         estimate D2E/DX2                !
 ! A61   A(13,15,39)           110.4512         estimate D2E/DX2                !
 ! A62   A(13,15,40)           110.9396         estimate D2E/DX2                !
 ! A63   A(13,15,41)           111.9314         estimate D2E/DX2                !
 ! A64   A(39,15,40)           107.8868         estimate D2E/DX2                !
 ! A65   A(39,15,41)           106.916          estimate D2E/DX2                !
 ! A66   A(40,15,41)           108.5445         estimate D2E/DX2                !
 ! A67   A(7,17,18)            102.6725         estimate D2E/DX2                !
 ! A68   A(7,17,20)            102.0015         estimate D2E/DX2                !
 ! A69   A(7,17,30)            113.3805         estimate D2E/DX2                !
 ! A70   A(18,17,20)           114.8517         estimate D2E/DX2                !
 ! A71   A(18,17,30)           112.3312         estimate D2E/DX2                !
 ! A72   A(20,17,30)           110.9458         estimate D2E/DX2                !
 ! A73   A(17,18,19)           105.6059         estimate D2E/DX2                !
 ! A74   A(17,18,28)           112.806          estimate D2E/DX2                !
 ! A75   A(17,18,29)           113.608          estimate D2E/DX2                !
 ! A76   A(19,18,28)           108.0912         estimate D2E/DX2                !
 ! A77   A(19,18,29)           108.3181         estimate D2E/DX2                !
 ! A78   A(28,18,29)           108.1764         estimate D2E/DX2                !
 ! A79   A(8,19,18)            106.1785         estimate D2E/DX2                !
 ! A80   A(3,20,17)            105.8476         estimate D2E/DX2                !
 ! A81   A(3,20,42)            109.9289         estimate D2E/DX2                !
 ! A82   A(3,20,43)            111.6079         estimate D2E/DX2                !
 ! A83   A(17,20,42)           111.6293         estimate D2E/DX2                !
 ! A84   A(17,20,43)           110.849          estimate D2E/DX2                !
 ! A85   A(42,20,43)           107.0426         estimate D2E/DX2                !
 ! A86   A(7,21,44)            104.8063         estimate D2E/DX2                !
 ! A87   A(5,22,23)            102.2657         estimate D2E/DX2                !
 ! A88   A(5,22,45)            113.7058         estimate D2E/DX2                !
 ! A89   A(5,22,46)            110.2323         estimate D2E/DX2                !
 ! A90   A(23,22,45)           112.2775         estimate D2E/DX2                !
 ! A91   A(23,22,46)           111.3572         estimate D2E/DX2                !
 ! A92   A(45,22,46)           107.0552         estimate D2E/DX2                !
 ! A93   A(22,23,24)           104.8018         estimate D2E/DX2                !
 ! A94   A(22,23,25)           115.1029         estimate D2E/DX2                !
 ! A95   A(22,23,47)           109.9            estimate D2E/DX2                !
 ! A96   A(24,23,25)           111.0836         estimate D2E/DX2                !
 ! A97   A(24,23,47)           106.1936         estimate D2E/DX2                !
 ! A98   A(25,23,47)           109.3348         estimate D2E/DX2                !
 ! A99   A(4,24,23)            108.3212         estimate D2E/DX2                !
 ! A100  A(23,25,26)           118.8482         estimate D2E/DX2                !
 ! A101  A(23,25,27)           120.8365         estimate D2E/DX2                !
 ! A102  A(26,25,27)           120.3151         estimate D2E/DX2                !
 ! A103  A(25,26,48)           111.9325         estimate D2E/DX2                !
 ! A104  A(25,26,49)           110.4258         estimate D2E/DX2                !
 ! A105  A(25,26,50)           111.1069         estimate D2E/DX2                !
 ! A106  A(48,26,49)           107.1998         estimate D2E/DX2                !
 ! A107  A(48,26,50)           107.0755         estimate D2E/DX2                !
 ! A108  A(49,26,50)           108.9409         estimate D2E/DX2                !
 ! A109  A(25,27,51)           121.7493         estimate D2E/DX2                !
 ! A110  A(25,27,52)           121.5978         estimate D2E/DX2                !
 ! A111  A(51,27,52)           116.6528         estimate D2E/DX2                !
 ! A112  A(18,28,53)           110.5404         estimate D2E/DX2                !
 ! A113  A(18,28,54)           111.2738         estimate D2E/DX2                !
 ! A114  A(18,28,55)           112.5655         estimate D2E/DX2                !
 ! A115  A(53,28,54)           108.2873         estimate D2E/DX2                !
 ! A116  A(53,28,55)           105.3256         estimate D2E/DX2                !
 ! A117  A(54,28,55)           108.5931         estimate D2E/DX2                !
 ! A118  A(18,29,56)           110.6694         estimate D2E/DX2                !
 ! A119  A(18,29,57)           111.3613         estimate D2E/DX2                !
 ! A120  A(18,29,58)           112.1312         estimate D2E/DX2                !
 ! A121  A(56,29,57)           108.2969         estimate D2E/DX2                !
 ! A122  A(56,29,58)           105.2413         estimate D2E/DX2                !
 ! A123  A(57,29,58)           108.8922         estimate D2E/DX2                !
 ! A124  A(2,32,59)            112.0976         estimate D2E/DX2                !
 ! A125  A(2,32,60)            110.882          estimate D2E/DX2                !
 ! A126  A(2,32,61)            110.2214         estimate D2E/DX2                !
 ! A127  A(59,32,60)           107.4445         estimate D2E/DX2                !
 ! A128  A(59,32,61)           107.3968         estimate D2E/DX2                !
 ! A129  A(60,32,61)           108.6536         estimate D2E/DX2                !
 ! A130  A(14,62,63)           111.5109         estimate D2E/DX2                !
 ! A131  A(14,62,64)           109.7455         estimate D2E/DX2                !
 ! A132  A(14,62,65)           111.9016         estimate D2E/DX2                !
 ! A133  A(63,62,64)           107.3464         estimate D2E/DX2                !
 ! A134  A(63,62,65)           108.579          estimate D2E/DX2                !
 ! A135  A(64,62,65)           107.5749         estimate D2E/DX2                !
 ! D1    D(6,1,2,3)             -1.4841         estimate D2E/DX2                !
 ! D2    D(6,1,2,32)           174.9283         estimate D2E/DX2                !
 ! D3    D(33,1,2,3)          -177.6997         estimate D2E/DX2                !
 ! D4    D(33,1,2,32)           -1.2873         estimate D2E/DX2                !
 ! D5    D(2,1,6,5)             23.5398         estimate D2E/DX2                !
 ! D6    D(2,1,6,34)          -100.8268         estimate D2E/DX2                !
 ! D7    D(2,1,6,35)           147.099          estimate D2E/DX2                !
 ! D8    D(33,1,6,5)          -160.1092         estimate D2E/DX2                !
 ! D9    D(33,1,6,34)           75.5242         estimate D2E/DX2                !
 ! D10   D(33,1,6,35)          -36.55           estimate D2E/DX2                !
 ! D11   D(1,2,3,4)             -9.8082         estimate D2E/DX2                !
 ! D12   D(1,2,3,20)          -132.0468         estimate D2E/DX2                !
 ! D13   D(1,2,3,31)           111.1219         estimate D2E/DX2                !
 ! D14   D(32,2,3,4)           173.6667         estimate D2E/DX2                !
 ! D15   D(32,2,3,20)           51.4281         estimate D2E/DX2                !
 ! D16   D(32,2,3,31)          -65.4032         estimate D2E/DX2                !
 ! D17   D(1,2,32,59)           -5.0879         estimate D2E/DX2                !
 ! D18   D(1,2,32,60)          114.9907         estimate D2E/DX2                !
 ! D19   D(1,2,32,61)         -124.655          estimate D2E/DX2                !
 ! D20   D(3,2,32,59)          171.4934         estimate D2E/DX2                !
 ! D21   D(3,2,32,60)          -68.4279         estimate D2E/DX2                !
 ! D22   D(3,2,32,61)           51.9264         estimate D2E/DX2                !
 ! D23   D(2,3,4,5)             -1.6357         estimate D2E/DX2                !
 ! D24   D(2,3,4,7)           -128.5579         estimate D2E/DX2                !
 ! D25   D(2,3,4,24)           119.2586         estimate D2E/DX2                !
 ! D26   D(20,3,4,5)           123.8775         estimate D2E/DX2                !
 ! D27   D(20,3,4,7)            -3.0446         estimate D2E/DX2                !
 ! D28   D(20,3,4,24)         -115.2281         estimate D2E/DX2                !
 ! D29   D(31,3,4,5)          -121.6348         estimate D2E/DX2                !
 ! D30   D(31,3,4,7)           111.443          estimate D2E/DX2                !
 ! D31   D(31,3,4,24)           -0.7404         estimate D2E/DX2                !
 ! D32   D(2,3,20,17)          153.0046         estimate D2E/DX2                !
 ! D33   D(2,3,20,42)           32.3081         estimate D2E/DX2                !
 ! D34   D(2,3,20,43)          -86.307          estimate D2E/DX2                !
 ! D35   D(4,3,20,17)           24.8025         estimate D2E/DX2                !
 ! D36   D(4,3,20,42)          -95.894          estimate D2E/DX2                !
 ! D37   D(4,3,20,43)          145.4909         estimate D2E/DX2                !
 ! D38   D(31,3,20,17)         -90.5009         estimate D2E/DX2                !
 ! D39   D(31,3,20,42)         148.8026         estimate D2E/DX2                !
 ! D40   D(31,3,20,43)          30.1875         estimate D2E/DX2                !
 ! D41   D(3,4,5,6)             22.2325         estimate D2E/DX2                !
 ! D42   D(3,4,5,10)          -103.7761         estimate D2E/DX2                !
 ! D43   D(3,4,5,22)           140.1548         estimate D2E/DX2                !
 ! D44   D(7,4,5,6)            145.2206         estimate D2E/DX2                !
 ! D45   D(7,4,5,10)            19.212          estimate D2E/DX2                !
 ! D46   D(7,4,5,22)           -96.8572         estimate D2E/DX2                !
 ! D47   D(24,4,5,6)           -98.7415         estimate D2E/DX2                !
 ! D48   D(24,4,5,10)          135.2499         estimate D2E/DX2                !
 ! D49   D(24,4,5,22)           19.1807         estimate D2E/DX2                !
 ! D50   D(3,4,7,8)             90.1394         estimate D2E/DX2                !
 ! D51   D(3,4,7,17)           -20.2543         estimate D2E/DX2                !
 ! D52   D(3,4,7,21)          -144.4714         estimate D2E/DX2                !
 ! D53   D(5,4,7,8)            -40.3587         estimate D2E/DX2                !
 ! D54   D(5,4,7,17)          -150.7523         estimate D2E/DX2                !
 ! D55   D(5,4,7,21)            85.0306         estimate D2E/DX2                !
 ! D56   D(24,4,7,8)          -156.9288         estimate D2E/DX2                !
 ! D57   D(24,4,7,17)           92.6776         estimate D2E/DX2                !
 ! D58   D(24,4,7,21)          -31.5396         estimate D2E/DX2                !
 ! D59   D(3,4,24,23)         -122.7443         estimate D2E/DX2                !
 ! D60   D(5,4,24,23)            5.4208         estimate D2E/DX2                !
 ! D61   D(7,4,24,23)          125.933          estimate D2E/DX2                !
 ! D62   D(4,5,6,1)            -32.3831         estimate D2E/DX2                !
 ! D63   D(4,5,6,34)            89.4764         estimate D2E/DX2                !
 ! D64   D(4,5,6,35)          -154.427          estimate D2E/DX2                !
 ! D65   D(10,5,6,1)            97.6888         estimate D2E/DX2                !
 ! D66   D(10,5,6,34)         -140.4517         estimate D2E/DX2                !
 ! D67   D(10,5,6,35)          -24.3551         estimate D2E/DX2                !
 ! D68   D(22,5,6,1)          -145.9582         estimate D2E/DX2                !
 ! D69   D(22,5,6,34)          -24.0987         estimate D2E/DX2                !
 ! D70   D(22,5,6,35)           91.9979         estimate D2E/DX2                !
 ! D71   D(4,5,10,9)            13.0264         estimate D2E/DX2                !
 ! D72   D(4,5,10,16)         -166.5902         estimate D2E/DX2                !
 ! D73   D(6,5,10,9)          -116.5631         estimate D2E/DX2                !
 ! D74   D(6,5,10,16)           63.8204         estimate D2E/DX2                !
 ! D75   D(22,5,10,9)          125.8562         estimate D2E/DX2                !
 ! D76   D(22,5,10,16)         -53.7603         estimate D2E/DX2                !
 ! D77   D(4,5,22,23)          -35.2184         estimate D2E/DX2                !
 ! D78   D(4,5,22,45)         -156.4944         estimate D2E/DX2                !
 ! D79   D(4,5,22,46)           83.2924         estimate D2E/DX2                !
 ! D80   D(6,5,22,23)           86.5094         estimate D2E/DX2                !
 ! D81   D(6,5,22,45)          -34.7666         estimate D2E/DX2                !
 ! D82   D(6,5,22,46)         -154.9798         estimate D2E/DX2                !
 ! D83   D(10,5,22,23)        -157.0802         estimate D2E/DX2                !
 ! D84   D(10,5,22,45)          81.6439         estimate D2E/DX2                !
 ! D85   D(10,5,22,46)         -38.5693         estimate D2E/DX2                !
 ! D86   D(4,7,8,9)             30.8119         estimate D2E/DX2                !
 ! D87   D(4,7,8,19)          -141.0759         estimate D2E/DX2                !
 ! D88   D(17,7,8,9)           145.8093         estimate D2E/DX2                !
 ! D89   D(17,7,8,19)          -26.0785         estimate D2E/DX2                !
 ! D90   D(21,7,8,9)           -96.0153         estimate D2E/DX2                !
 ! D91   D(21,7,8,19)           92.0969         estimate D2E/DX2                !
 ! D92   D(4,7,17,18)          154.4158         estimate D2E/DX2                !
 ! D93   D(4,7,17,20)           35.1941         estimate D2E/DX2                !
 ! D94   D(4,7,17,30)          -84.1514         estimate D2E/DX2                !
 ! D95   D(8,7,17,18)           33.6061         estimate D2E/DX2                !
 ! D96   D(8,7,17,20)          -85.6157         estimate D2E/DX2                !
 ! D97   D(8,7,17,30)          155.0389         estimate D2E/DX2                !
 ! D98   D(21,7,17,18)         -81.8504         estimate D2E/DX2                !
 ! D99   D(21,7,17,20)         158.9278         estimate D2E/DX2                !
 ! D100  D(21,7,17,30)          39.5824         estimate D2E/DX2                !
 ! D101  D(4,7,21,44)           42.3679         estimate D2E/DX2                !
 ! D102  D(8,7,21,44)          171.2304         estimate D2E/DX2                !
 ! D103  D(17,7,21,44)         -79.0176         estimate D2E/DX2                !
 ! D104  D(7,8,9,10)             3.2357         estimate D2E/DX2                !
 ! D105  D(7,8,9,11)          -175.4677         estimate D2E/DX2                !
 ! D106  D(19,8,9,10)          174.2974         estimate D2E/DX2                !
 ! D107  D(19,8,9,11)           -4.4061         estimate D2E/DX2                !
 ! D108  D(7,8,19,18)            6.059          estimate D2E/DX2                !
 ! D109  D(9,8,19,18)         -165.7823         estimate D2E/DX2                !
 ! D110  D(8,9,10,5)           -25.977          estimate D2E/DX2                !
 ! D111  D(8,9,10,16)          153.6463         estimate D2E/DX2                !
 ! D112  D(11,9,10,5)          152.716          estimate D2E/DX2                !
 ! D113  D(11,9,10,16)         -27.6606         estimate D2E/DX2                !
 ! D114  D(8,9,11,12)          111.7438         estimate D2E/DX2                !
 ! D115  D(8,9,11,13)          -70.172          estimate D2E/DX2                !
 ! D116  D(10,9,11,12)         -66.922          estimate D2E/DX2                !
 ! D117  D(10,9,11,13)         111.1621         estimate D2E/DX2                !
 ! D118  D(9,11,13,14)         125.0341         estimate D2E/DX2                !
 ! D119  D(9,11,13,15)        -108.0364         estimate D2E/DX2                !
 ! D120  D(9,11,13,36)           8.3193         estimate D2E/DX2                !
 ! D121  D(12,11,13,14)        -56.9698         estimate D2E/DX2                !
 ! D122  D(12,11,13,15)         69.9598         estimate D2E/DX2                !
 ! D123  D(12,11,13,36)       -173.6845         estimate D2E/DX2                !
 ! D124  D(11,13,14,37)       -161.6418         estimate D2E/DX2                !
 ! D125  D(11,13,14,38)        -45.9221         estimate D2E/DX2                !
 ! D126  D(11,13,14,62)         77.1179         estimate D2E/DX2                !
 ! D127  D(15,13,14,37)         73.9354         estimate D2E/DX2                !
 ! D128  D(15,13,14,38)       -170.345          estimate D2E/DX2                !
 ! D129  D(15,13,14,62)        -47.3049         estimate D2E/DX2                !
 ! D130  D(36,13,14,37)        -44.2386         estimate D2E/DX2                !
 ! D131  D(36,13,14,38)         71.4811         estimate D2E/DX2                !
 ! D132  D(36,13,14,62)       -165.4789         estimate D2E/DX2                !
 ! D133  D(11,13,15,39)         62.0354         estimate D2E/DX2                !
 ! D134  D(11,13,15,40)       -178.3822         estimate D2E/DX2                !
 ! D135  D(11,13,15,41)        -56.9717         estimate D2E/DX2                !
 ! D136  D(14,13,15,39)       -172.4107         estimate D2E/DX2                !
 ! D137  D(14,13,15,40)        -52.8284         estimate D2E/DX2                !
 ! D138  D(14,13,15,41)         68.5822         estimate D2E/DX2                !
 ! D139  D(36,13,15,39)        -54.6186         estimate D2E/DX2                !
 ! D140  D(36,13,15,40)         64.9637         estimate D2E/DX2                !
 ! D141  D(36,13,15,41)       -173.6257         estimate D2E/DX2                !
 ! D142  D(13,14,62,63)         62.932          estimate D2E/DX2                !
 ! D143  D(13,14,62,64)       -178.2544         estimate D2E/DX2                !
 ! D144  D(13,14,62,65)        -58.9086         estimate D2E/DX2                !
 ! D145  D(37,14,62,63)        -58.6409         estimate D2E/DX2                !
 ! D146  D(37,14,62,64)         60.1727         estimate D2E/DX2                !
 ! D147  D(37,14,62,65)        179.5185         estimate D2E/DX2                !
 ! D148  D(38,14,62,63)       -173.4708         estimate D2E/DX2                !
 ! D149  D(38,14,62,64)        -54.6572         estimate D2E/DX2                !
 ! D150  D(38,14,62,65)         64.6886         estimate D2E/DX2                !
 ! D151  D(7,17,18,19)         -32.4767         estimate D2E/DX2                !
 ! D152  D(7,17,18,28)          85.3765         estimate D2E/DX2                !
 ! D153  D(7,17,18,29)        -151.0448         estimate D2E/DX2                !
 ! D154  D(20,17,18,19)         77.3408         estimate D2E/DX2                !
 ! D155  D(20,17,18,28)       -164.806          estimate D2E/DX2                !
 ! D156  D(20,17,18,29)        -41.2274         estimate D2E/DX2                !
 ! D157  D(30,17,18,19)       -154.6231         estimate D2E/DX2                !
 ! D158  D(30,17,18,28)        -36.7699         estimate D2E/DX2                !
 ! D159  D(30,17,18,29)         86.8087         estimate D2E/DX2                !
 ! D160  D(7,17,20,3)          -36.7122         estimate D2E/DX2                !
 ! D161  D(7,17,20,42)          82.8731         estimate D2E/DX2                !
 ! D162  D(7,17,20,43)        -157.8925         estimate D2E/DX2                !
 ! D163  D(18,17,20,3)        -146.9325         estimate D2E/DX2                !
 ! D164  D(18,17,20,42)        -27.3472         estimate D2E/DX2                !
 ! D165  D(18,17,20,43)         91.8873         estimate D2E/DX2                !
 ! D166  D(30,17,20,3)          84.3375         estimate D2E/DX2                !
 ! D167  D(30,17,20,42)       -156.0772         estimate D2E/DX2                !
 ! D168  D(30,17,20,43)        -36.8428         estimate D2E/DX2                !
 ! D169  D(17,18,19,8)          16.6855         estimate D2E/DX2                !
 ! D170  D(28,18,19,8)        -104.2869         estimate D2E/DX2                !
 ! D171  D(29,18,19,8)         138.7229         estimate D2E/DX2                !
 ! D172  D(17,18,28,53)       -179.4872         estimate D2E/DX2                !
 ! D173  D(17,18,28,54)         60.1499         estimate D2E/DX2                !
 ! D174  D(17,18,28,55)        -62.0128         estimate D2E/DX2                !
 ! D175  D(19,18,28,53)        -63.1038         estimate D2E/DX2                !
 ! D176  D(19,18,28,54)        176.5333         estimate D2E/DX2                !
 ! D177  D(19,18,28,55)         54.3705         estimate D2E/DX2                !
 ! D178  D(29,18,28,53)         53.9779         estimate D2E/DX2                !
 ! D179  D(29,18,28,54)        -66.385          estimate D2E/DX2                !
 ! D180  D(29,18,28,55)        171.4523         estimate D2E/DX2                !
 ! D181  D(17,18,29,56)       -178.0003         estimate D2E/DX2                !
 ! D182  D(17,18,29,57)        -57.4802         estimate D2E/DX2                !
 ! D183  D(17,18,29,58)         64.8224         estimate D2E/DX2                !
 ! D184  D(19,18,29,56)         65.0018         estimate D2E/DX2                !
 ! D185  D(19,18,29,57)       -174.4781         estimate D2E/DX2                !
 ! D186  D(19,18,29,58)        -52.1754         estimate D2E/DX2                !
 ! D187  D(28,18,29,56)        -51.9335         estimate D2E/DX2                !
 ! D188  D(28,18,29,57)         68.5866         estimate D2E/DX2                !
 ! D189  D(28,18,29,58)       -169.1108         estimate D2E/DX2                !
 ! D190  D(5,22,23,24)          40.0475         estimate D2E/DX2                !
 ! D191  D(5,22,23,25)         162.37           estimate D2E/DX2                !
 ! D192  D(5,22,23,47)         -73.6826         estimate D2E/DX2                !
 ! D193  D(45,22,23,24)        162.3023         estimate D2E/DX2                !
 ! D194  D(45,22,23,25)        -75.3752         estimate D2E/DX2                !
 ! D195  D(45,22,23,47)         48.5721         estimate D2E/DX2                !
 ! D196  D(46,22,23,24)        -77.6636         estimate D2E/DX2                !
 ! D197  D(46,22,23,25)         44.6588         estimate D2E/DX2                !
 ! D198  D(46,22,23,47)        168.6062         estimate D2E/DX2                !
 ! D199  D(22,23,24,4)         -28.4445         estimate D2E/DX2                !
 ! D200  D(25,23,24,4)        -153.3459         estimate D2E/DX2                !
 ! D201  D(47,23,24,4)          87.873          estimate D2E/DX2                !
 ! D202  D(22,23,25,26)        -70.3256         estimate D2E/DX2                !
 ! D203  D(22,23,25,27)        109.8748         estimate D2E/DX2                !
 ! D204  D(24,23,25,26)         48.5551         estimate D2E/DX2                !
 ! D205  D(24,23,25,27)       -131.2444         estimate D2E/DX2                !
 ! D206  D(47,23,25,26)        165.4294         estimate D2E/DX2                !
 ! D207  D(47,23,25,27)        -14.3701         estimate D2E/DX2                !
 ! D208  D(23,25,26,48)        173.8545         estimate D2E/DX2                !
 ! D209  D(23,25,26,49)        -66.7972         estimate D2E/DX2                !
 ! D210  D(23,25,26,50)         54.2023         estimate D2E/DX2                !
 ! D211  D(27,25,26,48)         -6.3448         estimate D2E/DX2                !
 ! D212  D(27,25,26,49)        113.0034         estimate D2E/DX2                !
 ! D213  D(27,25,26,50)       -125.997          estimate D2E/DX2                !
 ! D214  D(23,25,27,51)         -0.0818         estimate D2E/DX2                !
 ! D215  D(23,25,27,52)        179.795          estimate D2E/DX2                !
 ! D216  D(26,25,27,51)       -179.8784         estimate D2E/DX2                !
 ! D217  D(26,25,27,52)         -0.0016         estimate D2E/DX2                !
 --------------------------------------------------------------------------------
 Trust Radius=3.00D-01 FncErr=1.00D-07 GrdErr=1.00D-06
 Number of steps in this run=    390 maximum allowed number of steps=    390.
 GradGradGradGradGradGradGradGradGradGradGradGradGradGradGradGradGradGrad

 Stoichiometry    C26H34O5
 Framework group  C1[X(C26H34O5)]
 Deg. of freedom   189
 Full point group                 C1      NOp   1
 Largest Abelian subgroup         C1      NOp   1
 Largest concise Abelian subgroup C1      NOp   1
                         Standard orientation:                         
 ---------------------------------------------------------------------
 Center     Atomic      Atomic             Coordinates (Angstroms)
 Number     Number       Type             X           Y           Z
 ---------------------------------------------------------------------
      1          6           0       -1.383655   -0.177360    3.160102
      2          6           0       -1.341714    1.103632    2.769763
      3          6           0       -1.507802    1.507181    1.326565
      4          6           0       -1.495795    0.359427    0.275564
      5          6           0       -1.279421   -1.092085    0.762528
      6          6           0       -1.625292   -1.333084    2.248594
      7          6           0       -0.453381    0.799784   -0.773518
      8          6           0        0.942957    0.352721   -0.514472
      9          6           0        1.234157   -0.787378    0.117292
     10          6           0        0.121128   -1.673798    0.512864
     11          6           0        2.637449   -1.130997    0.434417
     12          8           0        2.997448   -1.143856    1.610959
     13          6           0        3.557543   -1.497177   -0.726439
     14          6           0        4.819713   -0.618508   -0.744590
     15          6           0        3.846746   -2.994737   -0.690653
     16          8           0        0.332804   -2.882682    0.631638
     17          6           0       -0.272623    2.295913   -0.640621
     18          6           0        1.154766    2.514169   -1.185145
     19          8           0        1.894557    1.316936   -0.832034
     20          6           0       -0.424345    2.502564    0.872831
     21          8           0       -0.827212    0.410178   -2.083347
     22          6           0       -2.265210   -1.870044   -0.121217
     23          6           0       -3.419043   -0.893680   -0.253742
     24          8           0       -2.797043    0.389842   -0.409728
     25          6           0       -4.370030   -1.177339   -1.389449
     26          6           0       -3.900342   -0.959305   -2.799937
     27          6           0       -5.619151   -1.614095   -1.149825
     28          6           0        1.192498    2.664946   -2.714484
     29          6           0        1.869251    3.721525   -0.567905
     30          1           0       -1.021827    2.875198   -1.192190
     31          1           0       -2.474157    2.028010    1.256948
     32          6           0       -1.204146    2.209587    3.784099
     33          1           0       -1.296490   -0.421238    4.218158
     34          1           0       -2.677615   -1.617223    2.373503
     35          1           0       -1.053971   -2.185176    2.639178
     36          1           0        3.017478   -1.291047   -1.660132
     37          1           0        5.270436   -0.680675   -1.743176
     38          1           0        4.537761    0.430953   -0.596408
     39          1           0        2.920310   -3.566676   -0.814686
     40          1           0        4.529033   -3.280801   -1.497438
     41          1           0        4.286645   -3.303689    0.263484
     42          1           0        0.514033    2.301855    1.404425
     43          1           0       -0.706636    3.537174    1.098892
     44          1           0       -1.784594    0.601527   -2.137302
     45          1           0       -2.579208   -2.828554    0.307261
     46          1           0       -1.811117   -2.086759   -1.096320
     47          1           0       -3.980784   -0.849154    0.688065
     48          1           0       -4.638385   -1.300455   -3.534401
     49          1           0       -3.728150    0.105175   -2.984784
     50          1           0       -2.974868   -1.507896   -2.996068
     51          1           0       -5.983391   -1.777682   -0.140040
     52          1           0       -6.315105   -1.819037   -1.957923
     53          1           0        2.222658    2.808779   -3.061612
     54          1           0        0.596139    3.521934   -3.043982
     55          1           0        0.834940    1.771434   -3.233073
     56          1           0        2.862671    3.852645   -1.013215
     57          1           0        1.299371    4.643482   -0.721503
     58          1           0        2.049275    3.590591    0.503516
     59          1           0       -1.238407    1.832583    4.812005
     60          1           0       -0.253544    2.736916    3.659641
     61          1           0       -2.021341    2.929642    3.672095
     62          6           0        5.894412   -0.977462    0.273612
     63          1           0        6.295317   -1.979909    0.097197
     64          1           0        6.729351   -0.273237    0.194155
     65          1           0        5.517718   -0.928445    1.298437
 ---------------------------------------------------------------------
 Rotational constants (GHZ):      0.2122322      0.1203365      0.1136257
 Standard basis: 6-31G(d) (6D, 7F)
 There are   533 symmetry adapted basis functions of A   symmetry.
 Integral buffers will be    131072 words long.
 Raffenetti 2 integral format.
 Two-electron integral symmetry is turned on.
   533 basis functions,  1004 primitive gaussians,   533 cartesian basis functions
   115 alpha electrons      115 beta electrons
       nuclear repulsion energy      3513.4376574259 Hartrees.
 NAtoms=   65 NActive=   65 NUniq=   65 SFac= 1.00D+00 NAtFMM=   50 NAOKFM=T Big=T
 One-electron integrals computed using PRISM.
 NBasis=   533 RedAO= T  NBF=   533
 NBsUse=   533 1.00D-06 NBFU=   533
 Harris functional with IExCor=  402 diagonalized for initial guess.
 ExpMin= 1.61D-01 ExpMax= 5.48D+03 ExpMxC= 8.25D+02 IAcc=1 IRadAn=         1 AccDes= 0.00D+00
 HarFok:  IExCor=  402 AccDes= 0.00D+00 IRadAn=         1 IDoV= 1
 ScaDFX=  1.000000  1.000000  1.000000  1.000000
 FoFCou: FMM=F IPFlag=           0 FMFlag=      100000 FMFlg1=        2001
         NFxFlg=           0 DoJE=T BraDBF=F KetDBF=T FulRan=T
         Omega=  0.000000  0.000000  1.000000  0.000000  0.000000 ICntrl=     500 IOpCl=  0
         NMat0=    1 NMatS0=    1 NMatT0=    0 NMatD0=    1 NMtDS0=    0 NMtDT0=    0
         I1Cent=           4 NGrid=           0.
 Petite list used in FoFCou.
 Initial guess orbital symmetries:
       Occupied  (A) (A) (A) (A) (A) (A) (A) (A) (A) (A) (A) (A)
                 (A) (A) (A) (A) (A) (A) (A) (A) (A) (A) (A) (A)
                 (A) (A) (A) (A) (A) (A) (A) (A) (A) (A) (A) (A)
                 (A) (A) (A) (A) (A) (A) (A) (A) (A) (A) (A) (A)
                 (A) (A) (A) (A) (A) (A) (A) (A) (A) (A) (A) (A)
                 (A) (A) (A) (A) (A) (A) (A) (A) (A) (A) (A) (A)
                 (A) (A) (A) (A) (A) (A) (A) (A) (A) (A) (A) (A)
                 (A) (A) (A) (A) (A) (A) (A) (A) (A) (A) (A) (A)
                 (A) (A) (A) (A) (A) (A) (A) (A) (A) (A) (A) (A)
                 (A) (A) (A) (A) (A) (A) (A)
       Virtual   (A) (A) (A) (A) (A) (A) (A) (A) (A) (A) (A) (A)
                 (A) (A) (A) (A) (A) (A) (A) (A) (A) (A) (A) (A)
                 (A) (A) (A) (A) (A) (A) (A) (A) (A) (A) (A) (A)
                 (A) (A) (A) (A) (A) (A) (A) (A) (A) (A) (A) (A)
                 (A) (A) (A) (A) (A) (A) (A) (A) (A) (A) (A) (A)
                 (A) (A) (A) (A) (A) (A) (A) (A) (A) (A) (A) (A)
                 (A) (A) (A) (A) (A) (A) (A) (A) (A) (A) (A) (A)
                 (A) (A) (A) (A) (A) (A) (A) (A) (A) (A) (A) (A)
                 (A) (A) (A) (A) (A) (A) (A) (A) (A) (A) (A) (A)
                 (A) (A) (A) (A) (A) (A) (A) (A) (A) (A) (A) (A)
                 (A) (A) (A) (A) (A) (A) (A) (A) (A) (A) (A) (A)
                 (A) (A) (A) (A) (A) (A) (A) (A) (A) (A) (A) (A)
                 (A) (A) (A) (A) (A) (A) (A) (A) (A) (A) (A) (A)
                 (A) (A) (A) (A) (A) (A) (A) (A) (A) (A) (A) (A)
                 (A) (A) (A) (A) (A) (A) (A) (A) (A) (A) (A) (A)
                 (A) (A) (A) (A) (A) (A) (A) (A) (A) (A) (A) (A)
                 (A) (A) (A) (A) (A) (A) (A) (A) (A) (A) (A) (A)
                 (A) (A) (A) (A) (A) (A) (A) (A) (A) (A) (A) (A)
                 (A) (A) (A) (A) (A) (A) (A) (A) (A) (A) (A) (A)
                 (A) (A) (A) (A) (A) (A) (A) (A) (A) (A) (A) (A)
                 (A) (A) (A) (A) (A) (A) (A) (A) (A) (A) (A) (A)
                 (A) (A) (A) (A) (A) (A) (A) (A) (A) (A) (A) (A)
                 (A) (A) (A) (A) (A) (A) (A) (A) (A) (A) (A) (A)
                 (A) (A) (A) (A) (A) (A) (A) (A) (A) (A) (A) (A)
                 (A) (A) (A) (A) (A) (A) (A) (A) (A) (A) (A) (A)
                 (A) (A) (A) (A) (A) (A) (A) (A) (A) (A) (A) (A)
                 (A) (A) (A) (A) (A) (A) (A) (A) (A) (A) (A) (A)
                 (A) (A) (A) (A) (A) (A) (A) (A) (A) (A) (A) (A)
                 (A) (A) (A) (A) (A) (A) (A) (A) (A) (A) (A) (A)
                 (A) (A) (A) (A) (A) (A) (A) (A) (A) (A) (A) (A)
                 (A) (A) (A) (A) (A) (A) (A) (A) (A) (A) (A) (A)
                 (A) (A) (A) (A) (A) (A) (A) (A) (A) (A) (A) (A)
                 (A) (A) (A) (A) (A) (A) (A) (A) (A) (A) (A) (A)
                 (A) (A) (A) (A) (A) (A) (A) (A) (A) (A) (A) (A)
                 (A) (A) (A) (A) (A) (A) (A) (A) (A) (A)
 The electronic state of the initial guess is 1-A.
 Requested convergence on RMS density matrix=1.00D-08 within 128 cycles.
 Requested convergence on MAX density matrix=1.00D-06.
 Requested convergence on             energy=1.00D-06.
 No special actions if energy rises.
 Integral accuracy reduced to 1.0D-05 until final iterations.
 Initial convergence to 1.0D-05 achieved.  Increase integral accuracy.
 SCF Done:  E(RB3LYP) =  -1387.29905304     A.U. after   16 cycles
             Convg  =    0.3371D-08             -V/T =  2.0091

 **********************************************************************

            Population analysis using the SCF density.

 **********************************************************************

 Orbital symmetries:
       Occupied  (A) (A) (A) (A) (A) (A) (A) (A) (A) (A) (A) (A)
                 (A) (A) (A) (A) (A) (A) (A) (A) (A) (A) (A) (A)
                 (A) (A) (A) (A) (A) (A) (A) (A) (A) (A) (A) (A)
                 (A) (A) (A) (A) (A) (A) (A) (A) (A) (A) (A) (A)
                 (A) (A) (A) (A) (A) (A) (A) (A) (A) (A) (A) (A)
                 (A) (A) (A) (A) (A) (A) (A) (A) (A) (A) (A) (A)
                 (A) (A) (A) (A) (A) (A) (A) (A) (A) (A) (A) (A)
                 (A) (A) (A) (A) (A) (A) (A) (A) (A) (A) (A) (A)
                 (A) (A) (A) (A) (A) (A) (A) (A) (A) (A) (A) (A)
                 (A) (A) (A) (A) (A) (A) (A)
       Virtual   (A) (A) (A) (A) (A) (A) (A) (A) (A) (A) (A) (A)
                 (A) (A) (A) (A) (A) (A) (A) (A) (A) (A) (A) (A)
                 (A) (A) (A) (A) (A) (A) (A) (A) (A) (A) (A) (A)
                 (A) (A) (A) (A) (A) (A) (A) (A) (A) (A) (A) (A)
                 (A) (A) (A) (A) (A) (A) (A) (A) (A) (A) (A) (A)
                 (A) (A) (A) (A) (A) (A) (A) (A) (A) (A) (A) (A)
                 (A) (A) (A) (A) (A) (A) (A) (A) (A) (A) (A) (A)
                 (A) (A) (A) (A) (A) (A) (A) (A) (A) (A) (A) (A)
                 (A) (A) (A) (A) (A) (A) (A) (A) (A) (A) (A) (A)
                 (A) (A) (A) (A) (A) (A) (A) (A) (A) (A) (A) (A)
                 (A) (A) (A) (A) (A) (A) (A) (A) (A) (A) (A) (A)
                 (A) (A) (A) (A) (A) (A) (A) (A) (A) (A) (A) (A)
                 (A) (A) (A) (A) (A) (A) (A) (A) (A) (A) (A) (A)
                 (A) (A) (A) (A) (A) (A) (A) (A) (A) (A) (A) (A)
                 (A) (A) (A) (A) (A) (A) (A) (A) (A) (A) (A) (A)
                 (A) (A) (A) (A) (A) (A) (A) (A) (A) (A) (A) (A)
                 (A) (A) (A) (A) (A) (A) (A) (A) (A) (A) (A) (A)
                 (A) (A) (A) (A) (A) (A) (A) (A) (A) (A) (A) (A)
                 (A) (A) (A) (A) (A) (A) (A) (A) (A) (A) (A) (A)
                 (A) (A) (A) (A) (A) (A) (A) (A) (A) (A) (A) (A)
                 (A) (A) (A) (A) (A) (A) (A) (A) (A) (A) (A) (A)
                 (A) (A) (A) (A) (A) (A) (A) (A) (A) (A) (A) (A)
                 (A) (A) (A) (A) (A) (A) (A) (A) (A) (A) (A) (A)
                 (A) (A) (A) (A) (A) (A) (A) (A) (A) (A) (A) (A)
                 (A) (A) (A) (A) (A) (A) (A) (A) (A) (A) (A) (A)
                 (A) (A) (A) (A) (A) (A) (A) (A) (A) (A) (A) (A)
                 (A) (A) (A) (A) (A) (A) (A) (A) (A) (A) (A) (A)
                 (A) (A) (A) (A) (A) (A) (A) (A) (A) (A) (A) (A)
                 (A) (A) (A) (A) (A) (A) (A) (A) (A) (A) (A) (A)
                 (A) (A) (A) (A) (A) (A) (A) (A) (A) (A) (A) (A)
                 (A) (A) (A) (A) (A) (A) (A) (A) (A) (A) (A) (A)
                 (A) (A) (A) (A) (A) (A) (A) (A) (A) (A) (A) (A)
                 (A) (A) (A) (A) (A) (A) (A) (A) (A) (A) (A) (A)
                 (A) (A) (A) (A) (A) (A) (A) (A) (A) (A) (A) (A)
                 (A) (A) (A) (A) (A) (A) (A) (A) (A) (A)
 The electronic state is 1-A.
 Alpha  occ. eigenvalues --  -19.19818 -19.16691 -19.15475 -19.13434 -19.13245
 Alpha  occ. eigenvalues --  -10.27894 -10.26884 -10.26827 -10.26261 -10.25999
 Alpha  occ. eigenvalues --  -10.25629 -10.24726 -10.21675 -10.20489 -10.20193
 Alpha  occ. eigenvalues --  -10.20192 -10.19497 -10.19466 -10.19307 -10.19295
 Alpha  occ. eigenvalues --  -10.19196 -10.18940 -10.18781 -10.18518 -10.18452
 Alpha  occ. eigenvalues --  -10.18362 -10.18052 -10.17875 -10.17235 -10.16724
 Alpha  occ. eigenvalues --  -10.15520  -1.08643  -1.05929  -1.03310  -1.02493
 Alpha  occ. eigenvalues --   -1.02255  -0.87363  -0.84056  -0.82751  -0.81716
 Alpha  occ. eigenvalues --   -0.80431  -0.79787  -0.77075  -0.74335  -0.73721
 Alpha  occ. eigenvalues --   -0.72260  -0.71399  -0.69750  -0.69536  -0.67967
 Alpha  occ. eigenvalues --   -0.65555  -0.64557  -0.63117  -0.62179  -0.60902
 Alpha  occ. eigenvalues --   -0.59389  -0.58674  -0.57365  -0.55098  -0.53670
 Alpha  occ. eigenvalues --   -0.53157  -0.52177  -0.50670  -0.50474  -0.49307
 Alpha  occ. eigenvalues --   -0.48258  -0.47723  -0.46814  -0.46394  -0.45616
 Alpha  occ. eigenvalues --   -0.45193  -0.44768  -0.44369  -0.43990  -0.43591
 Alpha  occ. eigenvalues --   -0.43203  -0.42354  -0.42152  -0.41837  -0.41531
 Alpha  occ. eigenvalues --   -0.41156  -0.40765  -0.40495  -0.40006  -0.39388
 Alpha  occ. eigenvalues --   -0.39043  -0.38723  -0.38594  -0.38249  -0.37942
 Alpha  occ. eigenvalues --   -0.37398  -0.37133  -0.36907  -0.36835  -0.36642
 Alpha  occ. eigenvalues --   -0.36368  -0.35950  -0.35163  -0.34614  -0.34291
 Alpha  occ. eigenvalues --   -0.33784  -0.33592  -0.32930  -0.32657  -0.32382
 Alpha  occ. eigenvalues --   -0.31523  -0.31392  -0.31231  -0.28028  -0.26999
 Alpha  occ. eigenvalues --   -0.25543  -0.25014  -0.24413  -0.23303  -0.23278
 Alpha virt. eigenvalues --   -0.05163  -0.02178   0.00729   0.02395   0.04021
 Alpha virt. eigenvalues --    0.07028   0.08012   0.08681   0.09194   0.09809
 Alpha virt. eigenvalues --    0.10254   0.10545   0.11612   0.11709   0.12600
 Alpha virt. eigenvalues --    0.12784   0.13249   0.13518   0.13887   0.14233
 Alpha virt. eigenvalues --    0.14408   0.14535   0.15157   0.15901   0.16135
 Alpha virt. eigenvalues --    0.16619   0.16786   0.17090   0.17476   0.17614
 Alpha virt. eigenvalues --    0.17819   0.18160   0.18368   0.18836   0.18867
 Alpha virt. eigenvalues --    0.19315   0.19609   0.19883   0.20121   0.20144
 Alpha virt. eigenvalues --    0.20587   0.21187   0.21715   0.22226   0.22367
 Alpha virt. eigenvalues --    0.22728   0.22766   0.23527   0.23848   0.24528
 Alpha virt. eigenvalues --    0.24722   0.24901   0.25861   0.26298   0.26830
 Alpha virt. eigenvalues --    0.27594   0.28033   0.28814   0.29174   0.30396
 Alpha virt. eigenvalues --    0.30715   0.31423   0.32638   0.33092   0.34561
 Alpha virt. eigenvalues --    0.34825   0.36152   0.37376   0.38706   0.40770
 Alpha virt. eigenvalues --    0.42852   0.45373   0.46528   0.47750   0.48178
 Alpha virt. eigenvalues --    0.49952   0.51049   0.51443   0.51854   0.52160
 Alpha virt. eigenvalues --    0.52200   0.52593   0.53002   0.53362   0.53635
 Alpha virt. eigenvalues --    0.54126   0.54786   0.55233   0.56163   0.56508
 Alpha virt. eigenvalues --    0.56522   0.57392   0.57871   0.58229   0.58700
 Alpha virt. eigenvalues --    0.59072   0.60287   0.61097   0.61754   0.61841
 Alpha virt. eigenvalues --    0.61972   0.62657   0.63227   0.64082   0.64394
 Alpha virt. eigenvalues --    0.65218   0.65953   0.66289   0.66619   0.67161
 Alpha virt. eigenvalues --    0.67880   0.68030   0.68378   0.68507   0.69362
 Alpha virt. eigenvalues --    0.69675   0.70570   0.71555   0.72987   0.73173
 Alpha virt. eigenvalues --    0.74088   0.74931   0.75273   0.75947   0.76453
 Alpha virt. eigenvalues --    0.77644   0.77985   0.78431   0.79130   0.79852
 Alpha virt. eigenvalues --    0.80294   0.80662   0.81185   0.81706   0.81947
 Alpha virt. eigenvalues --    0.82862   0.83245   0.83531   0.84206   0.84795
 Alpha virt. eigenvalues --    0.85352   0.85737   0.85824   0.86684   0.87153
 Alpha virt. eigenvalues --    0.87455   0.87697   0.88576   0.88962   0.89198
 Alpha virt. eigenvalues --    0.89455   0.89677   0.89851   0.90277   0.90469
 Alpha virt. eigenvalues --    0.90681   0.91196   0.91769   0.91868   0.92314
 Alpha virt. eigenvalues --    0.92416   0.93065   0.93476   0.94516   0.95090
 Alpha virt. eigenvalues --    0.95659   0.95855   0.96194   0.96875   0.97189
 Alpha virt. eigenvalues --    0.97915   0.98222   0.98929   0.99181   1.00254
 Alpha virt. eigenvalues --    1.00307   1.01090   1.02213   1.02835   1.03761
 Alpha virt. eigenvalues --    1.04404   1.05047   1.05486   1.07512   1.08158
 Alpha virt. eigenvalues --    1.08861   1.10017   1.10140   1.11057   1.12479
 Alpha virt. eigenvalues --    1.13210   1.14059   1.15929   1.16983   1.17982
 Alpha virt. eigenvalues --    1.18485   1.18882   1.19691   1.19916   1.22024
 Alpha virt. eigenvalues --    1.22314   1.23008   1.23837   1.24575   1.26259
 Alpha virt. eigenvalues --    1.27393   1.28554   1.29720   1.30161   1.32427
 Alpha virt. eigenvalues --    1.34187   1.34588   1.38205   1.38911   1.40235
 Alpha virt. eigenvalues --    1.41273   1.42093   1.42831   1.44049   1.46680
 Alpha virt. eigenvalues --    1.47396   1.49234   1.49676   1.50704   1.52807
 Alpha virt. eigenvalues --    1.53224   1.55155   1.55409   1.55564   1.57524
 Alpha virt. eigenvalues --    1.59621   1.60490   1.61925   1.62409   1.64003
 Alpha virt. eigenvalues --    1.65169   1.66660   1.67634   1.68106   1.69047
 Alpha virt. eigenvalues --    1.70306   1.71099   1.72555   1.72745   1.73567
 Alpha virt. eigenvalues --    1.74614   1.75108   1.76248   1.76742   1.78135
 Alpha virt. eigenvalues --    1.78897   1.79666   1.81113   1.81296   1.82074
 Alpha virt. eigenvalues --    1.82619   1.82910   1.83382   1.84420   1.85180
 Alpha virt. eigenvalues --    1.85904   1.86756   1.86852   1.87995   1.88276
 Alpha virt. eigenvalues --    1.88877   1.89927   1.90732   1.91300   1.92073
 Alpha virt. eigenvalues --    1.92420   1.93224   1.93325   1.93953   1.95423
 Alpha virt. eigenvalues --    1.96505   1.97267   1.97781   1.98130   1.98814
 Alpha virt. eigenvalues --    1.99009   1.99299   1.99669   2.00206   2.02163
 Alpha virt. eigenvalues --    2.03056   2.03698   2.04149   2.05454   2.06133
 Alpha virt. eigenvalues --    2.07035   2.07324   2.08147   2.09478   2.10025
 Alpha virt. eigenvalues --    2.10523   2.12088   2.12411   2.12544   2.13236
 Alpha virt. eigenvalues --    2.14188   2.16024   2.16399   2.18202   2.19197
 Alpha virt. eigenvalues --    2.19705   2.20380   2.21501   2.22291   2.22660
 Alpha virt. eigenvalues --    2.23356   2.23795   2.25284   2.25777   2.26943
 Alpha virt. eigenvalues --    2.27897   2.29037   2.29236   2.31018   2.31762
 Alpha virt. eigenvalues --    2.32987   2.33505   2.34359   2.34908   2.35694
 Alpha virt. eigenvalues --    2.35898   2.37489   2.37754   2.38562   2.39515
 Alpha virt. eigenvalues --    2.40294   2.41931   2.42146   2.43627   2.43689
 Alpha virt. eigenvalues --    2.44877   2.46165   2.47313   2.48459   2.48603
 Alpha virt. eigenvalues --    2.49547   2.50520   2.51568   2.53439   2.55015
 Alpha virt. eigenvalues --    2.56466   2.57265   2.57724   2.59390   2.59534
 Alpha virt. eigenvalues --    2.60870   2.63041   2.64218   2.65373   2.66013
 Alpha virt. eigenvalues --    2.66045   2.68616   2.69344   2.70267   2.71750
 Alpha virt. eigenvalues --    2.72614   2.74040   2.75374   2.76693   2.78182
 Alpha virt. eigenvalues --    2.78730   2.80794   2.81445   2.84379   2.85742
 Alpha virt. eigenvalues --    2.88847   2.90116   2.92688   2.93713   2.95447
 Alpha virt. eigenvalues --    2.96270   2.99504   3.00026   3.02834   3.02971
 Alpha virt. eigenvalues --    3.04822   3.06654   3.13715   3.16770   3.19409
 Alpha virt. eigenvalues --    3.22457   3.28943   4.02976   4.09695   4.12488
 Alpha virt. eigenvalues --    4.13190   4.14895   4.16565   4.18272   4.20492
 Alpha virt. eigenvalues --    4.22970   4.23948   4.26352   4.28029   4.29831
 Alpha virt. eigenvalues --    4.31848   4.36042   4.37935   4.40257   4.42560
 Alpha virt. eigenvalues --    4.49156   4.49757   4.52005   4.55981   4.60296
 Alpha virt. eigenvalues --    4.61149   4.64849   4.70370   4.70864   4.79857
 Alpha virt. eigenvalues --    4.92291   4.98799   5.20126
          Condensed to atoms (all electrons):
 Mulliken atomic charges:
              1
     1  C   -0.187113
     2  C    0.191285
     3  C   -0.188543
     4  C    0.326224
     5  C   -0.037263
     6  C   -0.337154
     7  C    0.196886
     8  C    0.398118
     9  C   -0.086176
    10  C    0.414027
    11  C    0.420043
    12  O   -0.458856
    13  C   -0.139740
    14  C   -0.258964
    15  C   -0.459133
    16  O   -0.494967
    17  C   -0.160788
    18  C    0.311781
    19  O   -0.541452
    20  C   -0.318494
    21  O   -0.667300
    22  C   -0.311151
    23  C    0.087055
    24  O   -0.590275
    25  C    0.226671
    26  C   -0.531696
    27  C   -0.401493
    28  C   -0.461879
    29  C   -0.464291
    30  H    0.143089
    31  H    0.163134
    32  C   -0.517224
    33  H    0.123649
    34  H    0.153125
    35  H    0.183289
    36  H    0.136249
    37  H    0.128712
    38  H    0.146107
    39  H    0.165765
    40  H    0.143059
    41  H    0.168602
    42  H    0.168846
    43  H    0.148465
    44  H    0.423108
    45  H    0.169391
    46  H    0.167520
    47  H    0.133207
    48  H    0.158625
    49  H    0.159517
    50  H    0.172477
    51  H    0.138934
    52  H    0.141618
    53  H    0.149220
    54  H    0.140125
    55  H    0.183848
    56  H    0.157884
    57  H    0.150722
    58  H    0.160656
    59  H    0.158495
    60  H    0.159714
    61  H    0.148639
    62  C   -0.451057
    63  H    0.140042
    64  H    0.131448
    65  H    0.175638
 Sum of Mulliken atomic charges =   0.00000
 Mulliken charges with hydrogens summed into heavy atoms:
              1
     1  C   -0.063464
     2  C    0.191285
     3  C   -0.025409
     4  C    0.326224
     5  C   -0.037263
     6  C   -0.000740
     7  C    0.196886
     8  C    0.398118
     9  C   -0.086176
    10  C    0.414027
    11  C    0.420043
    12  O   -0.458856
    13  C   -0.003491
    14  C    0.015855
    15  C    0.018292
    16  O   -0.494967
    17  C   -0.017699
    18  C    0.311781
    19  O   -0.541452
    20  C   -0.001183
    21  O   -0.244192
    22  C    0.025760
    23  C    0.220262
    24  O   -0.590275
    25  C    0.226671
    26  C   -0.041076
    27  C   -0.120940
    28  C    0.011314
    29  C    0.004971
    32  C   -0.050376
    62  C   -0.003929
 Sum of Mulliken charges with hydrogens summed into heavy atoms =   0.00000
 Electronic spatial extent (au):  <R**2>=          11631.3405
 Charge=              0.0000 electrons
 Dipole moment (field-independent basis, Debye):
    X=             -3.4104    Y=              3.8828    Z=             -1.5495  Tot=              5.3951
 Quadrupole moment (field-independent basis, Debye-Ang):
   XX=           -183.5481   YY=           -182.2544   ZZ=           -182.4982
   XY=              6.2980   XZ=             -6.9187   YZ=              2.9915
 Traceless Quadrupole moment (field-independent basis, Debye-Ang):
   XX=             -0.7812   YY=              0.5125   ZZ=              0.2687
   XY=              6.2980   XZ=             -6.9187   YZ=              2.9915
 Octapole moment (field-independent basis, Debye-Ang**2):
  XXX=            -28.8186  YYY=             58.2564  ZZZ=             -1.1052  XYY=             -0.1759
  XXY=            -19.0141  XXZ=            -38.7616  XZZ=            -28.8946  YZZ=              2.9064
  YYZ=            -14.2004  XYZ=              8.4470
 Hexadecapole moment (field-independent basis, Debye-Ang**3):
 XXXX=          -8724.8868 YYYY=          -3813.3980 ZZZZ=          -3059.2527 XXXY=            106.1476
 XXXZ=             -5.8631 YYYX=            -20.5137 YYYZ=            -26.9597 ZZZX=             26.2807
 ZZZY=            -16.7677 XXYY=          -2047.8473 XXZZ=          -1941.0262 YYZZ=          -1128.6582
 XXYZ=             36.7033 YYXZ=            -20.2288 ZZXY=             28.8817
 N-N= 3.513437657426D+03 E-N=-1.025318119074D+04  KE= 1.374832779109D+03
 Calling FoFJK, ICntrl=      2127 FMM=T ISym2X=0 I1Cent= 0 IOpClX= 0 NMat=1 NMatS=1 NMatT=0.
 ***** Axes restored to original set *****
 -------------------------------------------------------------------
 Center     Atomic                   Forces (Hartrees/Bohr)
 Number     Number              X              Y              Z
 -------------------------------------------------------------------
      1        6           0.009526309   -0.000674405    0.000076142
      2        6          -0.012370564   -0.005750910    0.002767003
      3        6          -0.001085011   -0.008530065   -0.001264040
      4        6           0.004384980   -0.004400223    0.010801257
      5        6          -0.011331565    0.003531114    0.000272985
      6        6          -0.004454853   -0.011992828   -0.001889754
      7        6           0.012913654    0.018462060    0.008625024
      8        6           0.007218125   -0.011756770   -0.015221429
      9        6           0.002677269    0.003469423    0.008834245
     10        6          -0.011811430    0.003494259   -0.018733969
     11        6          -0.016913904   -0.018191309   -0.012085181
     12        8           0.004210047    0.016127232   -0.000113039
     13        6           0.008096752    0.001608763    0.001592725
     14        6           0.003108974   -0.002853980   -0.006303566
     15        6          -0.010294357    0.000902517    0.001510308
     16        8           0.011086775   -0.006022898    0.009677580
     17        6           0.007181064   -0.011091322   -0.006512177
     18        6           0.032514095    0.006507772   -0.002423323
     19        8          -0.024853895    0.003219983    0.027222727
     20        6           0.011862807   -0.005049553   -0.000474501
     21        8          -0.005471725    0.007697123   -0.001486574
     22        6          -0.007475026    0.008368916    0.001098155
     23        6          -0.001922909    0.003780996    0.007968327
     24        8          -0.000905629   -0.004162792   -0.013715799
     25        6          -0.002057592    0.004407255    0.017348277
     26        6          -0.000605756    0.002081525   -0.001129995
     27        6           0.002819466   -0.004499881   -0.008638525
     28        6          -0.003301070    0.007806216   -0.004535042
     29        6          -0.004400726   -0.005815927   -0.008776100
     30        1          -0.001723384    0.001251108   -0.001537463
     31        1          -0.002904148    0.005980171    0.000044267
     32        6          -0.001188844    0.001071663   -0.001086418
     33        1           0.001159794   -0.000454469   -0.000111753
     34        1          -0.000938456    0.005264664    0.001961812
     35        1          -0.000315684    0.007035774    0.000146301
     36        1          -0.000016016   -0.001677759    0.001614042
     37        1           0.000384150    0.002410439    0.001699275
     38        1           0.000378090    0.002309837    0.001939698
     39        1          -0.000008642   -0.000136183    0.000177735
     40        1           0.000820370    0.000569970   -0.001064950
     41        1           0.001729658    0.000051451   -0.000593463
     42        1          -0.000019350    0.002634872    0.000082565
     43        1          -0.001443071   -0.001905727   -0.001435085
     44        1          -0.002983201   -0.002251983   -0.002266076
     45        1           0.001692451   -0.002246437   -0.001700491
     46        1           0.001570860   -0.000796599    0.002460486
     47        1          -0.004358042    0.001550759    0.002732978
     48        1          -0.000433740   -0.002337151    0.001026215
     49        1           0.002190622    0.000989711   -0.002698799
     50        1           0.002734527    0.000463966   -0.003390592
     51        1           0.000522479   -0.001219298    0.001237169
     52        1          -0.001739112    0.000655046   -0.000719097
     53        1           0.002044391   -0.003878589    0.000186321
     54        1           0.000427430   -0.000820246    0.000138156
     55        1          -0.000866836   -0.002755558    0.005556787
     56        1           0.000836528    0.002765787    0.001428399
     57        1          -0.000707460    0.001198087    0.000653272
     58        1          -0.000083089   -0.000062224    0.003790720
     59        1          -0.001133945    0.001853076   -0.000627905
     60        1           0.004208050   -0.001672108    0.000280434
     61        1           0.004134756   -0.001136106    0.000168936
     62        6          -0.000207373   -0.005166051   -0.003623829
     63        1          -0.001317027   -0.000726142   -0.000477752
     64        1           0.000431625    0.000003353   -0.001464287
     65        1          -0.001222666    0.000510605    0.000980646
 -------------------------------------------------------------------
 Cartesian Forces:  Max     0.032514095 RMS     0.006584211

 GradGradGradGradGradGradGradGradGradGradGradGradGradGradGradGradGradGrad
 Berny optimization.
 Internal  Forces:  Max     0.018989238 RMS     0.003404037
 Search for a local minimum.
 Step number   1 out of a maximum of  390
 All quantities printed in internal units (Hartrees-Bohrs-Radians)
 Mixed Optimization -- RFO/linear search
 Second derivative matrix not updated -- first step.
 ITU=  0
     Eigenvalues ---    0.00263   0.00274   0.00333   0.00424   0.00427
     Eigenvalues ---    0.00438   0.00457   0.00509   0.00587   0.00657
     Eigenvalues ---    0.00661   0.00674   0.00717   0.00732   0.00829
     Eigenvalues ---    0.01042   0.01093   0.01240   0.01271   0.01439
     Eigenvalues ---    0.01470   0.01649   0.01722   0.01837   0.01941
     Eigenvalues ---    0.02536   0.02819   0.02819   0.03005   0.03140
     Eigenvalues ---    0.03241   0.03586   0.03608   0.03861   0.04044
     Eigenvalues ---    0.04085   0.04267   0.04360   0.04608   0.04729
     Eigenvalues ---    0.04767   0.04801   0.04935   0.05096   0.05245
     Eigenvalues ---    0.05305   0.05367   0.05429   0.05453   0.05456
     Eigenvalues ---    0.05496   0.05502   0.05549   0.05633   0.05643
     Eigenvalues ---    0.05714   0.05936   0.05944   0.06247   0.06548
     Eigenvalues ---    0.06709   0.06746   0.07097   0.07146   0.07198
     Eigenvalues ---    0.07226   0.07241   0.07338   0.07789   0.08376
     Eigenvalues ---    0.08626   0.08865   0.08989   0.09211   0.10028
     Eigenvalues ---    0.10113   0.10602   0.11133   0.11636   0.12582
     Eigenvalues ---    0.13172   0.14682   0.15255   0.15970   0.16000
     Eigenvalues ---    0.16000   0.16000   0.16000   0.16000   0.16000
     Eigenvalues ---    0.16000   0.16000   0.16000   0.16000   0.16000
     Eigenvalues ---    0.16000   0.16000   0.16000   0.16000   0.16000
     Eigenvalues ---    0.16000   0.16000   0.16000   0.16000   0.16000
     Eigenvalues ---    0.16036   0.17123   0.17398   0.18149   0.18380
     Eigenvalues ---    0.19882   0.21512   0.21977   0.22692   0.23365
     Eigenvalues ---    0.24373   0.24948   0.24988   0.24993   0.24999
     Eigenvalues ---    0.25000   0.25000   0.25000   0.25940   0.27283
     Eigenvalues ---    0.27340   0.27613   0.27746   0.27880   0.28310
     Eigenvalues ---    0.28696   0.28767   0.28820   0.29175   0.29809
     Eigenvalues ---    0.29829   0.30047   0.30543   0.30777   0.31532
     Eigenvalues ---    0.31658   0.32061   0.32112   0.33479   0.33685
     Eigenvalues ---    0.33887   0.33934   0.33959   0.33976   0.33986
     Eigenvalues ---    0.34000   0.34015   0.34046   0.34067   0.34069
     Eigenvalues ---    0.34129   0.34134   0.34143   0.34151   0.34164
     Eigenvalues ---    0.34196   0.34223   0.34225   0.34251   0.34261
     Eigenvalues ---    0.34275   0.34281   0.34284   0.34320   0.34335
     Eigenvalues ---    0.34349   0.34359   0.34402   0.34442   0.34473
     Eigenvalues ---    0.34668   0.34895   0.35280   0.35295   0.36352
     Eigenvalues ---    0.37583   0.42953   0.43699   0.51813   0.53705
     Eigenvalues ---    0.54700   0.56143   0.89843   0.90898
 RFO step:  Lambda=-2.16006427D-02 EMin= 2.63202149D-03
 Linear search not attempted -- first point.
 Iteration  1 RMS(Cart)=  0.05455149 RMS(Int)=  0.00072689
 Iteration  2 RMS(Cart)=  0.00120330 RMS(Int)=  0.00022909
 Iteration  3 RMS(Cart)=  0.00000070 RMS(Int)=  0.00022909
 Variable       Old X    -DE/DX   Delta X   Delta X   Delta X     New X
                                 (Linear)    (Quad)   (Total)
    R1        2.53186  -0.00209   0.00000  -0.00446  -0.00451   2.52734
    R2        2.81875   0.00852   0.00000   0.02504   0.02494   2.84370
    R3        2.05846  -0.00018   0.00000  -0.00049  -0.00049   2.05797
    R4        2.84920   0.00424   0.00000   0.00967   0.00971   2.85891
    R5        2.84775   0.00289   0.00000   0.00855   0.00855   2.85630
    R6        2.94099   0.00565   0.00000   0.01385   0.01383   2.95482
    R7        2.90953   0.01116   0.00000   0.03797   0.03792   2.94745
    R8        2.07866  -0.00091   0.00000  -0.00253  -0.00253   2.07613
    R9        2.92196   0.00901   0.00000   0.02881   0.02858   2.95053
   R10        2.91601   0.00744   0.00000   0.02485   0.02497   2.94098
   R11        2.77976  -0.00534   0.00000  -0.01457  -0.01455   2.76521
   R12        2.91906   0.00212   0.00000   0.01007   0.01001   2.92907
   R13        2.90444   0.00661   0.00000   0.01584   0.01574   2.92018
   R14        2.90183   0.01034   0.00000   0.03513   0.03507   2.93690
   R15        2.07330   0.00272   0.00000   0.00752   0.00752   2.08082
   R16        2.07442  -0.00118   0.00000  -0.00328  -0.00328   2.07114
   R17        2.81355   0.00932   0.00000   0.01996   0.01960   2.83315
   R18        2.85889   0.01612   0.00000   0.05690   0.05640   2.91528
   R19        2.67728   0.00499   0.00000   0.01105   0.01105   2.68833
   R20        2.52386   0.01194   0.00000   0.02070   0.02076   2.54462
   R21        2.62944  -0.01899   0.00000  -0.04496  -0.04475   2.58468
   R22        2.79082   0.00087   0.00000  -0.00111  -0.00095   2.78987
   R23        2.79518   0.01896   0.00000   0.05149   0.05149   2.84667
   R24        2.33005  -0.01383   0.00000  -0.01503  -0.01503   2.31502
   R25        2.32522  -0.01642   0.00000  -0.01765  -0.01765   2.30757
   R26        2.88346   0.00135   0.00000   0.00421   0.00421   2.88767
   R27        2.90641   0.00745   0.00000   0.02413   0.02413   2.93054
   R28        2.88306   0.00759   0.00000   0.02373   0.02373   2.90679
   R29        2.07521  -0.00077   0.00000  -0.00214  -0.00214   2.07307
   R30        2.07370   0.00115   0.00000   0.00318   0.00318   2.07688
   R31        2.07253   0.00016   0.00000   0.00044   0.00044   2.07296
   R32        2.87869   0.00740   0.00000   0.02299   0.02299   2.90168
   R33        2.07077   0.00009   0.00000   0.00025   0.00025   2.07102
   R34        2.06858   0.00115   0.00000   0.00317   0.00317   2.07175
   R35        2.06952  -0.00075   0.00000  -0.00205  -0.00205   2.06747
   R36        2.91630  -0.00045   0.00000   0.01002   0.01029   2.92658
   R37        2.90075   0.00485   0.00000   0.01705   0.01708   2.91783
   R38        2.07104  -0.00154   0.00000  -0.00425  -0.00425   2.06679
[...]
     54          1           0        0.784954    3.797582   -2.770732
     55          1           0        0.593068    2.053455   -3.054519
     56          1           0        3.064149    3.632349   -0.766107
     57          1           0        1.621756    4.613287   -0.451812
     58          1           0        2.162054    3.414351    0.742122
     59          1           0       -0.997396    1.435274    4.961525
     60          1           0       -0.096846    2.457204    3.830979
     61          1           0       -1.837983    2.663891    3.997080
     62          6           0        5.762155   -0.887586    0.535560
     63          1           0        6.255461   -1.808565    0.205887
     64          1           0        6.547290   -0.152915    0.750953
     65          1           0        5.232073   -1.110746    1.464986
 ---------------------------------------------------------------------
 Rotational constants (GHZ):      0.2119531      0.1186827      0.1134747

 **********************************************************************

            Population analysis using the SCF density.

 **********************************************************************

 Orbital symmetries:
       Occupied  (A) (A) (A) (A) (A) (A) (A) (A) (A) (A) (A) (A)
                 (A) (A) (A) (A) (A) (A) (A) (A) (A) (A) (A) (A)
                 (A) (A) (A) (A) (A) (A) (A) (A) (A) (A) (A) (A)
                 (A) (A) (A) (A) (A) (A) (A) (A) (A) (A) (A) (A)
                 (A) (A) (A) (A) (A) (A) (A) (A) (A) (A) (A) (A)
                 (A) (A) (A) (A) (A) (A) (A) (A) (A) (A) (A) (A)
                 (A) (A) (A) (A) (A) (A) (A) (A) (A) (A) (A) (A)
                 (A) (A) (A) (A) (A) (A) (A) (A) (A) (A) (A) (A)
                 (A) (A) (A) (A) (A) (A) (A) (A) (A) (A) (A) (A)
                 (A) (A) (A) (A) (A) (A) (A)
       Virtual   (A) (A) (A) (A) (A) (A) (A) (A) (A) (A) (A) (A)
                 (A) (A) (A) (A) (A) (A) (A) (A) (A) (A) (A) (A)
                 (A) (A) (A) (A) (A) (A) (A) (A) (A) (A) (A) (A)
                 (A) (A) (A) (A) (A) (A) (A) (A) (A) (A) (A) (A)
                 (A) (A) (A) (A) (A) (A) (A) (A) (A) (A) (A) (A)
                 (A) (A) (A) (A) (A) (A) (A) (A) (A) (A) (A) (A)
                 (A) (A) (A) (A) (A) (A) (A) (A) (A) (A) (A) (A)
                 (A) (A) (A) (A) (A) (A) (A) (A) (A) (A) (A) (A)
                 (A) (A) (A) (A) (A) (A) (A) (A) (A) (A) (A) (A)
                 (A) (A) (A) (A) (A) (A) (A) (A) (A) (A) (A) (A)
                 (A) (A) (A) (A) (A) (A) (A) (A) (A) (A) (A) (A)
                 (A) (A) (A) (A) (A) (A) (A) (A) (A) (A) (A) (A)
                 (A) (A) (A) (A) (A) (A) (A) (A) (A) (A) (A) (A)
                 (A) (A) (A) (A) (A) (A) (A) (A) (A) (A) (A) (A)
                 (A) (A) (A) (A) (A) (A) (A) (A) (A) (A) (A) (A)
                 (A) (A) (A) (A) (A) (A) (A) (A) (A) (A) (A) (A)
                 (A) (A) (A) (A) (A) (A) (A) (A) (A) (A) (A) (A)
                 (A) (A) (A) (A) (A) (A) (A) (A) (A) (A) (A) (A)
                 (A) (A) (A) (A) (A) (A) (A) (A) (A) (A) (A) (A)
                 (A) (A) (A) (A) (A) (A) (A) (A) (A) (A) (A) (A)
                 (A) (A) (A) (A) (A) (A) (A) (A) (A) (A) (A) (A)
                 (A) (A) (A) (A) (A) (A) (A) (A) (A) (A) (A) (A)
                 (A) (A) (A) (A) (A) (A) (A) (A) (A) (A) (A) (A)
                 (A) (A) (A) (A) (A) (A) (A) (A) (A) (A) (A) (A)
                 (A) (A) (A) (A) (A) (A) (A) (A) (A) (A) (A) (A)
                 (A) (A) (A) (A) (A) (A) (A) (A) (A) (A) (A) (A)
                 (A) (A) (A) (A) (A) (A) (A) (A) (A) (A) (A) (A)
                 (A) (A) (A) (A) (A) (A) (A) (A) (A) (A) (A) (A)
                 (A) (A) (A) (A) (A) (A) (A) (A) (A) (A) (A) (A)
                 (A) (A) (A) (A) (A) (A) (A) (A) (A) (A) (A) (A)
                 (A) (A) (A) (A) (A) (A) (A) (A) (A) (A) (A) (A)
                 (A) (A) (A) (A) (A) (A) (A) (A) (A) (A) (A) (A)
                 (A) (A) (A) (A) (A) (A) (A) (A) (A) (A) (A) (A)
                 (A) (A) (A) (A) (A) (A) (A) (A) (A) (A) (A) (A)
                 (A) (A) (A) (A) (A) (A) (A) (A) (A) (A)
 The electronic state is 1-A.
 Alpha  occ. eigenvalues --  -19.20052 -19.16764 -19.15948 -19.12359 -19.12331
 Alpha  occ. eigenvalues --  -10.27273 -10.27057 -10.26904 -10.26214 -10.25996
 Alpha  occ. eigenvalues --  -10.25870 -10.24973 -10.21274 -10.20803 -10.20737
 Alpha  occ. eigenvalues --  -10.20384 -10.20023 -10.19419 -10.19361 -10.19354
 Alpha  occ. eigenvalues --  -10.19337 -10.19253 -10.18873 -10.18715 -10.18537
 Alpha  occ. eigenvalues --  -10.18533 -10.18192 -10.18128 -10.17388 -10.16555
 Alpha  occ. eigenvalues --  -10.15626  -1.09403  -1.06016  -1.03067  -1.02645
 Alpha  occ. eigenvalues --   -1.01844  -0.86679  -0.83806  -0.82468  -0.81381
 Alpha  occ. eigenvalues --   -0.80229  -0.79163  -0.76814  -0.74228  -0.73222
 Alpha  occ. eigenvalues --   -0.71852  -0.71158  -0.70261  -0.70018  -0.67836
 Alpha  occ. eigenvalues --   -0.65138  -0.64575  -0.62975  -0.61767  -0.60621
 Alpha  occ. eigenvalues --   -0.59315  -0.58539  -0.56865  -0.55080  -0.53686
 Alpha  occ. eigenvalues --   -0.52847  -0.52128  -0.50442  -0.50292  -0.49453
 Alpha  occ. eigenvalues --   -0.47721  -0.47489  -0.46972  -0.46457  -0.45730
 Alpha  occ. eigenvalues --   -0.44969  -0.44426  -0.44301  -0.43975  -0.43712
 Alpha  occ. eigenvalues --   -0.42756  -0.42432  -0.42040  -0.41596  -0.41394
 Alpha  occ. eigenvalues --   -0.41061  -0.40834  -0.40571  -0.40245  -0.39379
 Alpha  occ. eigenvalues --   -0.39305  -0.38644  -0.38355  -0.38050  -0.37765
 Alpha  occ. eigenvalues --   -0.37535  -0.37353  -0.37000  -0.36994  -0.36716
 Alpha  occ. eigenvalues --   -0.36469  -0.35884  -0.35262  -0.34728  -0.34423
 Alpha  occ. eigenvalues --   -0.33850  -0.33657  -0.33139  -0.32851  -0.32116
 Alpha  occ. eigenvalues --   -0.31339  -0.31184  -0.30860  -0.28386  -0.27172
 Alpha  occ. eigenvalues --   -0.25662  -0.24524  -0.24225  -0.23363  -0.22219
 Alpha virt. eigenvalues --   -0.04761  -0.01573   0.00622   0.02249   0.05682
 Alpha virt. eigenvalues --    0.07216   0.08285   0.08450   0.09326   0.09921
 Alpha virt. eigenvalues --    0.10324   0.10599   0.11053   0.12126   0.12463
 Alpha virt. eigenvalues --    0.12706   0.13312   0.13787   0.13953   0.14141
 Alpha virt. eigenvalues --    0.14403   0.14572   0.15188   0.15782   0.16244
 Alpha virt. eigenvalues --    0.16677   0.16898   0.16956   0.17094   0.17419
 Alpha virt. eigenvalues --    0.17702   0.17925   0.18011   0.18605   0.18654
 Alpha virt. eigenvalues --    0.19044   0.19413   0.19790   0.20115   0.20512
 Alpha virt. eigenvalues --    0.20786   0.21183   0.21376   0.21823   0.22080
 Alpha virt. eigenvalues --    0.22235   0.22708   0.23712   0.23741   0.24061
 Alpha virt. eigenvalues --    0.24307   0.24974   0.25141   0.26185   0.26461
 Alpha virt. eigenvalues --    0.27471   0.28277   0.28529   0.28852   0.29780
 Alpha virt. eigenvalues --    0.29909   0.31499   0.32163   0.32659   0.34009
 Alpha virt. eigenvalues --    0.34329   0.35983   0.37499   0.39208   0.40383
 Alpha virt. eigenvalues --    0.42466   0.45385   0.46230   0.47694   0.48454
 Alpha virt. eigenvalues --    0.49133   0.50544   0.51089   0.51357   0.51552
 Alpha virt. eigenvalues --    0.51914   0.52278   0.52894   0.53243   0.53574
 Alpha virt. eigenvalues --    0.53805   0.54436   0.54902   0.55583   0.56517
 Alpha virt. eigenvalues --    0.56934   0.57366   0.57647   0.58319   0.58801
 Alpha virt. eigenvalues --    0.59271   0.59925   0.60762   0.61394   0.61776
 Alpha virt. eigenvalues --    0.62172   0.62513   0.63064   0.64218   0.64479
 Alpha virt. eigenvalues --    0.64739   0.65929   0.66356   0.66743   0.67226
 Alpha virt. eigenvalues --    0.67732   0.67839   0.68235   0.68713   0.69041
 Alpha virt. eigenvalues --    0.69668   0.71022   0.71656   0.72343   0.72836
 Alpha virt. eigenvalues --    0.73590   0.74266   0.74820   0.75637   0.76150
 Alpha virt. eigenvalues --    0.77444   0.77898   0.78039   0.79117   0.79386
 Alpha virt. eigenvalues --    0.80147   0.80727   0.81496   0.81965   0.82410
 Alpha virt. eigenvalues --    0.82814   0.83357   0.83696   0.84361   0.84912
 Alpha virt. eigenvalues --    0.85702   0.85940   0.86384   0.86536   0.87054
 Alpha virt. eigenvalues --    0.87325   0.87919   0.88503   0.88639   0.89016
 Alpha virt. eigenvalues --    0.89271   0.89301   0.89858   0.89968   0.90450
 Alpha virt. eigenvalues --    0.90776   0.91418   0.91706   0.92052   0.92642
 Alpha virt. eigenvalues --    0.93008   0.93661   0.93843   0.94190   0.94804
 Alpha virt. eigenvalues --    0.95569   0.96216   0.96486   0.96777   0.97471
 Alpha virt. eigenvalues --    0.98204   0.98297   0.98475   0.99103   1.00392
 Alpha virt. eigenvalues --    1.00745   1.01281   1.02043   1.02799   1.04317
 Alpha virt. eigenvalues --    1.04822   1.05691   1.06827   1.07535   1.08505
 Alpha virt. eigenvalues --    1.09214   1.10854   1.11680   1.12621   1.13345
 Alpha virt. eigenvalues --    1.13902   1.15089   1.15796   1.17016   1.17479
 Alpha virt. eigenvalues --    1.18057   1.18958   1.19708   1.19866   1.21479
 Alpha virt. eigenvalues --    1.22537   1.22668   1.24595   1.25282   1.26510
 Alpha virt. eigenvalues --    1.27399   1.29261   1.29562   1.30551   1.32761
 Alpha virt. eigenvalues --    1.33798   1.35788   1.37373   1.39236   1.40667
 Alpha virt. eigenvalues --    1.41043   1.42132   1.42589   1.45670   1.45949
 Alpha virt. eigenvalues --    1.46919   1.48730   1.49635   1.51278   1.51846
 Alpha virt. eigenvalues --    1.53413   1.54386   1.54545   1.55773   1.58703
 Alpha virt. eigenvalues --    1.59532   1.60206   1.60648   1.61489   1.63131
 Alpha virt. eigenvalues --    1.64765   1.66108   1.66482   1.67813   1.67900
 Alpha virt. eigenvalues --    1.70197   1.70912   1.72208   1.72333   1.72834
 Alpha virt. eigenvalues --    1.73777   1.74996   1.75142   1.76153   1.77494
 Alpha virt. eigenvalues --    1.78220   1.78878   1.79467   1.80255   1.81240
 Alpha virt. eigenvalues --    1.81608   1.81851   1.82881   1.83974   1.84887
 Alpha virt. eigenvalues --    1.85373   1.85905   1.86275   1.86946   1.87900
 Alpha virt. eigenvalues --    1.88542   1.89643   1.90093   1.91430   1.91466
 Alpha virt. eigenvalues --    1.91838   1.92347   1.93744   1.94487   1.94689
 Alpha virt. eigenvalues --    1.96336   1.96849   1.97135   1.97468   1.98248
 Alpha virt. eigenvalues --    1.98382   1.98786   1.99419   1.99822   2.01319
 Alpha virt. eigenvalues --    2.01916   2.02916   2.03440   2.04556   2.05617
 Alpha virt. eigenvalues --    2.05947   2.06702   2.07856   2.09512   2.10321
 Alpha virt. eigenvalues --    2.10649   2.11066   2.12198   2.12697   2.13311
 Alpha virt. eigenvalues --    2.13794   2.15008   2.15897   2.17759   2.18384
 Alpha virt. eigenvalues --    2.18797   2.19195   2.20880   2.21552   2.22145
 Alpha virt. eigenvalues --    2.23102   2.24233   2.25133   2.25459   2.26434
 Alpha virt. eigenvalues --    2.27276   2.27773   2.28822   2.30844   2.31686
 Alpha virt. eigenvalues --    2.32222   2.33264   2.33338   2.34686   2.34858
 Alpha virt. eigenvalues --    2.35725   2.36200   2.37481   2.38094   2.38866
 Alpha virt. eigenvalues --    2.39621   2.40794   2.41579   2.42941   2.43358
 Alpha virt. eigenvalues --    2.44971   2.46358   2.46838   2.47647   2.48556
 Alpha virt. eigenvalues --    2.49031   2.50084   2.51563   2.52289   2.54445
 Alpha virt. eigenvalues --    2.54841   2.55940   2.57669   2.59414   2.59892
 Alpha virt. eigenvalues --    2.60391   2.61598   2.63170   2.64892   2.65534
 Alpha virt. eigenvalues --    2.66341   2.67602   2.68104   2.69675   2.70908
 Alpha virt. eigenvalues --    2.71978   2.72686   2.73307   2.75466   2.76889
 Alpha virt. eigenvalues --    2.77048   2.78463   2.79863   2.82790   2.83833
 Alpha virt. eigenvalues --    2.87858   2.89721   2.92468   2.93592   2.95295
 Alpha virt. eigenvalues --    2.97966   2.99303   3.01233   3.01801   3.02870
 Alpha virt. eigenvalues --    3.05039   3.05710   3.12421   3.17466   3.20724
 Alpha virt. eigenvalues --    3.25668   3.27995   4.06351   4.07522   4.09456
 Alpha virt. eigenvalues --    4.11717   4.12712   4.14732   4.17219   4.19251
 Alpha virt. eigenvalues --    4.21870   4.23518   4.25737   4.27035   4.29123
 Alpha virt. eigenvalues --    4.31065   4.35008   4.36848   4.38462   4.43549
 Alpha virt. eigenvalues --    4.48926   4.49395   4.52125   4.55632   4.58945
 Alpha virt. eigenvalues --    4.63665   4.65507   4.69683   4.71789   4.79368
 Alpha virt. eigenvalues --    4.89491   5.00809   5.18512
          Condensed to atoms (all electrons):
 Mulliken atomic charges:
              1
     1  C   -0.184386
     2  C    0.192827
     3  C   -0.190068
     4  C    0.327636
     5  C   -0.047928
     6  C   -0.338900
     7  C    0.189076
     8  C    0.388430
     9  C   -0.089791
    10  C    0.423064
    11  C    0.425070
    12  O   -0.451649
    13  C   -0.142876
    14  C   -0.261962
    15  C   -0.453865
    16  O   -0.485745
    17  C   -0.162077
    18  C    0.304665
    19  O   -0.536326
    20  C   -0.321773
    21  O   -0.671953
    22  C   -0.310422
    23  C    0.075382
    24  O   -0.596854
    25  C    0.240705
    26  C   -0.546343
    27  C   -0.404030
    28  C   -0.468720
    29  C   -0.461717
    30  H    0.144817
    31  H    0.164397
    32  C   -0.519022
    33  H    0.124125
    34  H    0.146606
    35  H    0.188429
    36  H    0.133150
    37  H    0.127778
    38  H    0.140520
    39  H    0.152030
    40  H    0.138368
    41  H    0.172766
    42  H    0.165555
    43  H    0.151977
    44  H    0.433790
    45  H    0.170493
    46  H    0.163334
    47  H    0.135863
    48  H    0.161726
    49  H    0.166001
    50  H    0.174010
    51  H    0.142173
    52  H    0.141879
    53  H    0.156468
    54  H    0.144697
    55  H    0.193073
    56  H    0.164378
    57  H    0.152572
    58  H    0.163044
    59  H    0.158991
    60  H    0.156099
    61  H    0.150212
    62  C   -0.447606
    63  H    0.142092
    64  H    0.130228
    65  H    0.175516
 Sum of Mulliken atomic charges =   0.00000
 Mulliken charges with hydrogens summed into heavy atoms:
              1
     1  C   -0.060261
     2  C    0.192827
     3  C   -0.025670
     4  C    0.327636
     5  C   -0.047928
     6  C   -0.003864
     7  C    0.189076
     8  C    0.388430
     9  C   -0.089791
    10  C    0.423064
    11  C    0.425070
    12  O   -0.451649
    13  C   -0.009725
    14  C    0.006336
    15  C    0.009298
    16  O   -0.485745
    17  C   -0.017260
    18  C    0.304665
    19  O   -0.536326
    20  C   -0.004241
    21  O   -0.238164
    22  C    0.023405
    23  C    0.211245
    24  O   -0.596854
    25  C    0.240705
    26  C   -0.044607
    27  C   -0.119978
    28  C    0.025518
    29  C    0.018277
    32  C   -0.053719
    62  C    0.000230
 Sum of Mulliken charges with hydrogens summed into heavy atoms =   0.00000
 Electronic spatial extent (au):  <R**2>=          11687.1338
 Charge=              0.0000 electrons
 Dipole moment (field-independent basis, Debye):
    X=             -3.2910    Y=              5.4557    Z=             -1.5956  Tot=              6.5681
 Quadrupole moment (field-independent basis, Debye-Ang):
   XX=           -181.5869   YY=           -185.7191   ZZ=           -181.0668
   XY=             11.4883   XZ=             -5.0066   YZ=              5.0248
 Traceless Quadrupole moment (field-independent basis, Debye-Ang):
   XX=              1.2040   YY=             -2.9282   ZZ=              1.7241
   XY=             11.4883   XZ=             -5.0066   YZ=              5.0248
 Octapole moment (field-independent basis, Debye-Ang**2):
  XXX=            -34.2186  YYY=             72.0571  ZZZ=              0.2197  XYY=             -8.3350
  XXY=            -10.7822  XXZ=            -38.9791  XZZ=            -23.1657  YZZ=              5.2993
  YYZ=            -19.7706  XYZ=             11.7723
 Hexadecapole moment (field-independent basis, Debye-Ang**3):
 XXXX=          -8751.8857 YYYY=          -3686.2542 ZZZZ=          -3155.6182 XXXY=            137.6276
 XXXZ=             21.6009 YYYX=             19.6012 YYYZ=            -17.0902 ZZZX=             43.9396
 ZZZY=            -23.8129 XXYY=          -2081.6954 XXZZ=          -1954.7428 YYZZ=          -1135.4034
 XXYZ=             37.2644 YYXZ=            -45.7507 ZZXY=             29.2655
 N-N= 3.501875145265D+03 E-N=-1.022987949461D+04  KE= 1.374453421233D+03
 1\1\GINC-B0603\FOpt\RB3LYP\6-31G(d)\C26H34O5\CAOFEI\24-Mar-2021\0\\# o
 pt rb3lyp/6-31g(d) geom=connectivity\\Title Card Required\\0,1\C,0.023
 053096,-0.0491719628,0.0253088802\C,1.3584135006,-0.0445827565,-0.0413
 551655\C,2.1484998002,1.2467316062,-0.0336760361\C,1.3278301239,2.5663
 094332,-0.2029254006\C,-0.211233087,2.4767759526,-0.4287702259\C,-0.83
 02167562,1.178426748,0.1593282941\C,2.0606693713,3.3346139322,-1.33930
 22475\C,1.5447295365,2.9962089919,-2.7201163843\C,0.2556551018,2.70879
 05582,-3.0158018749\C,-0.7070164843,2.6031248691,-1.8986040778\C,-0.23
 2388621,2.4113342948,-4.4109776975\O,-0.981974312,1.469733742,-4.60502
 16935\C,0.1912276392,3.3420918829,-5.5537318146\C,1.050727933,2.608650
 5422,-6.6176585702\C,-1.0713412003,3.9934170925,-6.1488723616\O,-1.913
 5513678,2.6073347383,-2.0885839432\C,3.4925950255,2.7689904023,-1.4545
 014743\C,3.8694843126,3.0805190748,-2.922298663\O,2.5520712249,2.97876
 46765,-3.6097111975\C,3.2705755572,1.2830451924,-1.1137289884\O,1.9660
 945035,4.7364212584,-1.1690654261\C,-0.7288012591,3.6984820728,0.37549
 35453\C,0.2242022565,3.7259500531,1.5723457056\O,1.5066065368,3.377363
 1586,0.9931852453\C,0.3069172747,5.0286904143,2.3375079731\C,0.9714589
 115,6.2150817289,1.6835984387\C,-0.2319345487,5.1045159846,3.558569176
 3\C,4.3902366248,4.5067558483,-3.1156413578\C,4.7856586698,2.072370472
 ,-3.6104536639\H,4.1758078156,3.2521059199,-0.7493265268\H,2.63087631,
 1.3468844918,0.948891446\C,2.1560897351,-1.3257040779,-0.0644933315\H,
 -0.5003929686,-1.0043598836,0.0418742083\H,-1.0502377243,1.332364691,1
 .2269921007\H,-1.803212981,1.0338695105,-0.3200903575\H,0.819829482,4.
 1341299012,-5.1324448068\H,1.4462562882,3.3796906398,-7.2940432335\H,1
 .9221170875,2.1726681407,-6.1133178939\H,-1.5853069727,4.6082277198,-5
 .4014924193\H,-0.8052160564,4.6389269089,-6.9944726892\H,-1.7764909222
 ,3.2334535252,-6.4958375801\H,2.9253390315,0.7448435335,-2.0032027359\
 H,4.1842302327,0.7872079296,-0.7739040013\H,2.0122635248,4.8471751643,
 -0.1991869091\H,-1.7758629019,3.582883646,0.6653887912\H,-0.6350083671
 ,4.6158054081,-0.2136856347\H,-0.0540932866,2.9348580803,2.2814610528\
 H,0.823567468,7.1213019112,2.2779528913\H,2.0546276314,6.0573478146,1.
 5940728054\H,0.5838225273,6.4070169816,0.6759469222\H,-0.6844078464,4.
 2413559561,4.0407092833\H,-0.2482615766,6.0355695689,4.1189351953\H,4.
 4655200097,4.7336226915,-4.1841326832\H,5.3896127554,4.6018639266,-2.6
 755181098\H,3.7281970853,5.2325621657,-2.6401539127\H,4.9237936381,2.3
 476115946,-4.6609425012\H,5.7690836902,2.0730753585,-3.1274401354\H,4.
 3819348926,1.0579983672,-3.5749692161\H,1.4998929855,-2.1989200218,0.0
 011389369\H,2.7560317327,-1.4263605077,-0.9780101708\H,2.8599909701,-1
 .3676107286,0.7791485283\C,0.3428572659,1.5292075056,-7.4445786905\H,-
 0.476783542,1.9484865053,-8.0384066056\H,1.0508102565,1.0658030315,-8.
 1421686675\H,-0.077126634,0.7472966282,-6.806732344\\Version=EM64L-G09
 RevB.01\State=1-A\HF=-1387.3154444\RMSD=5.270e-09\RMSF=5.983e-06\Dipol
 e=2.1767472,0.3999943,1.3339363\Quadrupole=-2.7758744,1.911822,0.86405
 25,-4.0570306,-8.7367148,-2.3480842\PG=C01 [X(C26H34O5)]\\@


 BE LIKE A POSTAGE STAMP.  STICK TO ONE THING UNTIL
 YOU GET THERE -- JOSH BILLINGS
 Job cpu time:  0 days  6 hours 15 minutes 32.9 seconds.
 File lengths (MBytes):  RWF=    186 Int=      0 D2E=      0 Chk=     20 Scr=      1
 Normal termination of Gaussian 09 at Wed Mar 24 17:04:28 2021.
