 Entering Gaussian System, Link 0=g09
 Initial command:
 /public/software/g09/g09/l1.exe /tmp/Gau-15444.inp -scrdir=/tmp/
 Entering Link 1 = /public/software/g09/g09/l1.exe PID=     15445.
  
 Copyright (c) 1988,1990,1992,1993,1995,1998,2003,2009,2010,
            Gaussian, Inc.  All Rights Reserved.
  
 This is part of the Gaussian(R) 09 program.  It is based on
 the Gaussian(R) 03 system (copyright 2003, Gaussian, Inc.),
 the Gaussian(R) 98 system (copyright 1998, Gaussian, Inc.),
 the Gaussian(R) 94 system (copyright 1995, Gaussian, Inc.),
 the Gaussian 92(TM) system (copyright 1992, Gaussian, Inc.),
 the Gaussian 90(TM) system (copyright 1990, Gaussian, Inc.),
 the Gaussian 88(TM) system (copyright 1988, Gaussian, Inc.),
 the Gaussian 86(TM) system (copyright 1986, Carnegie Mellon
 University), and the Gaussian 82(TM) system (copyright 1983,
 Carnegie Mellon University). Gaussian is a federally registered
 trademark of Gaussian, Inc.
  
 This software contains proprietary and confidential information,
 including trade secrets, belonging to Gaussian, Inc.
  
 This software is provided under written license and may be
 used, copied, transmitted, or stored only in accord with that
 written license.
  
 The following legend is applicable only to US Government
 contracts under FAR:
  
                    RESTRICTED RIGHTS LEGEND
  
 Use, reproduction and disclosure by the US Government is
 subject to restrictions as set forth in subparagraphs (a)
 and (c) of the Commercial Computer Software - Restricted
 Rights clause in FAR 52.227-19.
  
 Gaussian, Inc.
 340 Quinnipiac St., Bldg. 40, Wallingford CT 06492
  
  
 ---------------------------------------------------------------
 Warning -- This program may not be used in any manner that
 competes with the business of Gaussian, Inc. or will provide
 assistance to any competitor of Gaussian, Inc.  The licensee
 of this program is prohibited from giving any competitor of
 Gaussian, Inc. access to this program.  By using this program,
 the user acknowledges that Gaussian, Inc. is engaged in the
 business of creating and licensing software in the field of
 computational chemistry and represents and warrants to the
 licensee that it is not a competitor of Gaussian, Inc. and that
 it will not use this program in any manner prohibited above.
 ---------------------------------------------------------------
  

 Cite this work as:
 Gaussian 09, Revision B.01,
 M. J. Frisch, G. W. Trucks, H. B. Schlegel, G. E. Scuseria, 
 M. A. Robb, J. R. Cheeseman, G. Scalmani, V. Barone, B. Mennucci, 
 G. A. Petersson, H. Nakatsuji, M. Caricato, X. Li, H. P. Hratchian, 
 A. F. Izmaylov, J. Bloino, G. Zheng, J. L. Sonnenberg, M. Hada, 
 M. Ehara, K. Toyota, R. Fukuda, J. Hasegawa, M. Ishida, T. Nakajima, 
 Y. Honda, O. Kitao, H. Nakai, T. Vreven, J. A. Montgomery, Jr., 
 J. E. Peralta, F. Ogliaro, M. Bearpark, J. J. Heyd, E. Brothers, 
 K. N. Kudin, V. N. Staroverov, T. Keith, R. Kobayashi, J. Normand, 
 K. Raghavachari, A. Rendell, J. C. Burant, S. S. Iyengar, J. Tomasi, 
 M. Cossi, N. Rega, J. M. Millam, M. Klene, J. E. Knox, J. B. Cross, 
 V. Bakken, C. Adamo, J. Jaramillo, R. Gomperts, R. E. Stratmann, 
 O. Yazyev, A. J. Austin, R. Cammi, C. Pomelli, J. W. Ochterski, 
 R. L. Martin, K. Morokuma, V. G. Zakrzewski, G. A. Voth, 
 P. Salvador, J. J. Dannenberg, S. Dapprich, A. D. Daniels, 
 O. Farkas, J. B. Foresman, J. V. Ortiz, J. Cioslowski, 
 and D. J. Fox, Gaussian, Inc., Wallingford CT, 2010.
 
 ******************************************
 Gaussian 09:  EM64L-G09RevB.01 12-Aug-2010
                24-Mar-2021 
 ******************************************
 %mem=600MW
 %nprocshared=10
 Will use up to   10 processors via shared memory.
 ---------------------------------------
 # opt rb3lyp/6-31g(d) geom=connectivity
 ---------------------------------------
 1/14=-1,18=20,19=15,26=3,38=1,57=2/1,3;
 2/9=110,12=2,17=6,18=5,40=1/2;
 3/5=1,6=6,7=1,11=2,16=1,25=1,30=1,71=1,74=-5,116=1/1,2,3;
 4//1;
 5/5=2,38=5/2;
 6/7=2,8=2,9=2,10=2,28=1/1;
 7//1,2,3,16;
 1/14=-1,18=20,19=15/3(2);
 2/9=110/2;
 99//99;
 2/9=110/2;
 3/5=1,6=6,7=1,11=2,16=1,25=1,30=1,71=1,74=-5,116=1/1,2,3;
 4/5=5,16=3/1;
 5/5=2,38=5/2;
 7//1,2,3,16;
 1/14=-1,18=20,19=15/3(-5);
 2/9=110/2;
 6/7=2,8=2,9=2,10=2,19=2,28=1/1;
 99/9=1/99;
 -------------------
 Title Card Required
 -------------------
 Symbolic Z-matrix:
 Charge =  0 Multiplicity = 1
 C                     0.        0.        0. 
 C                     1.3405    0.        0. 
 C                     2.1208    1.2875    0. 
 C                     1.3775    2.5444    0.5438 
 C                    -0.1629    2.4596    0.6821 
 C                    -0.8043    1.2577   -0.0431 
 C                     1.8965    3.7034   -0.3371 
 C                     0.9429    4.1971   -1.3701 
 C                    -0.3773    4.2458   -1.1712 
 C                    -0.8764    3.697     0.1097 
 C                    -1.3127    4.6867   -2.2288 
 O                    -2.1055    3.8575   -2.6791 
 C                    -1.2139    6.1229   -2.7574 
 C                    -2.4444    6.4955   -3.609 
 C                    -0.9711    7.1429   -1.6439 
 O                    -1.8899    4.1724    0.6188 
 C                     3.0036    3.1611   -1.2206 
 C                     2.9246    4.0551   -2.4723 
 O                     1.5402    4.4637   -2.5939 
 C                     2.5945    1.6927   -1.4004 
 O                     2.3333    4.8088    0.4403 
 C                    -0.387     2.3865    2.2049 
 C                     0.9849    2.1222    2.7976 
 O                     1.8815    2.7764    1.8926 
 C                     1.1495    2.6339    4.2107 
 C                     0.3204    1.9299    5.2517 
 C                     1.9825    3.6289    4.5622 
 C                     3.7763    5.3269   -2.334 
 C                     3.326     3.3371   -3.7636 
 H                     3.991     3.2187   -0.7459 
 H                     3.0122    1.1295    0.6258 
 C                     2.1349   -1.275    -0.0162 
 H                    -0.5504   -0.9381   -0.0303 
 H                    -1.7934    1.0569    0.3898 
 H                    -0.9943    1.4816   -1.1011 
 H                    -0.3504    6.1422   -3.4348 
 H                    -2.5992    5.7355   -4.3848 
 H                    -2.239     7.4351   -4.1372 
 H                    -1.0347    8.1662   -2.0286 
 H                     0.0267    7.0238   -1.209 
 H                    -1.6955    7.0327   -0.8299 
 H                     1.783     1.5756   -2.1293 
 H                     3.4387    1.0832   -1.7406 
 H                     2.4861    4.4528    1.3415 
 H                    -1.102     1.6125    2.5056 
 H                    -0.7744    3.3368    2.5937 
 H                     1.2183    1.0505    2.7817 
 H                     0.5337    0.856     5.2437 
 H                     0.5251    2.2995    6.2622 
 H                    -0.7468    2.075     5.0569 
 H                     2.0716    3.9568    5.5935 
 H                     2.5993    4.1465    3.8354 
 H                     3.6694    5.9611   -3.222 
 H                     4.8366    5.0845   -2.2091 
 H                     3.46      5.9464   -1.4897 
 H                     2.6367    2.5222   -4.0072 
 H                     3.2811    4.0225   -4.6182 
 H                     4.3419    2.9345   -3.6984 
 H                     1.491    -2.1608   -0.024 
 H                     2.7707   -1.3181   -0.9061 
 H                     2.7727   -1.3356    0.8715 
 C                    -3.7399    6.6615   -2.8231 
 H                    -3.6812    7.5045   -2.1283 
 H                    -4.5688    6.86     -3.5105 
 H                    -3.986     5.7609   -2.2533 
 

 GradGradGradGradGradGradGradGradGradGradGradGradGradGradGradGradGradGrad
 Berny optimization.
 Initialization pass.
                           ----------------------------
                           !    Initial Parameters    !
                           ! (Angstroms and Degrees)  !
 --------------------------                            --------------------------
 ! Name  Definition              Value          Derivative Info.                !
 --------------------------------------------------------------------------------
 ! R1    R(1,2)                  1.3405         estimate D2E/DX2                !
 ! R2    R(1,6)                  1.4935         estimate D2E/DX2                !
 ! R3    R(1,33)                 1.0881         estimate D2E/DX2                !
 ! R4    R(2,3)                  1.5055         estimate D2E/DX2                !
 ! R5    R(2,32)                 1.5023         estimate D2E/DX2                !
 ! R6    R(3,4)                  1.5582         estimate D2E/DX2                !
 ! R7    R(3,20)                 1.5329         estimate D2E/DX2                !
 ! R8    R(3,31)                 1.1005         estimate D2E/DX2                !
 ! R9    R(4,5)                  1.5489         estimate D2E/DX2                !
 ! R10   R(4,7)                  1.5455         estimate D2E/DX2                !
 ! R11   R(4,24)                 1.4585         estimate D2E/DX2                !
 ! R12   R(5,6)                  1.5433         estimate D2E/DX2                !
 ! R13   R(5,10)                 1.5388         estimate D2E/DX2                !
 ! R14   R(5,22)                 1.5409         estimate D2E/DX2                !
 ! R15   R(6,34)                 1.0982         estimate D2E/DX2                !
 ! R16   R(6,35)                 1.098          estimate D2E/DX2                !
 ! R17   R(7,8)                  1.49           estimate D2E/DX2                !
 ! R18   R(7,17)                 1.5167         estimate D2E/DX2                !
 ! R19   R(7,21)                 1.4202         estimate D2E/DX2                !
 ! R20   R(8,9)                  1.336          estimate D2E/DX2                !
 ! R21   R(8,19)                 1.3876         estimate D2E/DX2                !
 ! R22   R(9,10)                 1.4802         estimate D2E/DX2                !
 ! R23   R(9,11)                 1.4791         estimate D2E/DX2                !
 ! R24   R(10,16)                1.2298         estimate D2E/DX2                !
 ! R25   R(11,12)                1.2324         estimate D2E/DX2                !
 ! R26   R(11,13)                1.5336         estimate D2E/DX2                !
 ! R27   R(13,14)                1.5421         estimate D2E/DX2                !
 ! R28   R(13,15)                1.5295         estimate D2E/DX2                !
 ! R29   R(13,36)                1.0977         estimate D2E/DX2                !
 ! R30   R(14,37)                1.097          estimate D2E/DX2                !
 ! R31   R(14,38)                1.0973         estimate D2E/DX2                !
 ! R32   R(14,62)                1.5243         estimate D2E/DX2                !
 ! R33   R(15,39)                1.0951         estimate D2E/DX2                !
 ! R34   R(15,40)                1.095          estimate D2E/DX2                !
 ! R35   R(15,41)                1.0952         estimate D2E/DX2                !
 ! R36   R(17,18)                1.5402         estimate D2E/DX2                !
 ! R37   R(17,20)                1.5349         estimate D2E/DX2                !
 ! R38   R(17,30)                1.0971         estimate D2E/DX2                !
 ! R39   R(18,19)                1.4486         estimate D2E/DX2                !
 ! R40   R(18,28)                1.5369         estimate D2E/DX2                !
 ! R41   R(18,29)                1.531          estimate D2E/DX2                !
 ! R42   R(20,42)                1.0971         estimate D2E/DX2                !
 ! R43   R(20,43)                1.0954         estimate D2E/DX2                !
 ! R44   R(21,44)                0.9809         estimate D2E/DX2                !
 ! R45   R(22,23)                1.5176         estimate D2E/DX2                !
 ! R46   R(22,45)                1.0958         estimate D2E/DX2                !
 ! R47   R(22,46)                1.0974         estimate D2E/DX2                !
 ! R48   R(23,24)                1.4321         estimate D2E/DX2                !
 ! R49   R(23,25)                1.5119         estimate D2E/DX2                !
 ! R50   R(23,47)                1.0969         estimate D2E/DX2                !
 ! R51   R(24,44)                1.8654         estimate D2E/DX2                !
 ! R52   R(25,26)                1.5056         estimate D2E/DX2                !
 ! R53   R(25,27)                1.3444         estimate D2E/DX2                !
 ! R54   R(26,48)                1.0949         estimate D2E/DX2                !
 ! R55   R(26,49)                1.0953         estimate D2E/DX2                !
 ! R56   R(26,50)                1.0945         estimate D2E/DX2                !
 ! R57   R(27,51)                1.0858         estimate D2E/DX2                !
 ! R58   R(27,52)                1.0847         estimate D2E/DX2                !
 ! R59   R(28,53)                1.0964         estimate D2E/DX2                !
 ! R60   R(28,54)                1.0948         estimate D2E/DX2                !
 ! R61   R(28,55)                1.0939         estimate D2E/DX2                !
 ! R62   R(29,56)                1.0948         estimate D2E/DX2                !
 ! R63   R(29,57)                1.0964         estimate D2E/DX2                !
 ! R64   R(29,58)                1.0947         estimate D2E/DX2                !
 ! R65   R(32,59)                1.0951         estimate D2E/DX2                !
 ! R66   R(32,60)                1.0945         estimate D2E/DX2                !
 ! R67   R(32,61)                1.0947         estimate D2E/DX2                !
 ! R68   R(62,63)                1.094          estimate D2E/DX2                !
 ! R69   R(62,64)                1.095          estimate D2E/DX2                !
 ! R70   R(62,65)                1.0938         estimate D2E/DX2                !
 ! A1    A(2,1,6)              122.5837         estimate D2E/DX2                !
 ! A2    A(2,1,33)             120.3879         estimate D2E/DX2                !
 ! A3    A(6,1,33)             116.925          estimate D2E/DX2                !
 ! A4    A(1,2,3)              121.2183         estimate D2E/DX2                !
 ! A5    A(1,2,32)             121.9233         estimate D2E/DX2                !
 ! A6    A(3,2,32)             116.8547         estimate D2E/DX2                !
 ! A7    A(2,3,4)              116.2692         estimate D2E/DX2                !
 ! A8    A(2,3,20)             112.7203         estimate D2E/DX2                !
 ! A9    A(2,3,31)             107.2792         estimate D2E/DX2                !
 ! A10   A(4,3,20)             104.6562         estimate D2E/DX2                !
 ! A11   A(4,3,31)             107.6818         estimate D2E/DX2                !
 ! A12   A(20,3,31)            107.8868         estimate D2E/DX2                !
 ! A13   A(3,4,5)              117.4774         estimate D2E/DX2                !
 ! A14   A(3,4,7)              104.229          estimate D2E/DX2                !
 ! A15   A(3,4,24)             106.6317         estimate D2E/DX2                !
 ! A16   A(5,4,7)              115.2083         estimate D2E/DX2                !
 ! A17   A(5,4,24)             105.6526         estimate D2E/DX2                !
 ! A18   A(7,4,24)             106.9646         estimate D2E/DX2                !
 ! A19   A(4,5,6)              114.4557         estimate D2E/DX2                !
 ! A20   A(4,5,10)             112.5747         estimate D2E/DX2                !
 ! A21   A(4,5,22)             103.6191         estimate D2E/DX2                !
 ! A22   A(6,5,10)             104.9957         estimate D2E/DX2                !
 ! A23   A(6,5,22)             111.5294         estimate D2E/DX2                !
 ! A24   A(10,5,22)            109.7743         estimate D2E/DX2                !
 ! A25   A(1,6,5)              114.7362         estimate D2E/DX2                !
 ! A26   A(1,6,34)             108.6436         estimate D2E/DX2                !
 ! A27   A(1,6,35)             107.0207         estimate D2E/DX2                !
 ! A28   A(5,6,34)             109.3583         estimate D2E/DX2                !
 ! A29   A(5,6,35)             111.4622         estimate D2E/DX2                !
 ! A30   A(34,6,35)            105.1451         estimate D2E/DX2                !
 ! A31   A(4,7,8)              115.3854         estimate D2E/DX2                !
 ! A32   A(4,7,17)             107.9995         estimate D2E/DX2                !
 ! A33   A(4,7,21)             112.0222         estimate D2E/DX2                !
 ! A34   A(8,7,17)             100.4736         estimate D2E/DX2                !
 ! A35   A(8,7,21)             108.5679         estimate D2E/DX2                !
 ! A36   A(17,7,21)            111.8793         estimate D2E/DX2                !
 ! A37   A(7,8,9)              122.7715         estimate D2E/DX2                !
 ! A38   A(7,8,19)             113.5532         estimate D2E/DX2                !
 ! A39   A(9,8,19)             123.3434         estimate D2E/DX2                !
 ! A40   A(8,9,10)             116.6487         estimate D2E/DX2                !
 ! A41   A(8,9,11)             121.9605         estimate D2E/DX2                !
 ! A42   A(10,9,11)            121.0655         estimate D2E/DX2                !
 ! A43   A(5,10,9)             117.6257         estimate D2E/DX2                !
 ! A44   A(5,10,16)            122.6152         estimate D2E/DX2                !
 ! A45   A(9,10,16)            119.5244         estimate D2E/DX2                !
 ! A46   A(9,11,12)            117.8722         estimate D2E/DX2                !
 ! A47   A(9,11,13)            119.0033         estimate D2E/DX2                !
 ! A48   A(12,11,13)           123.0658         estimate D2E/DX2                !
 ! A49   A(11,13,14)           111.4204         estimate D2E/DX2                !
 ! A50   A(11,13,15)           112.5719         estimate D2E/DX2                !
 ! A51   A(11,13,36)           106.2519         estimate D2E/DX2                !
 ! A52   A(14,13,15)           111.5661         estimate D2E/DX2                !
 ! A53   A(14,13,36)           106.419          estimate D2E/DX2                !
 ! A54   A(15,13,36)           108.2209         estimate D2E/DX2                !
 ! A55   A(13,14,37)           109.6173         estimate D2E/DX2                !
 ! A56   A(13,14,38)           108.8658         estimate D2E/DX2                !
 ! A57   A(13,14,62)           114.8185         estimate D2E/DX2                !
 ! A58   A(37,14,38)           106.2141         estimate D2E/DX2                !
 ! A59   A(37,14,62)           108.6709         estimate D2E/DX2                !
 ! A60   A(38,14,62)           108.3018         estimate D2E/DX2                !
 ! A61   A(13,15,39)           110.9906         estimate D2E/DX2                !
 ! A62   A(13,15,40)           111.1794         estimate D2E/DX2                !
 ! A63   A(13,15,41)           111.6538         estimate D2E/DX2                !
 ! A64   A(39,15,40)           107.1035         estimate D2E/DX2                !
 ! A65   A(39,15,41)           108.464          estimate D2E/DX2                !
 ! A66   A(40,15,41)           107.2528         estimate D2E/DX2                !
 ! A67   A(7,17,18)            103.2043         estimate D2E/DX2                !
 ! A68   A(7,17,20)            102.4595         estimate D2E/DX2                !
 ! A69   A(7,17,30)            112.7145         estimate D2E/DX2                !
 ! A70   A(18,17,20)           116.5147         estimate D2E/DX2                !
 ! A71   A(18,17,30)           111.5509         estimate D2E/DX2                !
 ! A72   A(20,17,30)           109.9255         estimate D2E/DX2                !
 ! A73   A(17,18,19)           106.3181         estimate D2E/DX2                !
 ! A74   A(17,18,28)           112.2577         estimate D2E/DX2                !
 ! A75   A(17,18,29)           113.5641         estimate D2E/DX2                !
 ! A76   A(19,18,28)           107.6838         estimate D2E/DX2                !
 ! A77   A(19,18,29)           108.1824         estimate D2E/DX2                !
 ! A78   A(28,18,29)           108.5832         estimate D2E/DX2                !
 ! A79   A(8,19,18)            106.4485         estimate D2E/DX2                !
 ! A80   A(3,20,17)            103.1933         estimate D2E/DX2                !
 ! A81   A(3,20,42)            110.4988         estimate D2E/DX2                !
 ! A82   A(3,20,43)            112.0125         estimate D2E/DX2                !
 ! A83   A(17,20,42)           112.1543         estimate D2E/DX2                !
 ! A84   A(17,20,43)           111.302          estimate D2E/DX2                !
 ! A85   A(42,20,43)           107.7181         estimate D2E/DX2                !
 ! A86   A(7,21,44)            105.5643         estimate D2E/DX2                !
 ! A87   A(5,22,23)            105.2326         estimate D2E/DX2                !
 ! A88   A(5,22,45)            113.5526         estimate D2E/DX2                !
 ! A89   A(5,22,46)            111.1234         estimate D2E/DX2                !
 ! A90   A(23,22,45)           111.0793         estimate D2E/DX2                !
 ! A91   A(23,22,46)           109.363          estimate D2E/DX2                !
 ! A92   A(45,22,46)           106.5048         estimate D2E/DX2                !
 ! A93   A(22,23,24)           103.8628         estimate D2E/DX2                !
 ! A94   A(22,23,25)           113.8595         estimate D2E/DX2                !
 ! A95   A(22,23,47)           110.9053         estimate D2E/DX2                !
 ! A96   A(24,23,25)           111.585          estimate D2E/DX2                !
 ! A97   A(24,23,47)           107.6939         estimate D2E/DX2                !
 ! A98   A(25,23,47)           108.7264         estimate D2E/DX2                !
 ! A99   A(4,24,23)            107.182          estimate D2E/DX2                !
 ! A100  A(23,25,26)           115.3437         estimate D2E/DX2                !
 ! A101  A(23,25,27)           124.2159         estimate D2E/DX2                !
 ! A102  A(26,25,27)           120.431          estimate D2E/DX2                !
 ! A103  A(25,26,48)           110.2609         estimate D2E/DX2                !
 ! A104  A(25,26,49)           112.1609         estimate D2E/DX2                !
 ! A105  A(25,26,50)           110.6039         estimate D2E/DX2                !
 ! A106  A(48,26,49)           107.5362         estimate D2E/DX2                !
 ! A107  A(48,26,50)           108.5832         estimate D2E/DX2                !
 ! A108  A(49,26,50)           107.56           estimate D2E/DX2                !
 ! A109  A(25,27,51)           121.5106         estimate D2E/DX2                !
 ! A110  A(25,27,52)           122.0256         estimate D2E/DX2                !
 ! A111  A(51,27,52)           116.4638         estimate D2E/DX2                !
 ! A112  A(18,28,53)           110.5939         estimate D2E/DX2                !
 ! A113  A(18,28,54)           111.331          estimate D2E/DX2                !
 ! A114  A(18,28,55)           112.2007         estimate D2E/DX2                !
 ! A115  A(53,28,54)           108.3541         estimate D2E/DX2                !
 ! A116  A(53,28,55)           105.6243         estimate D2E/DX2                !
 ! A117  A(54,28,55)           108.5037         estimate D2E/DX2                !
 ! A118  A(18,29,56)           111.8186         estimate D2E/DX2                !
 ! A119  A(18,29,57)           110.7014         estimate D2E/DX2                !
 ! A120  A(18,29,58)           111.4405         estimate D2E/DX2                !
 ! A121  A(56,29,57)           105.432          estimate D2E/DX2                !
 ! A122  A(56,29,58)           108.8929         estimate D2E/DX2                !
 ! A123  A(57,29,58)           108.3203         estimate D2E/DX2                !
 ! A124  A(2,32,59)            112.0636         estimate D2E/DX2                !
 ! A125  A(2,32,60)            110.4474         estimate D2E/DX2                !
 ! A126  A(2,32,61)            110.2614         estimate D2E/DX2                !
 ! A127  A(59,32,60)           107.6919         estimate D2E/DX2                !
 ! A128  A(59,32,61)           107.671          estimate D2E/DX2                !
 ! A129  A(60,32,61)           108.5822         estimate D2E/DX2                !
 ! A130  A(14,62,63)           111.4542         estimate D2E/DX2                !
 ! A131  A(14,62,64)           109.8429         estimate D2E/DX2                !
 ! A132  A(14,62,65)           111.725          estimate D2E/DX2                !
 ! A133  A(63,62,64)           107.4351         estimate D2E/DX2                !
 ! A134  A(63,62,65)           108.4028         estimate D2E/DX2                !
 ! A135  A(64,62,65)           107.8171         estimate D2E/DX2                !
 ! D1    D(6,1,2,3)              1.9627         estimate D2E/DX2                !
 ! D2    D(6,1,2,32)          -177.3094         estimate D2E/DX2                !
 ! D3    D(33,1,2,3)           178.15           estimate D2E/DX2                !
 ! D4    D(33,1,2,32)           -1.122          estimate D2E/DX2                !
 ! D5    D(2,1,6,5)            -33.1222         estimate D2E/DX2                !
 ! D6    D(2,1,6,34)          -155.8474         estimate D2E/DX2                !
 ! D7    D(2,1,6,35)            91.0956         estimate D2E/DX2                !
 ! D8    D(33,1,6,5)           150.5664         estimate D2E/DX2                !
 ! D9    D(33,1,6,34)           27.8412         estimate D2E/DX2                !
 ! D10   D(33,1,6,35)          -85.2158         estimate D2E/DX2                !
 ! D11   D(1,2,3,4)             22.9037         estimate D2E/DX2                !
 ! D12   D(1,2,3,20)           -97.9309         estimate D2E/DX2                !
 ! D13   D(1,2,3,31)           143.4512         estimate D2E/DX2                !
 ! D14   D(32,2,3,4)          -157.7888         estimate D2E/DX2                !
 ! D15   D(32,2,3,20)           81.3765         estimate D2E/DX2                !
 ! D16   D(32,2,3,31)          -37.2413         estimate D2E/DX2                !
 ! D17   D(1,2,32,59)           -0.195          estimate D2E/DX2                !
 ! D18   D(1,2,32,60)          119.8764         estimate D2E/DX2                !
 ! D19   D(1,2,32,61)         -120.1132         estimate D2E/DX2                !
 ! D20   D(3,2,32,59)         -179.4972         estimate D2E/DX2                !
 ! D21   D(3,2,32,60)          -59.4258         estimate D2E/DX2                !
 ! D22   D(3,2,32,61)           60.5846         estimate D2E/DX2                !
 ! D23   D(2,3,4,5)            -15.5412         estimate D2E/DX2                !
 ! D24   D(2,3,4,7)           -144.3804         estimate D2E/DX2                !
 ! D25   D(2,3,4,24)           102.671          estimate D2E/DX2                !
 ! D26   D(20,3,4,5)           109.5081         estimate D2E/DX2                !
 ! D27   D(20,3,4,7)           -19.331          estimate D2E/DX2                !
 ! D28   D(20,3,4,24)         -132.2796         estimate D2E/DX2                !
 ! D29   D(31,3,4,5)          -135.8729         estimate D2E/DX2                !
 ! D30   D(31,3,4,7)            95.2879         estimate D2E/DX2                !
 ! D31   D(31,3,4,24)          -17.6607         estimate D2E/DX2                !
 ! D32   D(2,3,20,17)          165.1708         estimate D2E/DX2                !
 ! D33   D(2,3,20,42)           45.0946         estimate D2E/DX2                !
 ! D34   D(2,3,20,43)          -75.0113         estimate D2E/DX2                !
 ! D35   D(4,3,20,17)           37.9082         estimate D2E/DX2                !
 ! D36   D(4,3,20,42)          -82.1681         estimate D2E/DX2                !
 ! D37   D(4,3,20,43)          157.7261         estimate D2E/DX2                !
 ! D38   D(31,3,20,17)         -76.5668         estimate D2E/DX2                !
 ! D39   D(31,3,20,42)         163.357          estimate D2E/DX2                !
 ! D40   D(31,3,20,43)          43.2511         estimate D2E/DX2                !
 ! D41   D(3,4,5,6)            -13.6052         estimate D2E/DX2                !
 ! D42   D(3,4,5,10)          -133.401          estimate D2E/DX2                !
 ! D43   D(3,4,5,22)           108.0628         estimate D2E/DX2                !
 ! D44   D(7,4,5,6)            109.8325         estimate D2E/DX2                !
 ! D45   D(7,4,5,10)            -9.9633         estimate D2E/DX2                !
 ! D46   D(7,4,5,22)          -128.4995         estimate D2E/DX2                !
 ! D47   D(24,4,5,6)          -132.34           estimate D2E/DX2                !
 ! D48   D(24,4,5,10)          107.8642         estimate D2E/DX2                !
 ! D49   D(24,4,5,22)          -10.6719         estimate D2E/DX2                !
 ! D50   D(3,4,7,8)            104.9037         estimate D2E/DX2                !
 ! D51   D(3,4,7,17)            -6.5494         estimate D2E/DX2                !
 ! D52   D(3,4,7,21)          -130.1972         estimate D2E/DX2                !
 ! D53   D(5,4,7,8)            -25.2975         estimate D2E/DX2                !
 ! D54   D(5,4,7,17)          -136.7507         estimate D2E/DX2                !
 ! D55   D(5,4,7,21)            99.6015         estimate D2E/DX2                !
 ! D56   D(24,4,7,8)          -142.3864         estimate D2E/DX2                !
 ! D57   D(24,4,7,17)          106.1605         estimate D2E/DX2                !
 ! D58   D(24,4,7,21)          -17.4873         estimate D2E/DX2                !
 ! D59   D(3,4,24,23)          -94.1448         estimate D2E/DX2                !
 ! D60   D(5,4,24,23)           31.5726         estimate D2E/DX2                !
 ! D61   D(7,4,24,23)          154.7964         estimate D2E/DX2                !
 ! D62   D(4,5,6,1)             37.0185         estimate D2E/DX2                !
 ! D63   D(4,5,6,34)           159.3579         estimate D2E/DX2                !
 ! D64   D(4,5,6,35)           -84.8135         estimate D2E/DX2                !
 ! D65   D(10,5,6,1)           160.9648         estimate D2E/DX2                !
 ! D66   D(10,5,6,34)          -76.6959         estimate D2E/DX2                !
 ! D67   D(10,5,6,35)           39.1328         estimate D2E/DX2                !
 ! D68   D(22,5,6,1)           -80.2068         estimate D2E/DX2                !
 ! D69   D(22,5,6,34)           42.1325         estimate D2E/DX2                !
 ! D70   D(22,5,6,35)          157.9612         estimate D2E/DX2                !
 ! D71   D(4,5,10,9)            41.6928         estimate D2E/DX2                !
 ! D72   D(4,5,10,16)         -143.9062         estimate D2E/DX2                !
 ! D73   D(6,5,10,9)           -83.4426         estimate D2E/DX2                !
 ! D74   D(6,5,10,16)           90.9584         estimate D2E/DX2                !
 ! D75   D(22,5,10,9)          156.5558         estimate D2E/DX2                !
 ! D76   D(22,5,10,16)         -29.0433         estimate D2E/DX2                !
 ! D77   D(4,5,22,23)          -12.2306         estimate D2E/DX2                !
 ! D78   D(4,5,22,45)         -133.9211         estimate D2E/DX2                !
 ! D79   D(4,5,22,46)          106.0363         estimate D2E/DX2                !
 ! D80   D(6,5,22,23)          111.3764         estimate D2E/DX2                !
 ! D81   D(6,5,22,45)          -10.3141         estimate D2E/DX2                !
 ! D82   D(6,5,22,46)         -130.3567         estimate D2E/DX2                !
 ! D83   D(10,5,22,23)        -132.6846         estimate D2E/DX2                !
 ! D84   D(10,5,22,45)         105.6248         estimate D2E/DX2                !
 ! D85   D(10,5,22,46)         -14.4177         estimate D2E/DX2                !
 ! D86   D(4,7,8,9)             35.1119         estimate D2E/DX2                !
 ! D87   D(4,7,8,19)          -138.4708         estimate D2E/DX2                !
 ! D88   D(17,7,8,9)           150.9322         estimate D2E/DX2                !
 ! D89   D(17,7,8,19)          -22.6506         estimate D2E/DX2                !
 ! D90   D(21,7,8,9)           -91.5597         estimate D2E/DX2                !
 ! D91   D(21,7,8,19)           94.8575         estimate D2E/DX2                !
 ! D92   D(4,7,17,18)          151.1091         estimate D2E/DX2                !
 ! D93   D(4,7,17,20)           29.6794         estimate D2E/DX2                !
 ! D94   D(4,7,17,30)          -88.4105         estimate D2E/DX2                !
 ! D95   D(8,7,17,18)           29.8796         estimate D2E/DX2                !
 ! D96   D(8,7,17,20)          -91.5501         estimate D2E/DX2                !
 ! D97   D(8,7,17,30)          150.3601         estimate D2E/DX2                !
 ! D98   D(21,7,17,18)         -85.1568         estimate D2E/DX2                !
 ! D99   D(21,7,17,20)         153.4135         estimate D2E/DX2                !
 ! D100  D(21,7,17,30)          35.3236         estimate D2E/DX2                !
 ! D101  D(4,7,21,44)           19.0581         estimate D2E/DX2                !
 ! D102  D(8,7,21,44)          147.6455         estimate D2E/DX2                !
 ! D103  D(17,7,21,44)        -102.3836         estimate D2E/DX2                !
 ! D104  D(7,8,9,10)            -3.9168         estimate D2E/DX2                !
 ! D105  D(7,8,9,11)          -177.4294         estimate D2E/DX2                !
 ! D106  D(19,8,9,10)          169.0384         estimate D2E/DX2                !
 ! D107  D(19,8,9,11)           -4.4742         estimate D2E/DX2                !
 ! D108  D(7,8,19,18)            4.5088         estimate D2E/DX2                !
 ! D109  D(9,8,19,18)         -169.0319         estimate D2E/DX2                !
 ! D110  D(8,9,10,5)           -36.0664         estimate D2E/DX2                !
 ! D111  D(8,9,10,16)          149.353          estimate D2E/DX2                !
 ! D112  D(11,9,10,5)          137.5083         estimate D2E/DX2                !
 ! D113  D(11,9,10,16)         -37.0723         estimate D2E/DX2                !
 ! D114  D(8,9,11,12)          114.3556         estimate D2E/DX2                !
 ! D115  D(8,9,11,13)          -62.9456         estimate D2E/DX2                !
 ! D116  D(10,9,11,12)         -58.8739         estimate D2E/DX2                !
 ! D117  D(10,9,11,13)         123.8248         estimate D2E/DX2                !
 ! D118  D(9,11,13,14)        -167.3388         estimate D2E/DX2                !
 ! D119  D(9,11,13,15)         -41.1336         estimate D2E/DX2                !
 ! D120  D(9,11,13,36)          77.1536         estimate D2E/DX2                !
 ! D121  D(12,11,13,14)         15.508          estimate D2E/DX2                !
 ! D122  D(12,11,13,15)        141.7132         estimate D2E/DX2                !
 ! D123  D(12,11,13,36)        -99.9996         estimate D2E/DX2                !
 ! D124  D(11,13,14,37)        -52.2582         estimate D2E/DX2                !
 ! D125  D(11,13,14,38)       -168.0471         estimate D2E/DX2                !
 ! D126  D(11,13,14,62)         70.3759         estimate D2E/DX2                !
 ! D127  D(15,13,14,37)       -179.0149         estimate D2E/DX2                !
 ! D128  D(15,13,14,38)         65.1963         estimate D2E/DX2                !
 ! D129  D(15,13,14,62)        -56.3808         estimate D2E/DX2                !
 ! D130  D(36,13,14,37)         63.1466         estimate D2E/DX2                !
 ! D131  D(36,13,14,38)        -52.6423         estimate D2E/DX2                !
 ! D132  D(36,13,14,62)       -174.2193         estimate D2E/DX2                !
 ! D133  D(11,13,15,39)       -172.6175         estimate D2E/DX2                !
 ! D134  D(11,13,15,40)         68.273          estimate D2E/DX2                !
 ! D135  D(11,13,15,41)        -51.4661         estimate D2E/DX2                !
 ! D136  D(14,13,15,39)        -46.4908         estimate D2E/DX2                !
 ! D137  D(14,13,15,40)       -165.6003         estimate D2E/DX2                !
 ! D138  D(14,13,15,41)         74.6606         estimate D2E/DX2                !
 ! D139  D(36,13,15,39)         70.2587         estimate D2E/DX2                !
 ! D140  D(36,13,15,40)        -48.8508         estimate D2E/DX2                !
 ! D141  D(36,13,15,41)       -168.5899         estimate D2E/DX2                !
 ! D142  D(13,14,62,63)         64.7102         estimate D2E/DX2                !
 ! D143  D(13,14,62,64)       -176.3383         estimate D2E/DX2                !
 ! D144  D(13,14,62,65)        -56.7375         estimate D2E/DX2                !
 ! D145  D(37,14,62,63)       -172.1476         estimate D2E/DX2                !
 ! D146  D(37,14,62,64)        -53.1961         estimate D2E/DX2                !
 ! D147  D(37,14,62,65)         66.4047         estimate D2E/DX2                !
 ! D148  D(38,14,62,63)        -57.1735         estimate D2E/DX2                !
 ! D149  D(38,14,62,64)         61.778          estimate D2E/DX2                !
 ! D150  D(38,14,62,65)       -178.6212         estimate D2E/DX2                !
 ! D151  D(7,17,18,19)         -29.4318         estimate D2E/DX2                !
 ! D152  D(7,17,18,28)          88.0724         estimate D2E/DX2                !
 ! D153  D(7,17,18,29)        -148.2746         estimate D2E/DX2                !
 ! D154  D(20,17,18,19)         81.9581         estimate D2E/DX2                !
 ! D155  D(20,17,18,28)       -160.5377         estimate D2E/DX2                !
 ! D156  D(20,17,18,29)        -36.8847         estimate D2E/DX2                !
 ! D157  D(30,17,18,19)       -150.7038         estimate D2E/DX2                !
 ! D158  D(30,17,18,28)        -33.1996         estimate D2E/DX2                !
 ! D159  D(30,17,18,29)         90.4535         estimate D2E/DX2                !
 ! D160  D(7,17,20,3)          -41.4578         estimate D2E/DX2                !
 ! D161  D(7,17,20,42)          77.4762         estimate D2E/DX2                !
 ! D162  D(7,17,20,43)        -161.7631         estimate D2E/DX2                !
 ! D163  D(18,17,20,3)        -153.2761         estimate D2E/DX2                !
 ! D164  D(18,17,20,42)        -34.3421         estimate D2E/DX2                !
 ! D165  D(18,17,20,43)         86.4185         estimate D2E/DX2                !
 ! D166  D(30,17,20,3)          78.5904         estimate D2E/DX2                !
 ! D167  D(30,17,20,42)       -162.4755         estimate D2E/DX2                !
 ! D168  D(30,17,20,43)        -41.7149         estimate D2E/DX2                !
 ! D169  D(17,18,19,8)          15.7849         estimate D2E/DX2                !
 ! D170  D(28,18,19,8)        -104.7183         estimate D2E/DX2                !
 ! D171  D(29,18,19,8)         138.1019         estimate D2E/DX2                !
 ! D172  D(17,18,28,53)       -177.7773         estimate D2E/DX2                !
 ! D173  D(17,18,28,54)         61.7015         estimate D2E/DX2                !
 ! D174  D(17,18,28,55)        -60.1253         estimate D2E/DX2                !
 ! D175  D(19,18,28,53)        -61.0892         estimate D2E/DX2                !
 ! D176  D(19,18,28,54)        178.3896         estimate D2E/DX2                !
 ! D177  D(19,18,28,55)         56.5628         estimate D2E/DX2                !
 ! D178  D(29,18,28,53)         55.8298         estimate D2E/DX2                !
 ! D179  D(29,18,28,54)        -64.6914         estimate D2E/DX2                !
 ! D180  D(29,18,28,55)        173.4817         estimate D2E/DX2                !
 ! D181  D(17,18,29,56)         64.4129         estimate D2E/DX2                !
 ! D182  D(17,18,29,57)       -178.3482         estimate D2E/DX2                !
 ! D183  D(17,18,29,58)        -57.7236         estimate D2E/DX2                !
 ! D184  D(19,18,29,56)        -53.3549         estimate D2E/DX2                !
 ! D185  D(19,18,29,57)         63.884          estimate D2E/DX2                !
 ! D186  D(19,18,29,58)       -175.4914         estimate D2E/DX2                !
 ! D187  D(28,18,29,56)       -169.9537         estimate D2E/DX2                !
 ! D188  D(28,18,29,57)        -52.7149         estimate D2E/DX2                !
 ! D189  D(28,18,29,58)         67.9097         estimate D2E/DX2                !
 ! D190  D(5,22,23,24)          31.3291         estimate D2E/DX2                !
 ! D191  D(5,22,23,25)         152.8951         estimate D2E/DX2                !
 ! D192  D(5,22,23,47)         -84.0987         estimate D2E/DX2                !
 ! D193  D(45,22,23,24)        154.6141         estimate D2E/DX2                !
 ! D194  D(45,22,23,25)        -83.82           estimate D2E/DX2                !
 ! D195  D(45,22,23,47)         39.1862         estimate D2E/DX2                !
 ! D196  D(46,22,23,24)        -88.116          estimate D2E/DX2                !
 ! D197  D(46,22,23,25)         33.45           estimate D2E/DX2                !
 ! D198  D(46,22,23,47)        156.4562         estimate D2E/DX2                !
 ! D199  D(22,23,24,4)         -39.4107         estimate D2E/DX2                !
 ! D200  D(25,23,24,4)        -162.4823         estimate D2E/DX2                !
 ! D201  D(47,23,24,4)          78.2678         estimate D2E/DX2                !
 ! D202  D(22,23,25,26)         67.2606         estimate D2E/DX2                !
 ! D203  D(22,23,25,27)       -113.856          estimate D2E/DX2                !
 ! D204  D(24,23,25,26)       -175.5631         estimate D2E/DX2                !
 ! D205  D(24,23,25,27)          3.3203         estimate D2E/DX2                !
 ! D206  D(47,23,25,26)        -56.9275         estimate D2E/DX2                !
 ! D207  D(47,23,25,27)        121.9559         estimate D2E/DX2                !
 ! D208  D(23,25,26,48)         56.6735         estimate D2E/DX2                !
 ! D209  D(23,25,26,49)        176.485          estimate D2E/DX2                !
 ! D210  D(23,25,26,50)        -63.4386         estimate D2E/DX2                !
 ! D211  D(27,25,26,48)       -122.2557         estimate D2E/DX2                !
 ! D212  D(27,25,26,49)         -2.4442         estimate D2E/DX2                !
 ! D213  D(27,25,26,50)        117.6323         estimate D2E/DX2                !
 ! D214  D(23,25,27,51)       -179.5238         estimate D2E/DX2                !
 ! D215  D(23,25,27,52)          0.511          estimate D2E/DX2                !
 ! D216  D(26,25,27,51)         -0.6941         estimate D2E/DX2                !
 ! D217  D(26,25,27,52)        179.3407         estimate D2E/DX2                !
 --------------------------------------------------------------------------------
 Trust Radius=3.00D-01 FncErr=1.00D-07 GrdErr=1.00D-06
 Number of steps in this run=    390 maximum allowed number of steps=    390.
 GradGradGradGradGradGradGradGradGradGradGradGradGradGradGradGradGradGrad

 Stoichiometry    C26H34O5
 Framework group  C1[X(C26H34O5)]
 Deg. of freedom   189
 Full point group                 C1      NOp   1
 Largest Abelian subgroup         C1      NOp   1
 Largest concise Abelian subgroup C1      NOp   1
                         Standard orientation:                         
 ---------------------------------------------------------------------
 Center     Atomic      Atomic             Coordinates (Angstroms)
 Number     Number       Type             X           Y           Z
 ---------------------------------------------------------------------
      1          6           0       -2.018920    0.201981    2.792688
      2          6           0       -2.462765    1.256490    2.094152
      3          6           0       -1.960946    1.538065    0.702959
      4          6           0       -1.372985    0.323988   -0.076995
      5          6           0       -1.014815   -0.943459    0.738139
      6          6           0       -0.978304   -0.731110    2.266357
      7          6           0       -0.212137    0.927247   -0.899878
      8          6           0        1.155433    0.629076   -0.388971
      9          6           0        1.474912   -0.533589    0.186358
     10          6           0        0.373338   -1.503012    0.380631
     11          6           0        2.823389   -0.790020    0.737482
     12          8           0        2.927744   -0.947134    1.955390
     13          6           0        4.027725   -0.786443   -0.211944
     14          6           0        5.281959   -1.372930    0.467110
     15          6           0        3.729987   -1.483199   -1.540521
     16          8           0        0.614883   -2.708508    0.352260
     17          6           0       -0.248598    2.433630   -0.727218
     18          6           0        1.226711    2.842829   -0.895291
     19          8           0        2.015845    1.716546   -0.440254
     20          6           0       -0.847791    2.591589    0.677028
     21          8           0       -0.276302    0.549574   -2.267468
     22          6           0       -2.104624   -1.954987    0.333647
     23          6           0       -3.151170   -1.140003   -0.403781
     24          8           0       -2.395658   -0.095919   -1.028267
     25          6           0       -3.943651   -1.935143   -1.416455
     26          6           0       -4.851018   -2.989557   -0.840607
     27          6           0       -3.890702   -1.733777   -2.744655
     28          6           0        1.593825    3.107054   -2.364103
     29          6           0        1.620331    4.068138   -0.065963
     30          1           0       -0.890922    2.929260   -1.465722
     31          1           0       -2.809997    1.929065    0.122084
     32          6           0       -3.466670    2.219518    2.661347
     33          1           0       -2.368261    0.028087    3.808370
     34          1           0       -1.088001   -1.700174    2.771256
     35          1           0       -0.004462   -0.344947    2.595148
     36          1           0        4.251809    0.267789   -0.419926
     37          1           0        5.455510   -0.863452    1.423008
     38          1           0        6.157498   -1.157568   -0.158257
     39          1           0        4.638389   -1.581532   -2.144108
     40          1           0        3.009185   -0.911467   -2.134233
     41          1           0        3.305633   -2.481166   -1.387285
     42          1           0       -0.111737    2.392261    1.465718
     43          1           0       -1.236775    3.603779    0.832154
     44          1           0       -1.200412    0.256181   -2.416424
     45          1           0       -2.546206   -2.486362    1.184157
     46          1           0       -1.701442   -2.723038   -0.338555
     47          1           0       -3.849512   -0.670919    0.300171
     48          1           0       -5.549818   -2.540148   -0.127492
     49          1           0       -5.444345   -3.490673   -1.612917
     50          1           0       -4.268611   -3.757259   -0.321615
     51          1           0       -4.485684   -2.326736   -3.432720
     52          1           0       -3.254363   -0.974496   -3.186417
     53          1           0        2.657278    3.357358   -2.456813
     54          1           0        1.007702    3.933642   -2.778598
     55          1           0        1.442882    2.224820   -2.993029
     56          1           0        1.546719    3.872819    1.008732
     57          1           0        2.668902    4.335269   -0.242795
     58          1           0        0.998264    4.934624   -0.312186
     59          1           0       -3.770734    1.945955    3.677230
     60          1           0       -3.047628    3.229919    2.700281
     61          1           0       -4.367015    2.238994    2.038875
     62          6           0        5.230459   -2.875670    0.717381
     63          1           0        5.197352   -3.436734   -0.221210
     64          1           0        6.128069   -3.193405    1.258063
     65          1           0        4.360803   -3.156445    1.318366
 ---------------------------------------------------------------------
 Rotational constants (GHZ):      0.2064124      0.1250211      0.1066422
 Standard basis: 6-31G(d) (6D, 7F)
 There are   533 symmetry adapted basis functions of A   symmetry.
 Integral buffers will be    131072 words long.
 Raffenetti 2 integral format.
 Two-electron integral symmetry is turned on.
   533 basis functions,  1004 primitive gaussians,   533 cartesian basis functions
   115 alpha electrons      115 beta electrons
       nuclear repulsion energy      3502.5207862345 Hartrees.
 NAtoms=   65 NActive=   65 NUniq=   65 SFac= 1.00D+00 NAtFMM=   50 NAOKFM=T Big=T
 One-electron integrals computed using PRISM.
 NBasis=   533 RedAO= T  NBF=   533
 NBsUse=   533 1.00D-06 NBFU=   533
 Harris functional with IExCor=  402 diagonalized for initial guess.
 ExpMin= 1.61D-01 ExpMax= 5.48D+03 ExpMxC= 8.25D+02 IAcc=1 IRadAn=         1 AccDes= 0.00D+00
 HarFok:  IExCor=  402 AccDes= 0.00D+00 IRadAn=         1 IDoV= 1
 ScaDFX=  1.000000  1.000000  1.000000  1.000000
 FoFCou: FMM=F IPFlag=           0 FMFlag=      100000 FMFlg1=        2001
         NFxFlg=           0 DoJE=T BraDBF=F KetDBF=T FulRan=T
         Omega=  0.000000  0.000000  1.000000  0.000000  0.000000 ICntrl=     500 IOpCl=  0
         NMat0=    1 NMatS0=    1 NMatT0=    0 NMatD0=    1 NMtDS0=    0 NMtDT0=    0
         I1Cent=           4 NGrid=           0.
 Petite list used in FoFCou.
 Initial guess orbital symmetries:
       Occupied  (A) (A) (A) (A) (A) (A) (A) (A) (A) (A) (A) (A)
                 (A) (A) (A) (A) (A) (A) (A) (A) (A) (A) (A) (A)
                 (A) (A) (A) (A) (A) (A) (A) (A) (A) (A) (A) (A)
                 (A) (A) (A) (A) (A) (A) (A) (A) (A) (A) (A) (A)
                 (A) (A) (A) (A) (A) (A) (A) (A) (A) (A) (A) (A)
                 (A) (A) (A) (A) (A) (A) (A) (A) (A) (A) (A) (A)
                 (A) (A) (A) (A) (A) (A) (A) (A) (A) (A) (A) (A)
                 (A) (A) (A) (A) (A) (A) (A) (A) (A) (A) (A) (A)
                 (A) (A) (A) (A) (A) (A) (A) (A) (A) (A) (A) (A)
                 (A) (A) (A) (A) (A) (A) (A)
       Virtual   (A) (A) (A) (A) (A) (A) (A) (A) (A) (A) (A) (A)
                 (A) (A) (A) (A) (A) (A) (A) (A) (A) (A) (A) (A)
                 (A) (A) (A) (A) (A) (A) (A) (A) (A) (A) (A) (A)
                 (A) (A) (A) (A) (A) (A) (A) (A) (A) (A) (A) (A)
                 (A) (A) (A) (A) (A) (A) (A) (A) (A) (A) (A) (A)
                 (A) (A) (A) (A) (A) (A) (A) (A) (A) (A) (A) (A)
                 (A) (A) (A) (A) (A) (A) (A) (A) (A) (A) (A) (A)
                 (A) (A) (A) (A) (A) (A) (A) (A) (A) (A) (A) (A)
                 (A) (A) (A) (A) (A) (A) (A) (A) (A) (A) (A) (A)
                 (A) (A) (A) (A) (A) (A) (A) (A) (A) (A) (A) (A)
                 (A) (A) (A) (A) (A) (A) (A) (A) (A) (A) (A) (A)
                 (A) (A) (A) (A) (A) (A) (A) (A) (A) (A) (A) (A)
                 (A) (A) (A) (A) (A) (A) (A) (A) (A) (A) (A) (A)
                 (A) (A) (A) (A) (A) (A) (A) (A) (A) (A) (A) (A)
                 (A) (A) (A) (A) (A) (A) (A) (A) (A) (A) (A) (A)
                 (A) (A) (A) (A) (A) (A) (A) (A) (A) (A) (A) (A)
                 (A) (A) (A) (A) (A) (A) (A) (A) (A) (A) (A) (A)
                 (A) (A) (A) (A) (A) (A) (A) (A) (A) (A) (A) (A)
                 (A) (A) (A) (A) (A) (A) (A) (A) (A) (A) (A) (A)
                 (A) (A) (A) (A) (A) (A) (A) (A) (A) (A) (A) (A)
                 (A) (A) (A) (A) (A) (A) (A) (A) (A) (A) (A) (A)
                 (A) (A) (A) (A) (A) (A) (A) (A) (A) (A) (A) (A)
                 (A) (A) (A) (A) (A) (A) (A) (A) (A) (A) (A) (A)
                 (A) (A) (A) (A) (A) (A) (A) (A) (A) (A) (A) (A)
                 (A) (A) (A) (A) (A) (A) (A) (A) (A) (A) (A) (A)
                 (A) (A) (A) (A) (A) (A) (A) (A) (A) (A) (A) (A)
                 (A) (A) (A) (A) (A) (A) (A) (A) (A) (A) (A) (A)
                 (A) (A) (A) (A) (A) (A) (A) (A) (A) (A) (A) (A)
                 (A) (A) (A) (A) (A) (A) (A) (A) (A) (A) (A) (A)
                 (A) (A) (A) (A) (A) (A) (A) (A) (A) (A) (A) (A)
                 (A) (A) (A) (A) (A) (A) (A) (A) (A) (A) (A) (A)
                 (A) (A) (A) (A) (A) (A) (A) (A) (A) (A) (A) (A)
                 (A) (A) (A) (A) (A) (A) (A) (A) (A) (A) (A) (A)
                 (A) (A) (A) (A) (A) (A) (A) (A) (A) (A) (A) (A)
                 (A) (A) (A) (A) (A) (A) (A) (A) (A) (A)
 The electronic state of the initial guess is 1-A.
 Requested convergence on RMS density matrix=1.00D-08 within 128 cycles.
 Requested convergence on MAX density matrix=1.00D-06.
 Requested convergence on             energy=1.00D-06.
 No special actions if energy rises.
 Integral accuracy reduced to 1.0D-05 until final iterations.
 DSYEVD returned Info=         667 IAlg= 4 N=   533 NDim=   533 NE2=     1177716 trying DSYEV.
 Initial convergence to 1.0D-05 achieved.  Increase integral accuracy.
 SCF Done:  E(RB3LYP) =  -1387.30204926     A.U. after   16 cycles
             Convg  =    0.4087D-08             -V/T =  2.0091

 **********************************************************************

            Population analysis using the SCF density.

 **********************************************************************

 Orbital symmetries:
       Occupied  (A) (A) (A) (A) (A) (A) (A) (A) (A) (A) (A) (A)
                 (A) (A) (A) (A) (A) (A) (A) (A) (A) (A) (A) (A)
                 (A) (A) (A) (A) (A) (A) (A) (A) (A) (A) (A) (A)
                 (A) (A) (A) (A) (A) (A) (A) (A) (A) (A) (A) (A)
                 (A) (A) (A) (A) (A) (A) (A) (A) (A) (A) (A) (A)
                 (A) (A) (A) (A) (A) (A) (A) (A) (A) (A) (A) (A)
                 (A) (A) (A) (A) (A) (A) (A) (A) (A) (A) (A) (A)
                 (A) (A) (A) (A) (A) (A) (A) (A) (A) (A) (A) (A)
                 (A) (A) (A) (A) (A) (A) (A) (A) (A) (A) (A) (A)
                 (A) (A) (A) (A) (A) (A) (A)
       Virtual   (A) (A) (A) (A) (A) (A) (A) (A) (A) (A) (A) (A)
                 (A) (A) (A) (A) (A) (A) (A) (A) (A) (A) (A) (A)
                 (A) (A) (A) (A) (A) (A) (A) (A) (A) (A) (A) (A)
                 (A) (A) (A) (A) (A) (A) (A) (A) (A) (A) (A) (A)
                 (A) (A) (A) (A) (A) (A) (A) (A) (A) (A) (A) (A)
                 (A) (A) (A) (A) (A) (A) (A) (A) (A) (A) (A) (A)
                 (A) (A) (A) (A) (A) (A) (A) (A) (A) (A) (A) (A)
                 (A) (A) (A) (A) (A) (A) (A) (A) (A) (A) (A) (A)
                 (A) (A) (A) (A) (A) (A) (A) (A) (A) (A) (A) (A)
                 (A) (A) (A) (A) (A) (A) (A) (A) (A) (A) (A) (A)
                 (A) (A) (A) (A) (A) (A) (A) (A) (A) (A) (A) (A)
                 (A) (A) (A) (A) (A) (A) (A) (A) (A) (A) (A) (A)
                 (A) (A) (A) (A) (A) (A) (A) (A) (A) (A) (A) (A)
                 (A) (A) (A) (A) (A) (A) (A) (A) (A) (A) (A) (A)
                 (A) (A) (A) (A) (A) (A) (A) (A) (A) (A) (A) (A)
                 (A) (A) (A) (A) (A) (A) (A) (A) (A) (A) (A) (A)
                 (A) (A) (A) (A) (A) (A) (A) (A) (A) (A) (A) (A)
                 (A) (A) (A) (A) (A) (A) (A) (A) (A) (A) (A) (A)
                 (A) (A) (A) (A) (A) (A) (A) (A) (A) (A) (A) (A)
                 (A) (A) (A) (A) (A) (A) (A) (A) (A) (A) (A) (A)
                 (A) (A) (A) (A) (A) (A) (A) (A) (A) (A) (A) (A)
                 (A) (A) (A) (A) (A) (A) (A) (A) (A) (A) (A) (A)
                 (A) (A) (A) (A) (A) (A) (A) (A) (A) (A) (A) (A)
                 (A) (A) (A) (A) (A) (A) (A) (A) (A) (A) (A) (A)
                 (A) (A) (A) (A) (A) (A) (A) (A) (A) (A) (A) (A)
                 (A) (A) (A) (A) (A) (A) (A) (A) (A) (A) (A) (A)
                 (A) (A) (A) (A) (A) (A) (A) (A) (A) (A) (A) (A)
                 (A) (A) (A) (A) (A) (A) (A) (A) (A) (A) (A) (A)
                 (A) (A) (A) (A) (A) (A) (A) (A) (A) (A) (A) (A)
                 (A) (A) (A) (A) (A) (A) (A) (A) (A) (A) (A) (A)
                 (A) (A) (A) (A) (A) (A) (A) (A) (A) (A) (A) (A)
                 (A) (A) (A) (A) (A) (A) (A) (A) (A) (A) (A) (A)
                 (A) (A) (A) (A) (A) (A) (A) (A) (A) (A) (A) (A)
                 (A) (A) (A) (A) (A) (A) (A) (A) (A) (A) (A) (A)
                 (A) (A) (A) (A) (A) (A) (A) (A) (A) (A)
 The electronic state is 1-A.
 Alpha  occ. eigenvalues --  -19.19665 -19.16999 -19.14707 -19.13523 -19.13435
 Alpha  occ. eigenvalues --  -10.27617 -10.27155 -10.26555 -10.26363 -10.26118
 Alpha  occ. eigenvalues --  -10.25697 -10.24799 -10.21768 -10.20411 -10.20140
 Alpha  occ. eigenvalues --  -10.20015 -10.19916 -10.19683 -10.19611 -10.19167
 Alpha  occ. eigenvalues --  -10.18917 -10.18905 -10.18791 -10.18775 -10.18672
 Alpha  occ. eigenvalues --  -10.18658 -10.17857 -10.17798 -10.16789 -10.16757
 Alpha  occ. eigenvalues --  -10.15517  -1.08597  -1.06326  -1.03357  -1.02331
 Alpha  occ. eigenvalues --   -1.01986  -0.87666  -0.84072  -0.82703  -0.81650
 Alpha  occ. eigenvalues --   -0.80371  -0.79660  -0.77116  -0.74324  -0.73610
 Alpha  occ. eigenvalues --   -0.72613  -0.71219  -0.69755  -0.68931  -0.68481
 Alpha  occ. eigenvalues --   -0.65053  -0.64156  -0.63602  -0.62645  -0.61234
 Alpha  occ. eigenvalues --   -0.59296  -0.58686  -0.57159  -0.55119  -0.53502
 Alpha  occ. eigenvalues --   -0.53106  -0.51884  -0.50974  -0.50413  -0.49379
 Alpha  occ. eigenvalues --   -0.48178  -0.47588  -0.46744  -0.46248  -0.45910
 Alpha  occ. eigenvalues --   -0.45340  -0.44737  -0.44540  -0.43920  -0.43227
 Alpha  occ. eigenvalues --   -0.43161  -0.42623  -0.42459  -0.42048  -0.41753
 Alpha  occ. eigenvalues --   -0.40723  -0.40701  -0.40295  -0.40037  -0.39512
 Alpha  occ. eigenvalues --   -0.39347  -0.38821  -0.38787  -0.38367  -0.38177
 Alpha  occ. eigenvalues --   -0.37745  -0.37125  -0.37048  -0.36788  -0.36282
 Alpha  occ. eigenvalues --   -0.35873  -0.35424  -0.35332  -0.34827  -0.34380
 Alpha  occ. eigenvalues --   -0.33999  -0.33398  -0.32792  -0.32401  -0.32247
 Alpha  occ. eigenvalues --   -0.31895  -0.31400  -0.31003  -0.28164  -0.27105
 Alpha  occ. eigenvalues --   -0.24959  -0.24890  -0.24509  -0.23715  -0.23231
 Alpha virt. eigenvalues --   -0.04748  -0.02228   0.01288   0.01948   0.03495
 Alpha virt. eigenvalues --    0.06434   0.08164   0.08518   0.09308   0.10107
 Alpha virt. eigenvalues --    0.10465   0.10504   0.11289   0.11582   0.12286
 Alpha virt. eigenvalues --    0.12657   0.13042   0.13430   0.13799   0.14051
 Alpha virt. eigenvalues --    0.14443   0.14627   0.15091   0.15245   0.15487
 Alpha virt. eigenvalues --    0.15786   0.16196   0.16408   0.16883   0.17580
 Alpha virt. eigenvalues --    0.17883   0.18434   0.18496   0.18783   0.18968
 Alpha virt. eigenvalues --    0.19133   0.19444   0.19918   0.20069   0.20309
 Alpha virt. eigenvalues --    0.20679   0.21196   0.21494   0.22429   0.22692
 Alpha virt. eigenvalues --    0.23055   0.23279   0.24177   0.24280   0.24551
 Alpha virt. eigenvalues --    0.25265   0.25608   0.26035   0.26305   0.26703
 Alpha virt. eigenvalues --    0.27592   0.27969   0.28437   0.29032   0.30513
 Alpha virt. eigenvalues --    0.31289   0.31947   0.32584   0.34122   0.34469
 Alpha virt. eigenvalues --    0.34803   0.36336   0.37818   0.38171   0.40313
 Alpha virt. eigenvalues --    0.41489   0.44959   0.46305   0.47720   0.48445
 Alpha virt. eigenvalues --    0.49776   0.50093   0.50927   0.51230   0.51896
 Alpha virt. eigenvalues --    0.52066   0.52279   0.52836   0.53217   0.53466
 Alpha virt. eigenvalues --    0.54141   0.54288   0.55030   0.55480   0.55819
 Alpha virt. eigenvalues --    0.56411   0.57434   0.57794   0.57953   0.59358
 Alpha virt. eigenvalues --    0.59635   0.60276   0.60920   0.61141   0.61903
 Alpha virt. eigenvalues --    0.62289   0.62504   0.63086   0.63764   0.64841
 Alpha virt. eigenvalues --    0.66032   0.66263   0.66741   0.67033   0.67258
 Alpha virt. eigenvalues --    0.67592   0.68094   0.68599   0.69304   0.70058
 Alpha virt. eigenvalues --    0.70554   0.71129   0.71465   0.72293   0.72433
 Alpha virt. eigenvalues --    0.72827   0.73865   0.75207   0.75635   0.75892
 Alpha virt. eigenvalues --    0.76796   0.77228   0.78382   0.78561   0.79350
 Alpha virt. eigenvalues --    0.79762   0.80304   0.81116   0.81661   0.82439
 Alpha virt. eigenvalues --    0.83056   0.83255   0.83521   0.84689   0.85120
 Alpha virt. eigenvalues --    0.85482   0.86098   0.86344   0.86634   0.87101
 Alpha virt. eigenvalues --    0.87344   0.88229   0.88428   0.88566   0.89275
 Alpha virt. eigenvalues --    0.89570   0.89703   0.90079   0.90189   0.90519
 Alpha virt. eigenvalues --    0.90662   0.91062   0.91262   0.91699   0.91940
 Alpha virt. eigenvalues --    0.92268   0.92929   0.93932   0.93976   0.94666
 Alpha virt. eigenvalues --    0.95000   0.95570   0.95923   0.96418   0.96840
 Alpha virt. eigenvalues --    0.97377   0.97931   0.98224   0.99116   0.99617
 Alpha virt. eigenvalues --    1.00190   1.00431   1.02101   1.02965   1.03904
 Alpha virt. eigenvalues --    1.04149   1.04709   1.05656   1.06489   1.08339
 Alpha virt. eigenvalues --    1.09400   1.10473   1.10814   1.12257   1.12475
 Alpha virt. eigenvalues --    1.13511   1.15005   1.15480   1.16092   1.16713
 Alpha virt. eigenvalues --    1.17674   1.18589   1.18947   1.19938   1.20098
 Alpha virt. eigenvalues --    1.21036   1.23717   1.24352   1.25313   1.26059
 Alpha virt. eigenvalues --    1.27617   1.29546   1.30046   1.31370   1.33401
 Alpha virt. eigenvalues --    1.34904   1.37273   1.37968   1.39131   1.40487
 Alpha virt. eigenvalues --    1.41618   1.42112   1.43644   1.43900   1.46344
 Alpha virt. eigenvalues --    1.48399   1.49450   1.50343   1.50794   1.51988
 Alpha virt. eigenvalues --    1.52882   1.54225   1.55854   1.57008   1.57916
 Alpha virt. eigenvalues --    1.58702   1.62047   1.62673   1.63009   1.65193
 Alpha virt. eigenvalues --    1.65736   1.67631   1.67745   1.69012   1.69587
 Alpha virt. eigenvalues --    1.70620   1.70720   1.72635   1.73385   1.74178
 Alpha virt. eigenvalues --    1.75119   1.75750   1.76436   1.77431   1.78502
 Alpha virt. eigenvalues --    1.78701   1.79033   1.80136   1.80511   1.81855
 Alpha virt. eigenvalues --    1.82226   1.82612   1.83274   1.84489   1.85002
 Alpha virt. eigenvalues --    1.86140   1.86823   1.87014   1.87728   1.88414
 Alpha virt. eigenvalues --    1.89487   1.89681   1.90736   1.91010   1.91885
 Alpha virt. eigenvalues --    1.92466   1.93367   1.93861   1.94810   1.96010
 Alpha virt. eigenvalues --    1.96192   1.96795   1.97020   1.97461   1.97727
 Alpha virt. eigenvalues --    1.98900   1.99101   2.00149   2.00611   2.01547
 Alpha virt. eigenvalues --    2.02005   2.02344   2.03064   2.04638   2.05334
 Alpha virt. eigenvalues --    2.06293   2.07096   2.08290   2.09228   2.10103
 Alpha virt. eigenvalues --    2.10655   2.12336   2.12685   2.12910   2.14982
 Alpha virt. eigenvalues --    2.15545   2.15968   2.16430   2.17355   2.18033
 Alpha virt. eigenvalues --    2.18719   2.19044   2.20614   2.21828   2.22165
 Alpha virt. eigenvalues --    2.23394   2.24666   2.25631   2.26632   2.27775
 Alpha virt. eigenvalues --    2.28377   2.28747   2.29437   2.30811   2.31972
 Alpha virt. eigenvalues --    2.32943   2.33259   2.33856   2.34156   2.34962
 Alpha virt. eigenvalues --    2.35646   2.37171   2.37484   2.38598   2.38997
 Alpha virt. eigenvalues --    2.41323   2.41575   2.42048   2.43386   2.44368
 Alpha virt. eigenvalues --    2.44994   2.46680   2.47804   2.48554   2.48671
 Alpha virt. eigenvalues --    2.50374   2.50709   2.52150   2.54155   2.55806
 Alpha virt. eigenvalues --    2.56710   2.57565   2.58250   2.59030   2.59960
 Alpha virt. eigenvalues --    2.61060   2.61546   2.63366   2.64893   2.65577
 Alpha virt. eigenvalues --    2.66238   2.67453   2.67554   2.70992   2.71851
 Alpha virt. eigenvalues --    2.72089   2.73171   2.75264   2.76232   2.78559
 Alpha virt. eigenvalues --    2.79419   2.79690   2.81376   2.81469   2.85439
 Alpha virt. eigenvalues --    2.88361   2.91023   2.93554   2.94206   2.94814
 Alpha virt. eigenvalues --    2.98755   2.98923   3.00445   3.02422   3.03488
 Alpha virt. eigenvalues --    3.04302   3.07613   3.12505   3.16755   3.22324
 Alpha virt. eigenvalues --    3.23688   3.28090   4.01715   4.11299   4.12102
 Alpha virt. eigenvalues --    4.13547   4.14745   4.17375   4.18456   4.19599
 Alpha virt. eigenvalues --    4.22940   4.23661   4.25741   4.26739   4.28859
 Alpha virt. eigenvalues --    4.31848   4.33844   4.38045   4.39012   4.44023
 Alpha virt. eigenvalues --    4.47173   4.48866   4.51154   4.54779   4.60070
 Alpha virt. eigenvalues --    4.64503   4.66050   4.71440   4.72506   4.77507
 Alpha virt. eigenvalues --    4.88653   4.95035   5.25685
          Condensed to atoms (all electrons):
 Mulliken atomic charges:
              1
     1  C   -0.196675
     2  C    0.194486
     3  C   -0.193976
     4  C    0.313678
     5  C   -0.027071
     6  C   -0.331007
     7  C    0.201463
     8  C    0.406161
     9  C   -0.087622
    10  C    0.400064
    11  C    0.430624
    12  O   -0.463833
    13  C   -0.172109
    14  C   -0.248333
    15  C   -0.469139
    16  O   -0.481268
    17  C   -0.152640
    18  C    0.305532
    19  O   -0.541569
    20  C   -0.307263
    21  O   -0.676178
    22  C   -0.317211
    23  C    0.116685
    24  O   -0.593568
    25  C    0.181081
    26  C   -0.517467
    27  C   -0.391352
    28  C   -0.460017
    29  C   -0.463798
    30  H    0.146854
    31  H    0.151094
    32  C   -0.519553
    33  H    0.126110
    34  H    0.163246
    35  H    0.182800
    36  H    0.168617
    37  H    0.148628
    38  H    0.122788
    39  H    0.146378
    40  H    0.158101
    41  H    0.170938
    42  H    0.163530
    43  H    0.149543
    44  H    0.427532
    45  H    0.150996
    46  H    0.184185
    47  H    0.136221
    48  H    0.154085
    49  H    0.160851
    50  H    0.166527
    51  H    0.137576
    52  H    0.141085
    53  H    0.148777
    54  H    0.141554
    55  H    0.184628
    56  H    0.158637
    57  H    0.157548
    58  H    0.150407
    59  H    0.158013
    60  H    0.156538
    61  H    0.154484
    62  C   -0.452642
    63  H    0.140365
    64  H    0.137302
    65  H    0.168581
 Sum of Mulliken atomic charges =   0.00000
 Mulliken charges with hydrogens summed into heavy atoms:
              1
     1  C   -0.070565
     2  C    0.194486
     3  C   -0.042882
     4  C    0.313678
     5  C   -0.027071
     6  C    0.015039
     7  C    0.201463
     8  C    0.406161
     9  C   -0.087622
    10  C    0.400064
    11  C    0.430624
    12  O   -0.463833
    13  C   -0.003492
    14  C    0.023084
    15  C    0.006277
    16  O   -0.481268
    17  C   -0.005787
    18  C    0.305532
    19  O   -0.541569
    20  C    0.005810
    21  O   -0.248645
    22  C    0.017970
    23  C    0.252906
    24  O   -0.593568
    25  C    0.181081
    26  C   -0.036004
    27  C   -0.112692
    28  C    0.014941
    29  C    0.002794
    32  C   -0.050518
    62  C   -0.006393
 Sum of Mulliken charges with hydrogens summed into heavy atoms =   0.00000
 Electronic spatial extent (au):  <R**2>=          11845.1347
 Charge=              0.0000 electrons
 Dipole moment (field-independent basis, Debye):
    X=             -3.8112    Y=              4.0028    Z=             -0.4168  Tot=              5.5427
 Quadrupole moment (field-independent basis, Debye-Ang):
   XX=           -178.2998   YY=           -180.1850   ZZ=           -187.7548
   XY=              7.4031   XZ=             -9.8032   YZ=              1.7941
 Traceless Quadrupole moment (field-independent basis, Debye-Ang):
   XX=              3.7801   YY=              1.8949   ZZ=             -5.6749
   XY=              7.4031   XZ=             -9.8032   YZ=              1.7941
 Octapole moment (field-independent basis, Debye-Ang**2):
  XXX=             -6.9461  YYY=             55.4036  ZZZ=             -5.9017  XYY=            -21.4837
  XXY=            -14.5066  XXZ=            -20.9253  XZZ=            -25.4708  YZZ=              0.6888
  YYZ=            -13.3906  XYZ=              1.0827
 Hexadecapole moment (field-independent basis, Debye-Ang**3):
 XXXX=          -8728.0409 YYYY=          -4487.2843 ZZZZ=          -2531.4642 XXXY=            103.6592
 XXXZ=            -55.8903 YYYX=             80.5505 YYYZ=            -28.6015 ZZZX=             -8.6822
 ZZZY=             -6.3657 XXYY=          -2155.6192 XXZZ=          -1908.0956 YYZZ=          -1167.4474
 XXYZ=             51.8310 YYXZ=              7.5142 ZZXY=             34.5066
 N-N= 3.502520786235D+03 E-N=-1.023131651689D+04  KE= 1.374799105599D+03
 Calling FoFJK, ICntrl=      2127 FMM=T ISym2X=0 I1Cent= 0 IOpClX= 0 NMat=1 NMatS=1 NMatT=0.
 ***** Axes restored to original set *****
 -------------------------------------------------------------------
 Center     Atomic                   Forces (Hartrees/Bohr)
 Number     Number              X              Y              Z
 -------------------------------------------------------------------
      1        6           0.009638572    0.000096482    0.000952513
      2        6          -0.009570383   -0.006278405    0.003782379
      3        6          -0.006535142   -0.009765904   -0.003391541
      4        6           0.010400347   -0.007078854    0.012382611
      5        6          -0.008180422    0.004952688    0.005665734
      6        6          -0.008612681   -0.008367197   -0.006109302
      7        6           0.021235255    0.013614681    0.010110283
      8        6          -0.005835569   -0.002604083   -0.024148578
      9        6           0.006584442   -0.002247944    0.006421387
     10        6          -0.018376653    0.017404307   -0.000674075
     11        6          -0.018158777   -0.008624449   -0.015009742
     12        8           0.008037612    0.014173823    0.006193070
     13        6          -0.009442372    0.001308030   -0.006676034
     14        6          -0.001615451   -0.003562157   -0.004847869
     15        6           0.006453835    0.000300785    0.007820591
     16        8           0.009909375   -0.011067746   -0.000417805
     17        6           0.003258344   -0.006271348   -0.011581305
     18        6           0.030267779    0.004570171   -0.013610565
     19        8          -0.010492860   -0.007966338    0.032958888
     20        6           0.009576602   -0.001653244   -0.005750951
     21        8          -0.003825306    0.004764928    0.005268563
     22        6          -0.009504363   -0.001711498    0.008666565
     23        6           0.008447280    0.006711402    0.008158140
     24        8          -0.004027195    0.002133399   -0.008722366
     25        6           0.011544008    0.009614699    0.009523552
     26        6          -0.000188443   -0.000343326   -0.000371060
     27        6          -0.004357081   -0.006229967   -0.009016324
     28        6          -0.001986358    0.008390931    0.001640363
     29        6          -0.008448879   -0.000620512   -0.007500687
     30        1          -0.003047628    0.001922729    0.000180068
     31        1          -0.001738258    0.005814828    0.000639616
     32        6          -0.002458184   -0.000468706    0.000131946
     33        1           0.000724150   -0.000841240    0.000038711
     34        1           0.000630274    0.005204479   -0.000435698
     35        1          -0.001666092    0.005423703   -0.001047508
     36        1           0.003354946   -0.002405236    0.001039661
     37        1           0.001914364   -0.000636662    0.001354257
     38        1           0.002946998    0.000397529    0.000048545
     39        1          -0.001232935   -0.000220020   -0.001261017
     40        1          -0.000284682   -0.000144568    0.001005347
     41        1          -0.000117720    0.000654803   -0.000403651
     42        1           0.000189517    0.000733235    0.000929260
     43        1          -0.002120664   -0.001455319   -0.001474334
     44        1          -0.002976235    0.001216018   -0.003815188
     45        1          -0.000008472    0.000615214   -0.003275510
     46        1           0.000392381   -0.001069760   -0.004036470
     47        1          -0.001061706   -0.003668394    0.000540504
     48        1          -0.002948608   -0.003178217    0.000247269
     49        1           0.000985064    0.001035266   -0.001922691
     50        1          -0.002815391   -0.002983953    0.000380143
     51        1          -0.001026343   -0.000522469    0.000426650
     52        1           0.000312703   -0.000129074   -0.000221509
     53        1           0.000554460   -0.003267705   -0.002247863
     54        1           0.000113505   -0.000780032   -0.000315258
     55        1           0.000381928   -0.004546923    0.003424872
     56        1           0.001288067   -0.001794816    0.002636292
     57        1           0.001954984    0.001571662    0.001789145
     58        1          -0.000134107    0.000766181    0.001307522
     59        1          -0.000631858    0.000906794   -0.000334860
     60        1           0.004027397   -0.001603697   -0.000083908
     61        1           0.004298663   -0.001182964    0.000099601
     62        6          -0.003785675    0.000672548    0.001146084
     63        1          -0.000875561    0.000452990    0.001381532
     64        1          -0.001261181    0.000209828    0.000226262
     65        1          -0.000073618   -0.000341402    0.000185743
 -------------------------------------------------------------------
 Cartesian Forces:  Max     0.032958888 RMS     0.006721541

 GradGradGradGradGradGradGradGradGradGradGradGradGradGradGradGradGradGrad
 Berny optimization.
 Internal  Forces:  Max     0.017236973 RMS     0.003340792
 Search for a local minimum.
 Step number   1 out of a maximum of  390
 All quantities printed in internal units (Hartrees-Bohrs-Radians)
 Mixed Optimization -- RFO/linear search
 Second derivative matrix not updated -- first step.
 ITU=  0
     Eigenvalues ---    0.00230   0.00278   0.00322   0.00355   0.00376
     Eigenvalues ---    0.00444   0.00482   0.00559   0.00591   0.00597
     Eigenvalues ---    0.00609   0.00692   0.00727   0.00735   0.00884
     Eigenvalues ---    0.01042   0.01167   0.01250   0.01299   0.01451
     Eigenvalues ---    0.01529   0.01717   0.01735   0.01830   0.02087
     Eigenvalues ---    0.02622   0.02824   0.02824   0.03112   0.03217
     Eigenvalues ---    0.03306   0.03528   0.03708   0.03903   0.04085
     Eigenvalues ---    0.04269   0.04336   0.04463   0.04513   0.04761
     Eigenvalues ---    0.04819   0.04894   0.05006   0.05141   0.05283
     Eigenvalues ---    0.05321   0.05339   0.05384   0.05424   0.05442
     Eigenvalues ---    0.05451   0.05502   0.05534   0.05569   0.05655
     Eigenvalues ---    0.05694   0.05733   0.05885   0.05928   0.06145
     Eigenvalues ---    0.06576   0.06800   0.07111   0.07151   0.07153
     Eigenvalues ---    0.07229   0.07272   0.07314   0.07434   0.07992
     Eigenvalues ---    0.08333   0.08504   0.08691   0.09363   0.09433
     Eigenvalues ---    0.09894   0.10246   0.11442   0.11884   0.12462
     Eigenvalues ---    0.12575   0.13298   0.14529   0.15321   0.15737
     Eigenvalues ---    0.15968   0.16000   0.16000   0.16000   0.16000
     Eigenvalues ---    0.16000   0.16000   0.16000   0.16000   0.16000
     Eigenvalues ---    0.16000   0.16000   0.16000   0.16000   0.16000
     Eigenvalues ---    0.16000   0.16000   0.16000   0.16000   0.16000
     Eigenvalues ---    0.16000   0.16542   0.17180   0.18100   0.18502
     Eigenvalues ---    0.19744   0.20918   0.21944   0.22321   0.22493
     Eigenvalues ---    0.23343   0.24778   0.24888   0.24977   0.24995
     Eigenvalues ---    0.24997   0.24998   0.25000   0.26102   0.26670
     Eigenvalues ---    0.27041   0.27173   0.27395   0.27743   0.28331
     Eigenvalues ---    0.28352   0.28797   0.28980   0.29096   0.29327
     Eigenvalues ---    0.29474   0.29955   0.30229   0.30730   0.31162
     Eigenvalues ---    0.31801   0.31821   0.32135   0.33171   0.33623
     Eigenvalues ---    0.33882   0.33905   0.33941   0.33970   0.33984
     Eigenvalues ---    0.34005   0.34009   0.34015   0.34023   0.34079
     Eigenvalues ---    0.34081   0.34154   0.34196   0.34211   0.34217
     Eigenvalues ---    0.34226   0.34233   0.34243   0.34246   0.34252
     Eigenvalues ---    0.34263   0.34266   0.34270   0.34274   0.34293
     Eigenvalues ---    0.34298   0.34354   0.34363   0.34381   0.34667
     Eigenvalues ---    0.35037   0.35265   0.35298   0.35431   0.36568
     Eigenvalues ---    0.37507   0.41095   0.44364   0.50167   0.53441
     Eigenvalues ---    0.54374   0.56226   0.90083   0.91176
 RFO step:  Lambda=-2.09777342D-02 EMin= 2.30000000D-03
 Linear search not attempted -- first point.
 Iteration  1 RMS(Cart)=  0.04880320 RMS(Int)=  0.00072190
 Iteration  2 RMS(Cart)=  0.00113805 RMS(Int)=  0.00024720
 Iteration  3 RMS(Cart)=  0.00000075 RMS(Int)=  0.00024720
 Variable       Old X    -DE/DX   Delta X   Delta X   Delta X     New X
                                 (Linear)    (Quad)   (Total)
    R1        2.53318  -0.00184   0.00000  -0.00384  -0.00392   2.52925
    R2        2.82232   0.00883   0.00000   0.02562   0.02549   2.84781
    R3        2.05615   0.00036   0.00000   0.00096   0.00096   2.05711
    R4        2.84498   0.00505   0.00000   0.01297   0.01302   2.85800
    R5        2.83897   0.00477   0.00000   0.01393   0.01393   2.85290
    R6        2.94459   0.00659   0.00000   0.01696   0.01693   2.96152
    R7        2.89671   0.01026   0.00000   0.03484   0.03480   2.93151
    R8        2.07972  -0.00188   0.00000  -0.00526  -0.00526   2.07446
    R9        2.92703   0.01240   0.00000   0.03891   0.03887   2.96591
   R10        2.92061   0.00793   0.00000   0.03107   0.03131   2.95191
   R11        2.75609  -0.00534   0.00000  -0.01562  -0.01565   2.74044
   R12        2.91647   0.00528   0.00000   0.01942   0.01938   2.93585
   R13        2.90790   0.00491   0.00000   0.00901   0.00866   2.91655
   R14        2.91195   0.00485   0.00000   0.01732   0.01731   2.92925
   R15        2.07530  -0.00169   0.00000  -0.00471  -0.00471   2.07059
   R16        2.07491   0.00240   0.00000   0.00668   0.00668   2.08159
   R17        2.81574   0.01122   0.00000   0.02539   0.02513   2.84087
   R18        2.86612   0.01516   0.00000   0.05299   0.05245   2.91857
   R19        2.68385   0.00255   0.00000   0.00664   0.00664   2.69049
   R20        2.52465   0.01284   0.00000   0.02274   0.02286   2.54751
   R21        2.62225  -0.01724   0.00000  -0.04037  -0.04007   2.58218
   R22        2.79717   0.00227   0.00000   0.00279   0.00293   2.80010
   R23        2.79519   0.01519   0.00000   0.04131   0.04131   2.83649
   R24        2.32396  -0.01262   0.00000  -0.01353  -0.01353   2.31043
   R25        2.32895  -0.01697   0.00000  -0.01841  -0.01841   2.31054
   R26        2.89804  -0.00373   0.00000  -0.01196  -0.01196   2.88608
   R27        2.91421   0.00180   0.00000   0.00591   0.00591   2.92013
   R28        2.89025   0.00637   0.00000   0.02019   0.02019   2.91044
   R29        2.07429   0.00195   0.00000   0.00542   0.00542   2.07971
   R30        2.07305  -0.00079   0.00000  -0.00218  -0.00218   2.07087
   R31        2.07357   0.00087   0.00000   0.00240   0.00240   2.07597
   R32        2.88052   0.00673   0.00000   0.02098   0.02098   2.90151
   R33        2.06939   0.00031   0.00000   0.00085   0.00085   2.07023
   R34        2.06917   0.00015   0.00000   0.00042   0.00042   2.06959
   R35        2.06966  -0.00029   0.00000  -0.00078  -0.00078   2.06887
   R36        2.91056  -0.00010   0.00000   0.01143   0.01160   2.92217
[...]
     58          1           0        1.267028    4.928420   -0.291185
     59          1           0       -3.794313    1.886285    3.748158
     60          1           0       -3.124697    3.217475    2.788863
     61          1           0       -4.404495    2.215563    2.112995
     62          6           0        5.622918   -2.620071    0.635615
     63          1           0        5.773040   -3.021453   -0.373125
     64          1           0        6.543230   -2.809182    1.200632
     65          1           0        4.813745   -3.179219    1.112551
 ---------------------------------------------------------------------
 Rotational constants (GHZ):      0.2085663      0.1217237      0.1049509

 **********************************************************************

            Population analysis using the SCF density.

 **********************************************************************

 Orbital symmetries:
       Occupied  (A) (A) (A) (A) (A) (A) (A) (A) (A) (A) (A) (A)
                 (A) (A) (A) (A) (A) (A) (A) (A) (A) (A) (A) (A)
                 (A) (A) (A) (A) (A) (A) (A) (A) (A) (A) (A) (A)
                 (A) (A) (A) (A) (A) (A) (A) (A) (A) (A) (A) (A)
                 (A) (A) (A) (A) (A) (A) (A) (A) (A) (A) (A) (A)
                 (A) (A) (A) (A) (A) (A) (A) (A) (A) (A) (A) (A)
                 (A) (A) (A) (A) (A) (A) (A) (A) (A) (A) (A) (A)
                 (A) (A) (A) (A) (A) (A) (A) (A) (A) (A) (A) (A)
                 (A) (A) (A) (A) (A) (A) (A) (A) (A) (A) (A) (A)
                 (A) (A) (A) (A) (A) (A) (A)
       Virtual   (A) (A) (A) (A) (A) (A) (A) (A) (A) (A) (A) (A)
                 (A) (A) (A) (A) (A) (A) (A) (A) (A) (A) (A) (A)
                 (A) (A) (A) (A) (A) (A) (A) (A) (A) (A) (A) (A)
                 (A) (A) (A) (A) (A) (A) (A) (A) (A) (A) (A) (A)
                 (A) (A) (A) (A) (A) (A) (A) (A) (A) (A) (A) (A)
                 (A) (A) (A) (A) (A) (A) (A) (A) (A) (A) (A) (A)
                 (A) (A) (A) (A) (A) (A) (A) (A) (A) (A) (A) (A)
                 (A) (A) (A) (A) (A) (A) (A) (A) (A) (A) (A) (A)
                 (A) (A) (A) (A) (A) (A) (A) (A) (A) (A) (A) (A)
                 (A) (A) (A) (A) (A) (A) (A) (A) (A) (A) (A) (A)
                 (A) (A) (A) (A) (A) (A) (A) (A) (A) (A) (A) (A)
                 (A) (A) (A) (A) (A) (A) (A) (A) (A) (A) (A) (A)
                 (A) (A) (A) (A) (A) (A) (A) (A) (A) (A) (A) (A)
                 (A) (A) (A) (A) (A) (A) (A) (A) (A) (A) (A) (A)
                 (A) (A) (A) (A) (A) (A) (A) (A) (A) (A) (A) (A)
                 (A) (A) (A) (A) (A) (A) (A) (A) (A) (A) (A) (A)
                 (A) (A) (A) (A) (A) (A) (A) (A) (A) (A) (A) (A)
                 (A) (A) (A) (A) (A) (A) (A) (A) (A) (A) (A) (A)
                 (A) (A) (A) (A) (A) (A) (A) (A) (A) (A) (A) (A)
                 (A) (A) (A) (A) (A) (A) (A) (A) (A) (A) (A) (A)
                 (A) (A) (A) (A) (A) (A) (A) (A) (A) (A) (A) (A)
                 (A) (A) (A) (A) (A) (A) (A) (A) (A) (A) (A) (A)
                 (A) (A) (A) (A) (A) (A) (A) (A) (A) (A) (A) (A)
                 (A) (A) (A) (A) (A) (A) (A) (A) (A) (A) (A) (A)
                 (A) (A) (A) (A) (A) (A) (A) (A) (A) (A) (A) (A)
                 (A) (A) (A) (A) (A) (A) (A) (A) (A) (A) (A) (A)
                 (A) (A) (A) (A) (A) (A) (A) (A) (A) (A) (A) (A)
                 (A) (A) (A) (A) (A) (A) (A) (A) (A) (A) (A) (A)
                 (A) (A) (A) (A) (A) (A) (A) (A) (A) (A) (A) (A)
                 (A) (A) (A) (A) (A) (A) (A) (A) (A) (A) (A) (A)
                 (A) (A) (A) (A) (A) (A) (A) (A) (A) (A) (A) (A)
                 (A) (A) (A) (A) (A) (A) (A) (A) (A) (A) (A) (A)
                 (A) (A) (A) (A) (A) (A) (A) (A) (A) (A) (A) (A)
                 (A) (A) (A) (A) (A) (A) (A) (A) (A) (A) (A) (A)
                 (A) (A) (A) (A) (A) (A) (A) (A) (A) (A)
 The electronic state is 1-A.
 Alpha  occ. eigenvalues --  -19.19859 -19.17160 -19.15221 -19.12953 -19.12526
 Alpha  occ. eigenvalues --  -10.26934 -10.26899 -10.26880 -10.26407 -10.26271
 Alpha  occ. eigenvalues --  -10.26095 -10.24888 -10.21295 -10.20701 -10.20574
 Alpha  occ. eigenvalues --  -10.20423 -10.20090 -10.19930 -10.19539 -10.19418
 Alpha  occ. eigenvalues --  -10.19144 -10.18887 -10.18830 -10.18827 -10.18606
 Alpha  occ. eigenvalues --  -10.18498 -10.18240 -10.17717 -10.16878 -10.16765
 Alpha  occ. eigenvalues --  -10.15343  -1.09185  -1.06694  -1.03327  -1.02423
 Alpha  occ. eigenvalues --   -1.02106  -0.87024  -0.83884  -0.82183  -0.81357
 Alpha  occ. eigenvalues --   -0.80108  -0.79232  -0.76823  -0.73955  -0.73161
 Alpha  occ. eigenvalues --   -0.72287  -0.71050  -0.70296  -0.69012  -0.68416
 Alpha  occ. eigenvalues --   -0.64877  -0.64216  -0.63621  -0.62111  -0.60898
 Alpha  occ. eigenvalues --   -0.59051  -0.58421  -0.56816  -0.54990  -0.53206
 Alpha  occ. eigenvalues --   -0.53094  -0.51781  -0.51019  -0.49769  -0.49335
 Alpha  occ. eigenvalues --   -0.48111  -0.47262  -0.46914  -0.46576  -0.46092
 Alpha  occ. eigenvalues --   -0.45094  -0.44421  -0.44319  -0.44118  -0.43013
 Alpha  occ. eigenvalues --   -0.42557  -0.42368  -0.42207  -0.42011  -0.41523
 Alpha  occ. eigenvalues --   -0.40940  -0.40607  -0.40495  -0.40016  -0.39305
 Alpha  occ. eigenvalues --   -0.39246  -0.39042  -0.38673  -0.38445  -0.38285
 Alpha  occ. eigenvalues --   -0.37739  -0.37598  -0.36944  -0.36650  -0.36247
 Alpha  occ. eigenvalues --   -0.35911  -0.35550  -0.35384  -0.34872  -0.34583
 Alpha  occ. eigenvalues --   -0.33814  -0.33659  -0.33005  -0.32338  -0.32039
 Alpha  occ. eigenvalues --   -0.31503  -0.31066  -0.30841  -0.28295  -0.27482
 Alpha  occ. eigenvalues --   -0.25101  -0.24441  -0.24385  -0.23419  -0.22625
 Alpha virt. eigenvalues --   -0.04204  -0.01507   0.01052   0.01960   0.05017
 Alpha virt. eigenvalues --    0.06859   0.07978   0.08682   0.09091   0.10236
 Alpha virt. eigenvalues --    0.10388   0.10766   0.10905   0.11350   0.12234
 Alpha virt. eigenvalues --    0.12745   0.12846   0.13656   0.13862   0.14074
 Alpha virt. eigenvalues --    0.14579   0.14955   0.15036   0.15223   0.15682
 Alpha virt. eigenvalues --    0.16043   0.16282   0.16478   0.16496   0.17369
 Alpha virt. eigenvalues --    0.17716   0.18052   0.18541   0.19008   0.19102
 Alpha virt. eigenvalues --    0.19293   0.19335   0.19486   0.19935   0.20263
 Alpha virt. eigenvalues --    0.20580   0.21190   0.21271   0.22027   0.22429
 Alpha virt. eigenvalues --    0.22959   0.23047   0.23725   0.23869   0.24238
 Alpha virt. eigenvalues --    0.25015   0.25270   0.25732   0.26238   0.26560
 Alpha virt. eigenvalues --    0.27353   0.27883   0.28226   0.28932   0.30094
 Alpha virt. eigenvalues --    0.30606   0.31785   0.32225   0.33809   0.34258
 Alpha virt. eigenvalues --    0.34525   0.36905   0.37628   0.38032   0.39725
 Alpha virt. eigenvalues --    0.42215   0.44842   0.45853   0.47114   0.48086
 Alpha virt. eigenvalues --    0.49465   0.50144   0.50556   0.51111   0.51214
 Alpha virt. eigenvalues --    0.51977   0.52119   0.52195   0.52768   0.53303
 Alpha virt. eigenvalues --    0.53929   0.54117   0.54662   0.54970   0.55587
 Alpha virt. eigenvalues --    0.56677   0.57225   0.57574   0.58215   0.59069
 Alpha virt. eigenvalues --    0.59520   0.59883   0.60312   0.60722   0.61594
 Alpha virt. eigenvalues --    0.62128   0.62259   0.62800   0.63786   0.64285
 Alpha virt. eigenvalues --    0.65943   0.66166   0.67012   0.67043   0.67241
 Alpha virt. eigenvalues --    0.67432   0.68118   0.68672   0.69157   0.70084
 Alpha virt. eigenvalues --    0.70611   0.70770   0.71281   0.71722   0.72581
 Alpha virt. eigenvalues --    0.72737   0.73622   0.74910   0.75518   0.75926
 Alpha virt. eigenvalues --    0.76224   0.77104   0.77967   0.78444   0.78944
 Alpha virt. eigenvalues --    0.79645   0.80468   0.81025   0.81536   0.82411
 Alpha virt. eigenvalues --    0.82895   0.82934   0.83986   0.84594   0.84900
 Alpha virt. eigenvalues --    0.85553   0.85810   0.86230   0.86843   0.87010
 Alpha virt. eigenvalues --    0.87409   0.87941   0.88256   0.88510   0.88594
 Alpha virt. eigenvalues --    0.89145   0.89383   0.89668   0.90268   0.90572
 Alpha virt. eigenvalues --    0.90820   0.90960   0.91116   0.91564   0.91607
 Alpha virt. eigenvalues --    0.92526   0.92922   0.93754   0.94139   0.94582
 Alpha virt. eigenvalues --    0.95051   0.95342   0.96293   0.96557   0.96743
 Alpha virt. eigenvalues --    0.97758   0.98065   0.98468   0.98808   0.99104
 Alpha virt. eigenvalues --    0.99981   1.00686   1.01997   1.02087   1.03177
 Alpha virt. eigenvalues --    1.03772   1.05054   1.05521   1.08143   1.08734
 Alpha virt. eigenvalues --    1.09530   1.10934   1.11493   1.12688   1.13295
 Alpha virt. eigenvalues --    1.13924   1.14307   1.15306   1.15777   1.16312
 Alpha virt. eigenvalues --    1.17166   1.17868   1.19156   1.19561   1.20925
 Alpha virt. eigenvalues --    1.21332   1.24527   1.25219   1.25693   1.26966
 Alpha virt. eigenvalues --    1.27622   1.29904   1.30671   1.31965   1.33828
 Alpha virt. eigenvalues --    1.35220   1.35874   1.37845   1.38410   1.39936
 Alpha virt. eigenvalues --    1.41173   1.41642   1.44216   1.45390   1.46125
 Alpha virt. eigenvalues --    1.48113   1.48321   1.49385   1.50783   1.52306
 Alpha virt. eigenvalues --    1.53025   1.54765   1.55396   1.56911   1.57588
 Alpha virt. eigenvalues --    1.59982   1.61385   1.61827   1.63277   1.64054
 Alpha virt. eigenvalues --    1.65484   1.67406   1.67720   1.68517   1.69490
 Alpha virt. eigenvalues --    1.69997   1.71156   1.71700   1.73333   1.74068
 Alpha virt. eigenvalues --    1.74400   1.75009   1.75896   1.76614   1.77824
 Alpha virt. eigenvalues --    1.78024   1.78499   1.79526   1.80861   1.81201
 Alpha virt. eigenvalues --    1.81698   1.82225   1.82952   1.83749   1.84274
 Alpha virt. eigenvalues --    1.85050   1.85846   1.86140   1.87146   1.87518
 Alpha virt. eigenvalues --    1.88421   1.89084   1.89899   1.90521   1.90569
 Alpha virt. eigenvalues --    1.92033   1.92795   1.93246   1.94037   1.94611
 Alpha virt. eigenvalues --    1.95301   1.96183   1.96385   1.97423   1.97834
 Alpha virt. eigenvalues --    1.98240   1.98480   1.98868   1.99436   2.00682
 Alpha virt. eigenvalues --    2.01784   2.01999   2.02826   2.04224   2.05298
 Alpha virt. eigenvalues --    2.05575   2.06112   2.07252   2.07837   2.08853
 Alpha virt. eigenvalues --    2.10902   2.11056   2.12174   2.12387   2.12588
 Alpha virt. eigenvalues --    2.14081   2.14771   2.16443   2.17092   2.17679
 Alpha virt. eigenvalues --    2.18766   2.19707   2.19872   2.20765   2.21293
 Alpha virt. eigenvalues --    2.23885   2.24188   2.24371   2.26657   2.27256
 Alpha virt. eigenvalues --    2.27323   2.29331   2.29917   2.31112   2.31701
 Alpha virt. eigenvalues --    2.32222   2.32927   2.33320   2.33595   2.35061
 Alpha virt. eigenvalues --    2.35901   2.36848   2.37577   2.38895   2.39816
 Alpha virt. eigenvalues --    2.40136   2.41101   2.41681   2.42517   2.43679
 Alpha virt. eigenvalues --    2.44361   2.45256   2.47423   2.48437   2.48705
 Alpha virt. eigenvalues --    2.49763   2.50638   2.51467   2.53946   2.54544
 Alpha virt. eigenvalues --    2.55688   2.56889   2.57664   2.57974   2.59094
 Alpha virt. eigenvalues --    2.60714   2.62107   2.63396   2.64977   2.65659
 Alpha virt. eigenvalues --    2.65921   2.67420   2.67459   2.70440   2.70922
 Alpha virt. eigenvalues --    2.71436   2.71939   2.74988   2.76122   2.77454
 Alpha virt. eigenvalues --    2.78281   2.78799   2.79588   2.80238   2.84018
 Alpha virt. eigenvalues --    2.87312   2.88456   2.91775   2.94676   2.96300
 Alpha virt. eigenvalues --    2.98704   2.99419   3.00566   3.02420   3.02948
 Alpha virt. eigenvalues --    3.04545   3.06295   3.11615   3.13163   3.21658
 Alpha virt. eigenvalues --    3.25202   3.26920   4.02045   4.06641   4.10226
 Alpha virt. eigenvalues --    4.12484   4.13932   4.16176   4.17546   4.18573
 Alpha virt. eigenvalues --    4.23037   4.25003   4.26161   4.26872   4.29657
 Alpha virt. eigenvalues --    4.31564   4.32854   4.37235   4.39582   4.43623
 Alpha virt. eigenvalues --    4.46919   4.48988   4.50629   4.55439   4.59592
 Alpha virt. eigenvalues --    4.64260   4.65298   4.69111   4.73264   4.76380
 Alpha virt. eigenvalues --    4.87823   4.94801   5.23203
          Condensed to atoms (all electrons):
 Mulliken atomic charges:
              1
     1  C   -0.194458
     2  C    0.197734
     3  C   -0.198251
     4  C    0.307815
     5  C   -0.028508
     6  C   -0.328150
     7  C    0.199180
     8  C    0.400810
     9  C   -0.092594
    10  C    0.398377
    11  C    0.429868
    12  O   -0.459055
    13  C   -0.178458
    14  C   -0.244537
    15  C   -0.461476
    16  O   -0.465800
    17  C   -0.156349
    18  C    0.300401
    19  O   -0.539730
    20  C   -0.309065
    21  O   -0.673776
    22  C   -0.329336
    23  C    0.116635
    24  O   -0.588495
    25  C    0.183911
    26  C   -0.518745
    27  C   -0.394824
    28  C   -0.467200
    29  C   -0.461335
    30  H    0.149189
    31  H    0.149877
    32  C   -0.521381
    33  H    0.125623
    34  H    0.166682
    35  H    0.172968
    36  H    0.160688
    37  H    0.142198
    38  H    0.120157
    39  H    0.144681
    40  H    0.161162
    41  H    0.164275
    42  H    0.161219
    43  H    0.151602
    44  H    0.430021
    45  H    0.148918
    46  H    0.188915
    47  H    0.135384
    48  H    0.154097
    49  H    0.160531
    50  H    0.169767
    51  H    0.136372
    52  H    0.145420
    53  H    0.155845
    54  H    0.145597
    55  H    0.195946
    56  H    0.161574
    57  H    0.162798
    58  H    0.152319
    59  H    0.158404
    60  H    0.155300
    61  H    0.155377
    62  C   -0.452944
    63  H    0.136361
    64  H    0.134738
    65  H    0.175730
 Sum of Mulliken atomic charges =   0.00000
 Mulliken charges with hydrogens summed into heavy atoms:
              1
     1  C   -0.068835
     2  C    0.197734
     3  C   -0.048374
     4  C    0.307815
     5  C   -0.028508
     6  C    0.011500
     7  C    0.199180
     8  C    0.400810
     9  C   -0.092594
    10  C    0.398377
    11  C    0.429868
    12  O   -0.459055
    13  C   -0.017770
    14  C    0.017819
    15  C    0.008642
    16  O   -0.465800
    17  C   -0.007160
    18  C    0.300401
    19  O   -0.539730
    20  C    0.003755
    21  O   -0.243755
    22  C    0.008496
    23  C    0.252018
    24  O   -0.588495
    25  C    0.183911
    26  C   -0.034349
    27  C   -0.113032
    28  C    0.030188
    29  C    0.015356
    32  C   -0.052299
    62  C   -0.006115
 Sum of Mulliken charges with hydrogens summed into heavy atoms =   0.00000
 Electronic spatial extent (au):  <R**2>=          12006.5278
 Charge=              0.0000 electrons
 Dipole moment (field-independent basis, Debye):
    X=             -3.6422    Y=              5.4009    Z=             -0.2086  Tot=              6.5176
 Quadrupole moment (field-independent basis, Debye-Ang):
   XX=           -178.6395   YY=           -181.7763   ZZ=           -186.1519
   XY=             11.1515   XZ=             -8.8359   YZ=              3.2104
 Traceless Quadrupole moment (field-independent basis, Debye-Ang):
   XX=              3.5497   YY=              0.4130   ZZ=             -3.9627
   XY=             11.1515   XZ=             -8.8359   YZ=              3.2104
 Octapole moment (field-independent basis, Debye-Ang**2):
  XXX=            -18.6466  YYY=             66.0998  ZZZ=             -4.2587  XYY=            -24.2893
  XXY=             -5.1619  XXZ=            -15.5064  XZZ=            -20.5943  YZZ=              2.4811
  YYZ=            -19.3070  XYZ=              2.5676
 Hexadecapole moment (field-independent basis, Debye-Ang**3):
 XXXX=          -9119.1117 YYYY=          -4346.0007 ZZZZ=          -2548.0721 XXXY=            145.0338
 XXXZ=            -50.8058 YYYX=             92.4849 YYYZ=            -29.6189 ZZZX=              2.4906
 ZZZY=             -6.1153 XXYY=          -2207.4962 XXZZ=          -1950.4895 YYZZ=          -1155.4284
 XXYZ=             61.9047 YYXZ=            -16.2204 ZZXY=             44.8761
 N-N= 3.488264150387D+03 E-N=-1.020267169834D+04  KE= 1.374456563403D+03
 1\1\GINC-B0603\FOpt\RB3LYP\6-31G(d)\C26H34O5\CAOFEI\24-Mar-2021\0\\# o
 pt rb3lyp/6-31g(d) geom=connectivity\\Title Card Required\\0,1\C,0.005
 9177059,-0.0240188749,-0.0472281479\C,1.3438266877,-0.0465682192,-0.01
 68896002\C,2.1252939341,1.2470107064,-0.0203785362\C,1.4047058705,2.49
 09628879,0.5963202531\C,-0.1519399004,2.3974057948,0.7609235696\C,-0.7
 89219218,1.2532999032,-0.0841236054\C,1.897705165,3.6955980856,-0.2693
 261911\C,0.8664717798,4.1597047955,-1.2850120498\C,-0.4558606206,4.249
 7269531,-1.0151710434\C,-0.8891064973,3.6831636666,0.290160599\C,-1.51
 81601826,4.7540944892,-1.951493865\O,-2.5672843371,4.1349270805,-2.035
 4898624\C,-1.2432668903,6.0214272169,-2.7633268025\C,-2.3771734384,6.3
 347677837,-3.7604304747\C,-0.9036966704,7.2013848547,-1.8266140551\O,-
 1.8427969085,4.1175238199,0.9107684703\C,3.0055008008,3.1820839239,-1.
 2158576962\C,2.8993840514,4.127026816,-2.4333070371\O,1.4554459824,4.4
 816314192,-2.4491130026\C,2.5993095712,1.709753461,-1.4230647754\O,2.2
 535834898,4.8117861392,0.5220701297\C,-0.3516481473,2.1794296893,2.281
 4780526\C,1.0677766416,2.0412335565,2.8630918851\O,1.9086212711,2.7222
 886438,1.9208140457\C,1.2515469317,2.5835945479,4.2606625991\C,0.40064
 21396,1.9106604788,5.3100689343\C,2.1114069006,3.5626067614,4.55059028
 3\C,3.6890583895,5.4227838736,-2.2327018818\C,3.1962646136,3.502685355
 2,-3.7931465389\H,3.9884194156,3.2550175444,-0.7409201427\H,3.02603821
 16,1.1194399886,0.5957911875\C,2.1413883398,-1.3251311241,-0.014312546
 3\H,-0.548444792,-0.9611211012,-0.0745384971\H,-1.8064868824,1.0896776
 788,0.287228003\H,-0.9142347596,1.5873530066,-1.1242548883\H,-0.336283
 2791,5.8078354687,-3.3458370308\H,-2.5916456021,5.4249973282,-4.333222
 0443\H,-1.9923273971,7.0733744628,-4.4773466487\H,-0.7158557303,8.1054
 982453,-2.417319942\H,-0.0097951746,6.9940782737,-1.2308988245\H,-1.72
 42348651,7.4147023443,-1.1339713687\H,1.7674619724,1.63032076,-2.13320
 10804\H,3.4150495229,1.0916199025,-1.8103291743\H,2.2423830445,4.48169
 72387,1.4432494994\H,-0.9584812508,1.29519402,2.4929146969\H,-0.869791
 8859,3.0462919985,2.7000599345\H,1.3549863227,0.9763962505,2.864850891
 8\H,0.5773821552,0.826256947,5.3311666728\H,0.6166375226,2.3077505802,
 6.3058948086\H,-0.6699306326,2.052327917,5.1132567349\H,2.221623358,3.
 9280004443,5.5681055838\H,2.7366644327,4.024554058,3.7945515191\H,3.43
 62787644,6.1409957098,-3.0195139685\H,4.7645623232,5.2188686162,-2.287
 2291747\H,3.4687687972,5.8661863785,-1.2589663994\H,2.5632956896,2.633
 4993135,-3.988769653\H,3.0259735494,4.2348164157,-4.5890139953\H,4.244
 5734688,3.1879670981,-3.8392325243\H,1.4905172568,-2.2050425868,-0.028
 8950286\H,2.8071729679,-1.3854607806,-0.8864514343\H,2.7854987292,-1.3
 908484965,0.8736646503\C,-3.6843229292,6.8584723082,-3.1518945735\H,-3
 .5427355006,7.8174701889,-2.6405457328\H,-4.4307094468,7.0173003728,-3
 .939081411\H,-4.0969048314,6.1431676198,-2.4356617548\\Version=EM64L-G
 09RevB.01\State=1-A\HF=-1387.3174831\RMSD=7.676e-09\RMSF=5.723e-06\Dip
 ole=2.211111,-1.2936084,-0.1128246\Quadrupole=-8.8589451,3.7494042,5.1
 095408,1.9588202,-6.6704751,-4.2195426\PG=C01 [X(C26H34O5)]\\@


      THE ONE-EYED VIEW OF OUR UNIVERSE SAYS YOU MUST NOT LOOK
      FAR AFIELD FOR PROBLEMS.  SUCH PROBLEMS MAY NEVER ARRIVE. 
      INSTEAD, TEND TO THE WOLF WITHIN YOUR FENCES.
      THE PACKS RANGING OUTSIDE MAY NOT EVEN EXIST.

                              -- THE AZHAR BOOK SHAMRA I:4
                                 CHILDREN OF DUNE, BY FRANK HERBERT
 Job cpu time:  0 days  5 hours 29 minutes 12.2 seconds.
 File lengths (MBytes):  RWF=    186 Int=      0 D2E=      0 Chk=     20 Scr=      1
 Normal termination of Gaussian 09 at Wed Mar 24 15:53:36 2021.
