 Entering Gaussian System, Link 0=g09
 Initial command:
 /public/software/g09/g09/l1.exe /tmp/Gau-19211.inp -scrdir=/tmp/
 Entering Link 1 = /public/software/g09/g09/l1.exe PID=     19212.
  
 Copyright (c) 1988,1990,1992,1993,1995,1998,2003,2009,2010,
            Gaussian, Inc.  All Rights Reserved.
  
 This is part of the Gaussian(R) 09 program.  It is based on
 the Gaussian(R) 03 system (copyright 2003, Gaussian, Inc.),
 the Gaussian(R) 98 system (copyright 1998, Gaussian, Inc.),
 the Gaussian(R) 94 system (copyright 1995, Gaussian, Inc.),
 the Gaussian 92(TM) system (copyright 1992, Gaussian, Inc.),
 the Gaussian 90(TM) system (copyright 1990, Gaussian, Inc.),
 the Gaussian 88(TM) system (copyright 1988, Gaussian, Inc.),
 the Gaussian 86(TM) system (copyright 1986, Carnegie Mellon
 University), and the Gaussian 82(TM) system (copyright 1983,
 Carnegie Mellon University). Gaussian is a federally registered
 trademark of Gaussian, Inc.
  
 This software contains proprietary and confidential information,
 including trade secrets, belonging to Gaussian, Inc.
  
 This software is provided under written license and may be
 used, copied, transmitted, or stored only in accord with that
 written license.
  
 The following legend is applicable only to US Government
 contracts under FAR:
  
                    RESTRICTED RIGHTS LEGEND
  
 Use, reproduction and disclosure by the US Government is
 subject to restrictions as set forth in subparagraphs (a)
 and (c) of the Commercial Computer Software - Restricted
 Rights clause in FAR 52.227-19.
  
 Gaussian, Inc.
 340 Quinnipiac St., Bldg. 40, Wallingford CT 06492
  
  
 ---------------------------------------------------------------
 Warning -- This program may not be used in any manner that
 competes with the business of Gaussian, Inc. or will provide
 assistance to any competitor of Gaussian, Inc.  The licensee
 of this program is prohibited from giving any competitor of
 Gaussian, Inc. access to this program.  By using this program,
 the user acknowledges that Gaussian, Inc. is engaged in the
 business of creating and licensing software in the field of
 computational chemistry and represents and warrants to the
 licensee that it is not a competitor of Gaussian, Inc. and that
 it will not use this program in any manner prohibited above.
 ---------------------------------------------------------------
  

 Cite this work as:
 Gaussian 09, Revision B.01,
 M. J. Frisch, G. W. Trucks, H. B. Schlegel, G. E. Scuseria, 
 M. A. Robb, J. R. Cheeseman, G. Scalmani, V. Barone, B. Mennucci, 
 G. A. Petersson, H. Nakatsuji, M. Caricato, X. Li, H. P. Hratchian, 
 A. F. Izmaylov, J. Bloino, G. Zheng, J. L. Sonnenberg, M. Hada, 
 M. Ehara, K. Toyota, R. Fukuda, J. Hasegawa, M. Ishida, T. Nakajima, 
 Y. Honda, O. Kitao, H. Nakai, T. Vreven, J. A. Montgomery, Jr., 
 J. E. Peralta, F. Ogliaro, M. Bearpark, J. J. Heyd, E. Brothers, 
 K. N. Kudin, V. N. Staroverov, T. Keith, R. Kobayashi, J. Normand, 
 K. Raghavachari, A. Rendell, J. C. Burant, S. S. Iyengar, J. Tomasi, 
 M. Cossi, N. Rega, J. M. Millam, M. Klene, J. E. Knox, J. B. Cross, 
 V. Bakken, C. Adamo, J. Jaramillo, R. Gomperts, R. E. Stratmann, 
 O. Yazyev, A. J. Austin, R. Cammi, C. Pomelli, J. W. Ochterski, 
 R. L. Martin, K. Morokuma, V. G. Zakrzewski, G. A. Voth, 
 P. Salvador, J. J. Dannenberg, S. Dapprich, A. D. Daniels, 
 O. Farkas, J. B. Foresman, J. V. Ortiz, J. Cioslowski, 
 and D. J. Fox, Gaussian, Inc., Wallingford CT, 2010.
 
 ******************************************
 Gaussian 09:  EM64L-G09RevB.01 12-Aug-2010
                24-Mar-2021 
 ******************************************
 %mem=600MW
 %nprocshared=10
 Will use up to   10 processors via shared memory.
 ---------------------------------------
 # opt rb3lyp/6-31g(d) geom=connectivity
 ---------------------------------------
 1/14=-1,18=20,19=15,26=3,38=1,57=2/1,3;
 2/9=110,12=2,17=6,18=5,40=1/2;
 3/5=1,6=6,7=1,11=2,16=1,25=1,30=1,71=1,74=-5,116=1/1,2,3;
 4//1;
 5/5=2,38=5/2;
 6/7=2,8=2,9=2,10=2,28=1/1;
 7//1,2,3,16;
 1/14=-1,18=20,19=15/3(2);
 2/9=110/2;
 99//99;
 2/9=110/2;
 3/5=1,6=6,7=1,11=2,16=1,25=1,30=1,71=1,74=-5,116=1/1,2,3;
 4/5=5,16=3/1;
 5/5=2,38=5/2;
 7//1,2,3,16;
 1/14=-1,18=20,19=15/3(-5);
 2/9=110/2;
 6/7=2,8=2,9=2,10=2,19=2,28=1/1;
 99/9=1/99;
 -------------------
 Title Card Required
 -------------------
 Symbolic Z-matrix:
 Charge =  0 Multiplicity = 1
 C                     0.        0.        0. 
 C                     1.3408    0.        0. 
 C                     2.1193    1.2896    0. 
 C                     1.382     2.5388    0.57 
 C                    -0.1547    2.436     0.7378 
 C                    -0.8       1.2618   -0.0283 
 C                     1.8739    3.7069   -0.316 
 C                     0.8873    4.2107   -1.3119 
 C                    -0.4253    4.2605   -1.0675 
 C                    -0.8747    3.6972    0.2267 
 C                    -1.3951    4.7031   -2.0912 
 O                    -2.2551    3.911    -2.4773 
 C                    -1.315     6.1467   -2.5795 
 C                    -1.6598    6.2571   -4.0725 
 C                    -2.2816    6.9844   -1.7432 
 O                    -1.8478    4.1874    0.7958 
 C                     2.956     3.1763   -1.2368 
 C                     2.8316    4.0765   -2.4808 
 O                     1.4429    4.4813   -2.5535 
 C                     2.5534    1.7065   -1.4107 
 O                     2.3349    4.8053    0.4584 
 C                    -0.3536    2.2826    2.2586 
 C                     1.0431    2.1156    2.8311 
 O                     1.9121    2.7741    1.9063 
 C                     1.2401    2.6998    4.2072 
 C                     1.2498    4.1988    4.3426 
 C                     1.417     1.9105    5.2807 
 C                     3.6831    5.3505   -2.3643 
 C                     3.1899    3.368    -3.7898 
 H                     3.9575    3.2387   -0.7932 
 H                     3.0254    1.1299    0.6034 
 C                     2.1364   -1.2738   -0.0234 
 H                    -0.5522   -0.9368   -0.0336 
 H                    -1.795     1.0582    0.3896 
 H                    -0.9751    1.5124   -1.0826 
 H                    -0.3015    6.534    -2.4238 
 H                    -2.6395    5.8085   -4.277 
 H                    -1.7317    7.3155   -4.3518 
 H                    -2.2405    8.0382   -2.0373 
 H                    -2.0325    6.9228   -0.6781 
 H                    -3.3142    6.6368   -1.8601 
 H                     3.3922    1.1045   -1.7763 
 H                     1.724     1.5874   -2.1189 
 H                     2.5431    4.4342    1.3423 
 H                    -0.9788    1.4245    2.532 
 H                    -0.8466    3.1584    2.6929 
 H                     1.3147    1.052     2.8309 
 H                     2.0775    4.6318    3.7722 
 H                     0.3133    4.6321    3.98 
 H                     1.372     4.5141    5.3847 
 H                     1.4184    0.8279    5.1985 
 H                     1.5659    2.3261    6.2729 
 H                     3.3959    5.962    -1.504 
 H                     3.5412    5.9909   -3.2429 
 H                     4.7482    5.1112   -2.2803 
 H                     4.2085    2.968    -3.7627 
 H                     3.1132    4.059    -4.6377 
 H                     2.4946    2.553    -4.0149 
 H                     1.4934   -2.1601   -0.0355 
 H                     2.7718   -1.3114   -0.9138 
 H                     2.7747   -1.3382    0.8637 
 C                    -0.6174    5.599    -4.967 
 H                    -0.5483    4.5233   -4.7789 
 H                     0.3709    6.0421   -4.8086 
 H                    -0.8842    5.7378   -6.0195 
 

 GradGradGradGradGradGradGradGradGradGradGradGradGradGradGradGradGradGrad
 Berny optimization.
 Initialization pass.
                           ----------------------------
                           !    Initial Parameters    !
                           ! (Angstroms and Degrees)  !
 --------------------------                            --------------------------
 ! Name  Definition              Value          Derivative Info.                !
 --------------------------------------------------------------------------------
 ! R1    R(1,2)                  1.3408         estimate D2E/DX2                !
 ! R2    R(1,6)                  1.4943         estimate D2E/DX2                !
 ! R3    R(1,33)                 1.088          estimate D2E/DX2                !
 ! R4    R(2,3)                  1.5064         estimate D2E/DX2                !
 ! R5    R(2,32)                 1.502          estimate D2E/DX2                !
 ! R6    R(3,4)                  1.5585         estimate D2E/DX2                !
 ! R7    R(3,20)                 1.5337         estimate D2E/DX2                !
 ! R8    R(3,31)                 1.1003         estimate D2E/DX2                !
 ! R9    R(4,5)                  1.5492         estimate D2E/DX2                !
 ! R10   R(4,7)                  1.5464         estimate D2E/DX2                !
 ! R11   R(4,24)                 1.4567         estimate D2E/DX2                !
 ! R12   R(5,6)                  1.5434         estimate D2E/DX2                !
 ! R13   R(5,10)                 1.5396         estimate D2E/DX2                !
 ! R14   R(5,22)                 1.5414         estimate D2E/DX2                !
 ! R15   R(6,34)                 1.0982         estimate D2E/DX2                !
 ! R16   R(6,35)                 1.0977         estimate D2E/DX2                !
 ! R17   R(7,8)                  1.4896         estimate D2E/DX2                !
 ! R18   R(7,17)                 1.5167         estimate D2E/DX2                !
 ! R19   R(7,21)                 1.4208         estimate D2E/DX2                !
 ! R20   R(8,9)                  1.3361         estimate D2E/DX2                !
 ! R21   R(8,19)                 1.3869         estimate D2E/DX2                !
 ! R22   R(9,10)                 1.4813         estimate D2E/DX2                !
 ! R23   R(9,11)                 1.478          estimate D2E/DX2                !
 ! R24   R(10,16)                1.2293         estimate D2E/DX2                !
 ! R25   R(11,12)                1.2313         estimate D2E/DX2                !
 ! R26   R(11,13)                1.5261         estimate D2E/DX2                !
 ! R27   R(13,14)                1.5363         estimate D2E/DX2                !
 ! R28   R(13,15)                1.5282         estimate D2E/DX2                !
 ! R29   R(13,36)                1.0961         estimate D2E/DX2                !
 ! R30   R(14,37)                1.0968         estimate D2E/DX2                !
 ! R31   R(14,38)                1.097          estimate D2E/DX2                !
 ! R32   R(14,62)                1.5231         estimate D2E/DX2                !
 ! R33   R(15,39)                1.0948         estimate D2E/DX2                !
 ! R34   R(15,40)                1.0956         estimate D2E/DX2                !
 ! R35   R(15,41)                1.0958         estimate D2E/DX2                !
 ! R36   R(17,18)                1.5406         estimate D2E/DX2                !
 ! R37   R(17,20)                1.5338         estimate D2E/DX2                !
 ! R38   R(17,30)                1.0971         estimate D2E/DX2                !
 ! R39   R(18,19)                1.4483         estimate D2E/DX2                !
 ! R40   R(18,28)                1.5368         estimate D2E/DX2                !
 ! R41   R(18,29)                1.531          estimate D2E/DX2                !
 ! R42   R(20,42)                1.0953         estimate D2E/DX2                !
 ! R43   R(20,43)                1.0971         estimate D2E/DX2                !
 ! R44   R(21,44)                0.981          estimate D2E/DX2                !
 ! R45   R(22,23)                1.5187         estimate D2E/DX2                !
 ! R46   R(22,45)                1.0963         estimate D2E/DX2                !
 ! R47   R(22,46)                1.0948         estimate D2E/DX2                !
 ! R48   R(23,24)                1.4297         estimate D2E/DX2                !
 ! R49   R(23,25)                1.5079         estimate D2E/DX2                !
 ! R50   R(23,47)                1.0977         estimate D2E/DX2                !
 ! R51   R(24,44)                1.8634         estimate D2E/DX2                !
 ! R52   R(25,26)                1.5051         estimate D2E/DX2                !
 ! R53   R(25,27)                1.3441         estimate D2E/DX2                !
 ! R54   R(26,48)                1.0945         estimate D2E/DX2                !
 ! R55   R(26,49)                1.0937         estimate D2E/DX2                !
 ! R56   R(26,50)                1.0956         estimate D2E/DX2                !
 ! R57   R(27,51)                1.0857         estimate D2E/DX2                !
 ! R58   R(27,52)                1.086          estimate D2E/DX2                !
 ! R59   R(28,53)                1.0939         estimate D2E/DX2                !
 ! R60   R(28,54)                1.0964         estimate D2E/DX2                !
 ! R61   R(28,55)                1.0949         estimate D2E/DX2                !
 ! R62   R(29,56)                1.0947         estimate D2E/DX2                !
 ! R63   R(29,57)                1.0965         estimate D2E/DX2                !
 ! R64   R(29,58)                1.0947         estimate D2E/DX2                !
 ! R65   R(32,59)                1.095          estimate D2E/DX2                !
 ! R66   R(32,60)                1.0945         estimate D2E/DX2                !
 ! R67   R(32,61)                1.0948         estimate D2E/DX2                !
 ! R68   R(62,63)                1.0942         estimate D2E/DX2                !
 ! R69   R(62,64)                1.0946         estimate D2E/DX2                !
 ! R70   R(62,65)                1.0946         estimate D2E/DX2                !
 ! A1    A(2,1,6)              122.3688         estimate D2E/DX2                !
 ! A2    A(2,1,33)             120.5013         estimate D2E/DX2                !
 ! A3    A(6,1,33)             117.0504         estimate D2E/DX2                !
 ! A4    A(1,2,3)              121.1184         estimate D2E/DX2                !
 ! A5    A(1,2,32)             121.9841         estimate D2E/DX2                !
 ! A6    A(3,2,32)             116.8897         estimate D2E/DX2                !
 ! A7    A(2,3,4)              116.2123         estimate D2E/DX2                !
 ! A8    A(2,3,20)             112.2706         estimate D2E/DX2                !
 ! A9    A(2,3,31)             107.5382         estimate D2E/DX2                !
 ! A10   A(4,3,20)             104.6206         estimate D2E/DX2                !
 ! A11   A(4,3,31)             107.7795         estimate D2E/DX2                !
 ! A12   A(20,3,31)            108.1065         estimate D2E/DX2                !
 ! A13   A(3,4,5)              117.108          estimate D2E/DX2                !
 ! A14   A(3,4,7)              104.2065         estimate D2E/DX2                !
 ! A15   A(3,4,24)             107.0263         estimate D2E/DX2                !
 ! A16   A(5,4,7)              115.321          estimate D2E/DX2                !
 ! A17   A(5,4,24)             105.8018         estimate D2E/DX2                !
 ! A18   A(7,4,24)             106.7268         estimate D2E/DX2                !
 ! A19   A(4,5,6)              114.2952         estimate D2E/DX2                !
 ! A20   A(4,5,10)             111.9356         estimate D2E/DX2                !
 ! A21   A(4,5,22)             103.9727         estimate D2E/DX2                !
 ! A22   A(6,5,10)             105.2432         estimate D2E/DX2                !
 ! A23   A(6,5,22)             111.1047         estimate D2E/DX2                !
 ! A24   A(10,5,22)            110.409          estimate D2E/DX2                !
 ! A25   A(1,6,5)              114.1532         estimate D2E/DX2                !
 ! A26   A(1,6,34)             108.7411         estimate D2E/DX2                !
 ! A27   A(1,6,35)             107.2388         estimate D2E/DX2                !
 ! A28   A(5,6,34)             109.3273         estimate D2E/DX2                !
 ! A29   A(5,6,35)             111.7            estimate D2E/DX2                !
 ! A30   A(34,6,35)            105.2642         estimate D2E/DX2                !
 ! A31   A(4,7,8)              115.3299         estimate D2E/DX2                !
 ! A32   A(4,7,17)             108.0909         estimate D2E/DX2                !
 ! A33   A(4,7,21)             112.0173         estimate D2E/DX2                !
 ! A34   A(8,7,17)             100.659          estimate D2E/DX2                !
 ! A35   A(8,7,21)             108.5315         estimate D2E/DX2                !
 ! A36   A(17,7,21)            111.7072         estimate D2E/DX2                !
 ! A37   A(7,8,9)              122.7504         estimate D2E/DX2                !
 ! A38   A(7,8,19)             113.5266         estimate D2E/DX2                !
 ! A39   A(9,8,19)             123.3704         estimate D2E/DX2                !
 ! A40   A(8,9,10)             116.3399         estimate D2E/DX2                !
 ! A41   A(8,9,11)             121.9448         estimate D2E/DX2                !
 ! A42   A(10,9,11)            121.3301         estimate D2E/DX2                !
 ! A43   A(5,10,9)             117.3669         estimate D2E/DX2                !
 ! A44   A(5,10,16)            122.9011         estimate D2E/DX2                !
 ! A45   A(9,10,16)            119.5382         estimate D2E/DX2                !
 ! A46   A(9,11,12)            118.8717         estimate D2E/DX2                !
 ! A47   A(9,11,13)            118.0651         estimate D2E/DX2                !
 ! A48   A(12,11,13)           123.0159         estimate D2E/DX2                !
 ! A49   A(11,13,14)           111.5408         estimate D2E/DX2                !
 ! A50   A(11,13,15)           108.0734         estimate D2E/DX2                !
 ! A51   A(11,13,36)           109.7146         estimate D2E/DX2                !
 ! A52   A(14,13,15)           110.5164         estimate D2E/DX2                !
 ! A53   A(14,13,36)           108.674          estimate D2E/DX2                !
 ! A54   A(15,13,36)           108.2652         estimate D2E/DX2                !
 ! A55   A(13,14,37)           110.628          estimate D2E/DX2                !
 ! A56   A(13,14,38)           109.3586         estimate D2E/DX2                !
 ! A57   A(13,14,62)           112.7116         estimate D2E/DX2                !
 ! A58   A(37,14,38)           106.775          estimate D2E/DX2                !
 ! A59   A(37,14,62)           108.9724         estimate D2E/DX2                !
 ! A60   A(38,14,62)           108.1925         estimate D2E/DX2                !
 ! A61   A(13,15,39)           110.9076         estimate D2E/DX2                !
 ! A62   A(13,15,40)           110.9396         estimate D2E/DX2                !
 ! A63   A(13,15,41)           111.3316         estimate D2E/DX2                !
 ! A64   A(39,15,40)           107.8625         estimate D2E/DX2                !
 ! A65   A(39,15,41)           108.1823         estimate D2E/DX2                !
 ! A66   A(40,15,41)           107.4658         estimate D2E/DX2                !
 ! A67   A(7,17,18)            103.1914         estimate D2E/DX2                !
 ! A68   A(7,17,20)            102.5211         estimate D2E/DX2                !
 ! A69   A(7,17,30)            112.7            estimate D2E/DX2                !
 ! A70   A(18,17,20)           116.5634         estimate D2E/DX2                !
 ! A71   A(18,17,30)           111.5289         estimate D2E/DX2                !
 ! A72   A(20,17,30)           109.8736         estimate D2E/DX2                !
 ! A73   A(17,18,19)           106.3363         estimate D2E/DX2                !
 ! A74   A(17,18,28)           112.238          estimate D2E/DX2                !
 ! A75   A(17,18,29)           113.6474         estimate D2E/DX2                !
 ! A76   A(19,18,28)           107.6603         estimate D2E/DX2                !
 ! A77   A(19,18,29)           108.1092         estimate D2E/DX2                !
 ! A78   A(28,18,29)           108.5898         estimate D2E/DX2                !
 ! A79   A(8,19,18)            106.5376         estimate D2E/DX2                !
 ! A80   A(3,20,17)            103.3255         estimate D2E/DX2                !
 ! A81   A(3,20,42)            111.9857         estimate D2E/DX2                !
 ! A82   A(3,20,43)            110.503          estimate D2E/DX2                !
 ! A83   A(17,20,42)           111.3161         estimate D2E/DX2                !
 ! A84   A(17,20,43)           112.0642         estimate D2E/DX2                !
 ! A85   A(42,20,43)           107.6873         estimate D2E/DX2                !
 ! A86   A(7,21,44)            105.5162         estimate D2E/DX2                !
 ! A87   A(5,22,23)            105.3195         estimate D2E/DX2                !
 ! A88   A(5,22,45)            113.4233         estimate D2E/DX2                !
 ! A89   A(5,22,46)            111.7076         estimate D2E/DX2                !
 ! A90   A(23,22,45)           110.144          estimate D2E/DX2                !
 ! A91   A(23,22,46)           110.6433         estimate D2E/DX2                !
 ! A92   A(45,22,46)           105.6878         estimate D2E/DX2                !
 ! A93   A(22,23,24)           105.3376         estimate D2E/DX2                !
 ! A94   A(22,23,25)           114.9337         estimate D2E/DX2                !
 ! A95   A(22,23,47)           109.513          estimate D2E/DX2                !
 ! A96   A(24,23,25)           109.4181         estimate D2E/DX2                !
 ! A97   A(24,23,47)           107.2032         estimate D2E/DX2                !
 ! A98   A(25,23,47)           110.0734         estimate D2E/DX2                !
 ! A99   A(4,24,23)            107.325          estimate D2E/DX2                !
 ! A100  A(23,25,26)           117.9555         estimate D2E/DX2                !
 ! A101  A(23,25,27)           121.2344         estimate D2E/DX2                !
 ! A102  A(26,25,27)           120.8059         estimate D2E/DX2                !
 ! A103  A(25,26,48)           110.6093         estimate D2E/DX2                !
 ! A104  A(25,26,49)           111.0516         estimate D2E/DX2                !
 ! A105  A(25,26,50)           111.8947         estimate D2E/DX2                !
 ! A106  A(48,26,49)           108.543          estimate D2E/DX2                !
 ! A107  A(48,26,50)           107.3077         estimate D2E/DX2                !
 ! A108  A(49,26,50)           107.2672         estimate D2E/DX2                !
 ! A109  A(25,27,51)           121.6842         estimate D2E/DX2                !
 ! A110  A(25,27,52)           121.5342         estimate D2E/DX2                !
 ! A111  A(51,27,52)           116.7817         estimate D2E/DX2                !
 ! A112  A(18,28,53)           112.184          estimate D2E/DX2                !
 ! A113  A(18,28,54)           110.594          estimate D2E/DX2                !
 ! A114  A(18,28,55)           111.3237         estimate D2E/DX2                !
 ! A115  A(53,28,54)           105.6482         estimate D2E/DX2                !
 ! A116  A(53,28,55)           108.4972         estimate D2E/DX2                !
 ! A117  A(54,28,55)           108.3628         estimate D2E/DX2                !
 ! A118  A(18,29,56)           111.4515         estimate D2E/DX2                !
 ! A119  A(18,29,57)           110.6808         estimate D2E/DX2                !
 ! A120  A(18,29,58)           111.8212         estimate D2E/DX2                !
 ! A121  A(56,29,57)           108.3313         estimate D2E/DX2                !
 ! A122  A(56,29,58)           108.9091         estimate D2E/DX2                !
 ! A123  A(57,29,58)           105.411          estimate D2E/DX2                !
 ! A124  A(2,32,59)            112.0576         estimate D2E/DX2                !
 ! A125  A(2,32,60)            110.4448         estimate D2E/DX2                !
 ! A126  A(2,32,61)            110.2485         estimate D2E/DX2                !
 ! A127  A(59,32,60)           107.7034         estimate D2E/DX2                !
 ! A128  A(59,32,61)           107.68           estimate D2E/DX2                !
 ! A129  A(60,32,61)           108.5842         estimate D2E/DX2                !
 ! A130  A(14,62,63)           111.5328         estimate D2E/DX2                !
 ! A131  A(14,62,64)           110.9795         estimate D2E/DX2                !
 ! A132  A(14,62,65)           110.0652         estimate D2E/DX2                !
 ! A133  A(63,62,64)           108.425          estimate D2E/DX2                !
 ! A134  A(63,62,65)           107.7786         estimate D2E/DX2                !
 ! A135  A(64,62,65)           107.9313         estimate D2E/DX2                !
 ! D1    D(6,1,2,3)              1.2848         estimate D2E/DX2                !
 ! D2    D(6,1,2,32)          -177.6628         estimate D2E/DX2                !
 ! D3    D(33,1,2,3)           177.9459         estimate D2E/DX2                !
 ! D4    D(33,1,2,32)           -1.0017         estimate D2E/DX2                !
 ! D5    D(2,1,6,5)            -34.2328         estimate D2E/DX2                !
 ! D6    D(2,1,6,34)          -156.5884         estimate D2E/DX2                !
 ! D7    D(2,1,6,35)            90.0605         estimate D2E/DX2                !
 ! D8    D(33,1,6,5)           148.9974         estimate D2E/DX2                !
 ! D9    D(33,1,6,34)           26.6418         estimate D2E/DX2                !
 ! D10   D(33,1,6,35)          -86.7093         estimate D2E/DX2                !
 ! D11   D(1,2,3,4)             24.0574         estimate D2E/DX2                !
 ! D12   D(1,2,3,20)           -96.3174         estimate D2E/DX2                !
 ! D13   D(1,2,3,31)           144.8905         estimate D2E/DX2                !
 ! D14   D(32,2,3,4)          -156.9435         estimate D2E/DX2                !
 ! D15   D(32,2,3,20)           82.6817         estimate D2E/DX2                !
 ! D16   D(32,2,3,31)          -36.1104         estimate D2E/DX2                !
 ! D17   D(1,2,32,59)           -0.236          estimate D2E/DX2                !
 ! D18   D(1,2,32,60)          119.8443         estimate D2E/DX2                !
 ! D19   D(1,2,32,61)         -120.1528         estimate D2E/DX2                !
 ! D20   D(3,2,32,59)         -179.2258         estimate D2E/DX2                !
 ! D21   D(3,2,32,60)          -59.1455         estimate D2E/DX2                !
 ! D22   D(3,2,32,61)           60.8574         estimate D2E/DX2                !
 ! D23   D(2,3,4,5)            -15.193          estimate D2E/DX2                !
 ! D24   D(2,3,4,7)           -143.8913         estimate D2E/DX2                !
 ! D25   D(2,3,4,24)           103.2771         estimate D2E/DX2                !
 ! D26   D(20,3,4,5)           109.2086         estimate D2E/DX2                !
 ! D27   D(20,3,4,7)           -19.4898         estimate D2E/DX2                !
 ! D28   D(20,3,4,24)         -132.3213         estimate D2E/DX2                !
 ! D29   D(31,3,4,5)          -135.8971         estimate D2E/DX2                !
 ! D30   D(31,3,4,7)            95.4046         estimate D2E/DX2                !
 ! D31   D(31,3,4,24)          -17.427          estimate D2E/DX2                !
 ! D32   D(2,3,20,17)          164.7222         estimate D2E/DX2                !
 ! D33   D(2,3,20,42)          -75.3772         estimate D2E/DX2                !
 ! D34   D(2,3,20,43)           44.6746         estimate D2E/DX2                !
 ! D35   D(4,3,20,17)           37.8445         estimate D2E/DX2                !
 ! D36   D(4,3,20,42)          157.7451         estimate D2E/DX2                !
 ! D37   D(4,3,20,43)          -82.2031         estimate D2E/DX2                !
 ! D38   D(31,3,20,17)         -76.8204         estimate D2E/DX2                !
 ! D39   D(31,3,20,42)          43.0802         estimate D2E/DX2                !
 ! D40   D(31,3,20,43)         163.1319         estimate D2E/DX2                !
 ! D41   D(3,4,5,6)            -15.7079         estimate D2E/DX2                !
 ! D42   D(3,4,5,10)          -135.2308         estimate D2E/DX2                !
 ! D43   D(3,4,5,22)           105.586          estimate D2E/DX2                !
 ! D44   D(7,4,5,6)            107.4681         estimate D2E/DX2                !
 ! D45   D(7,4,5,10)           -12.0548         estimate D2E/DX2                !
 ! D46   D(7,4,5,22)          -131.238          estimate D2E/DX2                !
 ! D47   D(24,4,5,6)          -134.8342         estimate D2E/DX2                !
 ! D48   D(24,4,5,10)          105.6429         estimate D2E/DX2                !
 ! D49   D(24,4,5,22)          -13.5403         estimate D2E/DX2                !
 ! D50   D(3,4,7,8)            105.5499         estimate D2E/DX2                !
 ! D51   D(3,4,7,17)            -6.16           estimate D2E/DX2                !
 ! D52   D(3,4,7,21)          -129.6511         estimate D2E/DX2                !
 ! D53   D(5,4,7,8)            -24.226          estimate D2E/DX2                !
 ! D54   D(5,4,7,17)          -135.9358         estimate D2E/DX2                !
 ! D55   D(5,4,7,21)           100.573          estimate D2E/DX2                !
 ! D56   D(24,4,7,8)          -141.4039         estimate D2E/DX2                !
 ! D57   D(24,4,7,17)          106.8862         estimate D2E/DX2                !
 ! D58   D(24,4,7,21)          -16.6049         estimate D2E/DX2                !
 ! D59   D(3,4,24,23)          -94.2564         estimate D2E/DX2                !
 ! D60   D(5,4,24,23)           31.3306         estimate D2E/DX2                !
 ! D61   D(7,4,24,23)          154.641          estimate D2E/DX2                !
 ! D62   D(4,5,6,1)             39.5454         estimate D2E/DX2                !
 ! D63   D(4,5,6,34)           161.5797         estimate D2E/DX2                !
 ! D64   D(4,5,6,35)           -82.3262         estimate D2E/DX2                !
 ! D65   D(10,5,6,1)           162.7629         estimate D2E/DX2                !
 ! D66   D(10,5,6,34)          -75.2027         estimate D2E/DX2                !
 ! D67   D(10,5,6,35)           40.8914         estimate D2E/DX2                !
 ! D68   D(22,5,6,1)           -77.7255         estimate D2E/DX2                !
 ! D69   D(22,5,6,34)           44.3088         estimate D2E/DX2                !
 ! D70   D(22,5,6,35)          160.4029         estimate D2E/DX2                !
 ! D71   D(4,5,10,9)            44.0071         estimate D2E/DX2                !
 ! D72   D(4,5,10,16)         -141.0824         estimate D2E/DX2                !
 ! D73   D(6,5,10,9)           -80.7058         estimate D2E/DX2                !
 ! D74   D(6,5,10,16)           94.2047         estimate D2E/DX2                !
 ! D75   D(22,5,10,9)          159.3212         estimate D2E/DX2                !
 ! D76   D(22,5,10,16)         -25.7683         estimate D2E/DX2                !
 ! D77   D(4,5,22,23)           -7.514          estimate D2E/DX2                !
 ! D78   D(4,5,22,45)         -128.032          estimate D2E/DX2                !
 ! D79   D(4,5,22,46)          112.6511         estimate D2E/DX2                !
 ! D80   D(6,5,22,23)          115.8875         estimate D2E/DX2                !
 ! D81   D(6,5,22,45)           -4.6306         estimate D2E/DX2                !
 ! D82   D(6,5,22,46)         -123.9474         estimate D2E/DX2                !
 ! D83   D(10,5,22,23)        -127.7337         estimate D2E/DX2                !
 ! D84   D(10,5,22,45)         111.7482         estimate D2E/DX2                !
 ! D85   D(10,5,22,46)          -7.5686         estimate D2E/DX2                !
 ! D86   D(4,7,8,9)             35.2762         estimate D2E/DX2                !
 ! D87   D(4,7,8,19)          -138.1115         estimate D2E/DX2                !
 ! D88   D(17,7,8,9)           151.2955         estimate D2E/DX2                !
 ! D89   D(17,7,8,19)          -22.0921         estimate D2E/DX2                !
 ! D90   D(21,7,8,9)           -91.3155         estimate D2E/DX2                !
 ! D91   D(21,7,8,19)           95.2969         estimate D2E/DX2                !
 ! D92   D(4,7,17,18)          150.7484         estimate D2E/DX2                !
 ! D93   D(4,7,17,20)           29.2448         estimate D2E/DX2                !
 ! D94   D(4,7,17,30)          -88.8133         estimate D2E/DX2                !
 ! D95   D(8,7,17,18)           29.452          estimate D2E/DX2                !
 ! D96   D(8,7,17,20)          -92.0515         estimate D2E/DX2                !
 ! D97   D(8,7,17,30)          149.8904         estimate D2E/DX2                !
 ! D98   D(21,7,17,18)         -85.5731         estimate D2E/DX2                !
 ! D99   D(21,7,17,20)         152.9233         estimate D2E/DX2                !
 ! D100  D(21,7,17,30)          34.8652         estimate D2E/DX2                !
 ! D101  D(4,7,21,44)           20.8563         estimate D2E/DX2                !
 ! D102  D(8,7,21,44)          149.3384         estimate D2E/DX2                !
 ! D103  D(17,7,21,44)        -100.5766         estimate D2E/DX2                !
 ! D104  D(7,8,9,10)            -4.0658         estimate D2E/DX2                !
 ! D105  D(7,8,9,11)          -177.0272         estimate D2E/DX2                !
 ! D106  D(19,8,9,10)          168.6713         estimate D2E/DX2                !
 ! D107  D(19,8,9,11)           -4.29           estimate D2E/DX2                !
 ! D108  D(7,8,19,18)            4.0484         estimate D2E/DX2                !
 ! D109  D(9,8,19,18)         -169.2923         estimate D2E/DX2                !
 ! D110  D(8,9,10,5)           -37.2866         estimate D2E/DX2                !
 ! D111  D(8,9,10,16)          147.6245         estimate D2E/DX2                !
 ! D112  D(11,9,10,5)          135.7213         estimate D2E/DX2                !
 ! D113  D(11,9,10,16)         -39.3676         estimate D2E/DX2                !
 ! D114  D(8,9,11,12)          118.0437         estimate D2E/DX2                !
 ! D115  D(8,9,11,13)          -64.3806         estimate D2E/DX2                !
 ! D116  D(10,9,11,12)         -54.5697         estimate D2E/DX2                !
 ! D117  D(10,9,11,13)         123.006          estimate D2E/DX2                !
 ! D118  D(9,11,13,14)         144.6173         estimate D2E/DX2                !
 ! D119  D(9,11,13,15)         -93.7035         estimate D2E/DX2                !
 ! D120  D(9,11,13,36)          24.146          estimate D2E/DX2                !
 ! D121  D(12,11,13,14)        -37.9146         estimate D2E/DX2                !
 ! D122  D(12,11,13,15)         83.7646         estimate D2E/DX2                !
 ! D123  D(12,11,13,36)       -158.3859         estimate D2E/DX2                !
 ! D124  D(11,13,14,37)         54.6627         estimate D2E/DX2                !
 ! D125  D(11,13,14,38)        171.9932         estimate D2E/DX2                !
 ! D126  D(11,13,14,62)        -67.623          estimate D2E/DX2                !
 ! D127  D(15,13,14,37)        -65.5911         estimate D2E/DX2                !
 ! D128  D(15,13,14,38)         51.7394         estimate D2E/DX2                !
 ! D129  D(15,13,14,62)        172.1232         estimate D2E/DX2                !
 ! D130  D(36,13,14,37)        175.7423         estimate D2E/DX2                !
 ! D131  D(36,13,14,38)        -66.9272         estimate D2E/DX2                !
 ! D132  D(36,13,14,62)         53.4566         estimate D2E/DX2                !
 ! D133  D(11,13,15,39)        178.4052         estimate D2E/DX2                !
 ! D134  D(11,13,15,40)         58.5538         estimate D2E/DX2                !
 ! D135  D(11,13,15,41)        -61.0783         estimate D2E/DX2                !
 ! D136  D(14,13,15,39)        -59.2852         estimate D2E/DX2                !
 ! D137  D(14,13,15,40)       -179.1366         estimate D2E/DX2                !
 ! D138  D(14,13,15,41)         61.2313         estimate D2E/DX2                !
 ! D139  D(36,13,15,39)         59.6299         estimate D2E/DX2                !
 ! D140  D(36,13,15,40)        -60.2215         estimate D2E/DX2                !
 ! D141  D(36,13,15,41)       -179.8536         estimate D2E/DX2                !
 ! D142  D(13,14,62,63)         62.6973         estimate D2E/DX2                !
 ! D143  D(13,14,62,64)        -58.3135         estimate D2E/DX2                !
 ! D144  D(13,14,62,65)       -177.7265         estimate D2E/DX2                !
 ! D145  D(37,14,62,63)        -60.5151         estimate D2E/DX2                !
 ! D146  D(37,14,62,64)        178.4741         estimate D2E/DX2                !
 ! D147  D(37,14,62,65)         59.0611         estimate D2E/DX2                !
 ! D148  D(38,14,62,63)       -176.2517         estimate D2E/DX2                !
 ! D149  D(38,14,62,64)         62.7375         estimate D2E/DX2                !
 ! D150  D(38,14,62,65)        -56.6755         estimate D2E/DX2                !
 ! D151  D(7,17,18,19)         -29.1991         estimate D2E/DX2                !
 ! D152  D(7,17,18,28)          88.2772         estimate D2E/DX2                !
 ! D153  D(7,17,18,29)        -148.0114         estimate D2E/DX2                !
 ! D154  D(20,17,18,19)         82.2787         estimate D2E/DX2                !
 ! D155  D(20,17,18,28)       -160.245          estimate D2E/DX2                !
 ! D156  D(20,17,18,29)        -36.5336         estimate D2E/DX2                !
 ! D157  D(30,17,18,19)       -150.4346         estimate D2E/DX2                !
 ! D158  D(30,17,18,28)        -32.9584         estimate D2E/DX2                !
 ! D159  D(30,17,18,29)         90.7531         estimate D2E/DX2                !
 ! D160  D(7,17,20,3)          -41.1562         estimate D2E/DX2                !
 ! D161  D(7,17,20,42)        -161.5148         estimate D2E/DX2                !
 ! D162  D(7,17,20,43)          77.8168         estimate D2E/DX2                !
 ! D163  D(18,17,20,3)        -153.019          estimate D2E/DX2                !
 ! D164  D(18,17,20,42)         86.6224         estimate D2E/DX2                !
 ! D165  D(18,17,20,43)        -34.0459         estimate D2E/DX2                !
 ! D166  D(30,17,20,3)          78.8847         estimate D2E/DX2                !
 ! D167  D(30,17,20,42)        -41.4739         estimate D2E/DX2                !
 ! D168  D(30,17,20,43)       -162.1422         estimate D2E/DX2                !
 ! D169  D(17,18,19,8)          15.9266         estimate D2E/DX2                !
 ! D170  D(28,18,19,8)        -104.551          estimate D2E/DX2                !
 ! D171  D(29,18,19,8)         138.3126         estimate D2E/DX2                !
 ! D172  D(17,18,28,53)        -59.8791         estimate D2E/DX2                !
 ! D173  D(17,18,28,54)       -177.5504         estimate D2E/DX2                !
 ! D174  D(17,18,28,55)         61.9222         estimate D2E/DX2                !
 ! D175  D(19,18,28,53)         56.8056         estimate D2E/DX2                !
 ! D176  D(19,18,28,54)        -60.8657         estimate D2E/DX2                !
 ! D177  D(19,18,28,55)        178.6069         estimate D2E/DX2                !
 ! D178  D(29,18,28,53)        173.6289         estimate D2E/DX2                !
 ! D179  D(29,18,28,54)         55.9577         estimate D2E/DX2                !
 ! D180  D(29,18,28,55)        -64.5697         estimate D2E/DX2                !
 ! D181  D(17,18,29,56)        -57.7189         estimate D2E/DX2                !
 ! D182  D(17,18,29,57)       -178.3508         estimate D2E/DX2                !
 ! D183  D(17,18,29,58)         64.4483         estimate D2E/DX2                !
 ! D184  D(19,18,29,56)       -175.5106         estimate D2E/DX2                !
 ! D185  D(19,18,29,57)         63.8575         estimate D2E/DX2                !
 ! D186  D(19,18,29,58)        -53.3434         estimate D2E/DX2                !
 ! D187  D(28,18,29,56)         67.9544         estimate D2E/DX2                !
 ! D188  D(28,18,29,57)        -52.6775         estimate D2E/DX2                !
 ! D189  D(28,18,29,58)       -169.8785         estimate D2E/DX2                !
 ! D190  D(5,22,23,24)          26.5052         estimate D2E/DX2                !
 ! D191  D(5,22,23,25)         147.0148         estimate D2E/DX2                !
 ! D192  D(5,22,23,47)         -88.4916         estimate D2E/DX2                !
 ! D193  D(45,22,23,24)        149.1552         estimate D2E/DX2                !
 ! D194  D(45,22,23,25)        -90.3352         estimate D2E/DX2                !
 ! D195  D(45,22,23,47)         34.1584         estimate D2E/DX2                !
 ! D196  D(46,22,23,24)        -94.3594         estimate D2E/DX2                !
 ! D197  D(46,22,23,25)         26.1502         estimate D2E/DX2                !
 ! D198  D(46,22,23,47)        150.6438         estimate D2E/DX2                !
 ! D199  D(22,23,24,4)         -36.3509         estimate D2E/DX2                !
 ! D200  D(25,23,24,4)        -160.4199         estimate D2E/DX2                !
 ! D201  D(47,23,24,4)          80.2323         estimate D2E/DX2                !
 ! D202  D(22,23,25,26)        -70.5054         estimate D2E/DX2                !
 ! D203  D(22,23,25,27)        110.2275         estimate D2E/DX2                !
 ! D204  D(24,23,25,26)         47.7348         estimate D2E/DX2                !
 ! D205  D(24,23,25,27)       -131.5323         estimate D2E/DX2                !
 ! D206  D(47,23,25,26)        165.2961         estimate D2E/DX2                !
 ! D207  D(47,23,25,27)        -13.971          estimate D2E/DX2                !
 ! D208  D(23,25,26,48)        -61.9695         estimate D2E/DX2                !
 ! D209  D(23,25,26,49)         58.6146         estimate D2E/DX2                !
 ! D210  D(23,25,26,50)        178.4472         estimate D2E/DX2                !
 ! D211  D(27,25,26,48)        117.301          estimate D2E/DX2                !
 ! D212  D(27,25,26,49)       -122.1149         estimate D2E/DX2                !
 ! D213  D(27,25,26,50)         -2.2823         estimate D2E/DX2                !
 ! D214  D(23,25,27,51)         -0.3907         estimate D2E/DX2                !
 ! D215  D(23,25,27,52)        179.5867         estimate D2E/DX2                !
 ! D216  D(26,25,27,51)       -179.637          estimate D2E/DX2                !
 ! D217  D(26,25,27,52)          0.3404         estimate D2E/DX2                !
 --------------------------------------------------------------------------------
 Trust Radius=3.00D-01 FncErr=1.00D-07 GrdErr=1.00D-06
 Number of steps in this run=    390 maximum allowed number of steps=    390.
 GradGradGradGradGradGradGradGradGradGradGradGradGradGradGradGradGradGrad

 Stoichiometry    C26H34O5
 Framework group  C1[X(C26H34O5)]
 Deg. of freedom   189
 Full point group                 C1      NOp   1
 Largest Abelian subgroup         C1      NOp   1
 Largest concise Abelian subgroup C1      NOp   1
                         Standard orientation:                         
 ---------------------------------------------------------------------
 Center     Atomic      Atomic             Coordinates (Angstroms)
 Number     Number       Type             X           Y           Z
 ---------------------------------------------------------------------
      1          6           0       -1.910769    0.803294    2.767845
      2          6           0       -2.215717    1.796433    1.920244
      3          6           0       -1.720869    1.785174    0.497525
      4          6           0       -1.371251    0.388282   -0.098689
      5          6           0       -1.213355   -0.785904    0.899573
      6          6           0       -1.048114   -0.350530    2.371039
      7          6           0       -0.145625    0.657357   -1.002491
      8          6           0        1.160567    0.188371   -0.461264
      9          6           0        1.283984   -0.927191    0.263594
     10          6           0        0.027985   -1.641942    0.588893
     11          6           0        2.577338   -1.342115    0.846210
     12          8           0        2.677873   -1.427486    2.070424
     13          6           0        3.712983   -1.699917   -0.108318
     14          6           0        5.077192   -1.268863    0.451370
     15          6           0        3.681272   -3.210476   -0.337797
     16          8           0        0.036519   -2.867038    0.689694
     17          6           0        0.089340    2.155168   -1.043782
     18          6           0        1.610075    2.266543   -1.263623
     19          8           0        2.196636    1.089263   -0.657329
     20          6           0       -0.441825    2.612824    0.320423
     21          8           0       -0.315271    0.115930   -2.305095
     22          6           0       -2.499181   -1.613797    0.706774
     23          6           0       -3.374840   -0.785643   -0.217239
     24          8           0       -2.468572    0.014214   -0.980748
     25          6           0       -4.247361   -1.585137   -1.151726
     26          6           0       -3.579949   -2.328129   -2.277760
     27          6           0       -5.581988   -1.624043   -0.996977
     28          6           0        1.984350    2.258977   -2.754114
     29          6           0        2.236335    3.500904   -0.609417
     30          1           0       -0.470870    2.649627   -1.847120
     31          1           0       -2.506565    2.231361   -0.130338
     32          6           0       -3.041092    2.977982    2.343083
     33          1           0       -2.245628    0.837923    3.802407
     34          1           0       -1.271693   -1.200945    3.029009
     35          1           0       -0.010365   -0.074185    2.598461
     36          1           0        3.556174   -1.202608   -1.072435
     37          1           0        5.234521   -1.689108    1.452128
     38          1           0        5.874769   -1.666788   -0.188095
     39          1           0        4.462927   -3.515301   -1.041200
     40          1           0        2.716281   -3.523499   -0.751431
     41          1           0        3.831189   -3.759177    0.598795
     42          1           0       -0.645481    3.688986    0.327760
     43          1           0        0.267383    2.402266    1.130562
     44          1           0       -1.283145    0.003126   -2.418394
     45          1           0       -3.028997   -1.820618    1.644045
     46          1           0       -2.288036   -2.592544    0.263870
     47          1           0       -3.990605   -0.099498    0.378622
     48          1           0       -3.073337   -1.630955   -2.952464
     49          1           0       -2.842890   -3.040393   -1.896073
     50          1           0       -4.300783   -2.895617   -2.876654
     51          1           0       -6.078739   -1.088909   -0.193452
     52          1           0       -6.215585   -2.192853   -1.671043
     53          1           0        1.660518    1.342929   -3.256630
     54          1           0        3.073095    2.295506   -2.878550
     55          1           0        1.548320    3.115541   -3.278456
     56          1           0        1.773964    4.424364   -0.972342
     57          1           0        3.311359    3.547510   -0.820249
     58          1           0        2.155027    3.468514    0.481764
     59          1           0       -3.346676    2.911722    3.392535
     60          1           0       -2.472678    3.905170    2.219847
     61          1           0       -3.949622    3.042359    1.735671
     62          6           0        5.233119    0.244687    0.519758
     63          1           0        4.502194    0.693431    1.199217
     64          1           0        5.108893    0.696560   -0.469456
     65          1           0        6.231992    0.503188    0.885317
 ---------------------------------------------------------------------
 Rotational constants (GHZ):      0.2223768      0.1246638      0.1093816
 Standard basis: 6-31G(d) (6D, 7F)
 There are   533 symmetry adapted basis functions of A   symmetry.
 Integral buffers will be    131072 words long.
 Raffenetti 2 integral format.
 Two-electron integral symmetry is turned on.
   533 basis functions,  1004 primitive gaussians,   533 cartesian basis functions
   115 alpha electrons      115 beta electrons
       nuclear repulsion energy      3521.5031113304 Hartrees.
 NAtoms=   65 NActive=   65 NUniq=   65 SFac= 1.00D+00 NAtFMM=   50 NAOKFM=T Big=T
 One-electron integrals computed using PRISM.
 NBasis=   533 RedAO= T  NBF=   533
 NBsUse=   533 1.00D-06 NBFU=   533
 Harris functional with IExCor=  402 diagonalized for initial guess.
 ExpMin= 1.61D-01 ExpMax= 5.48D+03 ExpMxC= 8.25D+02 IAcc=1 IRadAn=         1 AccDes= 0.00D+00
 HarFok:  IExCor=  402 AccDes= 0.00D+00 IRadAn=         1 IDoV= 1
 ScaDFX=  1.000000  1.000000  1.000000  1.000000
 FoFCou: FMM=F IPFlag=           0 FMFlag=      100000 FMFlg1=        2001
         NFxFlg=           0 DoJE=T BraDBF=F KetDBF=T FulRan=T
         Omega=  0.000000  0.000000  1.000000  0.000000  0.000000 ICntrl=     500 IOpCl=  0
         NMat0=    1 NMatS0=    1 NMatT0=    0 NMatD0=    1 NMtDS0=    0 NMtDT0=    0
         I1Cent=           4 NGrid=           0.
 Petite list used in FoFCou.
 Initial guess orbital symmetries:
       Occupied  (A) (A) (A) (A) (A) (A) (A) (A) (A) (A) (A) (A)
                 (A) (A) (A) (A) (A) (A) (A) (A) (A) (A) (A) (A)
                 (A) (A) (A) (A) (A) (A) (A) (A) (A) (A) (A) (A)
                 (A) (A) (A) (A) (A) (A) (A) (A) (A) (A) (A) (A)
                 (A) (A) (A) (A) (A) (A) (A) (A) (A) (A) (A) (A)
                 (A) (A) (A) (A) (A) (A) (A) (A) (A) (A) (A) (A)
                 (A) (A) (A) (A) (A) (A) (A) (A) (A) (A) (A) (A)
                 (A) (A) (A) (A) (A) (A) (A) (A) (A) (A) (A) (A)
                 (A) (A) (A) (A) (A) (A) (A) (A) (A) (A) (A) (A)
                 (A) (A) (A) (A) (A) (A) (A)
       Virtual   (A) (A) (A) (A) (A) (A) (A) (A) (A) (A) (A) (A)
                 (A) (A) (A) (A) (A) (A) (A) (A) (A) (A) (A) (A)
                 (A) (A) (A) (A) (A) (A) (A) (A) (A) (A) (A) (A)
                 (A) (A) (A) (A) (A) (A) (A) (A) (A) (A) (A) (A)
                 (A) (A) (A) (A) (A) (A) (A) (A) (A) (A) (A) (A)
                 (A) (A) (A) (A) (A) (A) (A) (A) (A) (A) (A) (A)
                 (A) (A) (A) (A) (A) (A) (A) (A) (A) (A) (A) (A)
                 (A) (A) (A) (A) (A) (A) (A) (A) (A) (A) (A) (A)
                 (A) (A) (A) (A) (A) (A) (A) (A) (A) (A) (A) (A)
                 (A) (A) (A) (A) (A) (A) (A) (A) (A) (A) (A) (A)
                 (A) (A) (A) (A) (A) (A) (A) (A) (A) (A) (A) (A)
                 (A) (A) (A) (A) (A) (A) (A) (A) (A) (A) (A) (A)
                 (A) (A) (A) (A) (A) (A) (A) (A) (A) (A) (A) (A)
                 (A) (A) (A) (A) (A) (A) (A) (A) (A) (A) (A) (A)
                 (A) (A) (A) (A) (A) (A) (A) (A) (A) (A) (A) (A)
                 (A) (A) (A) (A) (A) (A) (A) (A) (A) (A) (A) (A)
                 (A) (A) (A) (A) (A) (A) (A) (A) (A) (A) (A) (A)
                 (A) (A) (A) (A) (A) (A) (A) (A) (A) (A) (A) (A)
                 (A) (A) (A) (A) (A) (A) (A) (A) (A) (A) (A) (A)
                 (A) (A) (A) (A) (A) (A) (A) (A) (A) (A) (A) (A)
                 (A) (A) (A) (A) (A) (A) (A) (A) (A) (A) (A) (A)
                 (A) (A) (A) (A) (A) (A) (A) (A) (A) (A) (A) (A)
                 (A) (A) (A) (A) (A) (A) (A) (A) (A) (A) (A) (A)
                 (A) (A) (A) (A) (A) (A) (A) (A) (A) (A) (A) (A)
                 (A) (A) (A) (A) (A) (A) (A) (A) (A) (A) (A) (A)
                 (A) (A) (A) (A) (A) (A) (A) (A) (A) (A) (A) (A)
                 (A) (A) (A) (A) (A) (A) (A) (A) (A) (A) (A) (A)
                 (A) (A) (A) (A) (A) (A) (A) (A) (A) (A) (A) (A)
                 (A) (A) (A) (A) (A) (A) (A) (A) (A) (A) (A) (A)
                 (A) (A) (A) (A) (A) (A) (A) (A) (A) (A) (A) (A)
                 (A) (A) (A) (A) (A) (A) (A) (A) (A) (A) (A) (A)
                 (A) (A) (A) (A) (A) (A) (A) (A) (A) (A) (A) (A)
                 (A) (A) (A) (A) (A) (A) (A) (A) (A) (A) (A) (A)
                 (A) (A) (A) (A) (A) (A) (A) (A) (A) (A) (A) (A)
                 (A) (A) (A) (A) (A) (A) (A) (A) (A) (A)
 The electronic state of the initial guess is 1-A.
 Requested convergence on RMS density matrix=1.00D-08 within 128 cycles.
 Requested convergence on MAX density matrix=1.00D-06.
 Requested convergence on             energy=1.00D-06.
 No special actions if energy rises.
 Integral accuracy reduced to 1.0D-05 until final iterations.
 Initial convergence to 1.0D-05 achieved.  Increase integral accuracy.
 SCF Done:  E(RB3LYP) =  -1387.30562934     A.U. after   16 cycles
             Convg  =    0.4109D-08             -V/T =  2.0090

 **********************************************************************

            Population analysis using the SCF density.

 **********************************************************************

 Orbital symmetries:
       Occupied  (A) (A) (A) (A) (A) (A) (A) (A) (A) (A) (A) (A)
                 (A) (A) (A) (A) (A) (A) (A) (A) (A) (A) (A) (A)
                 (A) (A) (A) (A) (A) (A) (A) (A) (A) (A) (A) (A)
                 (A) (A) (A) (A) (A) (A) (A) (A) (A) (A) (A) (A)
                 (A) (A) (A) (A) (A) (A) (A) (A) (A) (A) (A) (A)
                 (A) (A) (A) (A) (A) (A) (A) (A) (A) (A) (A) (A)
                 (A) (A) (A) (A) (A) (A) (A) (A) (A) (A) (A) (A)
                 (A) (A) (A) (A) (A) (A) (A) (A) (A) (A) (A) (A)
                 (A) (A) (A) (A) (A) (A) (A) (A) (A) (A) (A) (A)
                 (A) (A) (A) (A) (A) (A) (A)
       Virtual   (A) (A) (A) (A) (A) (A) (A) (A) (A) (A) (A) (A)
                 (A) (A) (A) (A) (A) (A) (A) (A) (A) (A) (A) (A)
                 (A) (A) (A) (A) (A) (A) (A) (A) (A) (A) (A) (A)
                 (A) (A) (A) (A) (A) (A) (A) (A) (A) (A) (A) (A)
                 (A) (A) (A) (A) (A) (A) (A) (A) (A) (A) (A) (A)
                 (A) (A) (A) (A) (A) (A) (A) (A) (A) (A) (A) (A)
                 (A) (A) (A) (A) (A) (A) (A) (A) (A) (A) (A) (A)
                 (A) (A) (A) (A) (A) (A) (A) (A) (A) (A) (A) (A)
                 (A) (A) (A) (A) (A) (A) (A) (A) (A) (A) (A) (A)
                 (A) (A) (A) (A) (A) (A) (A) (A) (A) (A) (A) (A)
                 (A) (A) (A) (A) (A) (A) (A) (A) (A) (A) (A) (A)
                 (A) (A) (A) (A) (A) (A) (A) (A) (A) (A) (A) (A)
                 (A) (A) (A) (A) (A) (A) (A) (A) (A) (A) (A) (A)
                 (A) (A) (A) (A) (A) (A) (A) (A) (A) (A) (A) (A)
                 (A) (A) (A) (A) (A) (A) (A) (A) (A) (A) (A) (A)
                 (A) (A) (A) (A) (A) (A) (A) (A) (A) (A) (A) (A)
                 (A) (A) (A) (A) (A) (A) (A) (A) (A) (A) (A) (A)
                 (A) (A) (A) (A) (A) (A) (A) (A) (A) (A) (A) (A)
                 (A) (A) (A) (A) (A) (A) (A) (A) (A) (A) (A) (A)
                 (A) (A) (A) (A) (A) (A) (A) (A) (A) (A) (A) (A)
                 (A) (A) (A) (A) (A) (A) (A) (A) (A) (A) (A) (A)
                 (A) (A) (A) (A) (A) (A) (A) (A) (A) (A) (A) (A)
                 (A) (A) (A) (A) (A) (A) (A) (A) (A) (A) (A) (A)
                 (A) (A) (A) (A) (A) (A) (A) (A) (A) (A) (A) (A)
                 (A) (A) (A) (A) (A) (A) (A) (A) (A) (A) (A) (A)
                 (A) (A) (A) (A) (A) (A) (A) (A) (A) (A) (A) (A)
                 (A) (A) (A) (A) (A) (A) (A) (A) (A) (A) (A) (A)
                 (A) (A) (A) (A) (A) (A) (A) (A) (A) (A) (A) (A)
                 (A) (A) (A) (A) (A) (A) (A) (A) (A) (A) (A) (A)
                 (A) (A) (A) (A) (A) (A) (A) (A) (A) (A) (A) (A)
                 (A) (A) (A) (A) (A) (A) (A) (A) (A) (A) (A) (A)
                 (A) (A) (A) (A) (A) (A) (A) (A) (A) (A) (A) (A)
                 (A) (A) (A) (A) (A) (A) (A) (A) (A) (A) (A) (A)
                 (A) (A) (A) (A) (A) (A) (A) (A) (A) (A) (A) (A)
                 (A) (A) (A) (A) (A) (A) (A) (A) (A) (A)
 The electronic state is 1-A.
 Alpha  occ. eigenvalues --  -19.19752 -19.16978 -19.14762 -19.13691 -19.13321
 Alpha  occ. eigenvalues --  -10.27702 -10.26999 -10.26658 -10.26343 -10.26164
 Alpha  occ. eigenvalues --  -10.25731 -10.24505 -10.21758 -10.20437 -10.20137
 Alpha  occ. eigenvalues --  -10.20057 -10.19949 -10.19690 -10.19609 -10.19180
 Alpha  occ. eigenvalues --  -10.18907 -10.18802 -10.18683 -10.18647 -10.18505
 Alpha  occ. eigenvalues --  -10.18322 -10.18237 -10.17901 -10.16967 -10.16961
 Alpha  occ. eigenvalues --  -10.15978  -1.08693  -1.06394  -1.03448  -1.02347
 Alpha  occ. eigenvalues --   -1.02033  -0.87715  -0.84112  -0.82697  -0.81592
 Alpha  occ. eigenvalues --   -0.80399  -0.79845  -0.77159  -0.74267  -0.73587
 Alpha  occ. eigenvalues --   -0.72671  -0.71924  -0.69822  -0.69167  -0.68366
 Alpha  occ. eigenvalues --   -0.65217  -0.64057  -0.63211  -0.62046  -0.61140
 Alpha  occ. eigenvalues --   -0.59420  -0.58940  -0.57201  -0.55233  -0.53846
 Alpha  occ. eigenvalues --   -0.53045  -0.51806  -0.51129  -0.50289  -0.49771
 Alpha  occ. eigenvalues --   -0.48766  -0.47811  -0.46940  -0.46363  -0.45881
 Alpha  occ. eigenvalues --   -0.45123  -0.44492  -0.44043  -0.43580  -0.43235
 Alpha  occ. eigenvalues --   -0.43018  -0.42583  -0.42263  -0.41725  -0.41300
 Alpha  occ. eigenvalues --   -0.41208  -0.40756  -0.40509  -0.40250  -0.39928
 Alpha  occ. eigenvalues --   -0.39497  -0.39136  -0.38803  -0.38675  -0.38015
 Alpha  occ. eigenvalues --   -0.37798  -0.37502  -0.36974  -0.36495  -0.36074
 Alpha  occ. eigenvalues --   -0.35783  -0.35546  -0.35165  -0.34732  -0.34301
 Alpha  occ. eigenvalues --   -0.34111  -0.33411  -0.33008  -0.32719  -0.32408
 Alpha  occ. eigenvalues --   -0.32002  -0.31743  -0.31016  -0.28156  -0.27167
 Alpha  occ. eigenvalues --   -0.25272  -0.25009  -0.24437  -0.23701  -0.23398
 Alpha virt. eigenvalues --   -0.04828  -0.02415   0.00811   0.01630   0.03726
 Alpha virt. eigenvalues --    0.06425   0.07879   0.08473   0.09240   0.10150
 Alpha virt. eigenvalues --    0.10423   0.10742   0.11178   0.11661   0.12037
 Alpha virt. eigenvalues --    0.12769   0.13254   0.13359   0.13689   0.13844
 Alpha virt. eigenvalues --    0.14138   0.14557   0.14939   0.15414   0.15812
 Alpha virt. eigenvalues --    0.16089   0.16484   0.16746   0.17017   0.17989
 Alpha virt. eigenvalues --    0.18065   0.18200   0.18697   0.18918   0.19360
 Alpha virt. eigenvalues --    0.19478   0.19546   0.20051   0.20144   0.20432
 Alpha virt. eigenvalues --    0.21012   0.21358   0.21571   0.21844   0.22259
 Alpha virt. eigenvalues --    0.23560   0.24036   0.24225   0.24545   0.25090
 Alpha virt. eigenvalues --    0.25233   0.25529   0.25944   0.26061   0.26578
 Alpha virt. eigenvalues --    0.27102   0.27450   0.28165   0.28307   0.29974
 Alpha virt. eigenvalues --    0.31259   0.31505   0.32448   0.33696   0.34520
 Alpha virt. eigenvalues --    0.35142   0.36042   0.37333   0.37809   0.40419
 Alpha virt. eigenvalues --    0.41897   0.44871   0.45728   0.47456   0.48427
 Alpha virt. eigenvalues --    0.48942   0.49673   0.50147   0.50730   0.51739
 Alpha virt. eigenvalues --    0.51786   0.52163   0.52407   0.53067   0.53206
 Alpha virt. eigenvalues --    0.53384   0.54349   0.54654   0.55580   0.56072
 Alpha virt. eigenvalues --    0.56736   0.57172   0.57704   0.58486   0.59066
 Alpha virt. eigenvalues --    0.59468   0.60341   0.60915   0.61172   0.61782
 Alpha virt. eigenvalues --    0.62252   0.63107   0.63528   0.63776   0.64517
 Alpha virt. eigenvalues --    0.65585   0.66098   0.66231   0.66699   0.67100
 Alpha virt. eigenvalues --    0.67699   0.68202   0.68689   0.69261   0.69881
 Alpha virt. eigenvalues --    0.70187   0.71358   0.71603   0.72357   0.72570
 Alpha virt. eigenvalues --    0.73785   0.74302   0.75083   0.75673   0.76320
 Alpha virt. eigenvalues --    0.76973   0.77236   0.77689   0.78081   0.78975
 Alpha virt. eigenvalues --    0.79444   0.79915   0.80780   0.81978   0.82336
 Alpha virt. eigenvalues --    0.82851   0.83172   0.83840   0.84139   0.84505
 Alpha virt. eigenvalues --    0.85240   0.85580   0.86065   0.86392   0.86700
 Alpha virt. eigenvalues --    0.87562   0.87888   0.88404   0.88606   0.89645
 Alpha virt. eigenvalues --    0.89750   0.90007   0.90284   0.90408   0.91027
 Alpha virt. eigenvalues --    0.91166   0.91281   0.91763   0.91953   0.92059
 Alpha virt. eigenvalues --    0.92366   0.92562   0.93922   0.94399   0.94672
 Alpha virt. eigenvalues --    0.95214   0.95639   0.96324   0.96781   0.97160
 Alpha virt. eigenvalues --    0.97594   0.98068   0.98367   0.98943   0.99322
 Alpha virt. eigenvalues --    1.00106   1.01138   1.01642   1.02929   1.03443
 Alpha virt. eigenvalues --    1.04161   1.05196   1.05565   1.07510   1.08257
 Alpha virt. eigenvalues --    1.08847   1.09925   1.10803   1.12118   1.12534
 Alpha virt. eigenvalues --    1.14112   1.14689   1.15663   1.16323   1.17114
 Alpha virt. eigenvalues --    1.17795   1.18702   1.19280   1.20360   1.20748
 Alpha virt. eigenvalues --    1.20784   1.22296   1.23653   1.26369   1.26678
 Alpha virt. eigenvalues --    1.28702   1.29842   1.30766   1.31109   1.33892
 Alpha virt. eigenvalues --    1.34757   1.37872   1.38189   1.39600   1.40555
 Alpha virt. eigenvalues --    1.41913   1.43668   1.44876   1.45247   1.46224
 Alpha virt. eigenvalues --    1.47833   1.49430   1.49962   1.52177   1.52606
 Alpha virt. eigenvalues --    1.53830   1.54768   1.54963   1.56329   1.57372
 Alpha virt. eigenvalues --    1.58580   1.60944   1.62092   1.62474   1.63430
 Alpha virt. eigenvalues --    1.65561   1.66164   1.67810   1.68253   1.68944
 Alpha virt. eigenvalues --    1.71236   1.72101   1.72936   1.73113   1.74490
 Alpha virt. eigenvalues --    1.74892   1.75826   1.76656   1.77122   1.78312
 Alpha virt. eigenvalues --    1.79365   1.80018   1.80117   1.81130   1.81402
 Alpha virt. eigenvalues --    1.82245   1.83507   1.84118   1.84619   1.86166
 Alpha virt. eigenvalues --    1.86367   1.87461   1.87664   1.88394   1.88417
 Alpha virt. eigenvalues --    1.89433   1.89919   1.90251   1.91174   1.91683
 Alpha virt. eigenvalues --    1.92409   1.93013   1.93494   1.94305   1.95112
 Alpha virt. eigenvalues --    1.95720   1.96080   1.96682   1.96996   1.97688
 Alpha virt. eigenvalues --    1.98057   1.98573   2.00268   2.00435   2.01156
 Alpha virt. eigenvalues --    2.02077   2.02933   2.04185   2.04938   2.05414
 Alpha virt. eigenvalues --    2.06316   2.06421   2.07419   2.08875   2.09150
 Alpha virt. eigenvalues --    2.10406   2.11041   2.11764   2.12637   2.14190
 Alpha virt. eigenvalues --    2.15558   2.16254   2.17741   2.17925   2.19147
 Alpha virt. eigenvalues --    2.20126   2.20353   2.21046   2.21322   2.22619
 Alpha virt. eigenvalues --    2.23585   2.24880   2.25118   2.25847   2.27651
 Alpha virt. eigenvalues --    2.28224   2.28409   2.29222   2.30980   2.31901
 Alpha virt. eigenvalues --    2.32313   2.33292   2.33824   2.34824   2.34988
 Alpha virt. eigenvalues --    2.36277   2.37415   2.37542   2.39953   2.40283
 Alpha virt. eigenvalues --    2.40719   2.41350   2.41569   2.42241   2.44337
 Alpha virt. eigenvalues --    2.45278   2.46072   2.47096   2.47681   2.48128
 Alpha virt. eigenvalues --    2.49217   2.49633   2.51969   2.52740   2.54016
 Alpha virt. eigenvalues --    2.55478   2.56439   2.58707   2.59887   2.60807
 Alpha virt. eigenvalues --    2.62051   2.62398   2.63528   2.65818   2.66089
 Alpha virt. eigenvalues --    2.68230   2.69310   2.70238   2.71867   2.72644
 Alpha virt. eigenvalues --    2.73710   2.74191   2.75778   2.76503   2.78277
 Alpha virt. eigenvalues --    2.78698   2.79954   2.81301   2.81863   2.87573
 Alpha virt. eigenvalues --    2.88704   2.91043   2.93524   2.93959   2.95151
 Alpha virt. eigenvalues --    2.96231   2.98394   2.99320   3.00369   3.02858
 Alpha virt. eigenvalues --    3.04305   3.07361   3.11252   3.16165   3.21480
 Alpha virt. eigenvalues --    3.23569   3.27732   3.99579   4.10817   4.12849
 Alpha virt. eigenvalues --    4.14734   4.15429   4.17046   4.18762   4.21353
 Alpha virt. eigenvalues --    4.23241   4.24229   4.25652   4.26107   4.29804
 Alpha virt. eigenvalues --    4.32810   4.33514   4.38091   4.39768   4.44852
 Alpha virt. eigenvalues --    4.46784   4.50780   4.51994   4.56271   4.61390
 Alpha virt. eigenvalues --    4.65014   4.65772   4.69519   4.70637   4.77667
 Alpha virt. eigenvalues --    4.88028   4.94575   5.25597
          Condensed to atoms (all electrons):
 Mulliken atomic charges:
              1
     1  C   -0.197016
     2  C    0.195513
     3  C   -0.195483
     4  C    0.312595
     5  C   -0.018876
     6  C   -0.331095
     7  C    0.199564
     8  C    0.408834
     9  C   -0.093423
    10  C    0.398748
    11  C    0.426975
    12  O   -0.470794
    13  C   -0.149668
    14  C   -0.248570
    15  C   -0.456106
    16  O   -0.476805
    17  C   -0.152276
    18  C    0.305020
    19  O   -0.536408
    20  C   -0.306749
    21  O   -0.676152
    22  C   -0.332317
    23  C    0.105697
    24  O   -0.589506
    25  C    0.208158
    26  C   -0.518150
    27  C   -0.399753
    28  C   -0.460587
    29  C   -0.464495
    30  H    0.146691
    31  H    0.150300
    32  C   -0.519697
    33  H    0.126613
    34  H    0.164541
    35  H    0.180882
    36  H    0.142917
    37  H    0.154211
    38  H    0.125047
    39  H    0.146755
    40  H    0.163850
    41  H    0.162733
    42  H    0.149834
    43  H    0.162953
    44  H    0.427232
    45  H    0.153601
    46  H    0.185330
    47  H    0.130759
    48  H    0.162701
    49  H    0.169460
    50  H    0.155198
    51  H    0.136572
    52  H    0.141013
    53  H    0.184101
    54  H    0.149682
    55  H    0.141558
    56  H    0.150220
    57  H    0.159903
    58  H    0.158368
    59  H    0.158250
    60  H    0.156119
    61  H    0.155054
    62  C   -0.447505
    63  H    0.154928
    64  H    0.138524
    65  H    0.134425
 Sum of Mulliken atomic charges =   0.00000
 Mulliken charges with hydrogens summed into heavy atoms:
              1
     1  C   -0.070402
     2  C    0.195513
     3  C   -0.045183
     4  C    0.312595
     5  C   -0.018876
     6  C    0.014328
     7  C    0.199564
     8  C    0.408834
     9  C   -0.093423
    10  C    0.398748
    11  C    0.426975
    12  O   -0.470794
    13  C   -0.006751
    14  C    0.030688
    15  C    0.017232
    16  O   -0.476805
    17  C   -0.005585
    18  C    0.305020
    19  O   -0.536408
    20  C    0.006039
    21  O   -0.248920
    22  C    0.006614
    23  C    0.236455
    24  O   -0.589506
    25  C    0.208158
    26  C   -0.030792
    27  C   -0.122168
    28  C    0.014755
    29  C    0.003996
    32  C   -0.050274
    62  C   -0.019627
 Sum of Mulliken charges with hydrogens summed into heavy atoms =   0.00000
 Electronic spatial extent (au):  <R**2>=          11532.5851
 Charge=              0.0000 electrons
 Dipole moment (field-independent basis, Debye):
    X=             -2.7151    Y=              4.4622    Z=             -1.3737  Tot=              5.4009
 Quadrupole moment (field-independent basis, Debye-Ang):
   XX=           -179.0305   YY=           -182.9067   ZZ=           -187.0047
   XY=              2.8284   XZ=             -8.5793   YZ=              4.5507
 Traceless Quadrupole moment (field-independent basis, Debye-Ang):
   XX=              3.9502   YY=              0.0739   ZZ=             -4.0241
   XY=              2.8284   XZ=             -8.5793   YZ=              4.5507
 Octapole moment (field-independent basis, Debye-Ang**2):
  XXX=             -8.5318  YYY=             47.3793  ZZZ=             -6.6117  XYY=              0.3603
  XXY=            -16.0874  XXZ=            -21.1411  XZZ=            -26.7761  YZZ=              6.2752
  YYZ=            -26.4537  XYZ=             -3.7922
 Hexadecapole moment (field-independent basis, Debye-Ang**3):
 XXXX=          -8803.3002 YYYY=          -4102.9441 ZZZZ=          -2461.1296 XXXY=             10.2473
 XXXZ=            -23.1310 YYYX=             -9.3708 YYYZ=             -5.3793 ZZZX=            -29.5080
 ZZZY=             -0.5468 XXYY=          -2118.9869 XXZZ=          -1900.8094 YYZZ=          -1077.9733
 XXYZ=             67.4882 YYXZ=              6.5933 ZZXY=             46.5676
 N-N= 3.521503111330D+03 E-N=-1.026926507960D+04  KE= 1.374865949116D+03
 Calling FoFJK, ICntrl=      2127 FMM=T ISym2X=0 I1Cent= 0 IOpClX= 0 NMat=1 NMatS=1 NMatT=0.
 ***** Axes restored to original set *****
 -------------------------------------------------------------------
 Center     Atomic                   Forces (Hartrees/Bohr)
 Number     Number              X              Y              Z
 -------------------------------------------------------------------
      1        6           0.009625066    0.000256397    0.001180398
      2        6          -0.009467903   -0.006227911    0.004162374
      3        6          -0.007147624   -0.009805300   -0.003513911
      4        6           0.010785520   -0.006607875    0.011329674
      5        6          -0.008201202    0.004599280    0.005397224
      6        6          -0.008128241   -0.008086083   -0.006179626
      7        6           0.021656589    0.014034580    0.009767759
      8        6          -0.005475825   -0.001217865   -0.024438949
      9        6           0.004993608   -0.003037689    0.005149232
     10        6          -0.018484201    0.017173639    0.002313781
     11        6          -0.018536910   -0.007357901   -0.006552319
     12        8           0.008747120    0.012489989    0.003281140
     13        6          -0.004808467    0.000341873   -0.011472062
     14        6           0.001638380   -0.001107489   -0.003726977
     15        6          -0.004100480    0.002389768    0.010882889
     16        8           0.009686009   -0.011186334   -0.001221531
     17        6           0.002731401   -0.006452510   -0.011862217
     18        6           0.029929148    0.005268025   -0.014610376
     19        8          -0.009638482   -0.008632525    0.033668554
     20        6           0.009390444   -0.001685389   -0.005892165
     21        8          -0.003773539    0.004657307    0.005773970
     22        6          -0.007838813   -0.001238912    0.007698940
     23        6           0.004850260   -0.005016275    0.009700838
     24        8          -0.005133674    0.004745705   -0.013509053
     25        6           0.006653439   -0.004774527    0.015157612
     26        6           0.000394818    0.001060165    0.001113639
     27        6          -0.001440883    0.002439511   -0.009690217
     28        6          -0.001840841    0.008339266    0.001841127
     29        6          -0.008565565   -0.000459639   -0.007278776
     30        1          -0.003112997    0.001993033    0.000350236
     31        1          -0.001620547    0.005591094    0.000604660
     32        6          -0.002398918   -0.000529787    0.000184222
     33        1           0.000829348   -0.000902434    0.000005222
     34        1           0.000769751    0.005061190   -0.000354884
     35        1          -0.001835121    0.005554683   -0.000859885
     36        1           0.000940392   -0.002293524    0.001239474
     37        1          -0.000374918    0.000227701    0.003831577
     38        1          -0.001130179    0.001589189    0.002647679
     39        1           0.000994074    0.000169358   -0.001106226
     40        1          -0.001205123    0.000237946    0.000973729
     41        1           0.000615519   -0.000634724   -0.000946018
     42        1          -0.002111656   -0.001541461   -0.001468023
     43        1           0.000253610    0.000686357    0.001075108
     44        1          -0.003079851    0.001205444   -0.004004752
     45        1           0.001029660    0.000491515   -0.002940883
     46        1          -0.000176275    0.001119016   -0.005369389
     47        1          -0.000353020   -0.001255558    0.003401470
     48        1          -0.001348001    0.002262351   -0.002020170
     49        1          -0.000078032    0.003132712   -0.002904496
     50        1          -0.000258043   -0.002541969   -0.000351770
     51        1           0.001077260   -0.001460830    0.000053881
     52        1          -0.001708278   -0.000068365    0.000493865
     53        1           0.000432648   -0.004599093    0.003404151
     54        1           0.000506371   -0.003270913   -0.002283980
     55        1           0.000088703   -0.000747886   -0.000341478
     56        1          -0.000063946    0.000736308    0.001348482
     57        1           0.001965416    0.001451826    0.001815605
     58        1           0.001417782   -0.001930902    0.002528054
     59        1          -0.000640194    0.000849939   -0.000327672
     60        1           0.004062426   -0.001595862   -0.000126450
     61        1           0.004241714   -0.001169620    0.000057701
     62        6           0.000602415   -0.000975507   -0.005289518
     63        1           0.000982179   -0.000167203    0.000166836
     64        1           0.001439747   -0.000964070   -0.000166723
     65        1           0.000746931   -0.000611236   -0.001790604
 -------------------------------------------------------------------
 Cartesian Forces:  Max     0.033668554 RMS     0.006660180

 GradGradGradGradGradGradGradGradGradGradGradGradGradGradGradGradGradGrad
 Berny optimization.
 Internal  Forces:  Max     0.017683904 RMS     0.003425704
 Search for a local minimum.
 Step number   1 out of a maximum of  390
 All quantities printed in internal units (Hartrees-Bohrs-Radians)
 Mixed Optimization -- RFO/linear search
 Second derivative matrix not updated -- first step.
 ITU=  0
     Eigenvalues ---    0.00279   0.00286   0.00356   0.00393   0.00421
     Eigenvalues ---    0.00460   0.00482   0.00545   0.00592   0.00662
     Eigenvalues ---    0.00667   0.00698   0.00719   0.00739   0.00877
     Eigenvalues ---    0.01057   0.01163   0.01242   0.01292   0.01461
     Eigenvalues ---    0.01548   0.01724   0.01731   0.01824   0.02087
     Eigenvalues ---    0.02620   0.02828   0.02828   0.03121   0.03230
     Eigenvalues ---    0.03535   0.03709   0.03883   0.04083   0.04156
     Eigenvalues ---    0.04280   0.04352   0.04473   0.04547   0.04715
     Eigenvalues ---    0.04838   0.04839   0.05019   0.05131   0.05287
     Eigenvalues ---    0.05297   0.05323   0.05338   0.05443   0.05503
     Eigenvalues ---    0.05504   0.05526   0.05557   0.05573   0.05644
     Eigenvalues ---    0.05659   0.05696   0.05888   0.05920   0.06144
     Eigenvalues ---    0.06591   0.06821   0.07122   0.07146   0.07155
     Eigenvalues ---    0.07199   0.07263   0.07318   0.07467   0.07957
     Eigenvalues ---    0.08350   0.08358   0.08622   0.09285   0.09455
     Eigenvalues ---    0.09805   0.10259   0.11453   0.11850   0.12210
     Eigenvalues ---    0.12593   0.13299   0.14526   0.15363   0.15975
     Eigenvalues ---    0.16000   0.16000   0.16000   0.16000   0.16000
     Eigenvalues ---    0.16000   0.16000   0.16000   0.16000   0.16000
     Eigenvalues ---    0.16000   0.16000   0.16000   0.16000   0.16000
     Eigenvalues ---    0.16000   0.16000   0.16000   0.16000   0.16000
     Eigenvalues ---    0.16005   0.16353   0.16524   0.17703   0.18078
     Eigenvalues ---    0.19673   0.20865   0.21917   0.22259   0.22474
     Eigenvalues ---    0.23260   0.24755   0.24899   0.24981   0.24995
     Eigenvalues ---    0.24998   0.24999   0.25000   0.26085   0.26632
     Eigenvalues ---    0.26996   0.27255   0.27364   0.27777   0.28303
     Eigenvalues ---    0.28806   0.28852   0.28933   0.29335   0.29588
     Eigenvalues ---    0.29791   0.30070   0.30220   0.30620   0.31563
     Eigenvalues ---    0.31747   0.31845   0.32165   0.33068   0.33651
     Eigenvalues ---    0.33878   0.33934   0.33935   0.34002   0.34004
     Eigenvalues ---    0.34017   0.34043   0.34073   0.34079   0.34090
     Eigenvalues ---    0.34118   0.34152   0.34174   0.34176   0.34209
     Eigenvalues ---    0.34236   0.34255   0.34258   0.34259   0.34267
     Eigenvalues ---    0.34277   0.34280   0.34284   0.34286   0.34296
     Eigenvalues ---    0.34298   0.34331   0.34370   0.34384   0.34804
     Eigenvalues ---    0.35050   0.35281   0.35312   0.35510   0.36591
     Eigenvalues ---    0.37936   0.41032   0.44482   0.50185   0.53347
     Eigenvalues ---    0.54326   0.56289   0.90548   0.91393
 RFO step:  Lambda=-2.21944768D-02 EMin= 2.79385273D-03
 Linear search not attempted -- first point.
 Iteration  1 RMS(Cart)=  0.09051220 RMS(Int)=  0.00206911
 Iteration  2 RMS(Cart)=  0.00406801 RMS(Int)=  0.00024660
 Iteration  3 RMS(Cart)=  0.00000887 RMS(Int)=  0.00024656
 Iteration  4 RMS(Cart)=  0.00000000 RMS(Int)=  0.00024656
 Variable       Old X    -DE/DX   Delta X   Delta X   Delta X     New X
                                 (Linear)    (Quad)   (Total)
    R1        2.53374  -0.00218   0.00000  -0.00432  -0.00441   2.52934
    R2        2.82382   0.00861   0.00000   0.02519   0.02505   2.84887
    R3        2.05594   0.00036   0.00000   0.00096   0.00096   2.05690
    R4        2.84661   0.00484   0.00000   0.01230   0.01235   2.85897
    R5        2.83842   0.00486   0.00000   0.01413   0.01413   2.85256
    R6        2.94519   0.00656   0.00000   0.01643   0.01641   2.96160
    R7        2.89833   0.01017   0.00000   0.03432   0.03429   2.93261
    R8        2.07923  -0.00182   0.00000  -0.00506  -0.00506   2.07416
    R9        2.92766   0.01137   0.00000   0.03346   0.03336   2.96102
   R10        2.92231   0.00848   0.00000   0.03226   0.03253   2.95484
   R11        2.75283  -0.00552   0.00000  -0.01522  -0.01523   2.73760
   R12        2.91659   0.00494   0.00000   0.01799   0.01795   2.93455
   R13        2.90935   0.00506   0.00000   0.00956   0.00921   2.91856
   R14        2.91283   0.00486   0.00000   0.01582   0.01573   2.92856
   R15        2.07536  -0.00177   0.00000  -0.00490  -0.00490   2.07046
   R16        2.07441   0.00239   0.00000   0.00660   0.00660   2.08101
   R17        2.81500   0.01164   0.00000   0.02673   0.02649   2.84149
   R18        2.86613   0.01516   0.00000   0.05267   0.05216   2.91829
   R19        2.68494   0.00248   0.00000   0.00650   0.00654   2.69148
   R20        2.52484   0.01373   0.00000   0.02452   0.02465   2.54949
   R21        2.62086  -0.01768   0.00000  -0.04090  -0.04061   2.58025
   R22        2.79923   0.00375   0.00000   0.00714   0.00727   2.80650
   R23        2.79294   0.01536   0.00000   0.04149   0.04149   2.83444
   R24        2.32298  -0.01269   0.00000  -0.01356  -0.01356   2.30942
   R25        2.32682  -0.01518   0.00000  -0.01636  -0.01636   2.31046
   R26        2.88382  -0.00033   0.00000  -0.00105  -0.00105   2.88277
   R27        2.90313   0.00318   0.00000   0.01023   0.01023   2.91336
   R28        2.88792   0.00889   0.00000   0.02795   0.02795   2.91586
   R29        2.07132   0.00024   0.00000   0.00066   0.00066   2.07198
   R30        2.07257  -0.00048   0.00000  -0.00131  -0.00131   2.07126
   R31        2.07301   0.00094   0.00000   0.00258   0.00258   2.07560
   R32        2.87824   0.00791   0.00000   0.02450   0.02450   2.90274
   R33        2.06895   0.00050   0.00000   0.00137   0.00137   2.07033
   R34        2.07034   0.00066   0.00000   0.00182   0.00182   2.07215
   R35        2.07074  -0.00028   0.00000  -0.00078  -0.00078   2.06996
   R36        2.91126  -0.00003   0.00000   0.01145   0.01162   2.92288
[...]
     55          1           0        1.448820    2.931372   -3.626946
     56          1           0        1.786426    4.410714   -1.506893
     57          1           0        3.241996    3.443118   -1.208328
     58          1           0        2.022140    3.616235    0.064480
     59          1           0       -3.498557    3.260922    3.165641
     60          1           0       -2.788759    4.181877    1.827373
     61          1           0       -4.177260    3.142123    1.528865
     62          6           0        5.212651    0.173460    1.329634
     63          1           0        4.431621    0.401700    2.062696
     64          1           0        5.171184    0.937642    0.543399
     65          1           0        6.180219    0.266554    1.836012
 ---------------------------------------------------------------------
 Rotational constants (GHZ):      0.2055251      0.1318383      0.1132829

 **********************************************************************

            Population analysis using the SCF density.

 **********************************************************************

 Orbital symmetries:
       Occupied  (A) (A) (A) (A) (A) (A) (A) (A) (A) (A) (A) (A)
                 (A) (A) (A) (A) (A) (A) (A) (A) (A) (A) (A) (A)
                 (A) (A) (A) (A) (A) (A) (A) (A) (A) (A) (A) (A)
                 (A) (A) (A) (A) (A) (A) (A) (A) (A) (A) (A) (A)
                 (A) (A) (A) (A) (A) (A) (A) (A) (A) (A) (A) (A)
                 (A) (A) (A) (A) (A) (A) (A) (A) (A) (A) (A) (A)
                 (A) (A) (A) (A) (A) (A) (A) (A) (A) (A) (A) (A)
                 (A) (A) (A) (A) (A) (A) (A) (A) (A) (A) (A) (A)
                 (A) (A) (A) (A) (A) (A) (A) (A) (A) (A) (A) (A)
                 (A) (A) (A) (A) (A) (A) (A)
       Virtual   (A) (A) (A) (A) (A) (A) (A) (A) (A) (A) (A) (A)
                 (A) (A) (A) (A) (A) (A) (A) (A) (A) (A) (A) (A)
                 (A) (A) (A) (A) (A) (A) (A) (A) (A) (A) (A) (A)
                 (A) (A) (A) (A) (A) (A) (A) (A) (A) (A) (A) (A)
                 (A) (A) (A) (A) (A) (A) (A) (A) (A) (A) (A) (A)
                 (A) (A) (A) (A) (A) (A) (A) (A) (A) (A) (A) (A)
                 (A) (A) (A) (A) (A) (A) (A) (A) (A) (A) (A) (A)
                 (A) (A) (A) (A) (A) (A) (A) (A) (A) (A) (A) (A)
                 (A) (A) (A) (A) (A) (A) (A) (A) (A) (A) (A) (A)
                 (A) (A) (A) (A) (A) (A) (A) (A) (A) (A) (A) (A)
                 (A) (A) (A) (A) (A) (A) (A) (A) (A) (A) (A) (A)
                 (A) (A) (A) (A) (A) (A) (A) (A) (A) (A) (A) (A)
                 (A) (A) (A) (A) (A) (A) (A) (A) (A) (A) (A) (A)
                 (A) (A) (A) (A) (A) (A) (A) (A) (A) (A) (A) (A)
                 (A) (A) (A) (A) (A) (A) (A) (A) (A) (A) (A) (A)
                 (A) (A) (A) (A) (A) (A) (A) (A) (A) (A) (A) (A)
                 (A) (A) (A) (A) (A) (A) (A) (A) (A) (A) (A) (A)
                 (A) (A) (A) (A) (A) (A) (A) (A) (A) (A) (A) (A)
                 (A) (A) (A) (A) (A) (A) (A) (A) (A) (A) (A) (A)
                 (A) (A) (A) (A) (A) (A) (A) (A) (A) (A) (A) (A)
                 (A) (A) (A) (A) (A) (A) (A) (A) (A) (A) (A) (A)
                 (A) (A) (A) (A) (A) (A) (A) (A) (A) (A) (A) (A)
                 (A) (A) (A) (A) (A) (A) (A) (A) (A) (A) (A) (A)
                 (A) (A) (A) (A) (A) (A) (A) (A) (A) (A) (A) (A)
                 (A) (A) (A) (A) (A) (A) (A) (A) (A) (A) (A) (A)
                 (A) (A) (A) (A) (A) (A) (A) (A) (A) (A) (A) (A)
                 (A) (A) (A) (A) (A) (A) (A) (A) (A) (A) (A) (A)
                 (A) (A) (A) (A) (A) (A) (A) (A) (A) (A) (A) (A)
                 (A) (A) (A) (A) (A) (A) (A) (A) (A) (A) (A) (A)
                 (A) (A) (A) (A) (A) (A) (A) (A) (A) (A) (A) (A)
                 (A) (A) (A) (A) (A) (A) (A) (A) (A) (A) (A) (A)
                 (A) (A) (A) (A) (A) (A) (A) (A) (A) (A) (A) (A)
                 (A) (A) (A) (A) (A) (A) (A) (A) (A) (A) (A) (A)
                 (A) (A) (A) (A) (A) (A) (A) (A) (A) (A) (A) (A)
                 (A) (A) (A) (A) (A) (A) (A) (A) (A) (A)
 The electronic state is 1-A.
 Alpha  occ. eigenvalues --  -19.20004 -19.16804 -19.15385 -19.13303 -19.12492
 Alpha  occ. eigenvalues --  -10.27188 -10.27136 -10.27010 -10.26396 -10.26207
 Alpha  occ. eigenvalues --  -10.26072 -10.24598 -10.21354 -10.20701 -10.20466
 Alpha  occ. eigenvalues --  -10.20376 -10.19882 -10.19665 -10.19626 -10.19442
 Alpha  occ. eigenvalues --  -10.19088 -10.19050 -10.18743 -10.18581 -10.18483
 Alpha  occ. eigenvalues --  -10.18169 -10.17944 -10.17458 -10.17079 -10.16930
 Alpha  occ. eigenvalues --  -10.16270  -1.09318  -1.06123  -1.03539  -1.02266
 Alpha  occ. eigenvalues --   -1.02162  -0.87038  -0.83979  -0.82079  -0.81229
 Alpha  occ. eigenvalues --   -0.79966  -0.79446  -0.76907  -0.73845  -0.73131
 Alpha  occ. eigenvalues --   -0.72356  -0.71654  -0.70407  -0.68761  -0.68166
 Alpha  occ. eigenvalues --   -0.64882  -0.64094  -0.63080  -0.61974  -0.60752
 Alpha  occ. eigenvalues --   -0.59222  -0.58836  -0.56698  -0.54843  -0.53468
 Alpha  occ. eigenvalues --   -0.53108  -0.51769  -0.51015  -0.49969  -0.49050
 Alpha  occ. eigenvalues --   -0.48406  -0.47482  -0.47168  -0.46601  -0.46068
 Alpha  occ. eigenvalues --   -0.44890  -0.44520  -0.44172  -0.43353  -0.42938
 Alpha  occ. eigenvalues --   -0.42737  -0.42388  -0.42058  -0.41233  -0.41131
 Alpha  occ. eigenvalues --   -0.40992  -0.40668  -0.40407  -0.40174  -0.39808
 Alpha  occ. eigenvalues --   -0.39467  -0.39134  -0.38775  -0.38649  -0.37874
 Alpha  occ. eigenvalues --   -0.37679  -0.37519  -0.37331  -0.36252  -0.35960
 Alpha  occ. eigenvalues --   -0.35807  -0.35562  -0.35475  -0.34786  -0.34510
 Alpha  occ. eigenvalues --   -0.33822  -0.33561  -0.33065  -0.32799  -0.32177
 Alpha  occ. eigenvalues --   -0.31767  -0.31482  -0.31005  -0.27663  -0.27615
 Alpha  occ. eigenvalues --   -0.25212  -0.24745  -0.24409  -0.23557  -0.22765
 Alpha virt. eigenvalues --   -0.04544  -0.01899   0.00946   0.01491   0.05196
 Alpha virt. eigenvalues --    0.07033   0.08038   0.08546   0.09606   0.10081
 Alpha virt. eigenvalues --    0.10541   0.10983   0.11084   0.12071   0.12933
 Alpha virt. eigenvalues --    0.13050   0.13157   0.13298   0.13726   0.14245
 Alpha virt. eigenvalues --    0.14426   0.14572   0.15037   0.15329   0.15827
 Alpha virt. eigenvalues --    0.16101   0.16286   0.16806   0.16910   0.17462
 Alpha virt. eigenvalues --    0.17862   0.18336   0.18423   0.18815   0.19297
 Alpha virt. eigenvalues --    0.19440   0.19571   0.19600   0.19870   0.20247
 Alpha virt. eigenvalues --    0.20710   0.20956   0.21545   0.21640   0.22558
 Alpha virt. eigenvalues --    0.23293   0.23569   0.23955   0.24386   0.24666
 Alpha virt. eigenvalues --    0.24897   0.25343   0.25661   0.25821   0.26158
 Alpha virt. eigenvalues --    0.26785   0.27334   0.27636   0.28017   0.29427
 Alpha virt. eigenvalues --    0.30906   0.31324   0.32675   0.33211   0.34187
 Alpha virt. eigenvalues --    0.35522   0.36107   0.37355   0.38450   0.39546
 Alpha virt. eigenvalues --    0.41630   0.43762   0.44973   0.46910   0.47981
 Alpha virt. eigenvalues --    0.48630   0.49822   0.49886   0.50332   0.50846
 Alpha virt. eigenvalues --    0.51357   0.51534   0.52392   0.52909   0.53077
 Alpha virt. eigenvalues --    0.53668   0.53755   0.54266   0.54960   0.56583
 Alpha virt. eigenvalues --    0.57018   0.57076   0.57708   0.57877   0.58798
 Alpha virt. eigenvalues --    0.59442   0.60079   0.60545   0.61109   0.61266
 Alpha virt. eigenvalues --    0.61995   0.63049   0.63887   0.64165   0.64632
 Alpha virt. eigenvalues --    0.65052   0.65653   0.66455   0.66817   0.67434
 Alpha virt. eigenvalues --    0.67706   0.68359   0.68551   0.69396   0.69700
 Alpha virt. eigenvalues --    0.70654   0.70858   0.72156   0.72438   0.72890
 Alpha virt. eigenvalues --    0.73865   0.74615   0.74924   0.75854   0.76287
 Alpha virt. eigenvalues --    0.76396   0.76537   0.77382   0.77827   0.78396
 Alpha virt. eigenvalues --    0.78900   0.79653   0.80415   0.81712   0.81959
 Alpha virt. eigenvalues --    0.82666   0.83659   0.84021   0.84334   0.84832
 Alpha virt. eigenvalues --    0.85084   0.85618   0.85778   0.86581   0.87092
 Alpha virt. eigenvalues --    0.87944   0.87990   0.88178   0.88467   0.88909
 Alpha virt. eigenvalues --    0.89026   0.89602   0.89751   0.90757   0.90859
 Alpha virt. eigenvalues --    0.90966   0.91318   0.91376   0.92039   0.92258
 Alpha virt. eigenvalues --    0.92396   0.93193   0.93654   0.93880   0.94183
 Alpha virt. eigenvalues --    0.94745   0.94951   0.96132   0.96456   0.96609
 Alpha virt. eigenvalues --    0.96997   0.97455   0.98613   0.99092   0.99504
 Alpha virt. eigenvalues --    0.99850   1.00711   1.01572   1.02526   1.03496
 Alpha virt. eigenvalues --    1.04084   1.05063   1.06452   1.08243   1.09809
 Alpha virt. eigenvalues --    1.10213   1.10248   1.11846   1.12456   1.13521
 Alpha virt. eigenvalues --    1.14065   1.14115   1.15537   1.16042   1.16792
 Alpha virt. eigenvalues --    1.17690   1.18248   1.19120   1.20538   1.20822
 Alpha virt. eigenvalues --    1.21373   1.22302   1.24212   1.25244   1.27275
 Alpha virt. eigenvalues --    1.27755   1.29041   1.30734   1.32386   1.34335
 Alpha virt. eigenvalues --    1.35697   1.37533   1.38370   1.39379   1.39618
 Alpha virt. eigenvalues --    1.42237   1.42874   1.44465   1.45597   1.46882
 Alpha virt. eigenvalues --    1.47774   1.48505   1.50584   1.50828   1.52556
 Alpha virt. eigenvalues --    1.54383   1.55001   1.55325   1.56432   1.56899
 Alpha virt. eigenvalues --    1.59197   1.60650   1.61410   1.62145   1.62738
 Alpha virt. eigenvalues --    1.64052   1.65684   1.66387   1.68615   1.69113
 Alpha virt. eigenvalues --    1.71252   1.71593   1.71953   1.72658   1.74237
 Alpha virt. eigenvalues --    1.74536   1.74915   1.75437   1.77581   1.77716
 Alpha virt. eigenvalues --    1.78447   1.79440   1.79862   1.80642   1.81021
 Alpha virt. eigenvalues --    1.81841   1.82335   1.83169   1.84255   1.84955
 Alpha virt. eigenvalues --    1.85163   1.86414   1.86912   1.87465   1.87767
 Alpha virt. eigenvalues --    1.88650   1.89104   1.89853   1.90782   1.91005
 Alpha virt. eigenvalues --    1.92273   1.92474   1.93202   1.93718   1.94199
 Alpha virt. eigenvalues --    1.94733   1.95578   1.97166   1.97405   1.97916
 Alpha virt. eigenvalues --    1.98094   1.98653   1.99621   2.00145   2.01349
 Alpha virt. eigenvalues --    2.01528   2.01842   2.03865   2.04425   2.04713
 Alpha virt. eigenvalues --    2.05324   2.06095   2.07458   2.07643   2.08306
 Alpha virt. eigenvalues --    2.10626   2.10840   2.11847   2.12248   2.12307
 Alpha virt. eigenvalues --    2.13612   2.15222   2.16716   2.17647   2.18369
 Alpha virt. eigenvalues --    2.19093   2.19970   2.20921   2.21410   2.22291
 Alpha virt. eigenvalues --    2.23544   2.24243   2.25514   2.26519   2.26848
 Alpha virt. eigenvalues --    2.27707   2.28554   2.28992   2.29876   2.31532
 Alpha virt. eigenvalues --    2.32045   2.32586   2.33159   2.34105   2.35245
 Alpha virt. eigenvalues --    2.36273   2.36832   2.37470   2.37914   2.39986
 Alpha virt. eigenvalues --    2.40099   2.40918   2.41269   2.42118   2.43185
 Alpha virt. eigenvalues --    2.43658   2.44916   2.46522   2.47130   2.49076
 Alpha virt. eigenvalues --    2.49632   2.50477   2.50955   2.52711   2.53312
 Alpha virt. eigenvalues --    2.54675   2.55354   2.57044   2.58320   2.60562
 Alpha virt. eigenvalues --    2.61138   2.62649   2.63189   2.64313   2.65515
 Alpha virt. eigenvalues --    2.66259   2.68153   2.68425   2.69607   2.70910
 Alpha virt. eigenvalues --    2.72192   2.74706   2.75081   2.76769   2.76814
 Alpha virt. eigenvalues --    2.78193   2.78251   2.79852   2.80794   2.84003
 Alpha virt. eigenvalues --    2.87219   2.88292   2.90462   2.94559   2.95308
 Alpha virt. eigenvalues --    2.96167   2.97851   2.99014   3.01107   3.01595
 Alpha virt. eigenvalues --    3.04725   3.06334   3.09457   3.13854   3.17700
 Alpha virt. eigenvalues --    3.24842   3.25960   3.98503   4.08173   4.12040
 Alpha virt. eigenvalues --    4.12351   4.14548   4.15920   4.18394   4.19618
 Alpha virt. eigenvalues --    4.22916   4.24449   4.26911   4.27712   4.29911
 Alpha virt. eigenvalues --    4.31872   4.34044   4.36723   4.40735   4.43793
 Alpha virt. eigenvalues --    4.47607   4.48392   4.54750   4.56181   4.60367
 Alpha virt. eigenvalues --    4.65413   4.68012   4.69084   4.71723   4.76849
 Alpha virt. eigenvalues --    4.87683   4.93757   5.21668
          Condensed to atoms (all electrons):
 Mulliken atomic charges:
              1
     1  C   -0.197240
     2  C    0.202673
     3  C   -0.202178
     4  C    0.326067
     5  C   -0.039187
     6  C   -0.325902
     7  C    0.195355
     8  C    0.400505
     9  C   -0.096971
    10  C    0.416411
    11  C    0.430306
    12  O   -0.466503
    13  C   -0.164464
    14  C   -0.243926
    15  C   -0.455496
    16  O   -0.474655
    17  C   -0.155515
    18  C    0.298404
    19  O   -0.533406
    20  C   -0.307608
    21  O   -0.666625
    22  C   -0.351657
    23  C    0.094662
    24  O   -0.589598
    25  C    0.223856
    26  C   -0.541310
    27  C   -0.403392
    28  C   -0.466737
    29  C   -0.461299
    30  H    0.147532
    31  H    0.147896
    32  C   -0.520858
    33  H    0.126215
    34  H    0.168854
    35  H    0.170028
    36  H    0.146958
    37  H    0.154959
    38  H    0.122950
    39  H    0.146143
    40  H    0.158752
    41  H    0.163071
    42  H    0.151629
    43  H    0.160644
    44  H    0.430109
    45  H    0.153273
    46  H    0.195314
    47  H    0.130833
    48  H    0.160499
    49  H    0.189791
    50  H    0.151809
    51  H    0.137226
    52  H    0.140148
    53  H    0.194143
    54  H    0.156136
    55  H    0.145980
    56  H    0.152381
    57  H    0.163742
    58  H    0.162258
    59  H    0.158194
    60  H    0.154344
    61  H    0.156652
    62  C   -0.452472
    63  H    0.155933
    64  H    0.135064
    65  H    0.139301
 Sum of Mulliken atomic charges =   0.00000
 Mulliken charges with hydrogens summed into heavy atoms:
              1
     1  C   -0.071025
     2  C    0.202673
     3  C   -0.054283
     4  C    0.326067
     5  C   -0.039187
     6  C    0.012980
     7  C    0.195355
     8  C    0.400505
     9  C   -0.096971
    10  C    0.416411
    11  C    0.430306
    12  O   -0.466503
    13  C   -0.017506
    14  C    0.033983
    15  C    0.012470
    16  O   -0.474655
    17  C   -0.007983
    18  C    0.298404
    19  O   -0.533406
    20  C    0.004666
    21  O   -0.236516
    22  C   -0.003071
    23  C    0.225495
    24  O   -0.589598
    25  C    0.223856
    26  C   -0.039211
    27  C   -0.126018
    28  C    0.029522
    29  C    0.017081
    32  C   -0.051667
    62  C   -0.022175
 Sum of Mulliken charges with hydrogens summed into heavy atoms =   0.00000
 Electronic spatial extent (au):  <R**2>=          11329.9005
 Charge=              0.0000 electrons
 Dipole moment (field-independent basis, Debye):
    X=             -2.2482    Y=              5.4272    Z=             -1.9254  Tot=              6.1819
 Quadrupole moment (field-independent basis, Debye-Ang):
   XX=           -178.8681   YY=           -181.9103   ZZ=           -187.5097
   XY=              3.5913   XZ=             -9.7521   YZ=              4.5764
 Traceless Quadrupole moment (field-independent basis, Debye-Ang):
   XX=              3.8946   YY=              0.8524   ZZ=             -4.7470
   XY=              3.5913   XZ=             -9.7521   YZ=              4.5764
 Octapole moment (field-independent basis, Debye-Ang**2):
  XXX=             -9.2265  YYY=             43.3989  ZZZ=             -5.1763  XYY=             -6.4711
  XXY=             -2.9933  XXZ=            -16.2941  XZZ=            -16.9521  YZZ=             17.0474
  YYZ=            -38.1938  XYZ=             -3.2146
 Hexadecapole moment (field-independent basis, Debye-Ang**3):
 XXXX=          -8031.7150 YYYY=          -4383.6685 ZZZZ=          -2633.9048 XXXY=            -10.0400
 XXXZ=            -33.0609 YYYX=             12.5310 YYYZ=              2.9898 ZZZX=            -54.8700
 ZZZY=             -9.8221 XXYY=          -2055.4498 XXZZ=          -1817.4932 YYZZ=          -1161.1840
 XXYZ=             44.2600 YYXZ=             -2.3969 ZZXY=             43.1752
 N-N= 3.523413202737D+03 E-N=-1.027298522330D+04  KE= 1.374461103632D+03
 1\1\GINC-B0800\FOpt\RB3LYP\6-31G(d)\C26H34O5\CAOFEI\24-Mar-2021\0\\# o
 pt rb3lyp/6-31g(d) geom=connectivity\\Title Card Required\\0,1\C,0.095
 2806898,-0.1358872865,-0.2813877873\C,1.4291075044,-0.181245439,-0.179
 1363682\C,2.2200937896,1.1047164799,-0.1009047677\C,1.4966505728,2.316
 3527613,0.5747972268\C,-0.0545182649,2.2122113486,0.6927398805\C,-0.67
 18844124,1.1598335913,-0.2783033066\C,2.0138860268,3.5665865601,-0.229
 1413989\C,0.9854320938,4.1225616791,-1.1959487581\C,-0.3327576183,4.22
 40025732,-0.9023036178\C,-0.7758275645,3.5476622557,0.3468689226\C,-1.
 3821026336,4.817431272,-1.7952998838\O,-2.4573681035,4.2521807064,-1.9
 186895622\C,-1.1038914853,6.1659568598,-2.4627320945\C,-1.8518835094,6
 .3122561325,-3.7970618193\C,-1.5167926518,7.2617865969,-1.4534144265\O
 ,-1.7300878681,3.9349400185,0.9988556933\C,3.1026399506,3.0871546112,-
 1.2145443032\C,2.9973936591,4.0971254093,-2.3797203592\O,1.5607129689,
 4.4827252473,-2.3541953025\C,2.6846878811,1.6310036599,-1.4851789444\O
 ,2.4131269469,4.6161856332,0.6306921248\C,-0.2939224,1.8018828764,2.16
 12181264\C,1.0225877139,2.0652428346,2.9215142928\O,1.980532995,2.4850
 297593,1.9126430611\C,0.9571029183,3.1017545108,4.0251096836\C,0.45193
 551,4.4821554252,3.6826955805\C,1.3272717698,2.7596932919,5.2634826757
 \C,3.8175159584,5.3638410652,-2.1240062451\C,3.2582663686,3.5398816012
 ,-3.7752254696\H,4.0914493209,3.1277238177,-0.747548228\H,3.1198638604
 ,0.941393557,0.5070682129\C,2.2111153166,-1.4686057381,-0.1871361344\H
 ,-0.4729459846,-1.0598276496,-0.3777825595\H,-1.711981708,0.9945205954
 ,0.0235349812\H,-0.7270667349,1.5766066922,-1.2936058681\H,-0.02599306
 27,6.2535705956,-2.6380104699\H,-2.9216418805,6.1548666332,-3.61804645
 94\H,-1.7346648556,7.3480898139,-4.1431082178\H,-1.2848496199,8.253572
 5868,-1.8576809032\H,-0.9900320349,7.1507268137,-0.4994231183\H,-2.592
 7496067,7.2131707899,-1.2529953286\H,3.4913116277,1.0249660443,-1.9092
 532299\H,1.8451678461,1.5892186564,-2.1897820023\H,2.5570291919,4.1744
 425605,1.4941159657\H,-0.5443249016,0.7399039737,2.2231245456\H,-1.137
 0040265,2.3687670615,2.5619322655\H,1.404417326,1.1313660772,3.3501246
 49\H,1.0161766319,4.9257632718,2.8546199791\H,-0.5948941716,4.45991636
 81,3.3573491594\H,0.5282996885,5.1503409225,4.5453983706\H,1.689174899
 8,1.7613460991,5.4982754672\H,1.2754732697,3.4626848714,6.0910548921\H
 ,3.6205133738,5.7591077568,-1.1248561386\H,3.5693276094,6.1276232386,-
 2.8682085623\H,4.8874281238,5.1405431694,-2.2054563477\H,4.300051474,3
 .2112382209,-3.8576741747\H,3.0852746872,4.3148959403,-4.5287351509\H,
 2.607279346,2.692208781,-4.0029365557\H,1.5541071706,-2.3383745618,-0.
 2873462342\H,2.9337323842,-1.4953744106,-1.0146143436\H,2.7932841066,-
 1.584956668,0.7376353763\C,-1.3662845043,5.3498310099,-4.8864006986\H,
 -1.5364814755,4.3079870394,-4.5947249995\H,-0.293688559,5.4749320584,-
 5.0806855073\H,-1.8992629347,5.521791976,-5.8285454852\\Version=EM64L-
 G09RevB.01\State=1-A\HF=-1387.3216623\RMSD=6.765e-09\RMSF=1.329e-06\Di
 pole=2.1749905,-1.0416254,-0.3159776\Quadrupole=-7.8746877,5.7321106,2
 .1425771,0.4670418,-5.0448147,-2.5490158\PG=C01 [X(C26H34O5)]\\@


 My opinions may have changed, but not the fact that I am right.
                       -- Ashleigh Brilliant
 Job cpu time:  0 days 12 hours 47 minutes 44.0 seconds.
 File lengths (MBytes):  RWF=    186 Int=      0 D2E=      0 Chk=     20 Scr=      1
 Normal termination of Gaussian 09 at Wed Mar 24 15:31:26 2021.
