 Entering Gaussian System, Link 0=g09
 Initial command:
 /public/software/g09/g09/l1.exe /tmp/Gau-4992.inp -scrdir=/tmp/
 Entering Link 1 = /public/software/g09/g09/l1.exe PID=      4993.
  
 Copyright (c) 1988,1990,1992,1993,1995,1998,2003,2009,2010,
            Gaussian, Inc.  All Rights Reserved.
  
 This is part of the Gaussian(R) 09 program.  It is based on
 the Gaussian(R) 03 system (copyright 2003, Gaussian, Inc.),
 the Gaussian(R) 98 system (copyright 1998, Gaussian, Inc.),
 the Gaussian(R) 94 system (copyright 1995, Gaussian, Inc.),
 the Gaussian 92(TM) system (copyright 1992, Gaussian, Inc.),
 the Gaussian 90(TM) system (copyright 1990, Gaussian, Inc.),
 the Gaussian 88(TM) system (copyright 1988, Gaussian, Inc.),
 the Gaussian 86(TM) system (copyright 1986, Carnegie Mellon
 University), and the Gaussian 82(TM) system (copyright 1983,
 Carnegie Mellon University). Gaussian is a federally registered
 trademark of Gaussian, Inc.
  
 This software contains proprietary and confidential information,
 including trade secrets, belonging to Gaussian, Inc.
  
 This software is provided under written license and may be
 used, copied, transmitted, or stored only in accord with that
 written license.
  
 The following legend is applicable only to US Government
 contracts under FAR:
  
                    RESTRICTED RIGHTS LEGEND
  
 Use, reproduction and disclosure by the US Government is
 subject to restrictions as set forth in subparagraphs (a)
 and (c) of the Commercial Computer Software - Restricted
 Rights clause in FAR 52.227-19.
  
 Gaussian, Inc.
 340 Quinnipiac St., Bldg. 40, Wallingford CT 06492
  
  
 ---------------------------------------------------------------
 Warning -- This program may not be used in any manner that
 competes with the business of Gaussian, Inc. or will provide
 assistance to any competitor of Gaussian, Inc.  The licensee
 of this program is prohibited from giving any competitor of
 Gaussian, Inc. access to this program.  By using this program,
 the user acknowledges that Gaussian, Inc. is engaged in the
 business of creating and licensing software in the field of
 computational chemistry and represents and warrants to the
 licensee that it is not a competitor of Gaussian, Inc. and that
 it will not use this program in any manner prohibited above.
 ---------------------------------------------------------------
  

 Cite this work as:
 Gaussian 09, Revision B.01,
 M. J. Frisch, G. W. Trucks, H. B. Schlegel, G. E. Scuseria, 
 M. A. Robb, J. R. Cheeseman, G. Scalmani, V. Barone, B. Mennucci, 
 G. A. Petersson, H. Nakatsuji, M. Caricato, X. Li, H. P. Hratchian, 
 A. F. Izmaylov, J. Bloino, G. Zheng, J. L. Sonnenberg, M. Hada, 
 M. Ehara, K. Toyota, R. Fukuda, J. Hasegawa, M. Ishida, T. Nakajima, 
 Y. Honda, O. Kitao, H. Nakai, T. Vreven, J. A. Montgomery, Jr., 
 J. E. Peralta, F. Ogliaro, M. Bearpark, J. J. Heyd, E. Brothers, 
 K. N. Kudin, V. N. Staroverov, T. Keith, R. Kobayashi, J. Normand, 
 K. Raghavachari, A. Rendell, J. C. Burant, S. S. Iyengar, J. Tomasi, 
 M. Cossi, N. Rega, J. M. Millam, M. Klene, J. E. Knox, J. B. Cross, 
 V. Bakken, C. Adamo, J. Jaramillo, R. Gomperts, R. E. Stratmann, 
 O. Yazyev, A. J. Austin, R. Cammi, C. Pomelli, J. W. Ochterski, 
 R. L. Martin, K. Morokuma, V. G. Zakrzewski, G. A. Voth, 
 P. Salvador, J. J. Dannenberg, S. Dapprich, A. D. Daniels, 
 O. Farkas, J. B. Foresman, J. V. Ortiz, J. Cioslowski, 
 and D. J. Fox, Gaussian, Inc., Wallingford CT, 2010.
 
 ******************************************
 Gaussian 09:  EM64L-G09RevB.01 12-Aug-2010
                24-Mar-2021 
 ******************************************
 %mem=600MW
 %nprocshared=10
 Will use up to   10 processors via shared memory.
 ---------------------------------------
 # opt rb3lyp/6-31g(d) geom=connectivity
 ---------------------------------------
 1/14=-1,18=20,19=15,26=3,38=1,57=2/1,3;
 2/9=110,12=2,17=6,18=5,40=1/2;
 3/5=1,6=6,7=1,11=2,16=1,25=1,30=1,71=1,74=-5,116=1/1,2,3;
 4//1;
 5/5=2,38=5/2;
 6/7=2,8=2,9=2,10=2,28=1/1;
 7//1,2,3,16;
 1/14=-1,18=20,19=15/3(2);
 2/9=110/2;
 99//99;
 2/9=110/2;
 3/5=1,6=6,7=1,11=2,16=1,25=1,30=1,71=1,74=-5,116=1/1,2,3;
 4/5=5,16=3/1;
 5/5=2,38=5/2;
 7//1,2,3,16;
 1/14=-1,18=20,19=15/3(-5);
 2/9=110/2;
 6/7=2,8=2,9=2,10=2,19=2,28=1/1;
 99/9=1/99;
 -------------------
 Title Card Required
 -------------------
 Symbolic Z-matrix:
 Charge =  0 Multiplicity = 1
 C                     0.        0.        0. 
 C                     1.3417    0.        0. 
 C                     2.1331    1.2875    0. 
 C                     1.3318    2.5808   -0.3293 
 C                    -0.1549    2.4437   -0.6904 
 C                    -0.8278    1.2451    0.0111 
 C                     2.1525    3.2832   -1.4276 
 C                     1.8109    2.894    -2.8261 
 C                     0.6052    2.4509   -3.1992 
 C                    -0.4774    2.3731   -2.1918 
 C                     0.3704    2.0892   -4.6204 
 O                     0.1802    2.9825   -5.4486 
 C                     0.4307    0.6193   -5.049 
 C                     1.8642    0.1867   -5.3946 
 C                    -0.169    -0.3417   -4.0231 
 O                    -1.6419    2.2399   -2.5741 
 C                     3.5635    2.7411   -1.3574 
 C                     4.0849    2.9745   -2.7912 
 O                     2.9284    2.8361   -3.6552 
 C                     3.3191    1.2704   -0.9817 
 O                     2.1081    4.6944   -1.3113 
 C                    -0.7276    3.7569   -0.1527 
 C                     0.0839    3.9932    1.1152 
 O                     1.3883    3.44      0.8511 
 C                     0.2521    5.411     1.6123 
 C                     1.1472    5.5642    2.8161 
 C                    -0.3517    6.4898    1.0847 
 C                     4.6669    4.3822   -2.9942 
 C                     5.1397    1.9532   -3.2313 
 H                     4.1834    3.2396   -0.6034 
 H                     2.5564    1.3907    1.0102 
 C                     2.1124   -1.2896    0.1008 
 H                    -0.5456   -0.9405    0.0549 
 H                    -1.7929    1.0153   -0.4574 
 H                    -1.0621    1.467     1.0591 
 H                    -0.1914    0.5404   -5.9511 
 H                     2.5207    0.3059   -4.5257 
 H                     1.8676   -0.8821   -5.6428 
 H                    -1.1952   -0.0591   -3.7697 
 H                    -0.2007   -1.361    -4.4234 
 H                     0.4186   -0.3686   -3.1003 
 H                     3.071     0.6617   -1.8597 
 H                     4.2134    0.8296   -0.5269 
 H                     2.1578    4.8915   -0.3546 
 H                    -1.8038    3.7162    0.0494 
 H                    -0.5694    4.5548   -0.8886 
 H                    -0.346     3.4045    1.935 
 H                     0.7956    4.9268    3.6341 
 H                     2.1758    5.2817    2.5701 
 H                     1.1683    6.5943    3.1877 
 H                    -1.0214    6.4324    0.2336 
 H                    -0.195     7.4825    1.4981 
 H                     5.0224    4.5065   -4.0241 
 H                     5.507     4.5663   -2.3168 
 H                     3.9226    5.1694   -2.8488 
 H                     5.4934    2.1747   -4.2452 
 H                     6.0024    1.9554   -2.5574 
 H                     4.7347    0.938    -3.283 
 H                     1.4537   -2.1517    0.2512 
 H                     2.6873   -1.4713   -0.8123 
 H                     2.8036   -1.2527    0.9492 
 C                     2.4565    0.9418   -6.5767 
 H                     2.5801    2.0059   -6.3567 
 H                     3.4442    0.5381   -6.8218 
 H                     1.8215    0.8431   -7.4628 
 

 GradGradGradGradGradGradGradGradGradGradGradGradGradGradGradGradGradGrad
 Berny optimization.
 Initialization pass.
                           ----------------------------
                           !    Initial Parameters    !
                           ! (Angstroms and Degrees)  !
 --------------------------                            --------------------------
 ! Name  Definition              Value          Derivative Info.                !
 --------------------------------------------------------------------------------
 ! R1    R(1,2)                  1.3417         estimate D2E/DX2                !
 ! R2    R(1,6)                  1.4952         estimate D2E/DX2                !
 ! R3    R(1,33)                 1.0887         estimate D2E/DX2                !
 ! R4    R(2,3)                  1.5113         estimate D2E/DX2                !
 ! R5    R(2,32)                 1.5057         estimate D2E/DX2                !
 ! R6    R(3,4)                  1.5566         estimate D2E/DX2                !
 ! R7    R(3,20)                 1.5397         estimate D2E/DX2                !
 ! R8    R(3,31)                 1.1002         estimate D2E/DX2                !
 ! R9    R(4,5)                  1.5361         estimate D2E/DX2                !
 ! R10   R(4,7)                  1.5405         estimate D2E/DX2                !
 ! R11   R(4,24)                 1.4611         estimate D2E/DX2                !
 ! R12   R(5,6)                  1.5432         estimate D2E/DX2                !
 ! R13   R(5,10)                 1.5373         estimate D2E/DX2                !
 ! R14   R(5,22)                 1.5302         estimate D2E/DX2                !
 ! R15   R(6,34)                 1.0971         estimate D2E/DX2                !
 ! R16   R(6,35)                 1.0966         estimate D2E/DX2                !
 ! R17   R(7,8)                  1.4913         estimate D2E/DX2                !
 ! R18   R(7,17)                 1.5132         estimate D2E/DX2                !
 ! R19   R(7,21)                 1.4167         estimate D2E/DX2                !
 ! R20   R(8,9)                  1.3376         estimate D2E/DX2                !
 ! R21   R(8,19)                 1.3927         estimate D2E/DX2                !
 ! R22   R(9,10)                 1.4809         estimate D2E/DX2                !
 ! R23   R(9,11)                 1.4852         estimate D2E/DX2                !
 ! R24   R(10,16)                1.2329         estimate D2E/DX2                !
 ! R25   R(11,12)                1.2329         estimate D2E/DX2                !
 ! R26   R(11,13)                1.5323         estimate D2E/DX2                !
 ! R27   R(13,14)                1.5367         estimate D2E/DX2                !
 ! R28   R(13,15)                1.5283         estimate D2E/DX2                !
 ! R29   R(13,36)                1.0986         estimate D2E/DX2                !
 ! R30   R(14,37)                1.0955         estimate D2E/DX2                !
 ! R31   R(14,38)                1.0972         estimate D2E/DX2                !
 ! R32   R(14,62)                1.5226         estimate D2E/DX2                !
 ! R33   R(15,39)                1.0941         estimate D2E/DX2                !
 ! R34   R(15,40)                1.0955         estimate D2E/DX2                !
 ! R35   R(15,41)                1.0943         estimate D2E/DX2                !
 ! R36   R(17,18)                1.5434         estimate D2E/DX2                !
 ! R37   R(17,20)                1.5375         estimate D2E/DX2                !
 ! R38   R(17,30)                1.096          estimate D2E/DX2                !
 ! R39   R(18,19)                1.4502         estimate D2E/DX2                !
 ! R40   R(18,28)                1.5367         estimate D2E/DX2                !
 ! R41   R(18,29)                1.5328         estimate D2E/DX2                !
 ! R42   R(20,42)                1.0968         estimate D2E/DX2                !
 ! R43   R(20,43)                1.0959         estimate D2E/DX2                !
 ! R44   R(21,44)                0.9781         estimate D2E/DX2                !
 ! R45   R(22,23)                1.5238         estimate D2E/DX2                !
 ! R46   R(22,45)                1.0958         estimate D2E/DX2                !
 ! R47   R(22,46)                1.0969         estimate D2E/DX2                !
 ! R48   R(23,24)                1.4413         estimate D2E/DX2                !
 ! R49   R(23,25)                1.5118         estimate D2E/DX2                !
 ! R50   R(23,47)                1.097          estimate D2E/DX2                !
 ! R51   R(25,26)                1.5079         estimate D2E/DX2                !
 ! R52   R(25,27)                1.3442         estimate D2E/DX2                !
 ! R53   R(26,48)                1.095          estimate D2E/DX2                !
 ! R54   R(26,49)                1.0947         estimate D2E/DX2                !
 ! R55   R(26,50)                1.0953         estimate D2E/DX2                !
 ! R56   R(27,51)                1.0845         estimate D2E/DX2                !
 ! R57   R(27,52)                1.0867         estimate D2E/DX2                !
 ! R58   R(28,53)                1.0966         estimate D2E/DX2                !
 ! R59   R(28,54)                1.0948         estimate D2E/DX2                !
 ! R60   R(28,55)                1.0931         estimate D2E/DX2                !
 ! R61   R(29,56)                1.0964         estimate D2E/DX2                !
 ! R62   R(29,57)                1.0947         estimate D2E/DX2                !
 ! R63   R(29,58)                1.0942         estimate D2E/DX2                !
 ! R64   R(32,59)                1.0953         estimate D2E/DX2                !
 ! R65   R(32,60)                1.0942         estimate D2E/DX2                !
 ! R66   R(32,61)                1.0949         estimate D2E/DX2                !
 ! R67   R(62,63)                1.0936         estimate D2E/DX2                !
 ! R68   R(62,64)                1.0948         estimate D2E/DX2                !
 ! R69   R(62,65)                1.0946         estimate D2E/DX2                !
 ! A1    A(2,1,6)              123.6167         estimate D2E/DX2                !
 ! A2    A(2,1,33)             120.0765         estimate D2E/DX2                !
 ! A3    A(6,1,33)             116.2028         estimate D2E/DX2                !
 ! A4    A(1,2,3)              121.5782         estimate D2E/DX2                !
 ! A5    A(1,2,32)             120.7869         estimate D2E/DX2                !
 ! A6    A(3,2,32)             117.4911         estimate D2E/DX2                !
 ! A7    A(2,3,4)              115.9917         estimate D2E/DX2                !
 ! A8    A(2,3,20)             113.1979         estimate D2E/DX2                !
 ! A9    A(2,3,31)             106.3439         estimate D2E/DX2                !
 ! A10   A(4,3,20)             105.7155         estimate D2E/DX2                !
 ! A11   A(4,3,31)             108.323          estimate D2E/DX2                !
 ! A12   A(20,3,31)            106.8656         estimate D2E/DX2                !
 ! A13   A(3,4,5)              118.281          estimate D2E/DX2                !
 ! A14   A(3,4,7)              104.7973         estimate D2E/DX2                !
 ! A15   A(3,4,24)             107.3232         estimate D2E/DX2                !
 ! A16   A(5,4,7)              112.875          estimate D2E/DX2                !
 ! A17   A(5,4,24)             106.2504         estimate D2E/DX2                !
 ! A18   A(7,4,24)             106.6938         estimate D2E/DX2                !
 ! A19   A(4,5,6)              112.6119         estimate D2E/DX2                !
 ! A20   A(4,5,10)             115.8963         estimate D2E/DX2                !
 ! A21   A(4,5,22)             101.7143         estimate D2E/DX2                !
 ! A22   A(6,5,10)             108.4706         estimate D2E/DX2                !
 ! A23   A(6,5,22)             110.0971         estimate D2E/DX2                !
 ! A24   A(10,5,22)            107.7031         estimate D2E/DX2                !
 ! A25   A(1,6,5)              113.7025         estimate D2E/DX2                !
 ! A26   A(1,6,34)             108.0241         estimate D2E/DX2                !
 ! A27   A(1,6,35)             107.0916         estimate D2E/DX2                !
 ! A28   A(5,6,34)             110.6176         estimate D2E/DX2                !
 ! A29   A(5,6,35)             111.7425         estimate D2E/DX2                !
 ! A30   A(34,6,35)            105.2209         estimate D2E/DX2                !
 ! A31   A(4,7,8)              115.3125         estimate D2E/DX2                !
 ! A32   A(4,7,17)             107.4786         estimate D2E/DX2                !
 ! A33   A(4,7,21)             112.2695         estimate D2E/DX2                !
 ! A34   A(8,7,17)              99.4161         estimate D2E/DX2                !
 ! A35   A(8,7,21)             109.2552         estimate D2E/DX2                !
 ! A36   A(17,7,21)            112.4751         estimate D2E/DX2                !
 ! A37   A(7,8,9)              123.6757         estimate D2E/DX2                !
 ! A38   A(7,8,19)             112.6642         estimate D2E/DX2                !
 ! A39   A(9,8,19)             122.9183         estimate D2E/DX2                !
 ! A40   A(8,9,10)             119.1183         estimate D2E/DX2                !
 ! A41   A(8,9,11)             119.3462         estimate D2E/DX2                !
 ! A42   A(10,9,11)            121.507          estimate D2E/DX2                !
 ! A43   A(5,10,9)             120.5726         estimate D2E/DX2                !
 ! A44   A(5,10,16)            120.3959         estimate D2E/DX2                !
 ! A45   A(9,10,16)            119.029          estimate D2E/DX2                !
 ! A46   A(9,11,12)            119.3891         estimate D2E/DX2                !
 ! A47   A(9,11,13)            119.6737         estimate D2E/DX2                !
 ! A48   A(12,11,13)           120.8783         estimate D2E/DX2                !
 ! A49   A(11,13,14)           111.6946         estimate D2E/DX2                !
 ! A50   A(11,13,15)           113.5782         estimate D2E/DX2                !
 ! A51   A(11,13,36)           106.0383         estimate D2E/DX2                !
 ! A52   A(14,13,15)           109.8766         estimate D2E/DX2                !
 ! A53   A(14,13,36)           108.8645         estimate D2E/DX2                !
 ! A54   A(15,13,36)           106.4892         estimate D2E/DX2                !
 ! A55   A(13,14,37)           110.4874         estimate D2E/DX2                !
 ! A56   A(13,14,38)           109.1458         estimate D2E/DX2                !
 ! A57   A(13,14,62)           113.4449         estimate D2E/DX2                !
 ! A58   A(37,14,38)           106.4714         estimate D2E/DX2                !
 ! A59   A(37,14,62)           109.1891         estimate D2E/DX2                !
 ! A60   A(38,14,62)           107.8331         estimate D2E/DX2                !
 ! A61   A(13,15,39)           111.167          estimate D2E/DX2                !
 ! A62   A(13,15,40)           110.5562         estimate D2E/DX2                !
 ! A63   A(13,15,41)           111.766          estimate D2E/DX2                !
 ! A64   A(39,15,40)           107.325          estimate D2E/DX2                !
 ! A65   A(39,15,41)           108.3402         estimate D2E/DX2                !
 ! A66   A(40,15,41)           107.5046         estimate D2E/DX2                !
 ! A67   A(7,17,18)            102.5762         estimate D2E/DX2                !
 ! A68   A(7,17,20)            101.8764         estimate D2E/DX2                !
 ! A69   A(7,17,30)            113.3512         estimate D2E/DX2                !
 ! A70   A(18,17,20)           115.1737         estimate D2E/DX2                !
 ! A71   A(18,17,30)           112.286          estimate D2E/DX2                !
 ! A72   A(20,17,30)           110.908          estimate D2E/DX2                !
 ! A73   A(17,18,19)           105.642          estimate D2E/DX2                !
 ! A74   A(17,18,28)           112.9038         estimate D2E/DX2                !
 ! A75   A(17,18,29)           113.4817         estimate D2E/DX2                !
 ! A76   A(19,18,28)           108.1038         estimate D2E/DX2                !
 ! A77   A(19,18,29)           108.3089         estimate D2E/DX2                !
 ! A78   A(28,18,29)           108.1683         estimate D2E/DX2                !
 ! A79   A(8,19,18)            106.3346         estimate D2E/DX2                !
 ! A80   A(3,20,17)            105.5231         estimate D2E/DX2                !
 ! A81   A(3,20,42)            110.0188         estimate D2E/DX2                !
 ! A82   A(3,20,43)            111.6208         estimate D2E/DX2                !
 ! A83   A(17,20,42)           111.7909         estimate D2E/DX2                !
 ! A84   A(17,20,43)           110.8829         estimate D2E/DX2                !
 ! A85   A(42,20,43)           107.0729         estimate D2E/DX2                !
 ! A86   A(7,21,44)            106.2274         estimate D2E/DX2                !
 ! A87   A(5,22,23)            103.0702         estimate D2E/DX2                !
 ! A88   A(5,22,45)            113.6099         estimate D2E/DX2                !
 ! A89   A(5,22,46)            109.5436         estimate D2E/DX2                !
 ! A90   A(23,22,45)           112.0452         estimate D2E/DX2                !
 ! A91   A(23,22,46)           111.6301         estimate D2E/DX2                !
 ! A92   A(45,22,46)           107.0017         estimate D2E/DX2                !
 ! A93   A(22,23,24)           105.6637         estimate D2E/DX2                !
 ! A94   A(22,23,25)           118.5729         estimate D2E/DX2                !
 ! A95   A(22,23,47)           109.262          estimate D2E/DX2                !
 ! A96   A(24,23,25)           108.6341         estimate D2E/DX2                !
 ! A97   A(24,23,47)           106.5963         estimate D2E/DX2                !
 ! A98   A(25,23,47)           107.5265         estimate D2E/DX2                !
 ! A99   A(4,24,23)            109.8011         estimate D2E/DX2                !
 ! A100  A(23,25,26)           115.076          estimate D2E/DX2                !
 ! A101  A(23,25,27)           125.0045         estimate D2E/DX2                !
 ! A102  A(26,25,27)           119.8982         estimate D2E/DX2                !
 ! A103  A(25,26,48)           110.2812         estimate D2E/DX2                !
 ! A104  A(25,26,49)           110.6186         estimate D2E/DX2                !
 ! A105  A(25,26,50)           112.1997         estimate D2E/DX2                !
 ! A106  A(48,26,49)           108.6246         estimate D2E/DX2                !
 ! A107  A(48,26,50)           107.4694         estimate D2E/DX2                !
 ! A108  A(49,26,50)           107.5085         estimate D2E/DX2                !
 ! A109  A(25,27,51)           122.8846         estimate D2E/DX2                !
 ! A110  A(25,27,52)           121.27           estimate D2E/DX2                !
 ! A111  A(51,27,52)           115.845          estimate D2E/DX2                !
 ! A112  A(18,28,53)           110.5285         estimate D2E/DX2                !
 ! A113  A(18,28,54)           111.2802         estimate D2E/DX2                !
 ! A114  A(18,28,55)           112.597          estimate D2E/DX2                !
 ! A115  A(53,28,54)           108.2577         estimate D2E/DX2                !
 ! A116  A(53,28,55)           105.3101         estimate D2E/DX2                !
 ! A117  A(54,28,55)           108.6091         estimate D2E/DX2                !
 ! A118  A(18,29,56)           110.6652         estimate D2E/DX2                !
 ! A119  A(18,29,57)           111.36           estimate D2E/DX2                !
 ! A120  A(18,29,58)           112.1511         estimate D2E/DX2                !
 ! A121  A(56,29,57)           108.3385         estimate D2E/DX2                !
 ! A122  A(56,29,58)           105.2563         estimate D2E/DX2                !
 ! A123  A(57,29,58)           108.8221         estimate D2E/DX2                !
 ! A124  A(2,32,59)            112.0542         estimate D2E/DX2                !
 ! A125  A(2,32,60)            110.8109         estimate D2E/DX2                !
 ! A126  A(2,32,61)            110.2501         estimate D2E/DX2                !
 ! A127  A(59,32,60)           107.4488         estimate D2E/DX2                !
 ! A128  A(59,32,61)           107.4432         estimate D2E/DX2                !
 ! A129  A(60,32,61)           108.6942         estimate D2E/DX2                !
 ! A130  A(14,62,63)           111.7357         estimate D2E/DX2                !
 ! A131  A(14,62,64)           109.9919         estimate D2E/DX2                !
 ! A132  A(14,62,65)           110.9833         estimate D2E/DX2                !
 ! A133  A(63,62,64)           107.5696         estimate D2E/DX2                !
 ! A134  A(63,62,65)           108.4304         estimate D2E/DX2                !
 ! A135  A(64,62,65)           107.9922         estimate D2E/DX2                !
 ! D1    D(6,1,2,3)             -0.5108         estimate D2E/DX2                !
 ! D2    D(6,1,2,32)           175.0199         estimate D2E/DX2                !
 ! D3    D(33,1,2,3)          -176.6593         estimate D2E/DX2                !
 ! D4    D(33,1,2,32)           -1.1286         estimate D2E/DX2                !
 ! D5    D(2,1,6,5)             30.2642         estimate D2E/DX2                !
 ! D6    D(2,1,6,34)           153.4439         estimate D2E/DX2                !
 ! D7    D(2,1,6,35)           -93.6703         estimate D2E/DX2                !
 ! D8    D(33,1,6,5)          -153.4503         estimate D2E/DX2                !
 ! D9    D(33,1,6,34)          -30.2706         estimate D2E/DX2                !
 ! D10   D(33,1,6,35)           82.6152         estimate D2E/DX2                !
 ! D11   D(1,2,3,4)            -13.6122         estimate D2E/DX2                !
 ! D12   D(1,2,3,20)          -136.0776         estimate D2E/DX2                !
 ! D13   D(1,2,3,31)           106.8822         estimate D2E/DX2                !
 ! D14   D(32,2,3,4)           170.7158         estimate D2E/DX2                !
 ! D15   D(32,2,3,20)           48.2504         estimate D2E/DX2                !
 ! D16   D(32,2,3,31)          -68.7899         estimate D2E/DX2                !
 ! D17   D(1,2,32,59)           -4.6763         estimate D2E/DX2                !
 ! D18   D(1,2,32,60)          115.3295         estimate D2E/DX2                !
 ! D19   D(1,2,32,61)         -124.2928         estimate D2E/DX2                !
 ! D20   D(3,2,32,59)          171.0318         estimate D2E/DX2                !
 ! D21   D(3,2,32,60)          -68.9624         estimate D2E/DX2                !
 ! D22   D(3,2,32,61)           51.4153         estimate D2E/DX2                !
 ! D23   D(2,3,4,5)             -2.9566         estimate D2E/DX2                !
 ! D24   D(2,3,4,7)           -129.7317         estimate D2E/DX2                !
 ! D25   D(2,3,4,24)           117.0883         estimate D2E/DX2                !
 ! D26   D(20,3,4,5)           123.3737         estimate D2E/DX2                !
 ! D27   D(20,3,4,7)            -3.4014         estimate D2E/DX2                !
 ! D28   D(20,3,4,24)         -116.5815         estimate D2E/DX2                !
 ! D29   D(31,3,4,5)          -122.3791         estimate D2E/DX2                !
 ! D30   D(31,3,4,7)           110.8458         estimate D2E/DX2                !
 ! D31   D(31,3,4,24)           -2.3343         estimate D2E/DX2                !
 ! D32   D(2,3,20,17)          153.525          estimate D2E/DX2                !
 ! D33   D(2,3,20,42)           32.778          estimate D2E/DX2                !
 ! D34   D(2,3,20,43)          -85.9415         estimate D2E/DX2                !
 ! D35   D(4,3,20,17)           25.5082         estimate D2E/DX2                !
 ! D36   D(4,3,20,42)          -95.2388         estimate D2E/DX2                !
 ! D37   D(4,3,20,43)          146.0417         estimate D2E/DX2                !
 ! D38   D(31,3,20,17)         -89.7416         estimate D2E/DX2                !
 ! D39   D(31,3,20,42)         149.5114         estimate D2E/DX2                !
 ! D40   D(31,3,20,43)          30.7919         estimate D2E/DX2                !
 ! D41   D(3,4,5,6)             30.6783         estimate D2E/DX2                !
 ! D42   D(3,4,5,10)           -95.0341         estimate D2E/DX2                !
 ! D43   D(3,4,5,22)           148.4859         estimate D2E/DX2                !
 ! D44   D(7,4,5,6)            153.4821         estimate D2E/DX2                !
 ! D45   D(7,4,5,10)            27.7697         estimate D2E/DX2                !
 ! D46   D(7,4,5,22)           -88.7103         estimate D2E/DX2                !
 ! D47   D(24,4,5,6)           -89.9199         estimate D2E/DX2                !
 ! D48   D(24,4,5,10)          144.3677         estimate D2E/DX2                !
 ! D49   D(24,4,5,22)           27.8877         estimate D2E/DX2                !
 ! D50   D(3,4,7,8)             89.3619         estimate D2E/DX2                !
 ! D51   D(3,4,7,17)           -20.4339         estimate D2E/DX2                !
 ! D52   D(3,4,7,21)          -144.6308         estimate D2E/DX2                !
 ! D53   D(5,4,7,8)            -40.6785         estimate D2E/DX2                !
 ! D54   D(5,4,7,17)          -150.4744         estimate D2E/DX2                !
 ! D55   D(5,4,7,21)            85.3287         estimate D2E/DX2                !
 ! D56   D(24,4,7,8)          -157.0132         estimate D2E/DX2                !
 ! D57   D(24,4,7,17)           93.191          estimate D2E/DX2                !
 ! D58   D(24,4,7,21)          -31.0059         estimate D2E/DX2                !
 ! D59   D(3,4,24,23)         -135.9113         estimate D2E/DX2                !
 ! D60   D(5,4,24,23)           -8.4751         estimate D2E/DX2                !
 ! D61   D(7,4,24,23)          112.1973         estimate D2E/DX2                !
 ! D62   D(4,5,6,1)            -43.3812         estimate D2E/DX2                !
 ! D63   D(4,5,6,34)          -165.1315         estimate D2E/DX2                !
 ! D64   D(4,5,6,35)            77.9943         estimate D2E/DX2                !
 ! D65   D(10,5,6,1)            86.2564         estimate D2E/DX2                !
 ! D66   D(10,5,6,34)          -35.494          estimate D2E/DX2                !
 ! D67   D(10,5,6,35)         -152.3681         estimate D2E/DX2                !
 ! D68   D(22,5,6,1)          -156.1239         estimate D2E/DX2                !
 ! D69   D(22,5,6,34)           82.1258         estimate D2E/DX2                !
 ! D70   D(22,5,6,35)          -34.7483         estimate D2E/DX2                !
 ! D71   D(4,5,10,9)            -0.6463         estimate D2E/DX2                !
 ! D72   D(4,5,10,16)          178.768          estimate D2E/DX2                !
 ! D73   D(6,5,10,9)          -128.4374         estimate D2E/DX2                !
 ! D74   D(6,5,10,16)           50.9769         estimate D2E/DX2                !
 ! D75   D(22,5,10,9)          112.4254         estimate D2E/DX2                !
 ! D76   D(22,5,10,16)         -68.1603         estimate D2E/DX2                !
 ! D77   D(4,5,22,23)          -36.086          estimate D2E/DX2                !
 ! D78   D(4,5,22,45)         -157.5523         estimate D2E/DX2                !
 ! D79   D(4,5,22,46)           82.8584         estimate D2E/DX2                !
 ! D80   D(6,5,22,23)           83.5173         estimate D2E/DX2                !
 ! D81   D(6,5,22,45)          -37.949          estimate D2E/DX2                !
 ! D82   D(6,5,22,46)         -157.5383         estimate D2E/DX2                !
 ! D83   D(10,5,22,23)        -158.3887         estimate D2E/DX2                !
 ! D84   D(10,5,22,45)          80.145          estimate D2E/DX2                !
 ! D85   D(10,5,22,46)         -39.4443         estimate D2E/DX2                !
 ! D86   D(4,7,8,9)             27.1408         estimate D2E/DX2                !
 ! D87   D(4,7,8,19)          -143.2289         estimate D2E/DX2                !
 ! D88   D(17,7,8,9)           141.674          estimate D2E/DX2                !
 ! D89   D(17,7,8,19)          -28.6956         estimate D2E/DX2                !
 ! D90   D(21,7,8,9)          -100.3958         estimate D2E/DX2                !
 ! D91   D(21,7,8,19)           89.2345         estimate D2E/DX2                !
 ! D92   D(4,7,17,18)          155.3102         estimate D2E/DX2                !
 ! D93   D(4,7,17,20)           35.8203         estimate D2E/DX2                !
 ! D94   D(4,7,17,30)          -83.389          estimate D2E/DX2                !
 ! D95   D(8,7,17,18)           34.8731         estimate D2E/DX2                !
 ! D96   D(8,7,17,20)          -84.6168         estimate D2E/DX2                !
 ! D97   D(8,7,17,30)          156.1739         estimate D2E/DX2                !
 ! D98   D(21,7,17,18)         -80.6177         estimate D2E/DX2                !
 ! D99   D(21,7,17,20)         159.8924         estimate D2E/DX2                !
 ! D100  D(21,7,17,30)          40.6831         estimate D2E/DX2                !
 ! D101  D(4,7,21,44)           39.6314         estimate D2E/DX2                !
 ! D102  D(8,7,21,44)          168.8619         estimate D2E/DX2                !
 ! D103  D(17,7,21,44)         -81.7444         estimate D2E/DX2                !
 ! D104  D(7,8,9,10)             1.925          estimate D2E/DX2                !
 ! D105  D(7,8,9,11)          -179.9842         estimate D2E/DX2                !
 ! D106  D(19,8,9,10)          171.3281         estimate D2E/DX2                !
 ! D107  D(19,8,9,11)          -10.5811         estimate D2E/DX2                !
 ! D108  D(7,8,19,18)            8.9929         estimate D2E/DX2                !
 ! D109  D(9,8,19,18)         -161.4608         estimate D2E/DX2                !
 ! D110  D(8,9,10,5)           -15.6648         estimate D2E/DX2                !
 ! D111  D(8,9,10,16)          164.913          estimate D2E/DX2                !
 ! D112  D(11,9,10,5)          166.2871         estimate D2E/DX2                !
 ! D113  D(11,9,10,16)         -13.1351         estimate D2E/DX2                !
 ! D114  D(8,9,11,12)          -78.294          estimate D2E/DX2                !
 ! D115  D(8,9,11,13)           98.9399         estimate D2E/DX2                !
 ! D116  D(10,9,11,12)          99.7497         estimate D2E/DX2                !
 ! D117  D(10,9,11,13)         -83.0164         estimate D2E/DX2                !
 ! D118  D(9,11,13,14)         -86.6827         estimate D2E/DX2                !
 ! D119  D(9,11,13,15)          38.2684         estimate D2E/DX2                !
 ! D120  D(9,11,13,36)         154.8642         estimate D2E/DX2                !
 ! D121  D(12,11,13,14)         90.5091         estimate D2E/DX2                !
 ! D122  D(12,11,13,15)       -144.5398         estimate D2E/DX2                !
 ! D123  D(12,11,13,36)        -27.944          estimate D2E/DX2                !
 ! D124  D(11,13,14,37)         60.2412         estimate D2E/DX2                !
 ! D125  D(11,13,14,38)        176.9926         estimate D2E/DX2                !
 ! D126  D(11,13,14,62)        -62.7485         estimate D2E/DX2                !
 ! D127  D(15,13,14,37)        -66.7431         estimate D2E/DX2                !
 ! D128  D(15,13,14,38)         50.0083         estimate D2E/DX2                !
 ! D129  D(15,13,14,62)        170.2672         estimate D2E/DX2                !
 ! D130  D(36,13,14,37)        176.9948         estimate D2E/DX2                !
 ! D131  D(36,13,14,38)        -66.2538         estimate D2E/DX2                !
 ! D132  D(36,13,14,62)         54.0051         estimate D2E/DX2                !
 ! D133  D(11,13,15,39)         54.6996         estimate D2E/DX2                !
 ! D134  D(11,13,15,40)        173.7945         estimate D2E/DX2                !
 ! D135  D(11,13,15,41)        -66.4942         estimate D2E/DX2                !
 ! D136  D(14,13,15,39)       -179.3795         estimate D2E/DX2                !
 ! D137  D(14,13,15,40)        -60.2845         estimate D2E/DX2                !
 ! D138  D(14,13,15,41)         59.4267         estimate D2E/DX2                !
 ! D139  D(36,13,15,39)        -61.6319         estimate D2E/DX2                !
 ! D140  D(36,13,15,40)         57.463          estimate D2E/DX2                !
 ! D141  D(36,13,15,41)        177.1743         estimate D2E/DX2                !
 ! D142  D(13,14,62,63)         64.9329         estimate D2E/DX2                !
 ! D143  D(13,14,62,64)       -175.6708         estimate D2E/DX2                !
 ! D144  D(13,14,62,65)        -56.2269         estimate D2E/DX2                !
 ! D145  D(37,14,62,63)        -58.7686         estimate D2E/DX2                !
 ! D146  D(37,14,62,64)         60.6277         estimate D2E/DX2                !
 ! D147  D(37,14,62,65)       -179.9284         estimate D2E/DX2                !
 ! D148  D(38,14,62,63)       -174.0668         estimate D2E/DX2                !
 ! D149  D(38,14,62,64)        -54.6706         estimate D2E/DX2                !
 ! D150  D(38,14,62,65)         64.7733         estimate D2E/DX2                !
 ! D151  D(7,17,18,19)         -32.1466         estimate D2E/DX2                !
 ! D152  D(7,17,18,28)          85.7973         estimate D2E/DX2                !
 ! D153  D(7,17,18,29)        -150.6568         estimate D2E/DX2                !
 ! D154  D(20,17,18,19)         77.5988         estimate D2E/DX2                !
 ! D155  D(20,17,18,28)       -164.4573         estimate D2E/DX2                !
 ! D156  D(20,17,18,29)        -40.9114         estimate D2E/DX2                !
 ! D157  D(30,17,18,19)       -154.174          estimate D2E/DX2                !
 ! D158  D(30,17,18,28)        -36.2302         estimate D2E/DX2                !
 ! D159  D(30,17,18,29)         87.3158         estimate D2E/DX2                !
 ! D160  D(7,17,20,3)          -37.5301         estimate D2E/DX2                !
 ! D161  D(7,17,20,42)          82.0522         estimate D2E/DX2                !
 ! D162  D(7,17,20,43)        -158.5455         estimate D2E/DX2                !
 ! D163  D(18,17,20,3)        -147.6931         estimate D2E/DX2                !
 ! D164  D(18,17,20,42)        -28.1108         estimate D2E/DX2                !
 ! D165  D(18,17,20,43)         91.2915         estimate D2E/DX2                !
 ! D166  D(30,17,20,3)          83.3956         estimate D2E/DX2                !
 ! D167  D(30,17,20,42)       -157.0221         estimate D2E/DX2                !
 ! D168  D(30,17,20,43)        -37.6198         estimate D2E/DX2                !
 ! D169  D(17,18,19,8)          14.745          estimate D2E/DX2                !
 ! D170  D(28,18,19,8)        -106.3688         estimate D2E/DX2                !
 ! D171  D(29,18,19,8)         136.6486         estimate D2E/DX2                !
 ! D172  D(17,18,28,53)       -179.8492         estimate D2E/DX2                !
 ! D173  D(17,18,28,54)         59.8289         estimate D2E/DX2                !
 ! D174  D(17,18,28,55)        -62.3822         estimate D2E/DX2                !
 ! D175  D(19,18,28,53)        -63.3573         estimate D2E/DX2                !
 ! D176  D(19,18,28,54)        176.3208         estimate D2E/DX2                !
 ! D177  D(19,18,28,55)         54.1098         estimate D2E/DX2                !
 ! D178  D(29,18,28,53)         53.7161         estimate D2E/DX2                !
 ! D179  D(29,18,28,54)        -66.6059         estimate D2E/DX2                !
 ! D180  D(29,18,28,55)        171.1831         estimate D2E/DX2                !
 ! D181  D(17,18,29,56)       -178.7409         estimate D2E/DX2                !
 ! D182  D(17,18,29,57)        -58.1718         estimate D2E/DX2                !
 ! D183  D(17,18,29,58)         64.0531         estimate D2E/DX2                !
 ! D184  D(19,18,29,56)         64.2973         estimate D2E/DX2                !
 ! D185  D(19,18,29,57)       -175.1336         estimate D2E/DX2                !
 ! D186  D(19,18,29,58)        -52.9086         estimate D2E/DX2                !
 ! D187  D(28,18,29,56)        -52.6437         estimate D2E/DX2                !
 ! D188  D(28,18,29,57)         67.9254         estimate D2E/DX2                !
 ! D189  D(28,18,29,58)       -169.8496         estimate D2E/DX2                !
 ! D190  D(5,22,23,24)          32.212          estimate D2E/DX2                !
 ! D191  D(5,22,23,25)         154.2564         estimate D2E/DX2                !
 ! D192  D(5,22,23,47)         -82.1323         estimate D2E/DX2                !
 ! D193  D(45,22,23,24)        154.7326         estimate D2E/DX2                !
 ! D194  D(45,22,23,25)        -83.223          estimate D2E/DX2                !
 ! D195  D(45,22,23,47)         40.3883         estimate D2E/DX2                !
 ! D196  D(46,22,23,24)        -85.2715         estimate D2E/DX2                !
 ! D197  D(46,22,23,25)         36.7728         estimate D2E/DX2                !
 ! D198  D(46,22,23,47)        160.3841         estimate D2E/DX2                !
 ! D199  D(22,23,24,4)         -14.9003         estimate D2E/DX2                !
 ! D200  D(25,23,24,4)        -143.1255         estimate D2E/DX2                !
 ! D201  D(47,23,24,4)         101.2723         estimate D2E/DX2                !
 ! D202  D(22,23,25,26)       -175.9352         estimate D2E/DX2                !
 ! D203  D(22,23,25,27)          5.7537         estimate D2E/DX2                !
 ! D204  D(24,23,25,26)        -55.3992         estimate D2E/DX2                !
 ! D205  D(24,23,25,27)        126.2897         estimate D2E/DX2                !
 ! D206  D(47,23,25,26)         59.5991         estimate D2E/DX2                !
 ! D207  D(47,23,25,27)       -118.712          estimate D2E/DX2                !
 ! D208  D(23,25,26,48)        -55.3616         estimate D2E/DX2                !
 ! D209  D(23,25,26,49)         64.8247         estimate D2E/DX2                !
 ! D210  D(23,25,26,50)       -175.1281         estimate D2E/DX2                !
 ! D211  D(27,25,26,48)        123.0426         estimate D2E/DX2                !
 ! D212  D(27,25,26,49)       -116.771          estimate D2E/DX2                !
 ! D213  D(27,25,26,50)          3.2762         estimate D2E/DX2                !
 ! D214  D(23,25,27,51)         -0.4083         estimate D2E/DX2                !
 ! D215  D(23,25,27,52)        179.3404         estimate D2E/DX2                !
 ! D216  D(26,25,27,51)       -178.6437         estimate D2E/DX2                !
 ! D217  D(26,25,27,52)          1.105          estimate D2E/DX2                !
 --------------------------------------------------------------------------------
 Trust Radius=3.00D-01 FncErr=1.00D-07 GrdErr=1.00D-06
 Number of steps in this run=    390 maximum allowed number of steps=    390.
 GradGradGradGradGradGradGradGradGradGradGradGradGradGradGradGradGradGrad

 Stoichiometry    C26H34O5
 Framework group  C1[X(C26H34O5)]
 Deg. of freedom   189
 Full point group                 C1      NOp   1
 Largest Abelian subgroup         C1      NOp   1
 Largest concise Abelian subgroup C1      NOp   1
                         Standard orientation:                         
 ---------------------------------------------------------------------
 Center     Atomic      Atomic             Coordinates (Angstroms)
 Number     Number       Type             X           Y           Z
 ---------------------------------------------------------------------
      1          6           0       -0.646341   -2.709851    1.740779
      2          6           0       -0.378641   -1.617982    2.473117
      3          6           0       -0.821537   -0.241716    2.032998
      4          6           0       -1.301179   -0.118912    0.557190
      5          6           0       -1.222692   -1.363580   -0.339531
      6          6           0       -1.402083   -2.676722    0.451048
      7          6           0       -0.518850    1.079750   -0.012325
      8          6           0        0.799624    0.747614   -0.624926
      9          6           0        1.087309   -0.440971   -1.166919
     10          6           0        0.039585   -1.486675   -1.208263
     11          6           0        2.433819   -0.667840   -1.751048
     12          8           0        2.692638   -0.215567   -2.868428
     13          6           0        3.501067   -1.403489   -0.933893
     14          6           0        4.286737   -0.441624   -0.028883
     15          6           0        2.945888   -2.560718   -0.104296
     16          8           0        0.198805   -2.464386   -1.942216
     17          6           0       -0.044846    1.911318    1.159655
     18          6           0        1.185703    2.639793    0.578975
     19          8           0        1.764002    1.723227   -0.384674
     20          6           0        0.268957    0.831089    2.207737
     21          8           0       -1.286441    1.832293   -0.935074
     22          6           0       -2.413059   -1.147082   -1.276418
     23          6           0       -3.453897   -0.503887   -0.368180
     24          8           0       -2.707933    0.274586    0.588249
     25          6           0       -4.510264    0.379894   -0.991538
     26          6           0       -5.440413    1.051525   -0.012997
     27          6           0       -4.679542    0.565141   -2.312059
     28          6           0        0.819851    3.938281   -0.156982
     29          6           0        2.251950    2.969966    1.629426
     30          1           0       -0.803464    2.609149    1.532245
     31          1           0       -1.655674    0.040677    2.692397
     32          6           0        0.290056   -1.736265    3.817015
     33          1           0       -0.363630   -3.695303    2.107101
     34          1           0       -1.083727   -3.536794   -0.151151
     35          1           0       -2.455386   -2.866492    0.689753
     36          1           0        4.191054   -1.846769   -1.664945
     37          1           0        3.613414    0.056539    0.677274
     38          1           0        5.000021   -1.017032    0.574507
     39          1           0        2.390924   -3.265410   -0.730862
     40          1           0        3.760127   -3.118354    0.371387
     41          1           0        2.280551   -2.208160    0.689798
     42          1           0        1.260026    0.387979    2.051571
     43          1           0        0.261207    1.253798    3.218765
     44          1           0       -2.192838    1.870452   -0.569587
     45          1           0       -2.782932   -2.070197   -1.736591
     46          1           0       -2.119739   -0.476573   -2.093488
     47          1           0       -3.971340   -1.286557    0.200268
     48          1           0       -5.917958    0.305093    0.630288
     49          1           0       -4.891393    1.757342    0.618462
     50          1           0       -6.237077    1.610109   -0.515937
     51          1           0       -4.053028    0.089254   -3.058501
     52          1           0       -5.467715    1.207807   -2.695035
     53          1           0        1.720190    4.421410   -0.555104
     54          1           0        0.317881    4.645662    0.510976
     55          1           0        0.178724    3.762887   -1.024738
     56          1           0        3.092786    3.504997    1.172375
     57          1           0        1.842387    3.592707    2.431205
     58          1           0        2.689424    2.069194    2.070512
     59          1           0        0.431328   -2.780588    4.115602
     60          1           0        1.276321   -1.262583    3.803525
     61          1           0       -0.320276   -1.254218    4.587747
     62          6           0        5.071109    0.611158   -0.800094
     63          1           0        4.409656    1.290617   -1.344889
     64          1           0        5.667750    1.214654   -0.108421
     65          1           0        5.753976    0.144206   -1.516884
 ---------------------------------------------------------------------
 Rotational constants (GHZ):      0.2226025      0.1331633      0.1234417
 Standard basis: 6-31G(d) (6D, 7F)
 There are   533 symmetry adapted basis functions of A   symmetry.
 Integral buffers will be    131072 words long.
 Raffenetti 2 integral format.
 Two-electron integral symmetry is turned on.
   533 basis functions,  1004 primitive gaussians,   533 cartesian basis functions
   115 alpha electrons      115 beta electrons
       nuclear repulsion energy      3577.0652317400 Hartrees.
 NAtoms=   65 NActive=   65 NUniq=   65 SFac= 1.00D+00 NAtFMM=   50 NAOKFM=T Big=T
 One-electron integrals computed using PRISM.
 NBasis=   533 RedAO= T  NBF=   533
 NBsUse=   533 1.00D-06 NBFU=   533
 Harris functional with IExCor=  402 diagonalized for initial guess.
 ExpMin= 1.61D-01 ExpMax= 5.48D+03 ExpMxC= 8.25D+02 IAcc=1 IRadAn=         1 AccDes= 0.00D+00
 HarFok:  IExCor=  402 AccDes= 0.00D+00 IRadAn=         1 IDoV= 1
 ScaDFX=  1.000000  1.000000  1.000000  1.000000
 FoFCou: FMM=F IPFlag=           0 FMFlag=      100000 FMFlg1=        2001
         NFxFlg=           0 DoJE=T BraDBF=F KetDBF=T FulRan=T
         Omega=  0.000000  0.000000  1.000000  0.000000  0.000000 ICntrl=     500 IOpCl=  0
         NMat0=    1 NMatS0=    1 NMatT0=    0 NMatD0=    1 NMtDS0=    0 NMtDT0=    0
         I1Cent=           4 NGrid=           0.
 Petite list used in FoFCou.
 Initial guess orbital symmetries:
       Occupied  (A) (A) (A) (A) (A) (A) (A) (A) (A) (A) (A) (A)
                 (A) (A) (A) (A) (A) (A) (A) (A) (A) (A) (A) (A)
                 (A) (A) (A) (A) (A) (A) (A) (A) (A) (A) (A) (A)
                 (A) (A) (A) (A) (A) (A) (A) (A) (A) (A) (A) (A)
                 (A) (A) (A) (A) (A) (A) (A) (A) (A) (A) (A) (A)
                 (A) (A) (A) (A) (A) (A) (A) (A) (A) (A) (A) (A)
                 (A) (A) (A) (A) (A) (A) (A) (A) (A) (A) (A) (A)
                 (A) (A) (A) (A) (A) (A) (A) (A) (A) (A) (A) (A)
                 (A) (A) (A) (A) (A) (A) (A) (A) (A) (A) (A) (A)
                 (A) (A) (A) (A) (A) (A) (A)
       Virtual   (A) (A) (A) (A) (A) (A) (A) (A) (A) (A) (A) (A)
                 (A) (A) (A) (A) (A) (A) (A) (A) (A) (A) (A) (A)
                 (A) (A) (A) (A) (A) (A) (A) (A) (A) (A) (A) (A)
                 (A) (A) (A) (A) (A) (A) (A) (A) (A) (A) (A) (A)
                 (A) (A) (A) (A) (A) (A) (A) (A) (A) (A) (A) (A)
                 (A) (A) (A) (A) (A) (A) (A) (A) (A) (A) (A) (A)
                 (A) (A) (A) (A) (A) (A) (A) (A) (A) (A) (A) (A)
                 (A) (A) (A) (A) (A) (A) (A) (A) (A) (A) (A) (A)
                 (A) (A) (A) (A) (A) (A) (A) (A) (A) (A) (A) (A)
                 (A) (A) (A) (A) (A) (A) (A) (A) (A) (A) (A) (A)
                 (A) (A) (A) (A) (A) (A) (A) (A) (A) (A) (A) (A)
                 (A) (A) (A) (A) (A) (A) (A) (A) (A) (A) (A) (A)
                 (A) (A) (A) (A) (A) (A) (A) (A) (A) (A) (A) (A)
                 (A) (A) (A) (A) (A) (A) (A) (A) (A) (A) (A) (A)
                 (A) (A) (A) (A) (A) (A) (A) (A) (A) (A) (A) (A)
                 (A) (A) (A) (A) (A) (A) (A) (A) (A) (A) (A) (A)
                 (A) (A) (A) (A) (A) (A) (A) (A) (A) (A) (A) (A)
                 (A) (A) (A) (A) (A) (A) (A) (A) (A) (A) (A) (A)
                 (A) (A) (A) (A) (A) (A) (A) (A) (A) (A) (A) (A)
                 (A) (A) (A) (A) (A) (A) (A) (A) (A) (A) (A) (A)
                 (A) (A) (A) (A) (A) (A) (A) (A) (A) (A) (A) (A)
                 (A) (A) (A) (A) (A) (A) (A) (A) (A) (A) (A) (A)
                 (A) (A) (A) (A) (A) (A) (A) (A) (A) (A) (A) (A)
                 (A) (A) (A) (A) (A) (A) (A) (A) (A) (A) (A) (A)
                 (A) (A) (A) (A) (A) (A) (A) (A) (A) (A) (A) (A)
                 (A) (A) (A) (A) (A) (A) (A) (A) (A) (A) (A) (A)
                 (A) (A) (A) (A) (A) (A) (A) (A) (A) (A) (A) (A)
                 (A) (A) (A) (A) (A) (A) (A) (A) (A) (A) (A) (A)
                 (A) (A) (A) (A) (A) (A) (A) (A) (A) (A) (A) (A)
                 (A) (A) (A) (A) (A) (A) (A) (A) (A) (A) (A) (A)
                 (A) (A) (A) (A) (A) (A) (A) (A) (A) (A) (A) (A)
                 (A) (A) (A) (A) (A) (A) (A) (A) (A) (A) (A) (A)
                 (A) (A) (A) (A) (A) (A) (A) (A) (A) (A) (A) (A)
                 (A) (A) (A) (A) (A) (A) (A) (A) (A) (A) (A) (A)
                 (A) (A) (A) (A) (A) (A) (A) (A) (A) (A)
 The electronic state of the initial guess is 1-A.
 Requested convergence on RMS density matrix=1.00D-08 within 128 cycles.
 Requested convergence on MAX density matrix=1.00D-06.
 Requested convergence on             energy=1.00D-06.
 No special actions if energy rises.
 Integral accuracy reduced to 1.0D-05 until final iterations.
 Initial convergence to 1.0D-05 achieved.  Increase integral accuracy.
 SCF Done:  E(RB3LYP) =  -1387.30042710     A.U. after   16 cycles
             Convg  =    0.4475D-08             -V/T =  2.0091

 **********************************************************************

            Population analysis using the SCF density.

 **********************************************************************

 Orbital symmetries:
       Occupied  (A) (A) (A) (A) (A) (A) (A) (A) (A) (A) (A) (A)
                 (A) (A) (A) (A) (A) (A) (A) (A) (A) (A) (A) (A)
                 (A) (A) (A) (A) (A) (A) (A) (A) (A) (A) (A) (A)
                 (A) (A) (A) (A) (A) (A) (A) (A) (A) (A) (A) (A)
                 (A) (A) (A) (A) (A) (A) (A) (A) (A) (A) (A) (A)
                 (A) (A) (A) (A) (A) (A) (A) (A) (A) (A) (A) (A)
                 (A) (A) (A) (A) (A) (A) (A) (A) (A) (A) (A) (A)
                 (A) (A) (A) (A) (A) (A) (A) (A) (A) (A) (A) (A)
                 (A) (A) (A) (A) (A) (A) (A) (A) (A) (A) (A) (A)
                 (A) (A) (A) (A) (A) (A) (A)
       Virtual   (A) (A) (A) (A) (A) (A) (A) (A) (A) (A) (A) (A)
                 (A) (A) (A) (A) (A) (A) (A) (A) (A) (A) (A) (A)
                 (A) (A) (A) (A) (A) (A) (A) (A) (A) (A) (A) (A)
                 (A) (A) (A) (A) (A) (A) (A) (A) (A) (A) (A) (A)
                 (A) (A) (A) (A) (A) (A) (A) (A) (A) (A) (A) (A)
                 (A) (A) (A) (A) (A) (A) (A) (A) (A) (A) (A) (A)
                 (A) (A) (A) (A) (A) (A) (A) (A) (A) (A) (A) (A)
                 (A) (A) (A) (A) (A) (A) (A) (A) (A) (A) (A) (A)
                 (A) (A) (A) (A) (A) (A) (A) (A) (A) (A) (A) (A)
                 (A) (A) (A) (A) (A) (A) (A) (A) (A) (A) (A) (A)
                 (A) (A) (A) (A) (A) (A) (A) (A) (A) (A) (A) (A)
                 (A) (A) (A) (A) (A) (A) (A) (A) (A) (A) (A) (A)
                 (A) (A) (A) (A) (A) (A) (A) (A) (A) (A) (A) (A)
                 (A) (A) (A) (A) (A) (A) (A) (A) (A) (A) (A) (A)
                 (A) (A) (A) (A) (A) (A) (A) (A) (A) (A) (A) (A)
                 (A) (A) (A) (A) (A) (A) (A) (A) (A) (A) (A) (A)
                 (A) (A) (A) (A) (A) (A) (A) (A) (A) (A) (A) (A)
                 (A) (A) (A) (A) (A) (A) (A) (A) (A) (A) (A) (A)
                 (A) (A) (A) (A) (A) (A) (A) (A) (A) (A) (A) (A)
                 (A) (A) (A) (A) (A) (A) (A) (A) (A) (A) (A) (A)
                 (A) (A) (A) (A) (A) (A) (A) (A) (A) (A) (A) (A)
                 (A) (A) (A) (A) (A) (A) (A) (A) (A) (A) (A) (A)
                 (A) (A) (A) (A) (A) (A) (A) (A) (A) (A) (A) (A)
                 (A) (A) (A) (A) (A) (A) (A) (A) (A) (A) (A) (A)
                 (A) (A) (A) (A) (A) (A) (A) (A) (A) (A) (A) (A)
                 (A) (A) (A) (A) (A) (A) (A) (A) (A) (A) (A) (A)
                 (A) (A) (A) (A) (A) (A) (A) (A) (A) (A) (A) (A)
                 (A) (A) (A) (A) (A) (A) (A) (A) (A) (A) (A) (A)
                 (A) (A) (A) (A) (A) (A) (A) (A) (A) (A) (A) (A)
                 (A) (A) (A) (A) (A) (A) (A) (A) (A) (A) (A) (A)
                 (A) (A) (A) (A) (A) (A) (A) (A) (A) (A) (A) (A)
                 (A) (A) (A) (A) (A) (A) (A) (A) (A) (A) (A) (A)
                 (A) (A) (A) (A) (A) (A) (A) (A) (A) (A) (A) (A)
                 (A) (A) (A) (A) (A) (A) (A) (A) (A) (A) (A) (A)
                 (A) (A) (A) (A) (A) (A) (A) (A) (A) (A)
 The electronic state is 1-A.
 Alpha  occ. eigenvalues --  -19.19615 -19.16845 -19.15275 -19.13445 -19.13018
 Alpha  occ. eigenvalues --  -10.27984 -10.26989 -10.26933 -10.26151 -10.26049
 Alpha  occ. eigenvalues --  -10.25570 -10.25073 -10.21710 -10.20609 -10.20572
 Alpha  occ. eigenvalues --  -10.20235 -10.19824 -10.19751 -10.19685 -10.19523
 Alpha  occ. eigenvalues --  -10.19298 -10.18839 -10.18803 -10.18721 -10.18692
 Alpha  occ. eigenvalues --  -10.18677 -10.18494 -10.18044 -10.17578 -10.16828
 Alpha  occ. eigenvalues --  -10.16043  -1.08508  -1.06047  -1.03276  -1.02296
 Alpha  occ. eigenvalues --   -1.01954  -0.87615  -0.84061  -0.82750  -0.81804
 Alpha  occ. eigenvalues --   -0.80675  -0.80197  -0.77029  -0.74563  -0.73839
 Alpha  occ. eigenvalues --   -0.72620  -0.71887  -0.69593  -0.69219  -0.68044
 Alpha  occ. eigenvalues --   -0.65055  -0.64455  -0.63400  -0.62230  -0.61089
 Alpha  occ. eigenvalues --   -0.59612  -0.59399  -0.57542  -0.55785  -0.54028
 Alpha  occ. eigenvalues --   -0.53383  -0.52339  -0.51211  -0.50593  -0.49297
 Alpha  occ. eigenvalues --   -0.48239  -0.47519  -0.46808  -0.46140  -0.46002
 Alpha  occ. eigenvalues --   -0.45160  -0.44733  -0.44323  -0.44071  -0.43352
 Alpha  occ. eigenvalues --   -0.43009  -0.42559  -0.42176  -0.41948  -0.41821
 Alpha  occ. eigenvalues --   -0.41174  -0.41022  -0.40584  -0.40526  -0.39827
 Alpha  occ. eigenvalues --   -0.39275  -0.39080  -0.38579  -0.38269  -0.37940
 Alpha  occ. eigenvalues --   -0.37542  -0.37333  -0.37159  -0.36931  -0.36661
 Alpha  occ. eigenvalues --   -0.36624  -0.35567  -0.35378  -0.34560  -0.34304
 Alpha  occ. eigenvalues --   -0.33859  -0.33539  -0.33397  -0.32668  -0.32452
 Alpha  occ. eigenvalues --   -0.32154  -0.31468  -0.31200  -0.27929  -0.26585
 Alpha  occ. eigenvalues --   -0.26021  -0.25524  -0.24534  -0.23866  -0.22938
 Alpha virt. eigenvalues --   -0.05255  -0.01824   0.00389   0.01748   0.03726
 Alpha virt. eigenvalues --    0.05824   0.07387   0.08379   0.08715   0.09941
 Alpha virt. eigenvalues --    0.10465   0.11065   0.11285   0.11551   0.12244
 Alpha virt. eigenvalues --    0.12680   0.13092   0.13268   0.13459   0.13850
 Alpha virt. eigenvalues --    0.14071   0.14434   0.14915   0.15389   0.15825
 Alpha virt. eigenvalues --    0.16255   0.16527   0.16740   0.17356   0.17647
 Alpha virt. eigenvalues --    0.17871   0.18146   0.18383   0.18751   0.19271
 Alpha virt. eigenvalues --    0.19291   0.19356   0.19732   0.20103   0.20455
 Alpha virt. eigenvalues --    0.20610   0.21074   0.21205   0.22010   0.22731
 Alpha virt. eigenvalues --    0.23036   0.23362   0.23827   0.24296   0.24591
 Alpha virt. eigenvalues --    0.24989   0.25524   0.25867   0.26488   0.26636
 Alpha virt. eigenvalues --    0.27086   0.27396   0.28788   0.28986   0.29678
 Alpha virt. eigenvalues --    0.30449   0.31695   0.32313   0.33343   0.34138
 Alpha virt. eigenvalues --    0.34506   0.36353   0.37650   0.38347   0.39961
 Alpha virt. eigenvalues --    0.41907   0.44976   0.46678   0.48156   0.48235
 Alpha virt. eigenvalues --    0.49352   0.50119   0.50906   0.51284   0.51639
 Alpha virt. eigenvalues --    0.52092   0.52329   0.52710   0.53215   0.53879
 Alpha virt. eigenvalues --    0.53986   0.54644   0.55230   0.55601   0.56495
 Alpha virt. eigenvalues --    0.56945   0.57268   0.58130   0.58682   0.59110
 Alpha virt. eigenvalues --    0.59764   0.59990   0.60378   0.60667   0.61583
 Alpha virt. eigenvalues --    0.62427   0.62576   0.63121   0.63834   0.64480
 Alpha virt. eigenvalues --    0.65277   0.65912   0.66151   0.66675   0.66932
 Alpha virt. eigenvalues --    0.67959   0.68606   0.68727   0.69249   0.69875
 Alpha virt. eigenvalues --    0.70579   0.71666   0.72186   0.72754   0.73226
 Alpha virt. eigenvalues --    0.73820   0.74760   0.75301   0.76180   0.76304
 Alpha virt. eigenvalues --    0.76600   0.76950   0.78203   0.78918   0.80298
 Alpha virt. eigenvalues --    0.80539   0.80902   0.81179   0.81546   0.82401
 Alpha virt. eigenvalues --    0.82843   0.83815   0.84058   0.84703   0.85279
 Alpha virt. eigenvalues --    0.85741   0.86366   0.86539   0.86838   0.86981
 Alpha virt. eigenvalues --    0.87756   0.88029   0.88308   0.88628   0.88876
 Alpha virt. eigenvalues --    0.89616   0.89854   0.90365   0.90631   0.90905
 Alpha virt. eigenvalues --    0.91058   0.91167   0.91834   0.92199   0.92306
 Alpha virt. eigenvalues --    0.93181   0.93289   0.94039   0.94203   0.94296
 Alpha virt. eigenvalues --    0.94903   0.95358   0.95914   0.96193   0.96638
 Alpha virt. eigenvalues --    0.97493   0.97841   0.98289   0.99513   0.99814
 Alpha virt. eigenvalues --    1.00423   1.02072   1.02213   1.03535   1.04393
 Alpha virt. eigenvalues --    1.05359   1.05918   1.06563   1.07545   1.09074
 Alpha virt. eigenvalues --    1.09955   1.10412   1.11198   1.11952   1.12470
 Alpha virt. eigenvalues --    1.13388   1.15038   1.16247   1.16667   1.17621
 Alpha virt. eigenvalues --    1.18109   1.18866   1.19397   1.19909   1.20623
 Alpha virt. eigenvalues --    1.21279   1.23526   1.24644   1.25511   1.26055
 Alpha virt. eigenvalues --    1.28458   1.29842   1.30903   1.32018   1.32672
 Alpha virt. eigenvalues --    1.35177   1.36701   1.37003   1.38410   1.40577
 Alpha virt. eigenvalues --    1.40985   1.42212   1.42430   1.43872   1.44837
 Alpha virt. eigenvalues --    1.47546   1.49190   1.50459   1.52092   1.53136
 Alpha virt. eigenvalues --    1.53939   1.55806   1.56780   1.57652   1.58826
 Alpha virt. eigenvalues --    1.60025   1.60769   1.62268   1.62506   1.63485
 Alpha virt. eigenvalues --    1.65455   1.65566   1.65854   1.66414   1.68539
 Alpha virt. eigenvalues --    1.71036   1.72196   1.72876   1.73954   1.75337
 Alpha virt. eigenvalues --    1.75998   1.76508   1.77643   1.78649   1.79015
 Alpha virt. eigenvalues --    1.79895   1.80079   1.81086   1.82019   1.82594
 Alpha virt. eigenvalues --    1.82889   1.83499   1.84052   1.84949   1.85757
 Alpha virt. eigenvalues --    1.86399   1.86769   1.87204   1.88430   1.88550
 Alpha virt. eigenvalues --    1.89036   1.89926   1.90144   1.90937   1.91790
 Alpha virt. eigenvalues --    1.91984   1.92764   1.93860   1.94811   1.95319
 Alpha virt. eigenvalues --    1.95626   1.96101   1.96799   1.98183   1.98798
 Alpha virt. eigenvalues --    1.99277   1.99642   2.00337   2.00603   2.02164
 Alpha virt. eigenvalues --    2.03082   2.03557   2.04109   2.04830   2.06016
 Alpha virt. eigenvalues --    2.06866   2.07530   2.08130   2.08678   2.09056
 Alpha virt. eigenvalues --    2.09561   2.11020   2.12500   2.12738   2.13311
 Alpha virt. eigenvalues --    2.15002   2.15760   2.16969   2.17114   2.18751
 Alpha virt. eigenvalues --    2.19695   2.20275   2.21224   2.22528   2.23321
 Alpha virt. eigenvalues --    2.24106   2.24687   2.24856   2.25884   2.26939
 Alpha virt. eigenvalues --    2.28710   2.29250   2.30066   2.30825   2.31581
 Alpha virt. eigenvalues --    2.32687   2.33207   2.33996   2.35041   2.35249
 Alpha virt. eigenvalues --    2.35998   2.36396   2.37081   2.38527   2.38809
 Alpha virt. eigenvalues --    2.39560   2.41062   2.41354   2.42125   2.42941
 Alpha virt. eigenvalues --    2.44611   2.44868   2.45678   2.47394   2.48194
 Alpha virt. eigenvalues --    2.48745   2.50349   2.50981   2.52941   2.55197
 Alpha virt. eigenvalues --    2.56700   2.57548   2.58284   2.59094   2.59918
 Alpha virt. eigenvalues --    2.61225   2.62739   2.63721   2.64912   2.65993
 Alpha virt. eigenvalues --    2.66970   2.68285   2.69956   2.70378   2.70596
 Alpha virt. eigenvalues --    2.71873   2.73864   2.74476   2.76954   2.78640
 Alpha virt. eigenvalues --    2.79402   2.81112   2.82360   2.84085   2.86025
 Alpha virt. eigenvalues --    2.86997   2.89576   2.91592   2.94857   2.95340
 Alpha virt. eigenvalues --    2.96455   2.99485   3.00358   3.01524   3.03660
 Alpha virt. eigenvalues --    3.05811   3.06716   3.12661   3.18887   3.20654
 Alpha virt. eigenvalues --    3.22173   3.29192   4.01584   4.08522   4.11077
 Alpha virt. eigenvalues --    4.13401   4.14491   4.16139   4.17077   4.20444
 Alpha virt. eigenvalues --    4.23762   4.24782   4.26973   4.28252   4.31244
 Alpha virt. eigenvalues --    4.32026   4.36078   4.37955   4.40929   4.44421
 Alpha virt. eigenvalues --    4.45415   4.49323   4.53479   4.58925   4.60694
 Alpha virt. eigenvalues --    4.63525   4.65349   4.69352   4.73346   4.82005
 Alpha virt. eigenvalues --    4.90600   5.01741   5.17415
          Condensed to atoms (all electrons):
 Mulliken atomic charges:
              1
     1  C   -0.191635
     2  C    0.185927
     3  C   -0.185675
     4  C    0.320348
     5  C   -0.050739
     6  C   -0.331498
     7  C    0.213909
     8  C    0.395577
     9  C   -0.082517
    10  C    0.437739
    11  C    0.416419
    12  O   -0.441159
    13  C   -0.146369
    14  C   -0.262596
    15  C   -0.480488
    16  O   -0.505412
    17  C   -0.161332
    18  C    0.312222
    19  O   -0.535380
    20  C   -0.322182
    21  O   -0.657800
    22  C   -0.327415
    23  C    0.105702
    24  O   -0.585838
    25  C    0.175801
    26  C   -0.504606
    27  C   -0.390438
    28  C   -0.461488
    29  C   -0.465195
    30  H    0.143911
    31  H    0.165388
    32  C   -0.517464
    33  H    0.124509
    34  H    0.179512
    35  H    0.153101
    36  H    0.153693
    37  H    0.139879
    38  H    0.135135
    39  H    0.173529
    40  H    0.141938
    41  H    0.142433
    42  H    0.163230
    43  H    0.148846
    44  H    0.411691
    45  H    0.168581
    46  H    0.177682
    47  H    0.136166
    48  H    0.154100
    49  H    0.165152
    50  H    0.154233
    51  H    0.151831
    52  H    0.143306
    53  H    0.151448
    54  H    0.137620
    55  H    0.189547
    56  H    0.161163
    57  H    0.150331
    58  H    0.156322
    59  H    0.158778
    60  H    0.158265
    61  H    0.151150
    62  C   -0.447577
    63  H    0.173100
    64  H    0.129969
    65  H    0.145620
 Sum of Mulliken atomic charges =   0.00000
 Mulliken charges with hydrogens summed into heavy atoms:
              1
     1  C   -0.067127
     2  C    0.185927
     3  C   -0.020287
     4  C    0.320348
     5  C   -0.050739
     6  C    0.001116
     7  C    0.213909
     8  C    0.395577
     9  C   -0.082517
    10  C    0.437739
    11  C    0.416419
    12  O   -0.441159
    13  C    0.007324
    14  C    0.012417
    15  C   -0.022589
    16  O   -0.505412
    17  C   -0.017421
    18  C    0.312222
    19  O   -0.535380
    20  C   -0.010107
    21  O   -0.246109
    22  C    0.018848
    23  C    0.241869
    24  O   -0.585838
    25  C    0.175801
    26  C   -0.031120
    27  C   -0.095301
    28  C    0.017127
    29  C    0.002622
    32  C   -0.049271
    62  C    0.001113
 Sum of Mulliken charges with hydrogens summed into heavy atoms =   0.00000
 Electronic spatial extent (au):  <R**2>=          10717.7651
 Charge=              0.0000 electrons
 Dipole moment (field-independent basis, Debye):
    X=             -2.8470    Y=              1.2339    Z=              6.1088  Tot=              6.8516
 Quadrupole moment (field-independent basis, Debye-Ang):
   XX=           -176.8898   YY=           -180.8234   ZZ=           -194.4360
   XY=             -0.3656   XZ=             11.4617   YZ=             -0.5915
 Traceless Quadrupole moment (field-independent basis, Debye-Ang):
   XX=              7.1599   YY=              3.2263   ZZ=            -10.3863
   XY=             -0.3656   XZ=             11.4617   YZ=             -0.5915
 Octapole moment (field-independent basis, Debye-Ang**2):
  XXX=            -37.3966  YYY=             28.7943  ZZZ=             34.3961  XYY=              0.1878
  XXY=             -0.1313  XXZ=              1.9120  XZZ=            -32.7658  YZZ=             14.4900
  YYZ=             22.7665  XYZ=              4.2598
 Hexadecapole moment (field-independent basis, Debye-Ang**3):
 XXXX=          -7647.5868 YYYY=          -3612.1672 ZZZZ=          -2893.6549 XXXY=           -130.5137
 XXXZ=             66.6280 YYYX=             20.3041 YYYZ=            -18.8807 ZZZX=             87.1156
 ZZZY=            -12.1170 XXYY=          -1860.8224 XXZZ=          -1839.3387 YYZZ=          -1099.6976
 XXYZ=             -1.5128 YYXZ=             -9.0510 ZZXY=            -10.7347
 N-N= 3.577065231740D+03 E-N=-1.038011957565D+04  KE= 1.374769884541D+03
 Calling FoFJK, ICntrl=      2127 FMM=T ISym2X=0 I1Cent= 0 IOpClX= 0 NMat=1 NMatS=1 NMatT=0.
 ***** Axes restored to original set *****
 -------------------------------------------------------------------
 Center     Atomic                   Forces (Hartrees/Bohr)
 Number     Number              X              Y              Z
 -------------------------------------------------------------------
      1        6           0.008373371    0.000090976    0.000506172
      2        6          -0.011750147   -0.004780251    0.002409164
      3        6          -0.001253701   -0.007926015   -0.000593434
      4        6           0.002447279   -0.004201873    0.011070253
      5        6          -0.011098065   -0.003041272    0.001294258
      6        6          -0.004412353   -0.010381893   -0.000947294
      7        6           0.011739726    0.020187983    0.009038416
      8        6           0.010415812   -0.009938835   -0.015652620
      9        6          -0.000710600    0.002396402    0.012606795
     10        6          -0.007781975   -0.002512328   -0.020936198
     11        6          -0.012122185    0.011866029   -0.032499900
     12        8           0.003681521   -0.017100797    0.015155880
     13        6          -0.007976098   -0.006198033    0.002556712
     14        6           0.005048752    0.002783330   -0.006188474
     15        6          -0.005514798   -0.001558293    0.004759241
     16        8           0.009195809   -0.001321724    0.009434636
     17        6           0.007890026   -0.011055623   -0.005877709
     18        6           0.031876884    0.006973328    0.000682641
     19        8          -0.027736396    0.002367101    0.025769352
     20        6           0.011721984   -0.004090558    0.000988115
     21        8          -0.006351285    0.007329049   -0.003806945
     22        6          -0.006609000    0.014058785    0.001183302
     23        6          -0.005287104    0.007890217    0.001148023
     24        8           0.001945236   -0.006707439   -0.009698624
     25        6          -0.002936336    0.015157823    0.000369233
     26        6           0.001256169    0.001545709    0.000350118
     27        6           0.000891486   -0.009918073   -0.001250638
     28        6          -0.002825430    0.007904270   -0.004922628
     29        6          -0.003326093   -0.005802605   -0.008927664
     30        1          -0.001867529    0.001014946   -0.001618680
     31        1          -0.003263283    0.005858235   -0.000096126
     32        6          -0.000991872    0.000635432   -0.001162132
     33        1           0.001605777   -0.001051069   -0.000076453
     34        1           0.000906194    0.007413848   -0.001984894
     35        1          -0.000288422    0.005565635    0.001693020
     36        1           0.003601793    0.004290891   -0.002024885
     37        1          -0.001000537   -0.000161652    0.002280307
     38        1          -0.003592478   -0.001398411    0.002668496
     39        1           0.000290667    0.000054278    0.001501453
     40        1           0.001572135    0.000005839   -0.001282791
     41        1          -0.000272248   -0.000214431    0.001868916
     42        1           0.000453608    0.002552216   -0.000182511
     43        1          -0.001222794   -0.002148445   -0.001513916
     44        1          -0.001749580   -0.003861209   -0.002182011
     45        1           0.001370076   -0.003063687   -0.001095279
     46        1           0.002093682    0.000455976    0.003364931
     47        1          -0.001764353   -0.001249170    0.002982065
     48        1           0.002485489   -0.002673381    0.001847052
     49        1           0.000974506   -0.003269522    0.002468908
     50        1          -0.001326477   -0.000157066   -0.001747675
     51        1          -0.000194220   -0.000394439   -0.001349354
     52        1          -0.000057656   -0.000667432    0.001093044
     53        1           0.001894726   -0.003890736    0.000485129
     54        1           0.000516562   -0.000893640    0.000290050
     55        1          -0.001327442   -0.002852536    0.005260135
     56        1           0.000707123    0.002862584    0.001469394
     57        1          -0.000778886    0.001195043    0.000616661
     58        1          -0.000178514   -0.000192570    0.003852457
     59        1          -0.001100844    0.001683518   -0.000551213
     60        1           0.004346346   -0.001724816    0.000552336
     61        1           0.004022857   -0.001127865    0.000037300
     62        6           0.005465724    0.002583237   -0.002154793
     63        1          -0.001190987    0.000194004   -0.000990327
     64        1           0.001305886   -0.000187050   -0.001425385
     65        1          -0.000237521    0.000798052   -0.000913411
 -------------------------------------------------------------------
 Cartesian Forces:  Max     0.032499900 RMS     0.006907657

 GradGradGradGradGradGradGradGradGradGradGradGradGradGradGradGradGradGrad
 Berny optimization.
 Internal  Forces:  Max     0.023138285 RMS     0.003528531
 Search for a local minimum.
 Step number   1 out of a maximum of  390
 All quantities printed in internal units (Hartrees-Bohrs-Radians)
 Mixed Optimization -- RFO/linear search
 Second derivative matrix not updated -- first step.
 ITU=  0
     Eigenvalues ---    0.00280   0.00280   0.00333   0.00339   0.00392
     Eigenvalues ---    0.00432   0.00467   0.00549   0.00589   0.00610
     Eigenvalues ---    0.00625   0.00661   0.00679   0.00690   0.00714
     Eigenvalues ---    0.00962   0.01078   0.01240   0.01244   0.01386
     Eigenvalues ---    0.01471   0.01607   0.01707   0.01798   0.01920
     Eigenvalues ---    0.02495   0.02828   0.02828   0.03030   0.03116
     Eigenvalues ---    0.03456   0.03598   0.03609   0.03731   0.04033
     Eigenvalues ---    0.04118   0.04315   0.04414   0.04579   0.04651
     Eigenvalues ---    0.04821   0.04928   0.04934   0.05103   0.05245
     Eigenvalues ---    0.05305   0.05377   0.05417   0.05427   0.05504
     Eigenvalues ---    0.05507   0.05508   0.05546   0.05593   0.05597
     Eigenvalues ---    0.05609   0.05705   0.05940   0.06276   0.06647
     Eigenvalues ---    0.06706   0.06858   0.07089   0.07117   0.07138
     Eigenvalues ---    0.07248   0.07252   0.07343   0.07623   0.08369
     Eigenvalues ---    0.08479   0.08812   0.09014   0.09152   0.09771
     Eigenvalues ---    0.10097   0.10640   0.10857   0.11620   0.12308
     Eigenvalues ---    0.13155   0.14680   0.15177   0.15968   0.16000
     Eigenvalues ---    0.16000   0.16000   0.16000   0.16000   0.16000
     Eigenvalues ---    0.16000   0.16000   0.16000   0.16000   0.16000
     Eigenvalues ---    0.16000   0.16000   0.16000   0.16000   0.16000
     Eigenvalues ---    0.16000   0.16000   0.16000   0.16000   0.16000
     Eigenvalues ---    0.16493   0.16888   0.17285   0.18320   0.18611
     Eigenvalues ---    0.19686   0.21556   0.21923   0.22722   0.23563
     Eigenvalues ---    0.24530   0.24918   0.24977   0.24985   0.24988
     Eigenvalues ---    0.24994   0.24999   0.25000   0.25904   0.27176
     Eigenvalues ---    0.27444   0.27680   0.27790   0.28195   0.28263
     Eigenvalues ---    0.28618   0.28810   0.28812   0.29170   0.29212
     Eigenvalues ---    0.29583   0.30116   0.30353   0.30480   0.31170
     Eigenvalues ---    0.31561   0.31716   0.31784   0.33137   0.33665
     Eigenvalues ---    0.33833   0.33983   0.33989   0.34000   0.34014
     Eigenvalues ---    0.34026   0.34039   0.34061   0.34066   0.34080
     Eigenvalues ---    0.34124   0.34144   0.34154   0.34180   0.34181
     Eigenvalues ---    0.34205   0.34210   0.34241   0.34248   0.34263
     Eigenvalues ---    0.34267   0.34274   0.34277   0.34287   0.34317
     Eigenvalues ---    0.34329   0.34332   0.34338   0.34399   0.34460
     Eigenvalues ---    0.34965   0.35197   0.35378   0.35455   0.36431
     Eigenvalues ---    0.37150   0.42964   0.43488   0.51764   0.53266
     Eigenvalues ---    0.54359   0.56284   0.89883   0.89903
 RFO step:  Lambda=-2.24722926D-02 EMin= 2.80023152D-03
 Linear search not attempted -- first point.
 Iteration  1 RMS(Cart)=  0.08401851 RMS(Int)=  0.00129913
 Iteration  2 RMS(Cart)=  0.00280291 RMS(Int)=  0.00024284
 Iteration  3 RMS(Cart)=  0.00000279 RMS(Int)=  0.00024284
 Iteration  4 RMS(Cart)=  0.00000000 RMS(Int)=  0.00024284
 Variable       Old X    -DE/DX   Delta X   Delta X   Delta X     New X
                                 (Linear)    (Quad)   (Total)
    R1        2.53545  -0.00164   0.00000  -0.00363  -0.00371   2.53174
    R2        2.82554   0.00832   0.00000   0.02505   0.02496   2.85049
    R3        2.05732   0.00010   0.00000   0.00027   0.00027   2.05758
    R4        2.85591   0.00356   0.00000   0.00755   0.00756   2.86347
    R5        2.84541   0.00360   0.00000   0.01058   0.01058   2.85599
    R6        2.94163   0.00480   0.00000   0.01103   0.01107   2.95270
    R7        2.90958   0.01118   0.00000   0.03880   0.03881   2.94839
    R8        2.07899  -0.00079   0.00000  -0.00221  -0.00221   2.07678
    R9        2.90272   0.00848   0.00000   0.02751   0.02733   2.93006
   R10        2.91115   0.00757   0.00000   0.02464   0.02461   2.93576
   R11        2.76105  -0.00480   0.00000  -0.01124  -0.01125   2.74980
   R12        2.91627  -0.00096   0.00000  -0.00053  -0.00060   2.91567
   R13        2.90502   0.00639   0.00000   0.01475   0.01466   2.91968
   R14        2.89171   0.01267   0.00000   0.04125   0.04120   2.93292
   R15        2.07330  -0.00151   0.00000  -0.00415  -0.00415   2.06914
   R16        2.07219   0.00281   0.00000   0.00773   0.00773   2.07993
   R17        2.81814   0.00934   0.00000   0.01986   0.01961   2.83775
   R18        2.85950   0.01537   0.00000   0.05391   0.05343   2.91293
   R19        2.67714   0.00322   0.00000   0.00711   0.00711   2.68425
   R20        2.52775   0.01347   0.00000   0.02336   0.02350   2.55126
   R21        2.63179  -0.01958   0.00000  -0.04619  -0.04602   2.58577
   R22        2.79841  -0.00359   0.00000  -0.01342  -0.01333   2.78508
   R23        2.80659   0.01874   0.00000   0.05173   0.05173   2.85832
   R24        2.32978  -0.01147   0.00000  -0.01245  -0.01245   2.31733
   R25        2.32987  -0.02314   0.00000  -0.02511  -0.02511   2.30475
   R26        2.89563  -0.00126   0.00000  -0.00399  -0.00399   2.89163
   R27        2.90398   0.00558   0.00000   0.01796   0.01796   2.92193
   R28        2.88803   0.00722   0.00000   0.02268   0.02268   2.91071
   R29        2.07614  -0.00068   0.00000  -0.00189  -0.00189   2.07424
   R30        2.07025   0.00119   0.00000   0.00326   0.00326   2.07351
   R31        2.07349   0.00075   0.00000   0.00206   0.00206   2.07555
   R32        2.87732   0.00801   0.00000   0.02476   0.02476   2.90209
   R33        2.06764   0.00009   0.00000   0.00026   0.00026   2.06790
   R34        2.07028   0.00042   0.00000   0.00114   0.00114   2.07142
   R35        2.06798   0.00143   0.00000   0.00392   0.00392   2.07190
   R36        2.91662  -0.00088   0.00000   0.00904   0.00931   2.92593
   R37        2.90541   0.00432   0.00000   0.01521   0.01519   2.92060
[...]
     54          1           0        0.454498    4.771200    0.273177
     55          1           0        0.057052    3.687617   -1.080315
     56          1           0        3.118957    3.497666    1.029365
     57          1           0        1.873995    3.860286    2.238562
     58          1           0        2.562609    2.227377    2.131095
     59          1           0        0.210331   -2.428503    4.403529
     60          1           0        0.969130   -0.856315    4.105513
     61          1           0       -0.662136   -0.927073    4.764314
     62          6           0        5.074957    0.638798   -0.970421
     63          1           0        4.348444    1.227267   -1.538053
     64          1           0        5.651414    1.327484   -0.341514
     65          1           0        5.765800    0.181462   -1.688361
 ---------------------------------------------------------------------
 Rotational constants (GHZ):      0.2155132      0.1307971      0.1224625

 **********************************************************************

            Population analysis using the SCF density.

 **********************************************************************

 Orbital symmetries:
       Occupied  (A) (A) (A) (A) (A) (A) (A) (A) (A) (A) (A) (A)
                 (A) (A) (A) (A) (A) (A) (A) (A) (A) (A) (A) (A)
                 (A) (A) (A) (A) (A) (A) (A) (A) (A) (A) (A) (A)
                 (A) (A) (A) (A) (A) (A) (A) (A) (A) (A) (A) (A)
                 (A) (A) (A) (A) (A) (A) (A) (A) (A) (A) (A) (A)
                 (A) (A) (A) (A) (A) (A) (A) (A) (A) (A) (A) (A)
                 (A) (A) (A) (A) (A) (A) (A) (A) (A) (A) (A) (A)
                 (A) (A) (A) (A) (A) (A) (A) (A) (A) (A) (A) (A)
                 (A) (A) (A) (A) (A) (A) (A) (A) (A) (A) (A) (A)
                 (A) (A) (A) (A) (A) (A) (A)
       Virtual   (A) (A) (A) (A) (A) (A) (A) (A) (A) (A) (A) (A)
                 (A) (A) (A) (A) (A) (A) (A) (A) (A) (A) (A) (A)
                 (A) (A) (A) (A) (A) (A) (A) (A) (A) (A) (A) (A)
                 (A) (A) (A) (A) (A) (A) (A) (A) (A) (A) (A) (A)
                 (A) (A) (A) (A) (A) (A) (A) (A) (A) (A) (A) (A)
                 (A) (A) (A) (A) (A) (A) (A) (A) (A) (A) (A) (A)
                 (A) (A) (A) (A) (A) (A) (A) (A) (A) (A) (A) (A)
                 (A) (A) (A) (A) (A) (A) (A) (A) (A) (A) (A) (A)
                 (A) (A) (A) (A) (A) (A) (A) (A) (A) (A) (A) (A)
                 (A) (A) (A) (A) (A) (A) (A) (A) (A) (A) (A) (A)
                 (A) (A) (A) (A) (A) (A) (A) (A) (A) (A) (A) (A)
                 (A) (A) (A) (A) (A) (A) (A) (A) (A) (A) (A) (A)
                 (A) (A) (A) (A) (A) (A) (A) (A) (A) (A) (A) (A)
                 (A) (A) (A) (A) (A) (A) (A) (A) (A) (A) (A) (A)
                 (A) (A) (A) (A) (A) (A) (A) (A) (A) (A) (A) (A)
                 (A) (A) (A) (A) (A) (A) (A) (A) (A) (A) (A) (A)
                 (A) (A) (A) (A) (A) (A) (A) (A) (A) (A) (A) (A)
                 (A) (A) (A) (A) (A) (A) (A) (A) (A) (A) (A) (A)
                 (A) (A) (A) (A) (A) (A) (A) (A) (A) (A) (A) (A)
                 (A) (A) (A) (A) (A) (A) (A) (A) (A) (A) (A) (A)
                 (A) (A) (A) (A) (A) (A) (A) (A) (A) (A) (A) (A)
                 (A) (A) (A) (A) (A) (A) (A) (A) (A) (A) (A) (A)
                 (A) (A) (A) (A) (A) (A) (A) (A) (A) (A) (A) (A)
                 (A) (A) (A) (A) (A) (A) (A) (A) (A) (A) (A) (A)
                 (A) (A) (A) (A) (A) (A) (A) (A) (A) (A) (A) (A)
                 (A) (A) (A) (A) (A) (A) (A) (A) (A) (A) (A) (A)
                 (A) (A) (A) (A) (A) (A) (A) (A) (A) (A) (A) (A)
                 (A) (A) (A) (A) (A) (A) (A) (A) (A) (A) (A) (A)
                 (A) (A) (A) (A) (A) (A) (A) (A) (A) (A) (A) (A)
                 (A) (A) (A) (A) (A) (A) (A) (A) (A) (A) (A) (A)
                 (A) (A) (A) (A) (A) (A) (A) (A) (A) (A) (A) (A)
                 (A) (A) (A) (A) (A) (A) (A) (A) (A) (A) (A) (A)
                 (A) (A) (A) (A) (A) (A) (A) (A) (A) (A) (A) (A)
                 (A) (A) (A) (A) (A) (A) (A) (A) (A) (A) (A) (A)
                 (A) (A) (A) (A) (A) (A) (A) (A) (A) (A)
 The electronic state is 1-A.
 Alpha  occ. eigenvalues --  -19.19554 -19.16616 -19.15618 -19.12845 -19.12567
 Alpha  occ. eigenvalues --  -10.27019 -10.26935 -10.26748 -10.26693 -10.25760
 Alpha  occ. eigenvalues --  -10.25684 -10.25114 -10.21293 -10.20704 -10.20648
 Alpha  occ. eigenvalues --  -10.20530 -10.20103 -10.19697 -10.19417 -10.19216
 Alpha  occ. eigenvalues --  -10.19121 -10.18894 -10.18844 -10.18818 -10.18795
 Alpha  occ. eigenvalues --  -10.18453 -10.18431 -10.18074 -10.18064 -10.16664
 Alpha  occ. eigenvalues --  -10.16307  -1.08941  -1.05774  -1.03125  -1.02349
 Alpha  occ. eigenvalues --   -1.02292  -0.86748  -0.83644  -0.82358  -0.81454
 Alpha  occ. eigenvalues --   -0.80283  -0.79808  -0.76680  -0.74295  -0.73216
 Alpha  occ. eigenvalues --   -0.72169  -0.71512  -0.70012  -0.69432  -0.67928
 Alpha  occ. eigenvalues --   -0.65022  -0.63947  -0.63266  -0.61859  -0.60664
 Alpha  occ. eigenvalues --   -0.59411  -0.59178  -0.56968  -0.55495  -0.53633
 Alpha  occ. eigenvalues --   -0.53050  -0.52206  -0.50852  -0.50351  -0.49201
 Alpha  occ. eigenvalues --   -0.48081  -0.47062  -0.46667  -0.46061  -0.45841
 Alpha  occ. eigenvalues --   -0.45201  -0.44522  -0.44149  -0.43672  -0.43390
 Alpha  occ. eigenvalues --   -0.42888  -0.42199  -0.41950  -0.41742  -0.41527
 Alpha  occ. eigenvalues --   -0.40884  -0.40657  -0.40585  -0.40458  -0.39930
 Alpha  occ. eigenvalues --   -0.39268  -0.39064  -0.38337  -0.38157  -0.37731
 Alpha  occ. eigenvalues --   -0.37610  -0.37397  -0.37300  -0.36923  -0.36707
 Alpha  occ. eigenvalues --   -0.36600  -0.35497  -0.35314  -0.34807  -0.34449
 Alpha  occ. eigenvalues --   -0.33680  -0.33584  -0.33482  -0.32723  -0.32449
 Alpha  occ. eigenvalues --   -0.31935  -0.31227  -0.31054  -0.27995  -0.26620
 Alpha  occ. eigenvalues --   -0.26174  -0.24802  -0.24211  -0.23550  -0.22558
 Alpha virt. eigenvalues --   -0.04447  -0.00879   0.00390   0.01889   0.04723
 Alpha virt. eigenvalues --    0.06189   0.07553   0.08728   0.08953   0.10170
 Alpha virt. eigenvalues --    0.10496   0.10824   0.11286   0.11719   0.12633
 Alpha virt. eigenvalues --    0.13014   0.13098   0.13382   0.13638   0.13921
 Alpha virt. eigenvalues --    0.14176   0.14407   0.14967   0.15390   0.15951
 Alpha virt. eigenvalues --    0.16364   0.16702   0.16772   0.17237   0.17303
 Alpha virt. eigenvalues --    0.17540   0.18024   0.18379   0.18588   0.18748
 Alpha virt. eigenvalues --    0.19080   0.19275   0.19610   0.19952   0.20365
 Alpha virt. eigenvalues --    0.20608   0.20857   0.21090   0.21953   0.22356
 Alpha virt. eigenvalues --    0.22725   0.23049   0.23544   0.23922   0.24174
 Alpha virt. eigenvalues --    0.24543   0.25275   0.25957   0.26263   0.26501
 Alpha virt. eigenvalues --    0.27313   0.27394   0.28111   0.28826   0.29590
 Alpha virt. eigenvalues --    0.29816   0.31651   0.32324   0.32902   0.33862
 Alpha virt. eigenvalues --    0.34279   0.36822   0.37558   0.38439   0.39686
 Alpha virt. eigenvalues --    0.41517   0.45150   0.46433   0.48392   0.48547
 Alpha virt. eigenvalues --    0.49440   0.49692   0.50572   0.50884   0.51502
 Alpha virt. eigenvalues --    0.51899   0.52477   0.52845   0.53310   0.53418
 Alpha virt. eigenvalues --    0.53720   0.54001   0.54498   0.55267   0.56267
 Alpha virt. eigenvalues --    0.56688   0.57570   0.57971   0.58153   0.59298
 Alpha virt. eigenvalues --    0.59652   0.60122   0.60267   0.60697   0.61340
 Alpha virt. eigenvalues --    0.61841   0.62467   0.62970   0.63579   0.64342
 Alpha virt. eigenvalues --    0.65380   0.65910   0.66390   0.66929   0.67221
 Alpha virt. eigenvalues --    0.68044   0.68579   0.68790   0.69344   0.69921
 Alpha virt. eigenvalues --    0.70424   0.71283   0.71414   0.72533   0.73248
 Alpha virt. eigenvalues --    0.74206   0.74844   0.75381   0.75826   0.76325
 Alpha virt. eigenvalues --    0.76527   0.77089   0.77843   0.78367   0.79671
 Alpha virt. eigenvalues --    0.80042   0.81031   0.81175   0.81746   0.82875
 Alpha virt. eigenvalues --    0.83130   0.84019   0.84304   0.85042   0.85160
 Alpha virt. eigenvalues --    0.85527   0.86271   0.86669   0.86800   0.87082
 Alpha virt. eigenvalues --    0.87219   0.87762   0.88179   0.88301   0.88618
 Alpha virt. eigenvalues --    0.89063   0.89978   0.90096   0.90487   0.90799
 Alpha virt. eigenvalues --    0.91072   0.91371   0.91975   0.92390   0.92834
 Alpha virt. eigenvalues --    0.93006   0.93427   0.93603   0.94265   0.94541
 Alpha virt. eigenvalues --    0.94958   0.95544   0.95847   0.96469   0.96912
 Alpha virt. eigenvalues --    0.97277   0.97647   0.97751   0.99055   0.99443
 Alpha virt. eigenvalues --    1.00094   1.01020   1.02045   1.03046   1.04041
 Alpha virt. eigenvalues --    1.04664   1.05578   1.06257   1.07514   1.07942
 Alpha virt. eigenvalues --    1.08509   1.09541   1.11093   1.11842   1.12453
 Alpha virt. eigenvalues --    1.13388   1.14782   1.15689   1.16500   1.17011
 Alpha virt. eigenvalues --    1.17787   1.18030   1.19355   1.19551   1.20216
 Alpha virt. eigenvalues --    1.22185   1.23834   1.25399   1.25843   1.26069
 Alpha virt. eigenvalues --    1.28441   1.29206   1.29839   1.32237   1.32715
 Alpha virt. eigenvalues --    1.34757   1.36779   1.37720   1.38238   1.40349
 Alpha virt. eigenvalues --    1.40643   1.41287   1.42925   1.43803   1.45352
 Alpha virt. eigenvalues --    1.47002   1.49055   1.49514   1.51850   1.53226
 Alpha virt. eigenvalues --    1.53535   1.55119   1.56101   1.57924   1.58760
 Alpha virt. eigenvalues --    1.59654   1.59995   1.61081   1.62500   1.64304
 Alpha virt. eigenvalues --    1.64332   1.65448   1.65995   1.66776   1.68794
 Alpha virt. eigenvalues --    1.70313   1.71645   1.72532   1.73943   1.74356
 Alpha virt. eigenvalues --    1.74813   1.75846   1.76628   1.78498   1.78729
 Alpha virt. eigenvalues --    1.79046   1.79779   1.80541   1.81384   1.82283
 Alpha virt. eigenvalues --    1.83065   1.83788   1.84116   1.85283   1.85467
 Alpha virt. eigenvalues --    1.85972   1.86338   1.86856   1.87820   1.88641
 Alpha virt. eigenvalues --    1.88888   1.89436   1.89585   1.90450   1.91212
 Alpha virt. eigenvalues --    1.91348   1.92178   1.93787   1.94518   1.94891
 Alpha virt. eigenvalues --    1.95654   1.96398   1.96764   1.98218   1.98523
 Alpha virt. eigenvalues --    1.99297   1.99483   1.99649   2.00237   2.01862
 Alpha virt. eigenvalues --    2.02167   2.02869   2.03360   2.03909   2.04625
 Alpha virt. eigenvalues --    2.06542   2.06782   2.07113   2.08532   2.08726
 Alpha virt. eigenvalues --    2.09848   2.10192   2.12192   2.12226   2.13146
 Alpha virt. eigenvalues --    2.14396   2.15276   2.16618   2.16808   2.17806
 Alpha virt. eigenvalues --    2.18281   2.19513   2.20079   2.21370   2.22173
 Alpha virt. eigenvalues --    2.23411   2.24104   2.25529   2.25951   2.26770
 Alpha virt. eigenvalues --    2.28236   2.28943   2.29617   2.30113   2.31546
 Alpha virt. eigenvalues --    2.33051   2.33428   2.34049   2.34588   2.35005
 Alpha virt. eigenvalues --    2.35630   2.36497   2.37234   2.38164   2.38720
 Alpha virt. eigenvalues --    2.39015   2.40862   2.41617   2.42008   2.42507
 Alpha virt. eigenvalues --    2.43787   2.44339   2.45967   2.47358   2.48425
 Alpha virt. eigenvalues --    2.48662   2.50034   2.51040   2.52081   2.54794
 Alpha virt. eigenvalues --    2.55253   2.57125   2.58336   2.58586   2.59452
 Alpha virt. eigenvalues --    2.60570   2.62046   2.62501   2.63756   2.66128
 Alpha virt. eigenvalues --    2.66959   2.67645   2.69014   2.69909   2.70037
 Alpha virt. eigenvalues --    2.71184   2.72371   2.73676   2.76237   2.76481
 Alpha virt. eigenvalues --    2.77159   2.79321   2.81687   2.83890   2.85411
 Alpha virt. eigenvalues --    2.86711   2.88941   2.90730   2.94883   2.96160
 Alpha virt. eigenvalues --    2.97991   2.99742   3.00863   3.01321   3.03232
 Alpha virt. eigenvalues --    3.05622   3.06277   3.11866   3.18048   3.20134
 Alpha virt. eigenvalues --    3.24031   3.28392   4.03377   4.07741   4.12025
 Alpha virt. eigenvalues --    4.12589   4.14160   4.14282   4.16815   4.20059
 Alpha virt. eigenvalues --    4.22565   4.24283   4.26066   4.28295   4.30282
 Alpha virt. eigenvalues --    4.31658   4.35924   4.37396   4.39050   4.43559
 Alpha virt. eigenvalues --    4.44468   4.50496   4.53664   4.57361   4.60148
 Alpha virt. eigenvalues --    4.64257   4.66019   4.68239   4.74389   4.81790
 Alpha virt. eigenvalues --    4.89274   5.02483   5.16264
          Condensed to atoms (all electrons):
 Mulliken atomic charges:
              1
     1  C   -0.188454
     2  C    0.189880
     3  C   -0.187985
     4  C    0.322664
     5  C   -0.056407
     6  C   -0.333734
     7  C    0.202464
     8  C    0.402610
     9  C   -0.101897
    10  C    0.442917
    11  C    0.424407
    12  O   -0.432831
    13  C   -0.147820
    14  C   -0.264370
    15  C   -0.470041
    16  O   -0.515997
    17  C   -0.163149
    18  C    0.303839
    19  O   -0.534564
    20  C   -0.322549
    21  O   -0.654004
    22  C   -0.326535
    23  C    0.095897
    24  O   -0.591791
    25  C    0.180437
    26  C   -0.508101
    27  C   -0.392295
    28  C   -0.467303
    29  C   -0.461434
    30  H    0.143925
    31  H    0.165279
    32  C   -0.519495
    33  H    0.123089
    34  H    0.183894
    35  H    0.147309
    36  H    0.150158
    37  H    0.137410
    38  H    0.135061
    39  H    0.180202
    40  H    0.138953
    41  H    0.140417
    42  H    0.161876
    43  H    0.151083
    44  H    0.413746
    45  H    0.168294
    46  H    0.176695
    47  H    0.137573
    48  H    0.155936
    49  H    0.170291
    50  H    0.154690
    51  H    0.156194
    52  H    0.142664
    53  H    0.158676
    54  H    0.141382
    55  H    0.196648
    56  H    0.166044
    57  H    0.151230
    58  H    0.159432
    59  H    0.158235
    60  H    0.155926
    61  H    0.151924
    62  C   -0.448087
    63  H    0.170873
    64  H    0.132447
    65  H    0.146172
 Sum of Mulliken atomic charges =   0.00000
 Mulliken charges with hydrogens summed into heavy atoms:
              1
     1  C   -0.065365
     2  C    0.189880
     3  C   -0.022707
     4  C    0.322664
     5  C   -0.056407
     6  C   -0.002532
     7  C    0.202464
     8  C    0.402610
     9  C   -0.101897
    10  C    0.442917
    11  C    0.424407
    12  O   -0.432831
    13  C    0.002338
    14  C    0.008101
    15  C   -0.010468
    16  O   -0.515997
    17  C   -0.019224
    18  C    0.303839
    19  O   -0.534564
    20  C   -0.009590
    21  O   -0.240259
    22  C    0.018454
    23  C    0.233471
    24  O   -0.591791
    25  C    0.180437
    26  C   -0.027183
    27  C   -0.093436
    28  C    0.029402
    29  C    0.015272
    32  C   -0.053410
    62  C    0.001406
 Sum of Mulliken charges with hydrogens summed into heavy atoms =   0.00000
 Electronic spatial extent (au):  <R**2>=          10894.6226
 Charge=              0.0000 electrons
 Dipole moment (field-independent basis, Debye):
    X=             -2.8021    Y=              2.4338    Z=              5.6726  Tot=              6.7789
 Quadrupole moment (field-independent basis, Debye-Ang):
   XX=           -175.4178   YY=           -181.1810   ZZ=           -192.4415
   XY=              2.0480   XZ=             11.7440   YZ=             -0.8773
 Traceless Quadrupole moment (field-independent basis, Debye-Ang):
   XX=              7.5956   YY=              1.8324   ZZ=             -9.4281
   XY=              2.0480   XZ=             11.7440   YZ=             -0.8773
 Octapole moment (field-independent basis, Debye-Ang**2):
  XXX=            -33.4243  YYY=             43.6418  ZZZ=             30.0036  XYY=              2.3684
  XXY=              2.4623  XXZ=             -3.7886  XZZ=            -32.9709  YZZ=             13.7795
  YYZ=             22.1218  XYZ=              1.4694
 Hexadecapole moment (field-independent basis, Debye-Ang**3):
 XXXX=          -7653.6023 YYYY=          -3655.8258 ZZZZ=          -3044.9112 XXXY=           -108.0853
 XXXZ=             64.4617 YYYX=             35.4288 YYYZ=            -14.8540 ZZZX=             93.4737
 ZZZY=             -9.1838 XXYY=          -1879.4322 XXZZ=          -1862.8395 YYZZ=          -1126.7948
 XXYZ=            -12.9334 YYXZ=             -2.8145 ZZXY=             -4.0617
 N-N= 3.553585301288D+03 E-N=-1.033322552840D+04  KE= 1.374453838067D+03
 1\1\GINC-B0801\FOpt\RB3LYP\6-31G(d)\C26H34O5\CAOFEI\24-Mar-2021\0\\# o
 pt rb3lyp/6-31g(d) geom=connectivity\\Title Card Required\\0,1\C,0.062
 1523615,-0.0154787049,0.1444425492\C,1.4008661028,-0.0122416085,0.1587
 87902\C,2.1857546169,1.2820195732,0.1033889969\C,1.3693444921,2.558502
 551,-0.2755337148\C,-0.1250181042,2.4004555966,-0.665927801\C,-0.78856
 61122,1.2228716077,0.0880689738\C,2.2156818609,3.2420718073,-1.3829277
 193\C,1.8686224331,2.7606457132,-2.7742982602\C,0.6421426193,2.3576822
 335,-3.1713948832\C,-0.4266715467,2.2364471264,-2.179749252\C,0.288128
 958,2.0936343213,-4.6304716605\O,0.0297119787,3.0391370147,-5.34935681
 19\C,0.3180668409,0.6647621651,-5.1745935288\C,1.768315628,0.285289531
 8,-5.5769183178\C,-0.2773082111,-0.3813720653,-4.2206430631\O,-1.57888
 82484,1.9802587864,-2.5195367002\C,3.6584541175,2.7006100727,-1.290506
 9141\C,4.1943999304,2.9112971652,-2.7284231868\O,2.9647960718,2.739868
 5433,-3.5525617573\C,3.4126900758,1.2416184168,-0.8562492426\O,2.08616
 89447,4.6505470707,-1.3615689419\C,-0.7200680524,3.7521149798,-0.18989
 80907\C,0.0538922747,4.0284826032,1.0957338899\O,1.3765677058,3.458210
 4853,0.861154475\C,0.2272976697,5.4609900744,1.5579990367\C,1.06716462
 38,5.6251378257,2.8023711219\C,-0.3448634988,6.4993065533,0.9406151083
 \C,4.7219051984,4.3278615201,-2.9667685498\C,5.1923979452,1.8708497764
 ,-3.2293938843\H,4.2515766823,3.2500562629,-0.5530786381\H,2.566749354
 3,1.4883544863,1.1139583845\C,2.1972873559,-1.2845809766,0.3142527969\
 H,-0.4636502865,-0.9659225263,0.2271667545\H,-1.7439370172,1.017798542
 4,-0.4038216947\H,-1.0344539889,1.5325230888,1.1149964432\H,-0.2837652
 366,0.7042535871,-6.0913831635\H,2.4098736246,0.3183610641,-4.68653577
 54\H,1.7479691877,-0.7639480543,-5.9016876499\H,-1.3042306644,-0.13156
 68911,-3.9430171605\H,-0.2747715068,-1.3649833023,-4.7042734093\H,0.30
 87079277,-0.4636187398,-3.2972219598\H,3.1663742033,0.6287469595,-1.73
 04225975\H,4.2891188698,0.7882260727,-0.3842643409\H,2.0145220449,4.87
 28848132,-0.4121538772\H,-1.8001153034,3.6868262849,-0.0344281557\H,-0
 .520167269,4.5275660688,-0.9341337307\H,-0.3907705056,3.4624903011,1.9
 292321082\H,0.6199528288,5.0867177513,3.6494567126\H,2.0686540279,5.20
 37629578,2.6582676995\H,1.1671327863,6.6778749774,3.0823959039\H,-0.96
 28123843,6.3910659678,0.0552050846\H,-0.2187687554,7.5117197087,1.3161
 317112\H,4.9141677726,4.4773056129,-4.0341102605\H,5.6640759918,4.4722
 608447,-2.4253101983\H,4.0019235083,5.073332987,-2.6253493288\H,5.4383
 232384,2.0624498832,-4.2786585652\H,6.1180880469,1.9320836717,-2.64632
 7419\H,4.801511596,0.8535186803,-3.1517513299\H,1.5383626983,-2.152971
 1624,0.4101679287\H,2.865672137,-1.4629243443,-0.5376969401\H,2.834921
 2633,-1.2439234423,1.2090559552\C,2.3744782542,1.153129258,-6.68369450
 19\H,2.4625790017,2.1980104099,-6.3725908469\H,3.3753771686,0.79342734
 72,-6.9500206823\H,1.7563046714,1.1268111134,-7.5886950299\\Version=EM
 64L-G09RevB.01\State=1-A\HF=-1387.3159162\RMSD=6.105e-09\RMSF=4.374e-0
 6\Dipole=1.7166568,-0.629449,1.9416017\Quadrupole=0.9478413,3.3044396,
 -4.2522809,-0.6416625,-7.0600391,7.4307233\PG=C01 [X(C26H34O5)]\\@


 BREAD HAS TO MOLD IN ORDER TO GET PENICILLIN.
          -- JERRY BOATZ
 Job cpu time:  0 days  4 hours 44 minutes  7.4 seconds.
 File lengths (MBytes):  RWF=    186 Int=      0 D2E=      0 Chk=     20 Scr=      1
 Normal termination of Gaussian 09 at Wed Mar 24 16:34:04 2021.
