 Entering Gaussian System, Link 0=g09
 Initial command:
 /public/software/g09/g09/l1.exe /tmp/Gau-11871.inp -scrdir=/tmp/
 Entering Link 1 = /public/software/g09/g09/l1.exe PID=     11872.
  
 Copyright (c) 1988,1990,1992,1993,1995,1998,2003,2009,2010,
            Gaussian, Inc.  All Rights Reserved.
  
 This is part of the Gaussian(R) 09 program.  It is based on
 the Gaussian(R) 03 system (copyright 2003, Gaussian, Inc.),
 the Gaussian(R) 98 system (copyright 1998, Gaussian, Inc.),
 the Gaussian(R) 94 system (copyright 1995, Gaussian, Inc.),
 the Gaussian 92(TM) system (copyright 1992, Gaussian, Inc.),
 the Gaussian 90(TM) system (copyright 1990, Gaussian, Inc.),
 the Gaussian 88(TM) system (copyright 1988, Gaussian, Inc.),
 the Gaussian 86(TM) system (copyright 1986, Carnegie Mellon
 University), and the Gaussian 82(TM) system (copyright 1983,
 Carnegie Mellon University). Gaussian is a federally registered
 trademark of Gaussian, Inc.
  
 This software contains proprietary and confidential information,
 including trade secrets, belonging to Gaussian, Inc.
  
 This software is provided under written license and may be
 used, copied, transmitted, or stored only in accord with that
 written license.
  
 The following legend is applicable only to US Government
 contracts under FAR:
  
                    RESTRICTED RIGHTS LEGEND
  
 Use, reproduction and disclosure by the US Government is
 subject to restrictions as set forth in subparagraphs (a)
 and (c) of the Commercial Computer Software - Restricted
 Rights clause in FAR 52.227-19.
  
 Gaussian, Inc.
 340 Quinnipiac St., Bldg. 40, Wallingford CT 06492
  
  
 ---------------------------------------------------------------
 Warning -- This program may not be used in any manner that
 competes with the business of Gaussian, Inc. or will provide
 assistance to any competitor of Gaussian, Inc.  The licensee
 of this program is prohibited from giving any competitor of
 Gaussian, Inc. access to this program.  By using this program,
 the user acknowledges that Gaussian, Inc. is engaged in the
 business of creating and licensing software in the field of
 computational chemistry and represents and warrants to the
 licensee that it is not a competitor of Gaussian, Inc. and that
 it will not use this program in any manner prohibited above.
 ---------------------------------------------------------------
  

 Cite this work as:
 Gaussian 09, Revision B.01,
 M. J. Frisch, G. W. Trucks, H. B. Schlegel, G. E. Scuseria, 
 M. A. Robb, J. R. Cheeseman, G. Scalmani, V. Barone, B. Mennucci, 
 G. A. Petersson, H. Nakatsuji, M. Caricato, X. Li, H. P. Hratchian, 
 A. F. Izmaylov, J. Bloino, G. Zheng, J. L. Sonnenberg, M. Hada, 
 M. Ehara, K. Toyota, R. Fukuda, J. Hasegawa, M. Ishida, T. Nakajima, 
 Y. Honda, O. Kitao, H. Nakai, T. Vreven, J. A. Montgomery, Jr., 
 J. E. Peralta, F. Ogliaro, M. Bearpark, J. J. Heyd, E. Brothers, 
 K. N. Kudin, V. N. Staroverov, T. Keith, R. Kobayashi, J. Normand, 
 K. Raghavachari, A. Rendell, J. C. Burant, S. S. Iyengar, J. Tomasi, 
 M. Cossi, N. Rega, J. M. Millam, M. Klene, J. E. Knox, J. B. Cross, 
 V. Bakken, C. Adamo, J. Jaramillo, R. Gomperts, R. E. Stratmann, 
 O. Yazyev, A. J. Austin, R. Cammi, C. Pomelli, J. W. Ochterski, 
 R. L. Martin, K. Morokuma, V. G. Zakrzewski, G. A. Voth, 
 P. Salvador, J. J. Dannenberg, S. Dapprich, A. D. Daniels, 
 O. Farkas, J. B. Foresman, J. V. Ortiz, J. Cioslowski, 
 and D. J. Fox, Gaussian, Inc., Wallingford CT, 2010.
 
 ******************************************
 Gaussian 09:  EM64L-G09RevB.01 12-Aug-2010
                24-Mar-2021 
 ******************************************
 %mem=600MW
 %nprocshared=10
 Will use up to   10 processors via shared memory.
 ---------------------------------------
 # opt rb3lyp/6-31g(d) geom=connectivity
 ---------------------------------------
 1/14=-1,18=20,19=15,26=3,38=1,57=2/1,3;
 2/9=110,12=2,17=6,18=5,40=1/2;
 3/5=1,6=6,7=1,11=2,16=1,25=1,30=1,71=1,74=-5,116=1/1,2,3;
 4//1;
 5/5=2,38=5/2;
 6/7=2,8=2,9=2,10=2,28=1/1;
 7//1,2,3,16;
 1/14=-1,18=20,19=15/3(2);
 2/9=110/2;
 99//99;
 2/9=110/2;
 3/5=1,6=6,7=1,11=2,16=1,25=1,30=1,71=1,74=-5,116=1/1,2,3;
 4/5=5,16=3/1;
 5/5=2,38=5/2;
 7//1,2,3,16;
 1/14=-1,18=20,19=15/3(-5);
 2/9=110/2;
 6/7=2,8=2,9=2,10=2,19=2,28=1/1;
 99/9=1/99;
 -------------------
 Title Card Required
 -------------------
 Symbolic Z-matrix:
 Charge =  0 Multiplicity = 1
 C                     0.        0.        0. 
 C                     1.3417    0.        0. 
 C                     2.1325    1.2889    0. 
 C                     1.3333    2.5795   -0.345 
 C                    -0.1536    2.4376   -0.7006 
 C                    -0.8236    1.2476    0.0174 
 C                     2.1517    3.2684   -1.4542 
 C                     1.8095    2.8573   -2.8467 
 C                     0.5988    2.4225   -3.215 
 C                    -0.4772    2.3427   -2.1992 
 C                     0.3699    1.9694   -4.6135 
 O                     0.6268    2.7047   -5.5664 
 C                    -0.1502    0.5474   -4.8083 
 C                    -1.3828    0.5753   -5.723 
 C                     0.9859   -0.3079   -5.3663 
 O                    -1.6412    2.1949   -2.5797 
 C                     3.5643    2.7307   -1.3722 
 C                     4.0856    2.9336   -2.8097 
 O                     2.9314    2.7546   -3.6676 
 C                     3.3256    1.2657   -0.9718 
 O                     2.101     4.6811   -1.3579 
 C                    -0.7262    3.7571   -0.18 
 C                     0.0882    4.0115    1.0827 
 O                     1.3918    3.4537    0.8244 
 C                     0.2578    5.4363    1.5589 
 C                     1.157     5.6067    2.7573 
 C                    -0.348     6.5075    1.0182 
 C                     4.6499    4.3429   -3.0498 
 C                     5.1539    1.9142   -3.2211 
 H                     4.1829    3.2452   -0.6279 
 H                     2.5472    1.3983    1.0131 
 C                     2.1123   -1.2895    0.1048 
 H                    -0.5465   -0.9399    0.0564 
 H                    -1.0413    1.4767    1.0675 
 H                    -1.7965    1.0202   -0.4357 
 H                    -0.4392    0.1336   -3.8351 
 H                    -2.0927    1.3255   -5.3525 
 H                    -1.1001    0.8935   -6.7342 
 H                     1.8763   -0.2331   -4.7316 
 H                     0.7023   -1.3634   -5.4153 
 H                     1.2727    0.0169   -6.3725 
 H                     3.0886    0.6412   -1.8419 
 H                     4.2195    0.8383   -0.5034 
 H                     2.1649    4.8919   -0.405 
 H                    -1.8019    3.718     0.0256 
 H                    -0.571     4.545    -0.9273 
 H                    -0.3404    3.435     1.9118 
 H                     1.1789    6.642     3.1144 
 H                     0.8086    4.9807    3.5854 
 H                     2.1849    5.3214    2.5116 
 H                    -1.0207    6.4379    0.1703 
 H                    -0.1899    7.5058    1.4169 
 H                     5.0073    4.4434   -4.0816 
 H                     5.4853    4.5564   -2.3752 
 H                     3.8952    5.1242   -2.9289 
 H                     5.5146    2.1196   -4.236 
 H                     6.0109    1.9381   -2.5404 
 H                     4.7584    0.8944   -3.2572 
 H                     1.4534   -2.1507    0.2594 
 H                     2.6864   -1.4753   -0.8078 
 H                     2.8041   -1.2496    0.9525 
 C                    -2.0983   -0.765    -5.8035 
 H                    -2.3862   -1.117    -4.8078 
 H                    -3.0085   -0.6691   -6.4043 
 H                    -1.4702   -1.5277   -6.2728 
 

 GradGradGradGradGradGradGradGradGradGradGradGradGradGradGradGradGradGrad
 Berny optimization.
 Initialization pass.
                           ----------------------------
                           !    Initial Parameters    !
                           ! (Angstroms and Degrees)  !
 --------------------------                            --------------------------
 ! Name  Definition              Value          Derivative Info.                !
 --------------------------------------------------------------------------------
 ! R1    R(1,2)                  1.3417         estimate D2E/DX2                !
 ! R2    R(1,6)                  1.495          estimate D2E/DX2                !
 ! R3    R(1,33)                 1.0887         estimate D2E/DX2                !
 ! R4    R(2,3)                  1.5122         estimate D2E/DX2                !
 ! R5    R(2,32)                 1.5059         estimate D2E/DX2                !
 ! R6    R(3,4)                  1.5567         estimate D2E/DX2                !
 ! R7    R(3,20)                 1.539          estimate D2E/DX2                !
 ! R8    R(3,31)                 1.1001         estimate D2E/DX2                !
 ! R9    R(4,5)                  1.5354         estimate D2E/DX2                !
 ! R10   R(4,7)                  1.541          estimate D2E/DX2                !
 ! R11   R(4,24)                 1.4612         estimate D2E/DX2                !
 ! R12   R(5,6)                  1.5429         estimate D2E/DX2                !
 ! R13   R(5,10)                 1.5361         estimate D2E/DX2                !
 ! R14   R(5,22)                 1.5297         estimate D2E/DX2                !
 ! R15   R(6,34)                 1.0966         estimate D2E/DX2                !
 ! R16   R(6,35)                 1.0971         estimate D2E/DX2                !
 ! R17   R(7,8)                  1.4917         estimate D2E/DX2                !
 ! R18   R(7,17)                 1.5137         estimate D2E/DX2                !
 ! R19   R(7,21)                 1.4169         estimate D2E/DX2                !
 ! R20   R(8,9)                  1.3381         estimate D2E/DX2                !
 ! R21   R(8,19)                 1.3939         estimate D2E/DX2                !
 ! R22   R(9,10)                 1.4819         estimate D2E/DX2                !
 ! R23   R(9,11)                 1.4878         estimate D2E/DX2                !
 ! R24   R(10,16)                1.2335         estimate D2E/DX2                !
 ! R25   R(11,12)                1.2307         estimate D2E/DX2                !
 ! R26   R(11,13)                1.5266         estimate D2E/DX2                !
 ! R27   R(13,14)                1.5352         estimate D2E/DX2                !
 ! R28   R(13,15)                1.5276         estimate D2E/DX2                !
 ! R29   R(13,36)                1.0963         estimate D2E/DX2                !
 ! R30   R(14,37)                1.0973         estimate D2E/DX2                !
 ! R31   R(14,38)                1.0971         estimate D2E/DX2                !
 ! R32   R(14,62)                1.5215         estimate D2E/DX2                !
 ! R33   R(15,39)                1.096          estimate D2E/DX2                !
 ! R34   R(15,40)                1.094          estimate D2E/DX2                !
 ! R35   R(15,41)                1.0955         estimate D2E/DX2                !
 ! R36   R(17,18)                1.5425         estimate D2E/DX2                !
 ! R37   R(17,20)                1.5374         estimate D2E/DX2                !
 ! R38   R(17,30)                1.0961         estimate D2E/DX2                !
 ! R39   R(18,19)                1.4492         estimate D2E/DX2                !
 ! R40   R(18,28)                1.5369         estimate D2E/DX2                !
 ! R41   R(18,29)                1.5329         estimate D2E/DX2                !
 ! R42   R(20,42)                1.0969         estimate D2E/DX2                !
 ! R43   R(20,43)                1.096          estimate D2E/DX2                !
 ! R44   R(21,44)                0.978          estimate D2E/DX2                !
 ! R45   R(22,23)                1.5239         estimate D2E/DX2                !
 ! R46   R(22,45)                1.0959         estimate D2E/DX2                !
 ! R47   R(22,46)                1.097          estimate D2E/DX2                !
 ! R48   R(23,24)                1.4413         estimate D2E/DX2                !
 ! R49   R(23,25)                1.5118         estimate D2E/DX2                !
 ! R50   R(23,47)                1.097          estimate D2E/DX2                !
 ! R51   R(25,26)                1.5079         estimate D2E/DX2                !
 ! R52   R(25,27)                1.3442         estimate D2E/DX2                !
 ! R53   R(26,48)                1.0954         estimate D2E/DX2                !
 ! R54   R(26,49)                1.095          estimate D2E/DX2                !
 ! R55   R(26,50)                1.0947         estimate D2E/DX2                !
 ! R56   R(27,51)                1.0846         estimate D2E/DX2                !
 ! R57   R(27,52)                1.0865         estimate D2E/DX2                !
 ! R58   R(28,53)                1.0966         estimate D2E/DX2                !
 ! R59   R(28,54)                1.0948         estimate D2E/DX2                !
 ! R60   R(28,55)                1.093          estimate D2E/DX2                !
 ! R61   R(29,56)                1.0965         estimate D2E/DX2                !
 ! R62   R(29,57)                1.0947         estimate D2E/DX2                !
 ! R63   R(29,58)                1.0944         estimate D2E/DX2                !
 ! R64   R(32,59)                1.0953         estimate D2E/DX2                !
 ! R65   R(32,60)                1.0941         estimate D2E/DX2                !
 ! R66   R(32,61)                1.0949         estimate D2E/DX2                !
 ! R67   R(62,63)                1.0946         estimate D2E/DX2                !
 ! R68   R(62,64)                1.0948         estimate D2E/DX2                !
 ! R69   R(62,65)                1.0938         estimate D2E/DX2                !
 ! A1    A(2,1,6)              123.4281         estimate D2E/DX2                !
 ! A2    A(2,1,33)             120.1309         estimate D2E/DX2                !
 ! A3    A(6,1,33)             116.315          estimate D2E/DX2                !
 ! A4    A(1,2,3)              121.531          estimate D2E/DX2                !
 ! A5    A(1,2,32)             120.7794         estimate D2E/DX2                !
 ! A6    A(3,2,32)             117.534          estimate D2E/DX2                !
 ! A7    A(2,3,4)              115.9868         estimate D2E/DX2                !
 ! A8    A(2,3,20)             113.1152         estimate D2E/DX2                !
 ! A9    A(2,3,31)             106.373          estimate D2E/DX2                !
 ! A10   A(4,3,20)             105.6977         estimate D2E/DX2                !
 ! A11   A(4,3,31)             108.3707         estimate D2E/DX2                !
 ! A12   A(20,3,31)            106.9038         estimate D2E/DX2                !
 ! A13   A(3,4,5)              118.1561         estimate D2E/DX2                !
 ! A14   A(3,4,7)              104.9213         estimate D2E/DX2                !
 ! A15   A(3,4,24)             107.3424         estimate D2E/DX2                !
 ! A16   A(5,4,7)              112.8872         estimate D2E/DX2                !
 ! A17   A(5,4,24)             106.225          estimate D2E/DX2                !
 ! A18   A(7,4,24)             106.6981         estimate D2E/DX2                !
 ! A19   A(4,5,6)              112.5838         estimate D2E/DX2                !
 ! A20   A(4,5,10)             115.8281         estimate D2E/DX2                !
 ! A21   A(4,5,22)             101.7685         estimate D2E/DX2                !
 ! A22   A(6,5,10)             108.3532         estimate D2E/DX2                !
 ! A23   A(6,5,22)             110.1434         estimate D2E/DX2                !
 ! A24   A(10,5,22)            107.846          estimate D2E/DX2                !
 ! A25   A(1,6,5)              113.515          estimate D2E/DX2                !
 ! A26   A(1,6,34)             107.1482         estimate D2E/DX2                !
 ! A27   A(1,6,35)             108.1051         estimate D2E/DX2                !
 ! A28   A(5,6,34)             111.7582         estimate D2E/DX2                !
 ! A29   A(5,6,35)             110.6571         estimate D2E/DX2                !
 ! A30   A(34,6,35)            105.2329         estimate D2E/DX2                !
 ! A31   A(4,7,8)              115.2704         estimate D2E/DX2                !
 ! A32   A(4,7,17)             107.3266         estimate D2E/DX2                !
 ! A33   A(4,7,21)             112.1976         estimate D2E/DX2                !
 ! A34   A(8,7,17)              99.5992         estimate D2E/DX2                !
 ! A35   A(8,7,21)             109.2697         estimate D2E/DX2                !
 ! A36   A(17,7,21)            112.5745         estimate D2E/DX2                !
 ! A37   A(7,8,9)              123.6455         estimate D2E/DX2                !
 ! A38   A(7,8,19)             112.6695         estimate D2E/DX2                !
 ! A39   A(9,8,19)             122.8323         estimate D2E/DX2                !
 ! A40   A(8,9,10)             119.0648         estimate D2E/DX2                !
 ! A41   A(8,9,11)             119.7945         estimate D2E/DX2                !
 ! A42   A(10,9,11)            121.0796         estimate D2E/DX2                !
 ! A43   A(5,10,9)             120.8279         estimate D2E/DX2                !
 ! A44   A(5,10,16)            120.4739         estimate D2E/DX2                !
 ! A45   A(9,10,16)            118.6979         estimate D2E/DX2                !
 ! A46   A(9,11,12)            120.9125         estimate D2E/DX2                !
 ! A47   A(9,11,13)            117.1319         estimate D2E/DX2                !
 ! A48   A(12,11,13)           121.9265         estimate D2E/DX2                !
 ! A49   A(11,13,14)           109.4293         estimate D2E/DX2                !
 ! A50   A(11,13,15)           108.3464         estimate D2E/DX2                !
 ! A51   A(11,13,36)           109.1549         estimate D2E/DX2                !
 ! A52   A(14,13,15)           112.9334         estimate D2E/DX2                !
 ! A53   A(14,13,36)           108.9127         estimate D2E/DX2                !
 ! A54   A(15,13,36)           107.9977         estimate D2E/DX2                !
 ! A55   A(13,14,37)           109.3108         estimate D2E/DX2                !
 ! A56   A(13,14,38)           110.3373         estimate D2E/DX2                !
 ! A57   A(13,14,62)           113.1476         estimate D2E/DX2                !
 ! A58   A(37,14,38)           106.2376         estimate D2E/DX2                !
 ! A59   A(37,14,62)           108.4152         estimate D2E/DX2                !
 ! A60   A(38,14,62)           109.1418         estimate D2E/DX2                !
 ! A61   A(13,15,39)           110.7594         estimate D2E/DX2                !
 ! A62   A(13,15,40)           111.3303         estimate D2E/DX2                !
 ! A63   A(13,15,41)           111.3577         estimate D2E/DX2                !
 ! A64   A(39,15,40)           107.6002         estimate D2E/DX2                !
 ! A65   A(39,15,41)           107.3955         estimate D2E/DX2                !
 ! A66   A(40,15,41)           108.2257         estimate D2E/DX2                !
 ! A67   A(7,17,18)            102.6018         estimate D2E/DX2                !
 ! A68   A(7,17,20)            101.9884         estimate D2E/DX2                !
 ! A69   A(7,17,30)            113.3739         estimate D2E/DX2                !
 ! A70   A(18,17,20)           114.8683         estimate D2E/DX2                !
 ! A71   A(18,17,30)           112.3557         estimate D2E/DX2                !
 ! A72   A(20,17,30)           110.9822         estimate D2E/DX2                !
 ! A73   A(17,18,19)           105.4425         estimate D2E/DX2                !
 ! A74   A(17,18,28)           112.972          estimate D2E/DX2                !
 ! A75   A(17,18,29)           113.4638         estimate D2E/DX2                !
 ! A76   A(19,18,28)           108.2519         estimate D2E/DX2                !
 ! A77   A(19,18,29)           108.3027         estimate D2E/DX2                !
 ! A78   A(28,18,29)           108.179          estimate D2E/DX2                !
 ! A79   A(8,19,18)            106.4562         estimate D2E/DX2                !
 ! A80   A(3,20,17)            105.692          estimate D2E/DX2                !
 ! A81   A(3,20,42)            109.9968         estimate D2E/DX2                !
 ! A82   A(3,20,43)            111.6125         estimate D2E/DX2                !
 ! A83   A(17,20,42)           111.6832         estimate D2E/DX2                !
 ! A84   A(17,20,43)           110.8726         estimate D2E/DX2                !
 ! A85   A(42,20,43)           107.0505         estimate D2E/DX2                !
 ! A86   A(7,21,44)            106.1875         estimate D2E/DX2                !
 ! A87   A(5,22,23)            103.0585         estimate D2E/DX2                !
 ! A88   A(5,22,45)            113.6098         estimate D2E/DX2                !
 ! A89   A(5,22,46)            109.5575         estimate D2E/DX2                !
 ! A90   A(23,22,45)           112.0289         estimate D2E/DX2                !
 ! A91   A(23,22,46)           111.651          estimate D2E/DX2                !
 ! A92   A(45,22,46)           106.9966         estimate D2E/DX2                !
 ! A93   A(22,23,24)           105.6796         estimate D2E/DX2                !
 ! A94   A(22,23,25)           118.5724         estimate D2E/DX2                !
 ! A95   A(22,23,47)           109.2506         estimate D2E/DX2                !
 ! A96   A(24,23,25)           108.6466         estimate D2E/DX2                !
 ! A97   A(24,23,47)           106.5852         estimate D2E/DX2                !
 ! A98   A(25,23,47)           107.52           estimate D2E/DX2                !
 ! A99   A(4,24,23)            109.8013         estimate D2E/DX2                !
 ! A100  A(23,25,26)           115.0705         estimate D2E/DX2                !
 ! A101  A(23,25,27)           125.0147         estimate D2E/DX2                !
 ! A102  A(26,25,27)           119.8935         estimate D2E/DX2                !
 ! A103  A(25,26,48)           112.1989         estimate D2E/DX2                !
 ! A104  A(25,26,49)           110.2854         estimate D2E/DX2                !
 ! A105  A(25,26,50)           110.6166         estimate D2E/DX2                !
 ! A106  A(48,26,49)           107.4669         estimate D2E/DX2                !
 ! A107  A(48,26,50)           107.5012         estimate D2E/DX2                !
 ! A108  A(49,26,50)           108.6332         estimate D2E/DX2                !
 ! A109  A(25,27,51)           122.879          estimate D2E/DX2                !
 ! A110  A(25,27,52)           121.2664         estimate D2E/DX2                !
 ! A111  A(51,27,52)           115.8542         estimate D2E/DX2                !
 ! A112  A(18,28,53)           110.53           estimate D2E/DX2                !
 ! A113  A(18,28,54)           111.2676         estimate D2E/DX2                !
 ! A114  A(18,28,55)           112.6228         estimate D2E/DX2                !
 ! A115  A(53,28,54)           108.2535         estimate D2E/DX2                !
 ! A116  A(53,28,55)           105.2849         estimate D2E/DX2                !
 ! A117  A(54,28,55)           108.6226         estimate D2E/DX2                !
 ! A118  A(18,29,56)           110.6768         estimate D2E/DX2                !
 ! A119  A(18,29,57)           111.3579         estimate D2E/DX2                !
 ! A120  A(18,29,58)           112.1287         estimate D2E/DX2                !
 ! A121  A(56,29,57)           108.2957         estimate D2E/DX2                !
 ! A122  A(56,29,58)           105.2423         estimate D2E/DX2                !
 ! A123  A(57,29,58)           108.891          estimate D2E/DX2                !
 ! A124  A(2,32,59)            112.0411         estimate D2E/DX2                !
 ! A125  A(2,32,60)            110.8489         estimate D2E/DX2                !
 ! A126  A(2,32,61)            110.2437         estimate D2E/DX2                !
 ! A127  A(59,32,60)           107.4502         estimate D2E/DX2                !
 ! A128  A(59,32,61)           107.4256         estimate D2E/DX2                !
 ! A129  A(60,32,61)           108.6905         estimate D2E/DX2                !
 ! A130  A(14,62,63)           111.0291         estimate D2E/DX2                !
 ! A131  A(14,62,64)           110.0502         estimate D2E/DX2                !
 ! A132  A(14,62,65)           111.5253         estimate D2E/DX2                !
 ! A133  A(63,62,64)           107.9797         estimate D2E/DX2                !
 ! A134  A(63,62,65)           108.4859         estimate D2E/DX2                !
 ! A135  A(64,62,65)           107.6393         estimate D2E/DX2                !
 ! D1    D(6,1,2,3)             -0.799          estimate D2E/DX2                !
 ! D2    D(6,1,2,32)           174.5546         estimate D2E/DX2                !
 ! D3    D(33,1,2,3)          -176.566          estimate D2E/DX2                !
 ! D4    D(33,1,2,32)           -1.2123         estimate D2E/DX2                !
 ! D5    D(2,1,6,5)             31.2776         estimate D2E/DX2                !
 ! D6    D(2,1,6,34)           -92.5939         estimate D2E/DX2                !
 ! D7    D(2,1,6,35)           154.4408         estimate D2E/DX2                !
 ! D8    D(33,1,6,5)          -152.8065         estimate D2E/DX2                !
 ! D9    D(33,1,6,34)           83.322          estimate D2E/DX2                !
 ! D10   D(33,1,6,35)          -29.6432         estimate D2E/DX2                !
 ! D11   D(1,2,3,4)            -14.2732         estimate D2E/DX2                !
 ! D12   D(1,2,3,20)          -136.6398         estimate D2E/DX2                !
 ! D13   D(1,2,3,31)           106.3005         estimate D2E/DX2                !
 ! D14   D(32,2,3,4)           170.2282         estimate D2E/DX2                !
 ! D15   D(32,2,3,20)           47.8617         estimate D2E/DX2                !
 ! D16   D(32,2,3,31)          -69.1981         estimate D2E/DX2                !
 ! D17   D(1,2,32,59)           -4.7646         estimate D2E/DX2                !
 ! D18   D(1,2,32,60)          115.2603         estimate D2E/DX2                !
 ! D19   D(1,2,32,61)         -124.3461         estimate D2E/DX2                !
 ! D20   D(3,2,32,59)          170.7696         estimate D2E/DX2                !
 ! D21   D(3,2,32,60)          -69.2055         estimate D2E/DX2                !
 ! D22   D(3,2,32,61)           51.1881         estimate D2E/DX2                !
 ! D23   D(2,3,4,5)             -2.1359         estimate D2E/DX2                !
 ! D24   D(2,3,4,7)           -128.9438         estimate D2E/DX2                !
 ! D25   D(2,3,4,24)           117.8071         estimate D2E/DX2                !
 ! D26   D(20,3,4,5)           124.0673         estimate D2E/DX2                !
 ! D27   D(20,3,4,7)            -2.7405         estimate D2E/DX2                !
 ! D28   D(20,3,4,24)         -115.9897         estimate D2E/DX2                !
 ! D29   D(31,3,4,5)          -121.6286         estimate D2E/DX2                !
 ! D30   D(31,3,4,7)           111.5636         estimate D2E/DX2                !
 ! D31   D(31,3,4,24)           -1.6856         estimate D2E/DX2                !
 ! D32   D(2,3,20,17)          152.7609         estimate D2E/DX2                !
 ! D33   D(2,3,20,42)           32.0548         estimate D2E/DX2                !
 ! D34   D(2,3,20,43)          -86.6171         estimate D2E/DX2                !
 ! D35   D(4,3,20,17)           24.8212         estimate D2E/DX2                !
 ! D36   D(4,3,20,42)          -95.8849         estimate D2E/DX2                !
 ! D37   D(4,3,20,43)          145.4431         estimate D2E/DX2                !
 ! D38   D(31,3,20,17)         -90.4919         estimate D2E/DX2                !
 ! D39   D(31,3,20,42)         148.802          estimate D2E/DX2                !
 ! D40   D(31,3,20,43)          30.13           estimate D2E/DX2                !
 ! D41   D(3,4,5,6)             30.5801         estimate D2E/DX2                !
 ! D42   D(3,4,5,10)           -94.8839         estimate D2E/DX2                !
 ! D43   D(3,4,5,22)           148.4608         estimate D2E/DX2                !
 ! D44   D(7,4,5,6)            153.4648         estimate D2E/DX2                !
 ! D45   D(7,4,5,10)            28.0009         estimate D2E/DX2                !
 ! D46   D(7,4,5,22)           -88.6545         estimate D2E/DX2                !
 ! D47   D(24,4,5,6)           -89.9412         estimate D2E/DX2                !
 ! D48   D(24,4,5,10)          144.5949         estimate D2E/DX2                !
 ! D49   D(24,4,5,22)           27.9395         estimate D2E/DX2                !
 ! D50   D(3,4,7,8)             89.0986         estimate D2E/DX2                !
 ! D51   D(3,4,7,17)           -20.8051         estimate D2E/DX2                !
 ! D52   D(3,4,7,21)          -144.973          estimate D2E/DX2                !
 ! D53   D(5,4,7,8)            -40.885          estimate D2E/DX2                !
 ! D54   D(5,4,7,17)          -150.7887         estimate D2E/DX2                !
 ! D55   D(5,4,7,21)            85.0434         estimate D2E/DX2                !
 ! D56   D(24,4,7,8)          -157.1981         estimate D2E/DX2                !
 ! D57   D(24,4,7,17)           92.8982         estimate D2E/DX2                !
 ! D58   D(24,4,7,21)          -31.2697         estimate D2E/DX2                !
 ! D59   D(3,4,24,23)         -135.86           estimate D2E/DX2                !
 ! D60   D(5,4,24,23)           -8.5789         estimate D2E/DX2                !
 ! D61   D(7,4,24,23)          112.0967         estimate D2E/DX2                !
 ! D62   D(4,5,6,1)            -44.207          estimate D2E/DX2                !
 ! D63   D(4,5,6,34)            77.1173         estimate D2E/DX2                !
 ! D64   D(4,5,6,35)          -165.9585         estimate D2E/DX2                !
 ! D65   D(10,5,6,1)            85.2224         estimate D2E/DX2                !
 ! D66   D(10,5,6,34)         -153.4534         estimate D2E/DX2                !
 ! D67   D(10,5,6,35)          -36.5292         estimate D2E/DX2                !
 ! D68   D(22,5,6,1)          -157.028          estimate D2E/DX2                !
 ! D69   D(22,5,6,34)          -35.7038         estimate D2E/DX2                !
 ! D70   D(22,5,6,35)           81.2204         estimate D2E/DX2                !
 ! D71   D(4,5,10,9)            -1.5447         estimate D2E/DX2                !
 ! D72   D(4,5,10,16)          178.2768         estimate D2E/DX2                !
 ! D73   D(6,5,10,9)          -129.1411         estimate D2E/DX2                !
 ! D74   D(6,5,10,16)           50.6804         estimate D2E/DX2                !
 ! D75   D(22,5,10,9)          111.6514         estimate D2E/DX2                !
 ! D76   D(22,5,10,16)         -68.5271         estimate D2E/DX2                !
 ! D77   D(4,5,22,23)          -36.0607         estimate D2E/DX2                !
 ! D78   D(4,5,22,45)         -157.4994         estimate D2E/DX2                !
 ! D79   D(4,5,22,46)           82.9082         estimate D2E/DX2                !
 ! D80   D(6,5,22,23)           83.5601         estimate D2E/DX2                !
 ! D81   D(6,5,22,45)          -37.8785         estimate D2E/DX2                !
 ! D82   D(6,5,22,46)         -157.471          estimate D2E/DX2                !
 ! D83   D(10,5,22,23)        -158.3772         estimate D2E/DX2                !
 ! D84   D(10,5,22,45)          80.1841         estimate D2E/DX2                !
 ! D85   D(10,5,22,46)         -39.4084         estimate D2E/DX2                !
 ! D86   D(4,7,8,9)             28.0823         estimate D2E/DX2                !
 ! D87   D(4,7,8,19)          -141.5903         estimate D2E/DX2                !
 ! D88   D(17,7,8,9)           142.5291         estimate D2E/DX2                !
 ! D89   D(17,7,8,19)          -27.1435         estimate D2E/DX2                !
 ! D90   D(21,7,8,9)           -99.3347         estimate D2E/DX2                !
 ! D91   D(21,7,8,19)           90.9926         estimate D2E/DX2                !
 ! D92   D(4,7,17,18)          154.9655         estimate D2E/DX2                !
 ! D93   D(4,7,17,20)           35.7566         estimate D2E/DX2                !
 ! D94   D(4,7,17,30)          -83.621          estimate D2E/DX2                !
 ! D95   D(8,7,17,18)           34.5481         estimate D2E/DX2                !
 ! D96   D(8,7,17,20)          -84.6607         estimate D2E/DX2                !
 ! D97   D(8,7,17,30)          155.9616         estimate D2E/DX2                !
 ! D98   D(21,7,17,18)         -81.0963         estimate D2E/DX2                !
 ! D99   D(21,7,17,20)         159.6948         estimate D2E/DX2                !
 ! D100  D(21,7,17,30)          40.3172         estimate D2E/DX2                !
 ! D101  D(4,7,21,44)           40.5564         estimate D2E/DX2                !
 ! D102  D(8,7,21,44)          169.6861         estimate D2E/DX2                !
 ! D103  D(17,7,21,44)         -80.6409         estimate D2E/DX2                !
 ! D104  D(7,8,9,10)             0.2566         estimate D2E/DX2                !
 ! D105  D(7,8,9,11)          -176.9309         estimate D2E/DX2                !
 ! D106  D(19,8,9,10)          168.9026         estimate D2E/DX2                !
 ! D107  D(19,8,9,11)           -8.2849         estimate D2E/DX2                !
 ! D108  D(7,8,19,18)            6.8995         estimate D2E/DX2                !
 ! D109  D(9,8,19,18)         -162.8697         estimate D2E/DX2                !
 ! D110  D(8,9,10,5)           -14.0354         estimate D2E/DX2                !
 ! D111  D(8,9,10,16)          166.14           estimate D2E/DX2                !
 ! D112  D(11,9,10,5)          163.1147         estimate D2E/DX2                !
 ! D113  D(11,9,10,16)         -16.7099         estimate D2E/DX2                !
 ! D114  D(8,9,11,12)          -55.1776         estimate D2E/DX2                !
 ! D115  D(8,9,11,13)          122.8951         estimate D2E/DX2                !
 ! D116  D(10,9,11,12)         127.6928         estimate D2E/DX2                !
 ! D117  D(10,9,11,13)         -54.2344         estimate D2E/DX2                !
 ! D118  D(9,11,13,14)         128.8415         estimate D2E/DX2                !
 ! D119  D(9,11,13,15)        -107.6343         estimate D2E/DX2                !
 ! D120  D(9,11,13,36)           9.7394         estimate D2E/DX2                !
 ! D121  D(12,11,13,14)        -53.1067         estimate D2E/DX2                !
 ! D122  D(12,11,13,15)         70.4174         estimate D2E/DX2                !
 ! D123  D(12,11,13,36)       -172.2088         estimate D2E/DX2                !
 ! D124  D(11,13,14,37)        -50.2151         estimate D2E/DX2                !
 ! D125  D(11,13,14,38)         66.2637         estimate D2E/DX2                !
 ! D126  D(11,13,14,62)       -171.1354         estimate D2E/DX2                !
 ! D127  D(15,13,14,37)       -170.9893         estimate D2E/DX2                !
 ! D128  D(15,13,14,38)        -54.5105         estimate D2E/DX2                !
 ! D129  D(15,13,14,62)         68.0905         estimate D2E/DX2                !
 ! D130  D(36,13,14,37)         69.0366         estimate D2E/DX2                !
 ! D131  D(36,13,14,38)       -174.4846         estimate D2E/DX2                !
 ! D132  D(36,13,14,62)        -51.8836         estimate D2E/DX2                !
 ! D133  D(11,13,15,39)         53.6707         estimate D2E/DX2                !
 ! D134  D(11,13,15,40)        173.3513         estimate D2E/DX2                !
 ! D135  D(11,13,15,41)        -65.7702         estimate D2E/DX2                !
 ! D136  D(14,13,15,39)        175.0595         estimate D2E/DX2                !
 ! D137  D(14,13,15,40)        -65.2599         estimate D2E/DX2                !
 ! D138  D(14,13,15,41)         55.6186         estimate D2E/DX2                !
 ! D139  D(36,13,15,39)        -64.4425         estimate D2E/DX2                !
 ! D140  D(36,13,15,40)         55.2381         estimate D2E/DX2                !
 ! D141  D(36,13,15,41)        176.1167         estimate D2E/DX2                !
 ! D142  D(13,14,62,63)         56.1785         estimate D2E/DX2                !
 ! D143  D(13,14,62,64)        175.6737         estimate D2E/DX2                !
 ! D144  D(13,14,62,65)        -64.9392         estimate D2E/DX2                !
 ! D145  D(37,14,62,63)        -65.2476         estimate D2E/DX2                !
 ! D146  D(37,14,62,64)         54.2476         estimate D2E/DX2                !
 ! D147  D(37,14,62,65)        173.6347         estimate D2E/DX2                !
 ! D148  D(38,14,62,63)        179.4417         estimate D2E/DX2                !
 ! D149  D(38,14,62,64)        -61.0631         estimate D2E/DX2                !
 ! D150  D(38,14,62,65)         58.324          estimate D2E/DX2                !
 ! D151  D(7,17,18,19)         -32.9319         estimate D2E/DX2                !
 ! D152  D(7,17,18,28)          85.1032         estimate D2E/DX2                !
 ! D153  D(7,17,18,29)        -151.2961         estimate D2E/DX2                !
 ! D154  D(20,17,18,19)         76.8364         estimate D2E/DX2                !
 ! D155  D(20,17,18,28)       -165.1286         estimate D2E/DX2                !
 ! D156  D(20,17,18,29)        -41.5278         estimate D2E/DX2                !
 ! D157  D(30,17,18,19)       -155.039          estimate D2E/DX2                !
 ! D158  D(30,17,18,28)        -37.0039         estimate D2E/DX2                !
 ! D159  D(30,17,18,29)         86.5968         estimate D2E/DX2                !
 ! D160  D(7,17,20,3)          -37.1305         estimate D2E/DX2                !
 ! D161  D(7,17,20,42)          82.4705         estimate D2E/DX2                !
 ! D162  D(7,17,20,43)        -158.2337         estimate D2E/DX2                !
 ! D163  D(18,17,20,3)        -147.267          estimate D2E/DX2                !
 ! D164  D(18,17,20,42)        -27.666          estimate D2E/DX2                !
 ! D165  D(18,17,20,43)         91.6298         estimate D2E/DX2                !
 ! D166  D(30,17,20,3)          83.9215         estimate D2E/DX2                !
 ! D167  D(30,17,20,42)       -156.4775         estimate D2E/DX2                !
 ! D168  D(30,17,20,43)        -37.1818         estimate D2E/DX2                !
 ! D169  D(17,18,19,8)          16.4549         estimate D2E/DX2                !
 ! D170  D(28,18,19,8)        -104.7065         estimate D2E/DX2                !
 ! D171  D(29,18,19,8)         138.2219         estimate D2E/DX2                !
 ! D172  D(17,18,28,53)       -179.9437         estimate D2E/DX2                !
 ! D173  D(17,18,28,54)         59.7471         estimate D2E/DX2                !
 ! D174  D(17,18,28,55)        -62.4909         estimate D2E/DX2                !
 ! D175  D(19,18,28,53)        -63.5636         estimate D2E/DX2                !
 ! D176  D(19,18,28,54)        176.1272         estimate D2E/DX2                !
 ! D177  D(19,18,28,55)         53.8892         estimate D2E/DX2                !
 ! D178  D(29,18,28,53)         53.5876         estimate D2E/DX2                !
 ! D179  D(29,18,28,54)        -66.7216         estimate D2E/DX2                !
 ! D180  D(29,18,28,55)        171.0404         estimate D2E/DX2                !
 ! D181  D(17,18,29,56)       -178.1783         estimate D2E/DX2                !
 ! D182  D(17,18,29,57)        -57.6569         estimate D2E/DX2                !
 ! D183  D(17,18,29,58)         64.6399         estimate D2E/DX2                !
 ! D184  D(19,18,29,56)         65.1219         estimate D2E/DX2                !
 ! D185  D(19,18,29,57)       -174.3566         estimate D2E/DX2                !
 ! D186  D(19,18,29,58)        -52.0599         estimate D2E/DX2                !
 ! D187  D(28,18,29,56)        -51.9965         estimate D2E/DX2                !
 ! D188  D(28,18,29,57)         68.5249         estimate D2E/DX2                !
 ! D189  D(28,18,29,58)       -169.1783         estimate D2E/DX2                !
 ! D190  D(5,22,23,24)          32.1046         estimate D2E/DX2                !
 ! D191  D(5,22,23,25)         154.1783         estimate D2E/DX2                !
 ! D192  D(5,22,23,47)         -82.2298         estimate D2E/DX2                !
 ! D193  D(45,22,23,24)        154.609          estimate D2E/DX2                !
 ! D194  D(45,22,23,25)        -83.3173         estimate D2E/DX2                !
 ! D195  D(45,22,23,47)         40.2747         estimate D2E/DX2                !
 ! D196  D(46,22,23,24)        -85.3985         estimate D2E/DX2                !
 ! D197  D(46,22,23,25)         36.6752         estimate D2E/DX2                !
 ! D198  D(46,22,23,47)        160.2672         estimate D2E/DX2                !
 ! D199  D(22,23,24,4)         -14.7704         estimate D2E/DX2                !
 ! D200  D(25,23,24,4)        -143.0133         estimate D2E/DX2                !
 ! D201  D(47,23,24,4)         101.3917         estimate D2E/DX2                !
 ! D202  D(22,23,25,26)       -175.8594         estimate D2E/DX2                !
 ! D203  D(22,23,25,27)          5.8336         estimate D2E/DX2                !
 ! D204  D(24,23,25,26)        -55.2918         estimate D2E/DX2                !
 ! D205  D(24,23,25,27)        126.4012         estimate D2E/DX2                !
 ! D206  D(47,23,25,26)         59.6964         estimate D2E/DX2                !
 ! D207  D(47,23,25,27)       -118.6106         estimate D2E/DX2                !
 ! D208  D(23,25,26,48)       -175.1054         estimate D2E/DX2                !
 ! D209  D(23,25,26,49)        -55.3399         estimate D2E/DX2                !
 ! D210  D(23,25,26,50)         64.8586         estimate D2E/DX2                !
 ! D211  D(27,25,26,48)          3.2953         estimate D2E/DX2                !
 ! D212  D(27,25,26,49)        123.0608         estimate D2E/DX2                !
 ! D213  D(27,25,26,50)       -116.7408         estimate D2E/DX2                !
 ! D214  D(23,25,27,51)         -0.4089         estimate D2E/DX2                !
 ! D215  D(23,25,27,52)        179.3447         estimate D2E/DX2                !
 ! D216  D(26,25,27,51)       -178.64           estimate D2E/DX2                !
 ! D217  D(26,25,27,52)          1.1135         estimate D2E/DX2                !
 --------------------------------------------------------------------------------
 Trust Radius=3.00D-01 FncErr=1.00D-07 GrdErr=1.00D-06
 Number of steps in this run=    390 maximum allowed number of steps=    390.
 GradGradGradGradGradGradGradGradGradGradGradGradGradGradGradGradGradGrad

 Stoichiometry    C26H34O5
 Framework group  C1[X(C26H34O5)]
 Deg. of freedom   189
 Full point group                 C1      NOp   1
 Largest Abelian subgroup         C1      NOp   1
 Largest concise Abelian subgroup C1      NOp   1
                         Standard orientation:                         
 ---------------------------------------------------------------------
 Center     Atomic      Atomic             Coordinates (Angstroms)
 Number     Number       Type             X           Y           Z
 ---------------------------------------------------------------------
      1          6           0       -0.033694   -1.887920    2.530527
      2          6           0       -0.226845   -0.607416    2.881470
      3          6           0       -1.042831    0.333217    2.023563
      4          6           0       -1.345829   -0.153195    0.576155
      5          6           0       -0.760697   -1.499784    0.126958
      6          6           0       -0.609148   -2.498558    1.293151
      7          6           0       -0.922575    1.017201   -0.332533
      8          6           0        0.501043    0.995336   -0.777501
      9          6           0        1.216465   -0.126576   -0.918830
     10          6           0        0.575643   -1.430554   -0.627316
     11          6           0        2.651609   -0.044798   -1.302461
     12          8           0        3.001293    0.555542   -2.318333
     13          6           0        3.662065   -0.695351   -0.361030
     14          6           0        4.579984   -1.628590   -1.163057
     15          6           0        4.425434    0.411438    0.364168
     16          8           0        1.138075   -2.463312   -0.999609
     17          6           0       -0.900758    2.266381    0.522076
     18          6           0        0.101243    3.168954   -0.226713
     19          8           0        1.073661    2.265849   -0.808963
     20          6           0       -0.399107    1.722597    1.869729
     21          8           0       -1.764418    1.147398   -1.464750
     22          6           0       -1.827167   -1.992044   -0.852989
     23          6           0       -3.126165   -1.508186   -0.219851
     24          8           0       -2.796571   -0.276974    0.452992
     25          6           0       -4.320165   -1.265305   -1.114813
     26          6           0       -5.532490   -0.695821   -0.422197
     27          6           0       -4.369808   -1.547624   -2.428073
     28          6           0       -0.549369    3.973550   -1.363172
     29          6           0        0.842655    4.149043    0.689488
     30          1           0       -1.884989    2.736403    0.630373
     31          1           0       -1.999093    0.479941    2.547349
     32          6           0        0.278109   -0.085348    4.200592
     33          1           0        0.510407   -2.559802    3.192179
     34          1           0       -1.570144   -2.947797    1.571107
     35          1           0        0.029115   -3.341434    1.000362
     36          1           0        3.125090   -1.285263    0.390989
     37          1           0        3.967415   -2.294762   -1.783544
     38          1           0        5.201338   -1.048546   -1.856717
     39          1           0        3.732151    1.106094    0.852085
     40          1           0        5.081737    0.001344    1.137472
     41          1           0        5.038472    0.995040   -0.331376
     42          1           0        0.694041    1.633790    1.889323
     43          1           0       -0.681927    2.391633    2.690417
     44          1           0       -2.675683    0.989684   -1.146536
     45          1           0       -1.820864   -3.078067   -0.999430
     46          1           0       -1.661351   -1.534926   -1.836289
     47          1           0       -3.435363   -2.217127    0.558131
     48          1           0       -6.394650   -0.618947   -1.093478
     49          1           0       -5.825442   -1.335098    0.417155
     50          1           0       -5.322063    0.308276   -0.040290
     51          1           0       -3.534565   -1.978026   -2.969762
     52          1           0       -5.265786   -1.356974   -3.012398
     53          1           0        0.196844    4.598872   -1.867734
     54          1           0       -1.343255    4.625289   -0.984304
     55          1           0       -0.966225    3.334356   -2.145656
     56          1           0        1.517286    4.788228    0.107568
     57          1           0        0.143906    4.792457    1.233679
     58          1           0        1.484962    3.633931    1.410471
     59          1           0        0.714391   -0.878824    4.816848
     60          1           0        1.050616    0.674336    4.048721
     61          1           0       -0.543539    0.359051    4.771712
     62          6           0        5.479635   -2.483727   -0.283175
     63          1           0        4.890247   -3.069558    0.429310
     64          1           0        6.054771   -3.181522   -0.900364
     65          1           0        6.192412   -1.871600    0.276926
 ---------------------------------------------------------------------
 Rotational constants (GHZ):      0.2047659      0.1285154      0.1142413
 Standard basis: 6-31G(d) (6D, 7F)
 There are   533 symmetry adapted basis functions of A   symmetry.
 Integral buffers will be    131072 words long.
 Raffenetti 2 integral format.
 Two-electron integral symmetry is turned on.
   533 basis functions,  1004 primitive gaussians,   533 cartesian basis functions
   115 alpha electrons      115 beta electrons
       nuclear repulsion energy      3523.5312985105 Hartrees.
 NAtoms=   65 NActive=   65 NUniq=   65 SFac= 1.00D+00 NAtFMM=   50 NAOKFM=T Big=T
 One-electron integrals computed using PRISM.
 NBasis=   533 RedAO= T  NBF=   533
 NBsUse=   533 1.00D-06 NBFU=   533
 Harris functional with IExCor=  402 diagonalized for initial guess.
 ExpMin= 1.61D-01 ExpMax= 5.48D+03 ExpMxC= 8.25D+02 IAcc=1 IRadAn=         1 AccDes= 0.00D+00
 HarFok:  IExCor=  402 AccDes= 0.00D+00 IRadAn=         1 IDoV= 1
 ScaDFX=  1.000000  1.000000  1.000000  1.000000
 FoFCou: FMM=F IPFlag=           0 FMFlag=      100000 FMFlg1=        2001
         NFxFlg=           0 DoJE=T BraDBF=F KetDBF=T FulRan=T
         Omega=  0.000000  0.000000  1.000000  0.000000  0.000000 ICntrl=     500 IOpCl=  0
         NMat0=    1 NMatS0=    1 NMatT0=    0 NMatD0=    1 NMtDS0=    0 NMtDT0=    0
         I1Cent=           4 NGrid=           0.
 Petite list used in FoFCou.
 Initial guess orbital symmetries:
       Occupied  (A) (A) (A) (A) (A) (A) (A) (A) (A) (A) (A) (A)
                 (A) (A) (A) (A) (A) (A) (A) (A) (A) (A) (A) (A)
                 (A) (A) (A) (A) (A) (A) (A) (A) (A) (A) (A) (A)
                 (A) (A) (A) (A) (A) (A) (A) (A) (A) (A) (A) (A)
                 (A) (A) (A) (A) (A) (A) (A) (A) (A) (A) (A) (A)
                 (A) (A) (A) (A) (A) (A) (A) (A) (A) (A) (A) (A)
                 (A) (A) (A) (A) (A) (A) (A) (A) (A) (A) (A) (A)
                 (A) (A) (A) (A) (A) (A) (A) (A) (A) (A) (A) (A)
                 (A) (A) (A) (A) (A) (A) (A) (A) (A) (A) (A) (A)
                 (A) (A) (A) (A) (A) (A) (A)
       Virtual   (A) (A) (A) (A) (A) (A) (A) (A) (A) (A) (A) (A)
                 (A) (A) (A) (A) (A) (A) (A) (A) (A) (A) (A) (A)
                 (A) (A) (A) (A) (A) (A) (A) (A) (A) (A) (A) (A)
                 (A) (A) (A) (A) (A) (A) (A) (A) (A) (A) (A) (A)
                 (A) (A) (A) (A) (A) (A) (A) (A) (A) (A) (A) (A)
                 (A) (A) (A) (A) (A) (A) (A) (A) (A) (A) (A) (A)
                 (A) (A) (A) (A) (A) (A) (A) (A) (A) (A) (A) (A)
                 (A) (A) (A) (A) (A) (A) (A) (A) (A) (A) (A) (A)
                 (A) (A) (A) (A) (A) (A) (A) (A) (A) (A) (A) (A)
                 (A) (A) (A) (A) (A) (A) (A) (A) (A) (A) (A) (A)
                 (A) (A) (A) (A) (A) (A) (A) (A) (A) (A) (A) (A)
                 (A) (A) (A) (A) (A) (A) (A) (A) (A) (A) (A) (A)
                 (A) (A) (A) (A) (A) (A) (A) (A) (A) (A) (A) (A)
                 (A) (A) (A) (A) (A) (A) (A) (A) (A) (A) (A) (A)
                 (A) (A) (A) (A) (A) (A) (A) (A) (A) (A) (A) (A)
                 (A) (A) (A) (A) (A) (A) (A) (A) (A) (A) (A) (A)
                 (A) (A) (A) (A) (A) (A) (A) (A) (A) (A) (A) (A)
                 (A) (A) (A) (A) (A) (A) (A) (A) (A) (A) (A) (A)
                 (A) (A) (A) (A) (A) (A) (A) (A) (A) (A) (A) (A)
                 (A) (A) (A) (A) (A) (A) (A) (A) (A) (A) (A) (A)
                 (A) (A) (A) (A) (A) (A) (A) (A) (A) (A) (A) (A)
                 (A) (A) (A) (A) (A) (A) (A) (A) (A) (A) (A) (A)
                 (A) (A) (A) (A) (A) (A) (A) (A) (A) (A) (A) (A)
                 (A) (A) (A) (A) (A) (A) (A) (A) (A) (A) (A) (A)
                 (A) (A) (A) (A) (A) (A) (A) (A) (A) (A) (A) (A)
                 (A) (A) (A) (A) (A) (A) (A) (A) (A) (A) (A) (A)
                 (A) (A) (A) (A) (A) (A) (A) (A) (A) (A) (A) (A)
                 (A) (A) (A) (A) (A) (A) (A) (A) (A) (A) (A) (A)
                 (A) (A) (A) (A) (A) (A) (A) (A) (A) (A) (A) (A)
                 (A) (A) (A) (A) (A) (A) (A) (A) (A) (A) (A) (A)
                 (A) (A) (A) (A) (A) (A) (A) (A) (A) (A) (A) (A)
                 (A) (A) (A) (A) (A) (A) (A) (A) (A) (A) (A) (A)
                 (A) (A) (A) (A) (A) (A) (A) (A) (A) (A) (A) (A)
                 (A) (A) (A) (A) (A) (A) (A) (A) (A) (A) (A) (A)
                 (A) (A) (A) (A) (A) (A) (A) (A) (A) (A)
 The electronic state of the initial guess is 1-A.
 Requested convergence on RMS density matrix=1.00D-08 within 128 cycles.
 Requested convergence on MAX density matrix=1.00D-06.
 Requested convergence on             energy=1.00D-06.
 No special actions if energy rises.
 Integral accuracy reduced to 1.0D-05 until final iterations.
 Initial convergence to 1.0D-05 achieved.  Increase integral accuracy.
 SCF Done:  E(RB3LYP) =  -1387.30461439     A.U. after   16 cycles
             Convg  =    0.4908D-08             -V/T =  2.0091

 **********************************************************************

            Population analysis using the SCF density.

 **********************************************************************

 Orbital symmetries:
       Occupied  (A) (A) (A) (A) (A) (A) (A) (A) (A) (A) (A) (A)
                 (A) (A) (A) (A) (A) (A) (A) (A) (A) (A) (A) (A)
                 (A) (A) (A) (A) (A) (A) (A) (A) (A) (A) (A) (A)
                 (A) (A) (A) (A) (A) (A) (A) (A) (A) (A) (A) (A)
                 (A) (A) (A) (A) (A) (A) (A) (A) (A) (A) (A) (A)
                 (A) (A) (A) (A) (A) (A) (A) (A) (A) (A) (A) (A)
                 (A) (A) (A) (A) (A) (A) (A) (A) (A) (A) (A) (A)
                 (A) (A) (A) (A) (A) (A) (A) (A) (A) (A) (A) (A)
                 (A) (A) (A) (A) (A) (A) (A) (A) (A) (A) (A) (A)
                 (A) (A) (A) (A) (A) (A) (A)
       Virtual   (A) (A) (A) (A) (A) (A) (A) (A) (A) (A) (A) (A)
                 (A) (A) (A) (A) (A) (A) (A) (A) (A) (A) (A) (A)
                 (A) (A) (A) (A) (A) (A) (A) (A) (A) (A) (A) (A)
                 (A) (A) (A) (A) (A) (A) (A) (A) (A) (A) (A) (A)
                 (A) (A) (A) (A) (A) (A) (A) (A) (A) (A) (A) (A)
                 (A) (A) (A) (A) (A) (A) (A) (A) (A) (A) (A) (A)
                 (A) (A) (A) (A) (A) (A) (A) (A) (A) (A) (A) (A)
                 (A) (A) (A) (A) (A) (A) (A) (A) (A) (A) (A) (A)
                 (A) (A) (A) (A) (A) (A) (A) (A) (A) (A) (A) (A)
                 (A) (A) (A) (A) (A) (A) (A) (A) (A) (A) (A) (A)
                 (A) (A) (A) (A) (A) (A) (A) (A) (A) (A) (A) (A)
                 (A) (A) (A) (A) (A) (A) (A) (A) (A) (A) (A) (A)
                 (A) (A) (A) (A) (A) (A) (A) (A) (A) (A) (A) (A)
                 (A) (A) (A) (A) (A) (A) (A) (A) (A) (A) (A) (A)
                 (A) (A) (A) (A) (A) (A) (A) (A) (A) (A) (A) (A)
                 (A) (A) (A) (A) (A) (A) (A) (A) (A) (A) (A) (A)
                 (A) (A) (A) (A) (A) (A) (A) (A) (A) (A) (A) (A)
                 (A) (A) (A) (A) (A) (A) (A) (A) (A) (A) (A) (A)
                 (A) (A) (A) (A) (A) (A) (A) (A) (A) (A) (A) (A)
                 (A) (A) (A) (A) (A) (A) (A) (A) (A) (A) (A) (A)
                 (A) (A) (A) (A) (A) (A) (A) (A) (A) (A) (A) (A)
                 (A) (A) (A) (A) (A) (A) (A) (A) (A) (A) (A) (A)
                 (A) (A) (A) (A) (A) (A) (A) (A) (A) (A) (A) (A)
                 (A) (A) (A) (A) (A) (A) (A) (A) (A) (A) (A) (A)
                 (A) (A) (A) (A) (A) (A) (A) (A) (A) (A) (A) (A)
                 (A) (A) (A) (A) (A) (A) (A) (A) (A) (A) (A) (A)
                 (A) (A) (A) (A) (A) (A) (A) (A) (A) (A) (A) (A)
                 (A) (A) (A) (A) (A) (A) (A) (A) (A) (A) (A) (A)
                 (A) (A) (A) (A) (A) (A) (A) (A) (A) (A) (A) (A)
                 (A) (A) (A) (A) (A) (A) (A) (A) (A) (A) (A) (A)
                 (A) (A) (A) (A) (A) (A) (A) (A) (A) (A) (A) (A)
                 (A) (A) (A) (A) (A) (A) (A) (A) (A) (A) (A) (A)
                 (A) (A) (A) (A) (A) (A) (A) (A) (A) (A) (A) (A)
                 (A) (A) (A) (A) (A) (A) (A) (A) (A) (A) (A) (A)
                 (A) (A) (A) (A) (A) (A) (A) (A) (A) (A)
 The electronic state is 1-A.
 Alpha  occ. eigenvalues --  -19.19439 -19.16865 -19.15378 -19.13643 -19.12625
 Alpha  occ. eigenvalues --  -10.27999 -10.27192 -10.26431 -10.26062 -10.25950
 Alpha  occ. eigenvalues --  -10.25608 -10.25114 -10.21712 -10.20649 -10.20540
 Alpha  occ. eigenvalues --  -10.20145 -10.19747 -10.19713 -10.19589 -10.19525
 Alpha  occ. eigenvalues --  -10.19304 -10.18813 -10.18763 -10.18722 -10.18631
 Alpha  occ. eigenvalues --  -10.18434 -10.18226 -10.17434 -10.17199 -10.16665
 Alpha  occ. eigenvalues --  -10.16283  -1.08324  -1.06050  -1.03371  -1.02358
 Alpha  occ. eigenvalues --   -1.01805  -0.87591  -0.84005  -0.82659  -0.81790
 Alpha  occ. eigenvalues --   -0.80547  -0.79857  -0.76962  -0.74582  -0.73807
 Alpha  occ. eigenvalues --   -0.72458  -0.71665  -0.69473  -0.69225  -0.68065
 Alpha  occ. eigenvalues --   -0.65765  -0.64378  -0.63697  -0.62182  -0.61017
 Alpha  occ. eigenvalues --   -0.59494  -0.58450  -0.57413  -0.54842  -0.53723
 Alpha  occ. eigenvalues --   -0.53060  -0.52130  -0.51161  -0.50589  -0.49240
 Alpha  occ. eigenvalues --   -0.48506  -0.47921  -0.46706  -0.46184  -0.45950
 Alpha  occ. eigenvalues --   -0.45176  -0.45067  -0.44500  -0.43639  -0.43528
 Alpha  occ. eigenvalues --   -0.43004  -0.42594  -0.42134  -0.41883  -0.41755
 Alpha  occ. eigenvalues --   -0.41048  -0.40477  -0.40442  -0.39866  -0.39527
 Alpha  occ. eigenvalues --   -0.39119  -0.38927  -0.38441  -0.38258  -0.38215
 Alpha  occ. eigenvalues --   -0.37750  -0.37504  -0.37129  -0.36873  -0.36790
 Alpha  occ. eigenvalues --   -0.36532  -0.35631  -0.34889  -0.34734  -0.34233
 Alpha  occ. eigenvalues --   -0.33776  -0.33437  -0.33152  -0.32651  -0.32144
 Alpha  occ. eigenvalues --   -0.31788  -0.31291  -0.31019  -0.27965  -0.26609
 Alpha  occ. eigenvalues --   -0.26055  -0.25491  -0.24520  -0.23745  -0.22964
 Alpha virt. eigenvalues --   -0.05579  -0.01965   0.00359   0.01753   0.04937
 Alpha virt. eigenvalues --    0.06745   0.07614   0.08792   0.08898   0.10139
 Alpha virt. eigenvalues --    0.10541   0.10590   0.11454   0.11874   0.12329
 Alpha virt. eigenvalues --    0.12722   0.13126   0.13467   0.13723   0.14112
 Alpha virt. eigenvalues --    0.14127   0.14706   0.15001   0.15116   0.15859
 Alpha virt. eigenvalues --    0.16127   0.16494   0.16587   0.17175   0.17531
 Alpha virt. eigenvalues --    0.17618   0.18113   0.18408   0.18715   0.18782
 Alpha virt. eigenvalues --    0.19200   0.19601   0.19926   0.19986   0.20073
 Alpha virt. eigenvalues --    0.20726   0.21101   0.21447   0.21997   0.22193
 Alpha virt. eigenvalues --    0.22725   0.23314   0.23635   0.23918   0.24510
 Alpha virt. eigenvalues --    0.25048   0.25570   0.26175   0.26283   0.26690
 Alpha virt. eigenvalues --    0.26944   0.27768   0.28291   0.28772   0.29889
 Alpha virt. eigenvalues --    0.31037   0.31814   0.32404   0.33137   0.34072
 Alpha virt. eigenvalues --    0.34399   0.36368   0.38005   0.38726   0.39568
 Alpha virt. eigenvalues --    0.41909   0.44838   0.47285   0.48276   0.48547
 Alpha virt. eigenvalues --    0.49997   0.50717   0.51392   0.51698   0.52013
 Alpha virt. eigenvalues --    0.52225   0.52710   0.53278   0.53673   0.53875
 Alpha virt. eigenvalues --    0.54315   0.54706   0.55120   0.55440   0.56292
 Alpha virt. eigenvalues --    0.57245   0.57399   0.57562   0.58174   0.58937
 Alpha virt. eigenvalues --    0.59263   0.59513   0.60407   0.60516   0.61337
 Alpha virt. eigenvalues --    0.61826   0.62609   0.63081   0.63371   0.64132
 Alpha virt. eigenvalues --    0.64800   0.65785   0.66039   0.66709   0.67573
 Alpha virt. eigenvalues --    0.67989   0.68344   0.68698   0.69091   0.69458
 Alpha virt. eigenvalues --    0.69804   0.70375   0.71886   0.72942   0.73103
 Alpha virt. eigenvalues --    0.73881   0.74874   0.75129   0.75617   0.76408
 Alpha virt. eigenvalues --    0.76869   0.78626   0.79408   0.79807   0.80117
 Alpha virt. eigenvalues --    0.80480   0.80977   0.81265   0.82064   0.82494
 Alpha virt. eigenvalues --    0.82698   0.83259   0.83769   0.84601   0.84766
 Alpha virt. eigenvalues --    0.85694   0.86142   0.86267   0.86625   0.87014
 Alpha virt. eigenvalues --    0.87355   0.87564   0.87813   0.88782   0.88966
 Alpha virt. eigenvalues --    0.89208   0.89407   0.90215   0.90479   0.90800
 Alpha virt. eigenvalues --    0.90941   0.91283   0.91704   0.92098   0.92244
 Alpha virt. eigenvalues --    0.92654   0.93207   0.93350   0.93828   0.94262
 Alpha virt. eigenvalues --    0.95071   0.95844   0.96227   0.96346   0.96926
 Alpha virt. eigenvalues --    0.97382   0.98099   0.98346   0.98875   1.00181
 Alpha virt. eigenvalues --    1.00581   1.00993   1.02791   1.03110   1.04266
 Alpha virt. eigenvalues --    1.04785   1.05421   1.06440   1.07331   1.08098
 Alpha virt. eigenvalues --    1.08812   1.09902   1.10738   1.11306   1.12569
 Alpha virt. eigenvalues --    1.13761   1.13948   1.14287   1.15679   1.16699
 Alpha virt. eigenvalues --    1.17417   1.18280   1.18473   1.19063   1.20106
 Alpha virt. eigenvalues --    1.21492   1.23503   1.24397   1.25191   1.26287
 Alpha virt. eigenvalues --    1.26482   1.30060   1.30743   1.31609   1.33568
 Alpha virt. eigenvalues --    1.34330   1.35969   1.36733   1.37484   1.39078
 Alpha virt. eigenvalues --    1.40401   1.40819   1.42323   1.43700   1.44590
 Alpha virt. eigenvalues --    1.47193   1.48353   1.50311   1.51086   1.52989
 Alpha virt. eigenvalues --    1.53869   1.55533   1.56284   1.57732   1.58308
 Alpha virt. eigenvalues --    1.60331   1.60925   1.62436   1.62566   1.63178
 Alpha virt. eigenvalues --    1.65328   1.66007   1.66392   1.66991   1.69305
 Alpha virt. eigenvalues --    1.70780   1.72115   1.73088   1.73351   1.74153
 Alpha virt. eigenvalues --    1.74626   1.76226   1.76587   1.77310   1.78567
 Alpha virt. eigenvalues --    1.79232   1.79988   1.80272   1.81091   1.81360
 Alpha virt. eigenvalues --    1.82700   1.82870   1.83923   1.84647   1.85449
 Alpha virt. eigenvalues --    1.85890   1.86789   1.87185   1.87723   1.88491
 Alpha virt. eigenvalues --    1.89427   1.89608   1.90076   1.90865   1.91519
 Alpha virt. eigenvalues --    1.92451   1.93020   1.93418   1.93912   1.94264
 Alpha virt. eigenvalues --    1.95725   1.96229   1.97416   1.97792   1.98961
 Alpha virt. eigenvalues --    1.99314   1.99767   2.00156   2.01389   2.01749
 Alpha virt. eigenvalues --    2.02978   2.03269   2.03431   2.05173   2.05492
 Alpha virt. eigenvalues --    2.06634   2.07231   2.08653   2.09126   2.09304
 Alpha virt. eigenvalues --    2.10326   2.11734   2.12424   2.12800   2.13805
 Alpha virt. eigenvalues --    2.15243   2.16049   2.16636   2.16966   2.18454
 Alpha virt. eigenvalues --    2.18725   2.19908   2.21434   2.22472   2.23128
 Alpha virt. eigenvalues --    2.23577   2.24688   2.25409   2.26204   2.27807
 Alpha virt. eigenvalues --    2.28793   2.30175   2.30734   2.30858   2.31302
 Alpha virt. eigenvalues --    2.32704   2.32914   2.33348   2.33997   2.34379
 Alpha virt. eigenvalues --    2.34897   2.36231   2.37015   2.38392   2.38808
 Alpha virt. eigenvalues --    2.39540   2.41136   2.41728   2.42505   2.43776
 Alpha virt. eigenvalues --    2.44208   2.44897   2.46940   2.47974   2.48876
 Alpha virt. eigenvalues --    2.49221   2.50191   2.50941   2.53208   2.54291
 Alpha virt. eigenvalues --    2.56786   2.57410   2.58389   2.59318   2.61210
 Alpha virt. eigenvalues --    2.62098   2.62537   2.63649   2.64893   2.65825
 Alpha virt. eigenvalues --    2.66310   2.68221   2.68506   2.70599   2.71078
 Alpha virt. eigenvalues --    2.72796   2.74087   2.74988   2.77354   2.78648
 Alpha virt. eigenvalues --    2.79418   2.81016   2.82239   2.82661   2.85400
 Alpha virt. eigenvalues --    2.86952   2.89143   2.90962   2.95004   2.95155
 Alpha virt. eigenvalues --    2.95958   3.00375   3.00744   3.01621   3.02336
 Alpha virt. eigenvalues --    3.05662   3.06420   3.12286   3.18793   3.21038
 Alpha virt. eigenvalues --    3.24430   3.29367   4.01138   4.08764   4.11088
 Alpha virt. eigenvalues --    4.13348   4.14517   4.17311   4.19415   4.20977
 Alpha virt. eigenvalues --    4.22435   4.23957   4.24669   4.27801   4.29801
 Alpha virt. eigenvalues --    4.32490   4.35133   4.37931   4.38519   4.42605
 Alpha virt. eigenvalues --    4.45308   4.48408   4.53055   4.56207   4.61148
 Alpha virt. eigenvalues --    4.63863   4.65007   4.69299   4.73267   4.81527
 Alpha virt. eigenvalues --    4.90415   4.99415   5.16786
          Condensed to atoms (all electrons):
 Mulliken atomic charges:
              1
     1  C   -0.196929
     2  C    0.185959
     3  C   -0.185226
     4  C    0.321800
     5  C   -0.052037
     6  C   -0.330268
     7  C    0.211256
     8  C    0.400144
     9  C   -0.089990
    10  C    0.425313
    11  C    0.429022
    12  O   -0.462988
    13  C   -0.140834
    14  C   -0.251302
    15  C   -0.455286
    16  O   -0.506659
    17  C   -0.159551
    18  C    0.311010
    19  O   -0.522983
    20  C   -0.319185
    21  O   -0.657004
    22  C   -0.327002
    23  C    0.106417
    24  O   -0.586005
    25  C    0.175898
    26  C   -0.504727
    27  C   -0.390348
    28  C   -0.461072
    29  C   -0.463667
    30  H    0.142961
    31  H    0.165510
    32  C   -0.516819
    33  H    0.123424
    34  H    0.153149
    35  H    0.178034
    36  H    0.132751
    37  H    0.157252
    38  H    0.148749
    39  H    0.140366
    40  H    0.148517
    41  H    0.164741
    42  H    0.160757
    43  H    0.148957
    44  H    0.411956
    45  H    0.167970
    46  H    0.176347
    47  H    0.136350
    48  H    0.154267
    49  H    0.154264
    50  H    0.165297
    51  H    0.150957
    52  H    0.143390
    53  H    0.153276
    54  H    0.136808
    55  H    0.188447
    56  H    0.161779
    57  H    0.149573
    58  H    0.154264
    59  H    0.158464
    60  H    0.157992
    61  H    0.151483
    62  C   -0.451334
    63  H    0.141969
    64  H    0.143825
    65  H    0.140553
 Sum of Mulliken atomic charges =   0.00000
 Mulliken charges with hydrogens summed into heavy atoms:
              1
     1  C   -0.073505
     2  C    0.185959
     3  C   -0.019716
     4  C    0.321800
     5  C   -0.052037
     6  C    0.000914
     7  C    0.211256
     8  C    0.400144
     9  C   -0.089990
    10  C    0.425313
    11  C    0.429022
    12  O   -0.462988
    13  C   -0.008082
    14  C    0.054699
    15  C   -0.001663
    16  O   -0.506659
    17  C   -0.016590
    18  C    0.311010
    19  O   -0.522983
    20  C   -0.009471
    21  O   -0.245047
    22  C    0.017314
    23  C    0.242767
    24  O   -0.586005
    25  C    0.175898
    26  C   -0.030900
    27  C   -0.096001
    28  C    0.017459
    29  C    0.001949
    32  C   -0.048880
    62  C   -0.024987
 Sum of Mulliken charges with hydrogens summed into heavy atoms =   0.00000
 Electronic spatial extent (au):  <R**2>=          11424.6329
 Charge=              0.0000 electrons
 Dipole moment (field-independent basis, Debye):
    X=             -4.0705    Y=              1.1646    Z=              4.9087  Tot=              6.4823
 Quadrupole moment (field-independent basis, Debye-Ang):
   XX=           -180.9691   YY=           -179.2124   ZZ=           -189.5729
   XY=              0.6280   XZ=             10.2886   YZ=              3.1895
 Traceless Quadrupole moment (field-independent basis, Debye-Ang):
   XX=              2.2824   YY=              4.0390   ZZ=             -6.3214
   XY=              0.6280   XZ=             10.2886   YZ=              3.1895
 Octapole moment (field-independent basis, Debye-Ang**2):
  XXX=            -45.4411  YYY=             49.5508  ZZZ=             12.9081  XYY=            -18.9543
  XXY=             -7.8284  XXZ=              1.2623  XZZ=            -25.6146  YZZ=             -7.6296
  YYZ=             11.5449  XYZ=              0.3416
 Hexadecapole moment (field-independent basis, Debye-Ang**3):
 XXXX=          -7995.6559 YYYY=          -4133.3404 ZZZZ=          -2878.8204 XXXY=            -13.0738
 XXXZ=             92.8295 YYYX=             18.0949 YYYZ=            -48.1441 ZZZX=             55.9277
 ZZZY=             20.3546 XXYY=          -2093.6583 XXZZ=          -1883.2534 YYZZ=          -1175.7474
 XXYZ=             35.9784 YYXZ=            -15.6162 ZZXY=            -17.2409
 N-N= 3.523531298510D+03 E-N=-1.027323457986D+04  KE= 1.374767664386D+03
 Calling FoFJK, ICntrl=      2127 FMM=T ISym2X=0 I1Cent= 0 IOpClX= 0 NMat=1 NMatS=1 NMatT=0.
 ***** Axes restored to original set *****
 -------------------------------------------------------------------
 Center     Atomic                   Forces (Hartrees/Bohr)
 Number     Number              X              Y              Z
 -------------------------------------------------------------------
      1        6           0.008700470    0.000075900    0.000509324
      2        6          -0.012179834   -0.004726520    0.002483041
      3        6          -0.001170111   -0.007921586   -0.000568997
      4        6           0.001951192   -0.004358431    0.011503736
      5        6          -0.011642960   -0.003547812    0.001469737
      6        6          -0.004779589   -0.010319032   -0.000594701
      7        6           0.012589315    0.019561236    0.009825085
      8        6           0.018155436   -0.009551122   -0.019400661
      9        6          -0.005634282    0.001935895    0.006536371
     10        6          -0.005864510   -0.002729766   -0.021319902
     11        6          -0.005372516    0.010175514   -0.019221666
     12        8          -0.002572967   -0.013624383    0.014083401
     13        6          -0.002577043    0.004807262   -0.002032663
     14        6          -0.005736945    0.001616674   -0.002102529
     15        6           0.006933436   -0.003563836   -0.002427254
     16        8           0.008352311   -0.001358541    0.009416633
     17        6           0.008189968   -0.010962175   -0.005307341
     18        6           0.030931248    0.007013021    0.000625356
     19        8          -0.030527648    0.004391848    0.027642266
     20        6           0.011654483   -0.004252379    0.000892217
     21        8          -0.006403539    0.006801381   -0.004418831
     22        6          -0.006883128    0.014305770    0.001108293
     23        6          -0.005126525    0.007920952    0.001042502
     24        8           0.001987787   -0.006696883   -0.009761566
     25        6          -0.002875788    0.015171240    0.000172334
     26        6           0.001303052    0.001653131    0.000316076
     27        6           0.000878461   -0.010088579   -0.001137304
     28        6          -0.002888410    0.007589153   -0.005320253
     29        6          -0.003267918   -0.006000757   -0.009174019
     30        1          -0.001962296    0.000937840   -0.001514023
     31        1          -0.003298778    0.005832086   -0.000180376
     32        6          -0.001186781    0.000871374   -0.001356732
     33        1           0.001607588   -0.001060863   -0.000172061
     34        1          -0.000091918    0.005649097    0.001614693
     35        1           0.000902390    0.007410091   -0.002117880
     36        1          -0.000976499    0.001740255    0.000437499
     37        1           0.001844979    0.000512016    0.001404049
     38        1           0.002960452    0.001754254    0.001613702
     39        1           0.001026745   -0.001020616    0.000126517
     40        1          -0.000400061   -0.000571754    0.000114483
     41        1          -0.000686350    0.001198014    0.000381706
     42        1           0.000294191    0.002811529   -0.000198384
     43        1          -0.001282347   -0.002139247   -0.001562532
     44        1          -0.002095367   -0.004079686   -0.002159072
     45        1           0.001378710   -0.003042529   -0.001024454
     46        1           0.002118525    0.000473976    0.003389533
     47        1          -0.001742079   -0.001185273    0.002925761
     48        1          -0.001349389   -0.000233997   -0.001753844
     49        1           0.002510022   -0.002634565    0.001911561
     50        1           0.000930070   -0.003251422    0.002511357
     51        1          -0.000142428   -0.000411765   -0.001300044
     52        1          -0.000068576   -0.000559577    0.001116774
     53        1           0.001902805   -0.003833436    0.000569928
     54        1           0.000533847   -0.000810203    0.000391128
     55        1          -0.001353903   -0.002720100    0.005439526
     56        1           0.000454461    0.002799935    0.001474173
     57        1          -0.000873538    0.001208349    0.000647135
     58        1          -0.000287550   -0.000224870    0.003747595
     59        1          -0.001132295    0.001689724   -0.000553047
     60        1           0.004544877   -0.001795208    0.000370593
     61        1           0.004045869   -0.001142460    0.000061409
     62        6          -0.001878945   -0.002058633   -0.001825245
     63        1          -0.000949421   -0.001609946    0.000865735
     64        1          -0.001029356   -0.001424626   -0.000227872
     65        1          -0.000391099   -0.002394937   -0.000007977
 -------------------------------------------------------------------
 Cartesian Forces:  Max     0.030931248 RMS     0.006671543

 GradGradGradGradGradGradGradGradGradGradGradGradGradGradGradGradGradGrad
 Berny optimization.
 Internal  Forces:  Max     0.023570644 RMS     0.003440961
 Search for a local minimum.
 Step number   1 out of a maximum of  390
 All quantities printed in internal units (Hartrees-Bohrs-Radians)
 Mixed Optimization -- RFO/linear search
 Second derivative matrix not updated -- first step.
 ITU=  0
     Eigenvalues ---    0.00277   0.00301   0.00331   0.00401   0.00414
     Eigenvalues ---    0.00432   0.00482   0.00554   0.00610   0.00620
     Eigenvalues ---    0.00632   0.00661   0.00684   0.00688   0.00717
     Eigenvalues ---    0.00928   0.01079   0.01237   0.01244   0.01377
     Eigenvalues ---    0.01468   0.01609   0.01710   0.01792   0.01914
     Eigenvalues ---    0.02493   0.02827   0.02827   0.03036   0.03121
     Eigenvalues ---    0.03492   0.03603   0.03731   0.04019   0.04039
     Eigenvalues ---    0.04119   0.04321   0.04416   0.04579   0.04641
     Eigenvalues ---    0.04663   0.04831   0.04923   0.05098   0.05241
     Eigenvalues ---    0.05304   0.05382   0.05417   0.05466   0.05502
     Eigenvalues ---    0.05505   0.05535   0.05547   0.05571   0.05625
     Eigenvalues ---    0.05712   0.05861   0.05947   0.06290   0.06654
     Eigenvalues ---    0.06703   0.06858   0.07090   0.07115   0.07168
     Eigenvalues ---    0.07248   0.07249   0.07336   0.07622   0.08378
     Eigenvalues ---    0.08447   0.08810   0.09004   0.09140   0.09744
     Eigenvalues ---    0.10099   0.10632   0.10834   0.11617   0.12281
     Eigenvalues ---    0.13126   0.14677   0.15164   0.15961   0.16000
     Eigenvalues ---    0.16000   0.16000   0.16000   0.16000   0.16000
     Eigenvalues ---    0.16000   0.16000   0.16000   0.16000   0.16000
     Eigenvalues ---    0.16000   0.16000   0.16000   0.16000   0.16000
     Eigenvalues ---    0.16000   0.16000   0.16000   0.16000   0.16000
     Eigenvalues ---    0.16498   0.16826   0.17287   0.17459   0.18313
     Eigenvalues ---    0.19657   0.21531   0.21906   0.22765   0.23557
     Eigenvalues ---    0.24514   0.24911   0.24969   0.24988   0.24988
     Eigenvalues ---    0.24994   0.25000   0.25000   0.25944   0.27185
     Eigenvalues ---    0.27438   0.27707   0.27845   0.28239   0.28305
     Eigenvalues ---    0.28638   0.28791   0.28951   0.29160   0.29644
     Eigenvalues ---    0.29739   0.30227   0.30269   0.30491   0.31169
     Eigenvalues ---    0.31563   0.31724   0.31770   0.33050   0.33666
     Eigenvalues ---    0.33694   0.33984   0.34001   0.34009   0.34014
     Eigenvalues ---    0.34020   0.34025   0.34058   0.34065   0.34072
     Eigenvalues ---    0.34095   0.34121   0.34127   0.34133   0.34143
     Eigenvalues ---    0.34181   0.34199   0.34206   0.34242   0.34254
     Eigenvalues ---    0.34262   0.34265   0.34275   0.34276   0.34283
     Eigenvalues ---    0.34309   0.34348   0.34351   0.34374   0.34470
     Eigenvalues ---    0.34964   0.35216   0.35367   0.35447   0.36519
     Eigenvalues ---    0.37157   0.42933   0.43310   0.51770   0.53237
     Eigenvalues ---    0.54289   0.56278   0.89644   0.90785
 RFO step:  Lambda=-2.12163310D-02 EMin= 2.77196939D-03
 Linear search not attempted -- first point.
 Iteration  1 RMS(Cart)=  0.06143758 RMS(Int)=  0.00077020
 Iteration  2 RMS(Cart)=  0.00141964 RMS(Int)=  0.00022685
 Iteration  3 RMS(Cart)=  0.00000068 RMS(Int)=  0.00022685
 Variable       Old X    -DE/DX   Delta X   Delta X   Delta X     New X
                                 (Linear)    (Quad)   (Total)
    R1        2.53545  -0.00203   0.00000  -0.00430  -0.00433   2.53112
    R2        2.82520   0.00825   0.00000   0.02485   0.02479   2.84999
    R3        2.05733   0.00010   0.00000   0.00027   0.00027   2.05760
    R4        2.85757   0.00345   0.00000   0.00732   0.00735   2.86492
    R5        2.84567   0.00343   0.00000   0.01013   0.01013   2.85580
    R6        2.94178   0.00465   0.00000   0.01057   0.01056   2.95235
    R7        2.90823   0.01117   0.00000   0.03887   0.03885   2.94708
    R8        2.07897  -0.00083   0.00000  -0.00232  -0.00232   2.07665
    R9        2.90149   0.00872   0.00000   0.02784   0.02768   2.92917
   R10        2.91207   0.00822   0.00000   0.02700   0.02705   2.93912
   R11        2.76129  -0.00478   0.00000  -0.01138  -0.01139   2.74990
   R12        2.91565  -0.00107   0.00000  -0.00091  -0.00098   2.91467
   R13        2.90276   0.00611   0.00000   0.01350   0.01343   2.91619
   R14        2.89071   0.01297   0.00000   0.04211   0.04207   2.93278
   R15        2.07232   0.00274   0.00000   0.00759   0.00759   2.07991
   R16        2.07315  -0.00146   0.00000  -0.00405  -0.00405   2.06910
   R17        2.81890   0.00965   0.00000   0.02082   0.02045   2.83935
   R18        2.86048   0.01461   0.00000   0.05315   0.05266   2.91314
   R19        2.67753   0.00257   0.00000   0.00571   0.00571   2.68324
   R20        2.52863   0.01632   0.00000   0.02833   0.02840   2.55703
   R21        2.63418  -0.02357   0.00000  -0.05561  -0.05541   2.57876
   R22        2.80036  -0.00441   0.00000  -0.01583  -0.01576   2.78460
   R23        2.81150   0.01115   0.00000   0.03115   0.03115   2.84265
   R24        2.33098  -0.01062   0.00000  -0.01158  -0.01158   2.31940
   R25        2.32573  -0.01958   0.00000  -0.02108  -0.02108   2.30465
   R26        2.88487   0.00207   0.00000   0.00648   0.00648   2.89136
   R27        2.90106   0.00425   0.00000   0.01368   0.01368   2.91474
   R28        2.88678   0.00799   0.00000   0.02515   0.02515   2.91194
   R29        2.07170  -0.00001   0.00000  -0.00003  -0.00003   2.07167
   R30        2.07356  -0.00037   0.00000  -0.00103  -0.00103   2.07254
   R31        2.07328  -0.00022   0.00000  -0.00060  -0.00060   2.07268
   R32        2.87513   0.00867   0.00000   0.02679   0.02679   2.90192
   R33        2.07117   0.00084   0.00000   0.00231   0.00231   2.07348
   R34        2.06742   0.00065   0.00000   0.00178   0.00178   2.06921
   R35        2.07025  -0.00017   0.00000  -0.00048  -0.00048   2.06977
   R36        2.91492  -0.00095   0.00000   0.00965   0.00991   2.92483
   R37        2.90522   0.00416   0.00000   0.01493   0.01493   2.92014
   R38        2.07126  -0.00170   0.00000  -0.00468  -0.00468   2.06659
[...]
     54          1           0       -1.460203    4.415162   -2.039926
     55          1           0       -1.100540    2.799510   -2.690970
     56          1           0        1.180174    4.886250   -0.628775
     57          1           0       -0.368432    5.146222    0.196979
     58          1           0        0.873174    4.109809    0.931565
     59          1           0       -0.017169    0.375288    5.060111
     60          1           0        0.135697    1.823589    4.052630
     61          1           0       -1.450224    1.330636    4.637250
     62          6           0        5.407054   -2.829139   -0.466621
     63          1           0        4.891576   -3.394092    0.319668
     64          1           0        5.747102   -3.547685   -1.221622
     65          1           0        6.299757   -2.373154   -0.024091
 ---------------------------------------------------------------------
 Rotational constants (GHZ):      0.1915905      0.1278074      0.1112115

 **********************************************************************

            Population analysis using the SCF density.

 **********************************************************************

 Orbital symmetries:
       Occupied  (A) (A) (A) (A) (A) (A) (A) (A) (A) (A) (A) (A)
                 (A) (A) (A) (A) (A) (A) (A) (A) (A) (A) (A) (A)
                 (A) (A) (A) (A) (A) (A) (A) (A) (A) (A) (A) (A)
                 (A) (A) (A) (A) (A) (A) (A) (A) (A) (A) (A) (A)
                 (A) (A) (A) (A) (A) (A) (A) (A) (A) (A) (A) (A)
                 (A) (A) (A) (A) (A) (A) (A) (A) (A) (A) (A) (A)
                 (A) (A) (A) (A) (A) (A) (A) (A) (A) (A) (A) (A)
                 (A) (A) (A) (A) (A) (A) (A) (A) (A) (A) (A) (A)
                 (A) (A) (A) (A) (A) (A) (A) (A) (A) (A) (A) (A)
                 (A) (A) (A) (A) (A) (A) (A)
       Virtual   (A) (A) (A) (A) (A) (A) (A) (A) (A) (A) (A) (A)
                 (A) (A) (A) (A) (A) (A) (A) (A) (A) (A) (A) (A)
                 (A) (A) (A) (A) (A) (A) (A) (A) (A) (A) (A) (A)
                 (A) (A) (A) (A) (A) (A) (A) (A) (A) (A) (A) (A)
                 (A) (A) (A) (A) (A) (A) (A) (A) (A) (A) (A) (A)
                 (A) (A) (A) (A) (A) (A) (A) (A) (A) (A) (A) (A)
                 (A) (A) (A) (A) (A) (A) (A) (A) (A) (A) (A) (A)
                 (A) (A) (A) (A) (A) (A) (A) (A) (A) (A) (A) (A)
                 (A) (A) (A) (A) (A) (A) (A) (A) (A) (A) (A) (A)
                 (A) (A) (A) (A) (A) (A) (A) (A) (A) (A) (A) (A)
                 (A) (A) (A) (A) (A) (A) (A) (A) (A) (A) (A) (A)
                 (A) (A) (A) (A) (A) (A) (A) (A) (A) (A) (A) (A)
                 (A) (A) (A) (A) (A) (A) (A) (A) (A) (A) (A) (A)
                 (A) (A) (A) (A) (A) (A) (A) (A) (A) (A) (A) (A)
                 (A) (A) (A) (A) (A) (A) (A) (A) (A) (A) (A) (A)
                 (A) (A) (A) (A) (A) (A) (A) (A) (A) (A) (A) (A)
                 (A) (A) (A) (A) (A) (A) (A) (A) (A) (A) (A) (A)
                 (A) (A) (A) (A) (A) (A) (A) (A) (A) (A) (A) (A)
                 (A) (A) (A) (A) (A) (A) (A) (A) (A) (A) (A) (A)
                 (A) (A) (A) (A) (A) (A) (A) (A) (A) (A) (A) (A)
                 (A) (A) (A) (A) (A) (A) (A) (A) (A) (A) (A) (A)
                 (A) (A) (A) (A) (A) (A) (A) (A) (A) (A) (A) (A)
                 (A) (A) (A) (A) (A) (A) (A) (A) (A) (A) (A) (A)
                 (A) (A) (A) (A) (A) (A) (A) (A) (A) (A) (A) (A)
                 (A) (A) (A) (A) (A) (A) (A) (A) (A) (A) (A) (A)
                 (A) (A) (A) (A) (A) (A) (A) (A) (A) (A) (A) (A)
                 (A) (A) (A) (A) (A) (A) (A) (A) (A) (A) (A) (A)
                 (A) (A) (A) (A) (A) (A) (A) (A) (A) (A) (A) (A)
                 (A) (A) (A) (A) (A) (A) (A) (A) (A) (A) (A) (A)
                 (A) (A) (A) (A) (A) (A) (A) (A) (A) (A) (A) (A)
                 (A) (A) (A) (A) (A) (A) (A) (A) (A) (A) (A) (A)
                 (A) (A) (A) (A) (A) (A) (A) (A) (A) (A) (A) (A)
                 (A) (A) (A) (A) (A) (A) (A) (A) (A) (A) (A) (A)
                 (A) (A) (A) (A) (A) (A) (A) (A) (A) (A) (A) (A)
                 (A) (A) (A) (A) (A) (A) (A) (A) (A) (A)
 The electronic state is 1-A.
 Alpha  occ. eigenvalues --  -19.19849 -19.16780 -19.15906 -19.12749 -19.11543
 Alpha  occ. eigenvalues --  -10.27719 -10.27184 -10.26682 -10.25901 -10.25844
 Alpha  occ. eigenvalues --  -10.25658 -10.25239 -10.21401 -10.20848 -10.20687
 Alpha  occ. eigenvalues --  -10.20571 -10.20115 -10.19702 -10.19517 -10.19230
 Alpha  occ. eigenvalues --  -10.19087 -10.19044 -10.18947 -10.18931 -10.18826
 Alpha  occ. eigenvalues --  -10.18444 -10.18041 -10.17216 -10.16280 -10.15910
 Alpha  occ. eigenvalues --  -10.15852  -1.09561  -1.06015  -1.02977  -1.02567
 Alpha  occ. eigenvalues --   -1.01527  -0.86838  -0.83676  -0.82439  -0.81423
 Alpha  occ. eigenvalues --   -0.80354  -0.78586  -0.76694  -0.74401  -0.73282
 Alpha  occ. eigenvalues --   -0.71816  -0.70772  -0.69960  -0.69546  -0.68002
 Alpha  occ. eigenvalues --   -0.65446  -0.64022  -0.63518  -0.61612  -0.60689
 Alpha  occ. eigenvalues --   -0.59507  -0.57820  -0.56969  -0.54519  -0.53549
 Alpha  occ. eigenvalues --   -0.52788  -0.51887  -0.50854  -0.50451  -0.49318
 Alpha  occ. eigenvalues --   -0.48298  -0.47380  -0.46633  -0.46367  -0.45798
 Alpha  occ. eigenvalues --   -0.45299  -0.44551  -0.44278  -0.43454  -0.43328
 Alpha  occ. eigenvalues --   -0.42688  -0.42119  -0.41760  -0.41622  -0.41343
 Alpha  occ. eigenvalues --   -0.40688  -0.40585  -0.40464  -0.39734  -0.39466
 Alpha  occ. eigenvalues --   -0.39152  -0.38469  -0.38199  -0.38067  -0.37859
 Alpha  occ. eigenvalues --   -0.37683  -0.37417  -0.37309  -0.36961  -0.36779
 Alpha  occ. eigenvalues --   -0.36465  -0.35209  -0.34717  -0.34500  -0.34201
 Alpha  occ. eigenvalues --   -0.33729  -0.33634  -0.32912  -0.32720  -0.32156
 Alpha  occ. eigenvalues --   -0.31435  -0.30475  -0.30100  -0.28156  -0.26723
 Alpha  occ. eigenvalues --   -0.26388  -0.24603  -0.24329  -0.23498  -0.22165
 Alpha virt. eigenvalues --   -0.05163  -0.01253   0.00267   0.01847   0.06347
 Alpha virt. eigenvalues --    0.07926   0.08410   0.08862   0.09599   0.10354
 Alpha virt. eigenvalues --    0.10731   0.11035   0.11318   0.12032   0.12516
 Alpha virt. eigenvalues --    0.12946   0.13181   0.13540   0.13957   0.14057
 Alpha virt. eigenvalues --    0.14641   0.15054   0.15131   0.15709   0.16094
 Alpha virt. eigenvalues --    0.16187   0.16668   0.16928   0.17074   0.17266
 Alpha virt. eigenvalues --    0.17555   0.18080   0.18406   0.18652   0.18884
 Alpha virt. eigenvalues --    0.19054   0.19257   0.19735   0.19999   0.20402
 Alpha virt. eigenvalues --    0.20684   0.21049   0.21417   0.21867   0.22324
 Alpha virt. eigenvalues --    0.22847   0.23235   0.23526   0.23820   0.24342
 Alpha virt. eigenvalues --    0.24878   0.25405   0.26422   0.26656   0.26982
 Alpha virt. eigenvalues --    0.27329   0.27510   0.28494   0.29068   0.29413
 Alpha virt. eigenvalues --    0.30209   0.31590   0.32377   0.32552   0.33569
 Alpha virt. eigenvalues --    0.34091   0.35952   0.37670   0.39514   0.40196
 Alpha virt. eigenvalues --    0.42009   0.45174   0.46796   0.48209   0.48499
 Alpha virt. eigenvalues --    0.49285   0.50533   0.51138   0.51446   0.51911
 Alpha virt. eigenvalues --    0.52655   0.52731   0.53140   0.53429   0.53663
 Alpha virt. eigenvalues --    0.53980   0.54723   0.55274   0.55772   0.55975
 Alpha virt. eigenvalues --    0.57090   0.57512   0.57667   0.58383   0.58994
 Alpha virt. eigenvalues --    0.59283   0.59807   0.60493   0.60862   0.61604
 Alpha virt. eigenvalues --    0.62067   0.62465   0.62949   0.63223   0.64217
 Alpha virt. eigenvalues --    0.65585   0.65902   0.66460   0.66696   0.67331
 Alpha virt. eigenvalues --    0.67586   0.68196   0.68804   0.69465   0.69567
 Alpha virt. eigenvalues --    0.69700   0.70900   0.71757   0.72046   0.73133
 Alpha virt. eigenvalues --    0.74147   0.74837   0.75440   0.75981   0.76117
 Alpha virt. eigenvalues --    0.76859   0.77912   0.79350   0.79820   0.80322
 Alpha virt. eigenvalues --    0.80586   0.81041   0.81258   0.82345   0.82826
 Alpha virt. eigenvalues --    0.83182   0.83922   0.84162   0.84528   0.84931
 Alpha virt. eigenvalues --    0.85461   0.86205   0.86285   0.87017   0.87356
 Alpha virt. eigenvalues --    0.87628   0.88076   0.88390   0.88610   0.89014
 Alpha virt. eigenvalues --    0.89190   0.89751   0.90343   0.90560   0.90629
 Alpha virt. eigenvalues --    0.90819   0.91037   0.91309   0.91816   0.92692
 Alpha virt. eigenvalues --    0.93159   0.93447   0.93968   0.94203   0.94503
 Alpha virt. eigenvalues --    0.95169   0.96052   0.96231   0.97016   0.97533
 Alpha virt. eigenvalues --    0.97685   0.98029   0.98444   0.99356   0.99932
 Alpha virt. eigenvalues --    1.00662   1.01642   1.01811   1.02526   1.03337
 Alpha virt. eigenvalues --    1.04117   1.05005   1.05737   1.08062   1.08250
 Alpha virt. eigenvalues --    1.09212   1.09742   1.10550   1.11906   1.12674
 Alpha virt. eigenvalues --    1.12930   1.14071   1.15136   1.15915   1.17187
 Alpha virt. eigenvalues --    1.17828   1.19015   1.19384   1.20426   1.21358
 Alpha virt. eigenvalues --    1.21951   1.22922   1.25548   1.26114   1.27291
 Alpha virt. eigenvalues --    1.28580   1.30583   1.30885   1.32724   1.34835
 Alpha virt. eigenvalues --    1.35384   1.35827   1.37386   1.37847   1.38837
 Alpha virt. eigenvalues --    1.40203   1.40948   1.43868   1.44509   1.45194
 Alpha virt. eigenvalues --    1.46006   1.48655   1.48902   1.51161   1.52846
 Alpha virt. eigenvalues --    1.53498   1.54659   1.56034   1.57917   1.58035
 Alpha virt. eigenvalues --    1.59177   1.59644   1.61845   1.62356   1.62529
 Alpha virt. eigenvalues --    1.63052   1.65672   1.66756   1.68036   1.68727
 Alpha virt. eigenvalues --    1.69947   1.71454   1.72683   1.73256   1.73902
 Alpha virt. eigenvalues --    1.74281   1.74824   1.75575   1.77746   1.78313
 Alpha virt. eigenvalues --    1.78667   1.79041   1.80190   1.80286   1.80587
 Alpha virt. eigenvalues --    1.82374   1.83036   1.83493   1.84071   1.85462
 Alpha virt. eigenvalues --    1.85810   1.86311   1.86596   1.86925   1.88304
 Alpha virt. eigenvalues --    1.89506   1.89606   1.89795   1.89998   1.91391
 Alpha virt. eigenvalues --    1.91781   1.92566   1.94015   1.94947   1.95043
 Alpha virt. eigenvalues --    1.96027   1.96499   1.96802   1.97736   1.98713
 Alpha virt. eigenvalues --    1.99362   1.99606   1.99833   2.00292   2.01072
 Alpha virt. eigenvalues --    2.01658   2.01875   2.04223   2.04347   2.05278
 Alpha virt. eigenvalues --    2.05940   2.06963   2.08326   2.08982   2.09338
 Alpha virt. eigenvalues --    2.09777   2.10573   2.12438   2.12901   2.13764
 Alpha virt. eigenvalues --    2.13916   2.15093   2.16612   2.16803   2.17818
 Alpha virt. eigenvalues --    2.18544   2.19056   2.19832   2.21250   2.22379
 Alpha virt. eigenvalues --    2.23757   2.24180   2.24610   2.26412   2.27092
 Alpha virt. eigenvalues --    2.28552   2.30039   2.30134   2.30526   2.32477
 Alpha virt. eigenvalues --    2.32523   2.33432   2.33739   2.33994   2.34275
 Alpha virt. eigenvalues --    2.35099   2.36081   2.37534   2.38504   2.39457
 Alpha virt. eigenvalues --    2.40620   2.40950   2.41710   2.42711   2.43562
 Alpha virt. eigenvalues --    2.44226   2.45538   2.46313   2.47795   2.48770
 Alpha virt. eigenvalues --    2.49315   2.50178   2.51449   2.52737   2.54452
 Alpha virt. eigenvalues --    2.55072   2.56758   2.58172   2.58737   2.60476
 Alpha virt. eigenvalues --    2.60770   2.62223   2.63898   2.64777   2.65642
 Alpha virt. eigenvalues --    2.66523   2.67531   2.67950   2.69370   2.70508
 Alpha virt. eigenvalues --    2.71665   2.72774   2.74283   2.76054   2.77112
 Alpha virt. eigenvalues --    2.78325   2.79391   2.81461   2.83490   2.84582
 Alpha virt. eigenvalues --    2.86771   2.88764   2.89748   2.94825   2.95847
 Alpha virt. eigenvalues --    2.96569   3.00093   3.00707   3.01896   3.03017
 Alpha virt. eigenvalues --    3.05885   3.07170   3.11636   3.18164   3.20919
 Alpha virt. eigenvalues --    3.26251   3.30260   4.03001   4.05268   4.08919
 Alpha virt. eigenvalues --    4.12139   4.13583   4.15615   4.17151   4.19340
 Alpha virt. eigenvalues --    4.22866   4.23538   4.24114   4.27466   4.30263
 Alpha virt. eigenvalues --    4.32454   4.33923   4.36836   4.38485   4.42893
 Alpha virt. eigenvalues --    4.44256   4.48028   4.53217   4.55065   4.60769
 Alpha virt. eigenvalues --    4.64325   4.66406   4.70979   4.72399   4.80910
 Alpha virt. eigenvalues --    4.89858   5.02066   5.17417
          Condensed to atoms (all electrons):
 Mulliken atomic charges:
              1
     1  C   -0.191140
     2  C    0.191445
     3  C   -0.188402
     4  C    0.323504
     5  C   -0.049601
     6  C   -0.334251
     7  C    0.197524
     8  C    0.400343
     9  C   -0.072736
    10  C    0.407000
    11  C    0.413156
    12  O   -0.471565
    13  C   -0.133582
    14  C   -0.252211
    15  C   -0.452218
    16  O   -0.514124
    17  C   -0.162616
    18  C    0.298537
    19  O   -0.493282
    20  C   -0.322124
    21  O   -0.653049
    22  C   -0.324026
    23  C    0.093879
    24  O   -0.591065
    25  C    0.183239
    26  C   -0.507866
    27  C   -0.393753
    28  C   -0.468444
    29  C   -0.459652
    30  H    0.145267
    31  H    0.165354
    32  C   -0.519375
    33  H    0.122779
    34  H    0.147710
    35  H    0.181945
    36  H    0.136733
    37  H    0.154564
    38  H    0.141923
    39  H    0.133864
    40  H    0.140349
    41  H    0.164872
    42  H    0.162700
    43  H    0.152010
    44  H    0.413811
    45  H    0.168692
    46  H    0.171915
    47  H    0.137574
    48  H    0.154825
    49  H    0.155998
    50  H    0.170696
    51  H    0.154565
    52  H    0.142835
    53  H    0.164744
    54  H    0.141880
    55  H    0.194317
    56  H    0.170681
    57  H    0.150288
    58  H    0.159717
    59  H    0.158265
    60  H    0.156723
    61  H    0.151992
    62  C   -0.450543
    63  H    0.146669
    64  H    0.140106
    65  H    0.140634
 Sum of Mulliken atomic charges =   0.00000
 Mulliken charges with hydrogens summed into heavy atoms:
              1
     1  C   -0.068361
     2  C    0.191445
     3  C   -0.023049
     4  C    0.323504
     5  C   -0.049601
     6  C   -0.004595
     7  C    0.197524
     8  C    0.400343
     9  C   -0.072736
    10  C    0.407000
    11  C    0.413156
    12  O   -0.471565
    13  C    0.003151
    14  C    0.044276
    15  C   -0.013133
    16  O   -0.514124
    17  C   -0.017348
    18  C    0.298537
    19  O   -0.493282
    20  C   -0.007414
    21  O   -0.239238
    22  C    0.016581
    23  C    0.231453
    24  O   -0.591065
    25  C    0.183239
    26  C   -0.026348
    27  C   -0.096353
    28  C    0.032497
    29  C    0.021034
    32  C   -0.052395
    62  C   -0.023134
 Sum of Mulliken charges with hydrogens summed into heavy atoms =   0.00000
 Electronic spatial extent (au):  <R**2>=          11751.0832
 Charge=              0.0000 electrons
 Dipole moment (field-independent basis, Debye):
    X=             -5.4596    Y=              1.6480    Z=              3.0887  Tot=              6.4857
 Quadrupole moment (field-independent basis, Debye-Ang):
   XX=           -186.7614   YY=           -175.8733   ZZ=           -184.3717
   XY=             -0.4463   XZ=              8.0556   YZ=              3.9883
 Traceless Quadrupole moment (field-independent basis, Debye-Ang):
   XX=             -4.4260   YY=              6.4622   ZZ=             -2.0362
   XY=             -0.4463   XZ=              8.0556   YZ=              3.9883
 Octapole moment (field-independent basis, Debye-Ang**2):
  XXX=            -62.0248  YYY=             64.9547  ZZZ=              2.7585  XYY=            -31.4157
  XXY=            -17.8452  XXZ=             -0.8737  XZZ=            -15.7952  YZZ=             -7.4786
  YYZ=             -5.6809  XYZ=              3.1332
 Hexadecapole moment (field-independent basis, Debye-Ang**3):
 XXXX=          -8105.8279 YYYY=          -4479.5088 ZZZZ=          -2972.4764 XXXY=             12.5197
 XXXZ=            112.3419 YYYX=             19.1537 YYYZ=            -59.1601 ZZZX=             33.2905
 ZZZY=             10.2930 XXYY=          -2157.2017 XXZZ=          -1867.0820 YYZZ=          -1228.7858
 XXYZ=             51.5740 YYXZ=              0.7975 ZZXY=             -4.2479
 N-N= 3.495871774829D+03 E-N=-1.021809234469D+04  KE= 1.374460977861D+03
 1\1\GINC-B0801\FOpt\RB3LYP\6-31G(d)\C26H34O5\CAOFEI\24-Mar-2021\0\\# o
 pt rb3lyp/6-31g(d) geom=connectivity\\Title Card Required\\0,1\C,0.343
 5576359,-0.1250650804,0.2173414626\C,1.6745745746,-0.0051512719,0.2847
 608421\C,2.3481597055,1.3487636261,0.1939218743\C,1.4484323034,2.52674
 47588,-0.2981554312\C,-0.0137651582,2.2309845404,-0.7162484054\C,-0.60
 40274513,1.0327632966,0.0698093216\C,2.2668168107,3.1956786854,-1.4332
 093206\C,2.0168832544,2.5849691568,-2.8014586489\C,0.822975189,2.06155
 91139,-3.2129165254\C,-0.2665648333,1.9841626592,-2.2292282711\C,0.661
 0995338,1.5605290171,-4.6229897842\O,1.3545787364,2.0263989673,-5.5154
 088439\C,-0.3320896694,0.4362054709,-4.9435096468\C,-1.528752405,1.050
 3314675,-5.7116929695\C,0.3950149013,-0.6528466936,-5.7514900222\O,-1.
 4205147467,1.7213811979,-2.5592739183\C,3.7470005422,2.8001060065,-1.2
 479276385\C,4.3155585422,2.9401382348,-2.6779048395\O,3.1373123872,2.5
 837678158,-3.5176921931\C,3.6188459252,1.3617658734,-0.7069810843\O,2.
 0031194672,4.5819839545,-1.5305250834\C,-0.7367766723,3.5434835549,-0.
 3106088515\C,-0.0152687123,3.9447029728,0.9712802276\O,1.3605841419,3.
 5070883836,0.7674048404\C,0.0053444646,5.40307526,1.3802588951\C,0.817
 2061868,5.7012181665,2.6179994489\C,-0.671822043,6.3505982989,0.724363
 5541\C,4.7184928095,4.374298199,-3.0281164795\C,5.4180612414,1.9593126
 484,-3.0681704801\H,4.2568835892,3.4600371049,-0.5395096423\H,2.656957
 6437,1.6422396242,1.2071911564\C,2.5687062897,-1.1952719771,0.53165204
 46\H,-0.1036286232,-1.1126600792,0.3238670869\H,-0.9121543034,1.368681
 0297,1.0715591085\H,-1.522619814,0.7266554967,-0.4391794408\H,-0.71351
 94357,0.0071846448,-4.0132427193\H,-1.9137010998,1.8932968708,-5.12744
 89616\H,-1.1556056374,1.4591736904,-6.6597016629\H,1.2273162245,-1.080
 5525148,-5.1796211563\H,-0.2860631736,-1.4713786767,-6.00546747\H,0.80
 41942231,-0.2347029297,-6.6759008167\H,3.4748208989,0.6644915744,-1.53
 92950766\H,4.510947313,1.0333550517,-0.1661480815\H,1.8803534471,4.867
 3174325,-0.6030508466\H,-1.8093786242,3.3871161774,-0.1708978078\H,-0.
 5928416332,4.3023242761,-1.0843882474\H,-0.4110915182,3.3662764821,1.8
 213191196\H,0.7966017916,6.7670274224,2.8636092966\H,0.43080102,5.1432
 924955,3.4821147234\H,1.8603729977,5.3914106973,2.4874181635\H,-1.2713
 56672,6.1435517354,-0.1561433296\H,-0.6564987919,7.3838304006,1.062011
 7679\H,4.9222648545,4.4494858919,-4.1009115254\H,5.6304562022,4.648023
 3995,-2.4849000786\H,3.9276579197,5.0787118095,-2.7651383382\H,5.68335
 77853,2.0973472912,-4.120783451\H,6.3119571109,2.1449834552,-2.4624025
 192\H,5.1140079278,0.9192845217,-2.9292384645\H,1.9820060197,-2.111816
 376,0.6466871353\H,3.2835382585,-1.3551501095,-0.2857463093\H,3.164319
 1936,-1.0587866103,1.4456938278\C,-2.6766385029,0.0694017996,-5.969553
 6752\H,-3.061707076,-0.3398154066,-5.027532846\H,-3.5078647972,0.57480
 8924,-6.4751157414\H,-2.3717876693,-0.7713229005,-6.602737252\\Version
 =EM64L-G09RevB.01\State=1-A\HF=-1387.320306\RMSD=9.721e-09\RMSF=2.685e
 -06\Dipole=1.1587294,-0.0025421,2.2733908\Quadrupole=4.8533751,3.35404
 29,-8.207418,-1.9225533,-0.9766456,2.6721459\PG=C01 [X(C26H34O5)]\\@


 ABALONE: AN EXPRESSION OF DISBELIEF.
 Job cpu time:  0 days  6 hours 56 minutes  7.3 seconds.
 File lengths (MBytes):  RWF=    186 Int=      0 D2E=      0 Chk=     20 Scr=      1
 Normal termination of Gaussian 09 at Wed Mar 24 14:16:07 2021.
