 Entering Gaussian System, Link 0=g09
 Initial command:
 /public/software/g09/g09/l1.exe /tmp/Gau-17045.inp -scrdir=/tmp/
 Entering Link 1 = /public/software/g09/g09/l1.exe PID=     17046.
  
 Copyright (c) 1988,1990,1992,1993,1995,1998,2003,2009,2010,
            Gaussian, Inc.  All Rights Reserved.
  
 This is part of the Gaussian(R) 09 program.  It is based on
 the Gaussian(R) 03 system (copyright 2003, Gaussian, Inc.),
 the Gaussian(R) 98 system (copyright 1998, Gaussian, Inc.),
 the Gaussian(R) 94 system (copyright 1995, Gaussian, Inc.),
 the Gaussian 92(TM) system (copyright 1992, Gaussian, Inc.),
 the Gaussian 90(TM) system (copyright 1990, Gaussian, Inc.),
 the Gaussian 88(TM) system (copyright 1988, Gaussian, Inc.),
 the Gaussian 86(TM) system (copyright 1986, Carnegie Mellon
 University), and the Gaussian 82(TM) system (copyright 1983,
 Carnegie Mellon University). Gaussian is a federally registered
 trademark of Gaussian, Inc.
  
 This software contains proprietary and confidential information,
 including trade secrets, belonging to Gaussian, Inc.
  
 This software is provided under written license and may be
 used, copied, transmitted, or stored only in accord with that
 written license.
  
 The following legend is applicable only to US Government
 contracts under FAR:
  
                    RESTRICTED RIGHTS LEGEND
  
 Use, reproduction and disclosure by the US Government is
 subject to restrictions as set forth in subparagraphs (a)
 and (c) of the Commercial Computer Software - Restricted
 Rights clause in FAR 52.227-19.
  
 Gaussian, Inc.
 340 Quinnipiac St., Bldg. 40, Wallingford CT 06492
  
  
 ---------------------------------------------------------------
 Warning -- This program may not be used in any manner that
 competes with the business of Gaussian, Inc. or will provide
 assistance to any competitor of Gaussian, Inc.  The licensee
 of this program is prohibited from giving any competitor of
 Gaussian, Inc. access to this program.  By using this program,
 the user acknowledges that Gaussian, Inc. is engaged in the
 business of creating and licensing software in the field of
 computational chemistry and represents and warrants to the
 licensee that it is not a competitor of Gaussian, Inc. and that
 it will not use this program in any manner prohibited above.
 ---------------------------------------------------------------
  

 Cite this work as:
 Gaussian 09, Revision B.01,
 M. J. Frisch, G. W. Trucks, H. B. Schlegel, G. E. Scuseria, 
 M. A. Robb, J. R. Cheeseman, G. Scalmani, V. Barone, B. Mennucci, 
 G. A. Petersson, H. Nakatsuji, M. Caricato, X. Li, H. P. Hratchian, 
 A. F. Izmaylov, J. Bloino, G. Zheng, J. L. Sonnenberg, M. Hada, 
 M. Ehara, K. Toyota, R. Fukuda, J. Hasegawa, M. Ishida, T. Nakajima, 
 Y. Honda, O. Kitao, H. Nakai, T. Vreven, J. A. Montgomery, Jr., 
 J. E. Peralta, F. Ogliaro, M. Bearpark, J. J. Heyd, E. Brothers, 
 K. N. Kudin, V. N. Staroverov, T. Keith, R. Kobayashi, J. Normand, 
 K. Raghavachari, A. Rendell, J. C. Burant, S. S. Iyengar, J. Tomasi, 
 M. Cossi, N. Rega, J. M. Millam, M. Klene, J. E. Knox, J. B. Cross, 
 V. Bakken, C. Adamo, J. Jaramillo, R. Gomperts, R. E. Stratmann, 
 O. Yazyev, A. J. Austin, R. Cammi, C. Pomelli, J. W. Ochterski, 
 R. L. Martin, K. Morokuma, V. G. Zakrzewski, G. A. Voth, 
 P. Salvador, J. J. Dannenberg, S. Dapprich, A. D. Daniels, 
 O. Farkas, J. B. Foresman, J. V. Ortiz, J. Cioslowski, 
 and D. J. Fox, Gaussian, Inc., Wallingford CT, 2010.
 
 ******************************************
 Gaussian 09:  EM64L-G09RevB.01 12-Aug-2010
                24-Mar-2021 
 ******************************************
 %mem=600MW
 %nprocshared=10
 Will use up to   10 processors via shared memory.
 ---------------------------------------
 # opt rb3lyp/6-31g(d) geom=connectivity
 ---------------------------------------
 1/14=-1,18=20,19=15,26=3,38=1,57=2/1,3;
 2/9=110,12=2,17=6,18=5,40=1/2;
 3/5=1,6=6,7=1,11=2,16=1,25=1,30=1,71=1,74=-5,116=1/1,2,3;
 4//1;
 5/5=2,38=5/2;
 6/7=2,8=2,9=2,10=2,28=1/1;
 7//1,2,3,16;
 1/14=-1,18=20,19=15/3(2);
 2/9=110/2;
 99//99;
 2/9=110/2;
 3/5=1,6=6,7=1,11=2,16=1,25=1,30=1,71=1,74=-5,116=1/1,2,3;
 4/5=5,16=3/1;
 5/5=2,38=5/2;
 7//1,2,3,16;
 1/14=-1,18=20,19=15/3(-5);
 2/9=110/2;
 6/7=2,8=2,9=2,10=2,19=2,28=1/1;
 99/9=1/99;
 -------------------
 Title Card Required
 -------------------
 Symbolic Z-matrix:
 Charge =  0 Multiplicity = 1
 C                     0.        0.        0. 
 C                     1.3402    0.        0. 
 C                     2.1382    1.2825    0. 
 C                     1.3491    2.5917   -0.2979 
 C                    -0.1661    2.4892   -0.5743 
 C                    -0.8337    1.2367    0.0383 
 C                     2.12      3.2594   -1.4531 
 C                     1.6903    2.8606   -2.8229 
 C                     0.433     2.521    -3.1275 
 C                    -0.5837    2.5578   -2.0519 
 C                     0.087     2.0844   -4.5071 
 O                     0.3869    2.774    -5.4811 
 C                    -0.5868    0.72     -4.6537 
 C                    -1.5919    0.7056   -5.8149 
 C                     0.5066   -0.3253   -4.8748 
 O                    -1.7764    2.6086   -2.3623 
 C                     3.5267    2.7025   -1.446 
 C                     3.9652    2.8805   -2.9141 
 O                     2.7609    2.6929   -3.6981 
 C                     3.2928    1.2472   -1.0184 
 O                     2.0981    4.6713   -1.3479 
 C                    -0.7016    3.7438    0.126 
 C                     0.2049    3.845     1.3405 
 O                     1.5092    3.4749    0.867 
 C                     0.2268    5.1935    2.0161 
 C                     0.8798    6.3496    1.3134 
 C                    -0.3273    5.365     3.2297 
 C                     4.5203    4.2834   -3.2092 
 C                     5.0044    1.8504   -3.3712 
 H                     4.1955    3.2156   -0.7455 
 H                     2.5901    1.3706    0.9989 
 C                     2.1067   -1.2938    0.0982 
 H                    -0.5422   -0.9431    0.0503 
 H                    -1.7788    1.0156   -0.4742 
 H                    -1.1132    1.3986    1.0864 
 H                    -1.1188    0.467    -3.73 
 H                    -1.9455   -0.32     -5.9777 
 H                    -1.1115    1.0265   -6.7472 
 H                     1.0757   -0.1194   -5.7883 
 H                     0.0765   -1.3286   -4.9588 
 H                     1.2162   -0.3328   -4.04 
 H                     3.0186    0.6166   -1.873 
 H                     4.2019    0.8178   -0.5821 
 H                     2.2872    4.8574   -0.4078 
 H                    -1.7595    3.6743    0.4033 
 H                    -0.5969    4.6182   -0.5281 
 H                    -0.0756    3.0814    2.0769 
 H                     1.9601    6.1924    1.2433 
 H                     0.4723    6.4805    0.3071 
 H                     0.7246    7.2937    1.8476 
 H                    -0.8052    4.5475    3.761 
 H                    -0.3168    6.3297    3.7285 
 H                     4.8182    4.3655   -4.2614 
 H                     5.3939    4.5036   -2.5872 
 H                     3.7769    5.0704   -3.0582 
 H                     5.307     2.0397   -4.408 
 H                     5.8991    1.8805   -2.7412 
 H                     4.6045    0.8318   -3.37 
 H                     1.4456   -2.1525    0.2578 
 H                     2.6734   -1.4826   -0.8184 
 H                     2.8047   -1.2573    0.941 
 C                    -2.8027    1.5906   -5.5498 
 H                    -3.5092    1.5205   -6.383 
 H                    -3.3233    1.2791   -4.6387 
 H                    -2.5163    2.641    -5.4412 
 

 GradGradGradGradGradGradGradGradGradGradGradGradGradGradGradGradGradGrad
 Berny optimization.
 Initialization pass.
                           ----------------------------
                           !    Initial Parameters    !
                           ! (Angstroms and Degrees)  !
 --------------------------                            --------------------------
 ! Name  Definition              Value          Derivative Info.                !
 --------------------------------------------------------------------------------
 ! R1    R(1,2)                  1.3402         estimate D2E/DX2                !
 ! R2    R(1,6)                  1.492          estimate D2E/DX2                !
 ! R3    R(1,33)                 1.089          estimate D2E/DX2                !
 ! R4    R(2,3)                  1.5105         estimate D2E/DX2                !
 ! R5    R(2,32)                 1.507          estimate D2E/DX2                !
 ! R6    R(3,4)                  1.5574         estimate D2E/DX2                !
 ! R7    R(3,20)                 1.54           estimate D2E/DX2                !
 ! R8    R(3,31)                 1.0999         estimate D2E/DX2                !
 ! R9    R(4,5)                  1.5436         estimate D2E/DX2                !
 ! R10   R(4,7)                  1.541          estimate D2E/DX2                !
 ! R11   R(4,24)                 1.4706         estimate D2E/DX2                !
 ! R12   R(5,6)                  1.5459         estimate D2E/DX2                !
 ! R13   R(5,10)                 1.537          estimate D2E/DX2                !
 ! R14   R(5,22)                 1.5334         estimate D2E/DX2                !
 ! R15   R(6,34)                 1.0976         estimate D2E/DX2                !
 ! R16   R(6,35)                 1.0967         estimate D2E/DX2                !
 ! R17   R(7,8)                  1.49           estimate D2E/DX2                !
 ! R18   R(7,17)                 1.5129         estimate D2E/DX2                !
 ! R19   R(7,21)                 1.416          estimate D2E/DX2                !
 ! R20   R(8,9)                  1.3375         estimate D2E/DX2                !
 ! R21   R(8,19)                 1.3929         estimate D2E/DX2                !
 ! R22   R(9,10)                 1.4805         estimate D2E/DX2                !
 ! R23   R(9,11)                 1.4878         estimate D2E/DX2                !
 ! R24   R(10,16)                1.2335         estimate D2E/DX2                !
 ! R25   R(11,12)                1.2305         estimate D2E/DX2                !
 ! R26   R(11,13)                1.5288         estimate D2E/DX2                !
 ! R27   R(13,14)                1.5358         estimate D2E/DX2                !
 ! R28   R(13,15)                1.5287         estimate D2E/DX2                !
 ! R29   R(13,36)                1.0956         estimate D2E/DX2                !
 ! R30   R(14,37)                1.097          estimate D2E/DX2                !
 ! R31   R(14,38)                1.0968         estimate D2E/DX2                !
 ! R32   R(14,62)                1.523          estimate D2E/DX2                !
 ! R33   R(15,39)                1.0958         estimate D2E/DX2                !
 ! R34   R(15,40)                1.0948         estimate D2E/DX2                !
 ! R35   R(15,41)                1.0957         estimate D2E/DX2                !
 ! R36   R(17,18)                1.5425         estimate D2E/DX2                !
 ! R37   R(17,20)                1.5347         estimate D2E/DX2                !
 ! R38   R(17,30)                1.096          estimate D2E/DX2                !
 ! R39   R(18,19)                1.4492         estimate D2E/DX2                !
 ! R40   R(18,28)                1.5373         estimate D2E/DX2                !
 ! R41   R(18,29)                1.533          estimate D2E/DX2                !
 ! R42   R(20,42)                1.0969         estimate D2E/DX2                !
 ! R43   R(20,43)                1.096          estimate D2E/DX2                !
 ! R44   R(21,44)                0.9768         estimate D2E/DX2                !
 ! R45   R(22,23)                1.5189         estimate D2E/DX2                !
 ! R46   R(22,45)                1.0958         estimate D2E/DX2                !
 ! R47   R(22,46)                1.097          estimate D2E/DX2                !
 ! R48   R(23,24)                1.4361         estimate D2E/DX2                !
 ! R49   R(23,25)                1.5084         estimate D2E/DX2                !
 ! R50   R(23,47)                1.0973         estimate D2E/DX2                !
 ! R51   R(25,26)                1.5023         estimate D2E/DX2                !
 ! R52   R(25,27)                1.3451         estimate D2E/DX2                !
 ! R53   R(26,48)                1.0939         estimate D2E/DX2                !
 ! R54   R(26,49)                1.0935         estimate D2E/DX2                !
 ! R55   R(26,50)                1.0958         estimate D2E/DX2                !
 ! R56   R(27,51)                1.0858         estimate D2E/DX2                !
 ! R57   R(27,52)                1.0861         estimate D2E/DX2                !
 ! R58   R(28,53)                1.0966         estimate D2E/DX2                !
 ! R59   R(28,54)                1.0948         estimate D2E/DX2                !
 ! R60   R(28,55)                1.0931         estimate D2E/DX2                !
 ! R61   R(29,56)                1.0965         estimate D2E/DX2                !
 ! R62   R(29,57)                1.0947         estimate D2E/DX2                !
 ! R63   R(29,58)                1.0943         estimate D2E/DX2                !
 ! R64   R(32,59)                1.0954         estimate D2E/DX2                !
 ! R65   R(32,60)                1.0941         estimate D2E/DX2                !
 ! R66   R(32,61)                1.0949         estimate D2E/DX2                !
 ! R67   R(62,63)                1.0947         estimate D2E/DX2                !
 ! R68   R(62,64)                1.0946         estimate D2E/DX2                !
 ! R69   R(62,65)                1.0941         estimate D2E/DX2                !
 ! A1    A(2,1,6)              123.9725         estimate D2E/DX2                !
 ! A2    A(2,1,33)             119.86           estimate D2E/DX2                !
 ! A3    A(6,1,33)             116.0048         estimate D2E/DX2                !
 ! A4    A(1,2,3)              121.8908         estimate D2E/DX2                !
 ! A5    A(1,2,32)             120.5721         estimate D2E/DX2                !
 ! A6    A(3,2,32)             117.4017         estimate D2E/DX2                !
 ! A7    A(2,3,4)              116.4919         estimate D2E/DX2                !
 ! A8    A(2,3,20)             112.1255         estimate D2E/DX2                !
 ! A9    A(2,3,31)             106.5627         estimate D2E/DX2                !
 ! A10   A(4,3,20)             105.8228         estimate D2E/DX2                !
 ! A11   A(4,3,31)             108.3342         estimate D2E/DX2                !
 ! A12   A(20,3,31)            107.1205         estimate D2E/DX2                !
 ! A13   A(3,4,5)              118.4108         estimate D2E/DX2                !
 ! A14   A(3,4,7)              104.7242         estimate D2E/DX2                !
 ! A15   A(3,4,24)             107.3486         estimate D2E/DX2                !
 ! A16   A(5,4,7)              112.6809         estimate D2E/DX2                !
 ! A17   A(5,4,24)             106.773          estimate D2E/DX2                !
 ! A18   A(7,4,24)             106.2085         estimate D2E/DX2                !
 ! A19   A(4,5,6)              114.0011         estimate D2E/DX2                !
 ! A20   A(4,5,10)             115.8408         estimate D2E/DX2                !
 ! A21   A(4,5,22)             101.9288         estimate D2E/DX2                !
 ! A22   A(6,5,10)             107.445          estimate D2E/DX2                !
 ! A23   A(6,5,22)             109.3368         estimate D2E/DX2                !
 ! A24   A(10,5,22)            107.9178         estimate D2E/DX2                !
 ! A25   A(1,6,5)              114.8413         estimate D2E/DX2                !
 ! A26   A(1,6,34)             107.5892         estimate D2E/DX2                !
 ! A27   A(1,6,35)             106.8161         estimate D2E/DX2                !
 ! A28   A(5,6,34)             110.4891         estimate D2E/DX2                !
 ! A29   A(5,6,35)             111.6637         estimate D2E/DX2                !
 ! A30   A(34,6,35)            104.8633         estimate D2E/DX2                !
 ! A31   A(4,7,8)              115.4005         estimate D2E/DX2                !
 ! A32   A(4,7,17)             107.5854         estimate D2E/DX2                !
 ! A33   A(4,7,21)             111.6303         estimate D2E/DX2                !
 ! A34   A(8,7,17)             100.0167         estimate D2E/DX2                !
 ! A35   A(8,7,21)             109.3128         estimate D2E/DX2                !
 ! A36   A(17,7,21)            112.3994         estimate D2E/DX2                !
 ! A37   A(7,8,9)              123.2593         estimate D2E/DX2                !
 ! A38   A(7,8,19)             112.8426         estimate D2E/DX2                !
 ! A39   A(9,8,19)             123.2877         estimate D2E/DX2                !
 ! A40   A(8,9,10)             118.2797         estimate D2E/DX2                !
 ! A41   A(8,9,11)             120.2842         estimate D2E/DX2                !
 ! A42   A(10,9,11)            121.416          estimate D2E/DX2                !
 ! A43   A(5,10,9)             120.7125         estimate D2E/DX2                !
 ! A44   A(5,10,16)            120.4292         estimate D2E/DX2                !
 ! A45   A(9,10,16)            118.8304         estimate D2E/DX2                !
 ! A46   A(9,11,12)            120.8525         estimate D2E/DX2                !
 ! A47   A(9,11,13)            116.9568         estimate D2E/DX2                !
 ! A48   A(12,11,13)           122.1192         estimate D2E/DX2                !
 ! A49   A(11,13,14)           111.6731         estimate D2E/DX2                !
 ! A50   A(11,13,15)           107.9921         estimate D2E/DX2                !
 ! A51   A(11,13,36)           109.833          estimate D2E/DX2                !
 ! A52   A(14,13,15)           110.6284         estimate D2E/DX2                !
 ! A53   A(14,13,36)           108.5123         estimate D2E/DX2                !
 ! A54   A(15,13,36)           108.1406         estimate D2E/DX2                !
 ! A55   A(13,14,37)           109.3851         estimate D2E/DX2                !
 ! A56   A(13,14,38)           110.6887         estimate D2E/DX2                !
 ! A57   A(13,14,62)           112.5335         estimate D2E/DX2                !
 ! A58   A(37,14,38)           106.7728         estimate D2E/DX2                !
 ! A59   A(37,14,62)           108.2307         estimate D2E/DX2                !
 ! A60   A(38,14,62)           109.036          estimate D2E/DX2                !
 ! A61   A(13,15,39)           111.318          estimate D2E/DX2                !
 ! A62   A(13,15,40)           110.899          estimate D2E/DX2                !
 ! A63   A(13,15,41)           110.9589         estimate D2E/DX2                !
 ! A64   A(39,15,40)           108.1953         estimate D2E/DX2                !
 ! A65   A(39,15,41)           107.4634         estimate D2E/DX2                !
 ! A66   A(40,15,41)           107.855          estimate D2E/DX2                !
 ! A67   A(7,17,18)            102.5548         estimate D2E/DX2                !
 ! A68   A(7,17,20)            102.0428         estimate D2E/DX2                !
 ! A69   A(7,17,30)            113.4554         estimate D2E/DX2                !
 ! A70   A(18,17,20)           114.7036         estimate D2E/DX2                !
 ! A71   A(18,17,30)           112.384          estimate D2E/DX2                !
 ! A72   A(20,17,30)           111.029          estimate D2E/DX2                !
 ! A73   A(17,18,19)           105.2908         estimate D2E/DX2                !
 ! A74   A(17,18,28)           112.9953         estimate D2E/DX2                !
 ! A75   A(17,18,29)           113.5138         estimate D2E/DX2                !
 ! A76   A(19,18,28)           108.3215         estimate D2E/DX2                !
 ! A77   A(19,18,29)           108.3635         estimate D2E/DX2                !
 ! A78   A(28,18,29)           108.1312         estimate D2E/DX2                !
 ! A79   A(8,19,18)            106.452          estimate D2E/DX2                !
 ! A80   A(3,20,17)            106.0681         estimate D2E/DX2                !
 ! A81   A(3,20,42)            109.9372         estimate D2E/DX2                !
 ! A82   A(3,20,43)            111.5693         estimate D2E/DX2                !
 ! A83   A(17,20,42)           111.4792         estimate D2E/DX2                !
 ! A84   A(17,20,43)           110.8551         estimate D2E/DX2                !
 ! A85   A(42,20,43)           106.9935         estimate D2E/DX2                !
 ! A86   A(7,21,44)            104.9795         estimate D2E/DX2                !
 ! A87   A(5,22,23)            102.1969         estimate D2E/DX2                !
 ! A88   A(5,22,45)            113.6292         estimate D2E/DX2                !
 ! A89   A(5,22,46)            110.2751         estimate D2E/DX2                !
 ! A90   A(23,22,45)           112.2126         estimate D2E/DX2                !
 ! A91   A(23,22,46)           111.5127         estimate D2E/DX2                !
 ! A92   A(45,22,46)           107.0721         estimate D2E/DX2                !
 ! A93   A(22,23,24)           105.1436         estimate D2E/DX2                !
 ! A94   A(22,23,25)           115.2366         estimate D2E/DX2                !
 ! A95   A(22,23,47)           109.736          estimate D2E/DX2                !
 ! A96   A(24,23,25)           111.3999         estimate D2E/DX2                !
 ! A97   A(24,23,47)           105.9084         estimate D2E/DX2                !
 ! A98   A(25,23,47)           108.9805         estimate D2E/DX2                !
 ! A99   A(4,24,23)            108.486          estimate D2E/DX2                !
 ! A100  A(23,25,26)           118.9987         estimate D2E/DX2                !
 ! A101  A(23,25,27)           120.8039         estimate D2E/DX2                !
 ! A102  A(26,25,27)           120.1973         estimate D2E/DX2                !
 ! A103  A(25,26,48)           110.4048         estimate D2E/DX2                !
 ! A104  A(25,26,49)           111.1362         estimate D2E/DX2                !
 ! A105  A(25,26,50)           111.9279         estimate D2E/DX2                !
 ! A106  A(48,26,49)           109.0404         estimate D2E/DX2                !
 ! A107  A(48,26,50)           107.1525         estimate D2E/DX2                !
 ! A108  A(49,26,50)           107.0194         estimate D2E/DX2                !
 ! A109  A(25,27,51)           121.7892         estimate D2E/DX2                !
 ! A110  A(25,27,52)           121.5769         estimate D2E/DX2                !
 ! A111  A(51,27,52)           116.6337         estimate D2E/DX2                !
 ! A112  A(18,28,53)           110.5232         estimate D2E/DX2                !
 ! A113  A(18,28,54)           111.2612         estimate D2E/DX2                !
 ! A114  A(18,28,55)           112.6402         estimate D2E/DX2                !
 ! A115  A(53,28,54)           108.2584         estimate D2E/DX2                !
 ! A116  A(53,28,55)           105.2714         estimate D2E/DX2                !
 ! A117  A(54,28,55)           108.6264         estimate D2E/DX2                !
 ! A118  A(18,29,56)           110.6716         estimate D2E/DX2                !
 ! A119  A(18,29,57)           111.345          estimate D2E/DX2                !
 ! A120  A(18,29,58)           112.1744         estimate D2E/DX2                !
 ! A121  A(56,29,57)           108.2928         estimate D2E/DX2                !
 ! A122  A(56,29,58)           105.2233         estimate D2E/DX2                !
 ! A123  A(57,29,58)           108.8838         estimate D2E/DX2                !
 ! A124  A(2,32,59)            112.0575         estimate D2E/DX2                !
 ! A125  A(2,32,60)            110.9172         estimate D2E/DX2                !
 ! A126  A(2,32,61)            110.2294         estimate D2E/DX2                !
 ! A127  A(59,32,60)           107.4218         estimate D2E/DX2                !
 ! A128  A(59,32,61)           107.3809         estimate D2E/DX2                !
 ! A129  A(60,32,61)           108.6891         estimate D2E/DX2                !
 ! A130  A(14,62,63)           110.0843         estimate D2E/DX2                !
 ! A131  A(14,62,64)           110.9546         estimate D2E/DX2                !
 ! A132  A(14,62,65)           111.5328         estimate D2E/DX2                !
 ! A133  A(63,62,64)           107.9607         estimate D2E/DX2                !
 ! A134  A(63,62,65)           107.8162         estimate D2E/DX2                !
 ! A135  A(64,62,65)           108.3654         estimate D2E/DX2                !
 ! D1    D(6,1,2,3)             -1.7739         estimate D2E/DX2                !
 ! D2    D(6,1,2,32)           173.8857         estimate D2E/DX2                !
 ! D3    D(33,1,2,3)          -176.947          estimate D2E/DX2                !
 ! D4    D(33,1,2,32)           -1.2875         estimate D2E/DX2                !
 ! D5    D(2,1,6,5)             27.6528         estimate D2E/DX2                !
 ! D6    D(2,1,6,34)           151.1154         estimate D2E/DX2                !
 ! D7    D(2,1,6,35)           -96.7412         estimate D2E/DX2                !
 ! D8    D(33,1,6,5)          -157.0044         estimate D2E/DX2                !
 ! D9    D(33,1,6,34)          -33.5418         estimate D2E/DX2                !
 ! D10   D(33,1,6,35)           78.6016         estimate D2E/DX2                !
 ! D11   D(1,2,3,4)            -12.3407         estimate D2E/DX2                !
 ! D12   D(1,2,3,20)          -134.4482         estimate D2E/DX2                !
 ! D13   D(1,2,3,31)           108.6504         estimate D2E/DX2                !
 ! D14   D(32,2,3,4)           171.8684         estimate D2E/DX2                !
 ! D15   D(32,2,3,20)           49.761          estimate D2E/DX2                !
 ! D16   D(32,2,3,31)          -67.1405         estimate D2E/DX2                !
 ! D17   D(1,2,32,59)           -5.3214         estimate D2E/DX2                !
 ! D18   D(1,2,32,60)          114.7256         estimate D2E/DX2                !
 ! D19   D(1,2,32,61)         -124.8476         estimate D2E/DX2                !
 ! D20   D(3,2,32,59)          170.5279         estimate D2E/DX2                !
 ! D21   D(3,2,32,60)          -69.4251         estimate D2E/DX2                !
 ! D22   D(3,2,32,61)           51.0018         estimate D2E/DX2                !
 ! D23   D(2,3,4,5)             -0.2799         estimate D2E/DX2                !
 ! D24   D(2,3,4,7)           -126.8241         estimate D2E/DX2                !
 ! D25   D(2,3,4,24)           120.5655         estimate D2E/DX2                !
 ! D26   D(20,3,4,5)           125.0754         estimate D2E/DX2                !
 ! D27   D(20,3,4,7)            -1.4688         estimate D2E/DX2                !
 ! D28   D(20,3,4,24)         -114.0792         estimate D2E/DX2                !
 ! D29   D(31,3,4,5)          -120.3264         estimate D2E/DX2                !
 ! D30   D(31,3,4,7)           113.1294         estimate D2E/DX2                !
 ! D31   D(31,3,4,24)            0.519          estimate D2E/DX2                !
 ! D32   D(2,3,20,17)          151.3756         estimate D2E/DX2                !
 ! D33   D(2,3,20,42)           30.7238         estimate D2E/DX2                !
 ! D34   D(2,3,20,43)          -87.8113         estimate D2E/DX2                !
 ! D35   D(4,3,20,17)           23.3715         estimate D2E/DX2                !
 ! D36   D(4,3,20,42)          -97.2804         estimate D2E/DX2                !
 ! D37   D(4,3,20,43)          144.1845         estimate D2E/DX2                !
 ! D38   D(31,3,20,17)         -92.0582         estimate D2E/DX2                !
 ! D39   D(31,3,20,42)         147.2899         estimate D2E/DX2                !
 ! D40   D(31,3,20,43)          28.7548         estimate D2E/DX2                !
 ! D41   D(3,4,5,6)             24.4212         estimate D2E/DX2                !
 ! D42   D(3,4,5,10)          -101.0475         estimate D2E/DX2                !
 ! D43   D(3,4,5,22)           142.1004         estimate D2E/DX2                !
 ! D44   D(7,4,5,6)            147.0544         estimate D2E/DX2                !
 ! D45   D(7,4,5,10)            21.5858         estimate D2E/DX2                !
 ! D46   D(7,4,5,22)           -95.2663         estimate D2E/DX2                !
 ! D47   D(24,4,5,6)           -96.7182         estimate D2E/DX2                !
 ! D48   D(24,4,5,10)          137.8131         estimate D2E/DX2                !
 ! D49   D(24,4,5,22)           20.961          estimate D2E/DX2                !
 ! D50   D(3,4,7,8)             89.21           estimate D2E/DX2                !
 ! D51   D(3,4,7,17)           -21.4294         estimate D2E/DX2                !
 ! D52   D(3,4,7,21)          -145.1884         estimate D2E/DX2                !
 ! D53   D(5,4,7,8)            -40.8063         estimate D2E/DX2                !
 ! D54   D(5,4,7,17)          -151.4456         estimate D2E/DX2                !
 ! D55   D(5,4,7,21)            84.7953         estimate D2E/DX2                !
 ! D56   D(24,4,7,8)          -157.3704         estimate D2E/DX2                !
 ! D57   D(24,4,7,17)           91.9903         estimate D2E/DX2                !
 ! D58   D(24,4,7,21)          -31.7688         estimate D2E/DX2                !
 ! D59   D(3,4,24,23)         -124.9984         estimate D2E/DX2                !
 ! D60   D(5,4,24,23)            2.937          estimate D2E/DX2                !
 ! D61   D(7,4,24,23)          123.4023         estimate D2E/DX2                !
 ! D62   D(4,5,6,1)            -37.2666         estimate D2E/DX2                !
 ! D63   D(4,5,6,34)          -159.1691         estimate D2E/DX2                !
 ! D64   D(4,5,6,35)            84.5306         estimate D2E/DX2                !
 ! D65   D(10,5,6,1)            92.5287         estimate D2E/DX2                !
 ! D66   D(10,5,6,34)          -29.3739         estimate D2E/DX2                !
 ! D67   D(10,5,6,35)         -145.6742         estimate D2E/DX2                !
 ! D68   D(22,5,6,1)          -150.5968         estimate D2E/DX2                !
 ! D69   D(22,5,6,34)           87.5007         estimate D2E/DX2                !
 ! D70   D(22,5,6,35)          -28.7996         estimate D2E/DX2                !
 ! D71   D(4,5,10,9)             8.66           estimate D2E/DX2                !
 ! D72   D(4,5,10,16)         -173.2845         estimate D2E/DX2                !
 ! D73   D(6,5,10,9)          -120.0898         estimate D2E/DX2                !
 ! D74   D(6,5,10,16)           57.9656         estimate D2E/DX2                !
 ! D75   D(22,5,10,9)          122.1104         estimate D2E/DX2                !
 ! D76   D(22,5,10,16)         -59.8341         estimate D2E/DX2                !
 ! D77   D(4,5,22,23)          -35.6491         estimate D2E/DX2                !
 ! D78   D(4,5,22,45)         -156.7626         estimate D2E/DX2                !
 ! D79   D(4,5,22,46)           83.0237         estimate D2E/DX2                !
 ! D80   D(6,5,22,23)           85.3296         estimate D2E/DX2                !
 ! D81   D(6,5,22,45)          -35.784          estimate D2E/DX2                !
 ! D82   D(6,5,22,46)         -155.9977         estimate D2E/DX2                !
 ! D83   D(10,5,22,23)        -158.0953         estimate D2E/DX2                !
 ! D84   D(10,5,22,45)          80.7912         estimate D2E/DX2                !
 ! D85   D(10,5,22,46)         -39.4225         estimate D2E/DX2                !
 ! D86   D(4,7,8,9)             31.3906         estimate D2E/DX2                !
 ! D87   D(4,7,8,19)          -139.9053         estimate D2E/DX2                !
 ! D88   D(17,7,8,9)           146.4468         estimate D2E/DX2                !
 ! D89   D(17,7,8,19)          -24.8491         estimate D2E/DX2                !
 ! D90   D(21,7,8,9)           -95.3935         estimate D2E/DX2                !
 ! D91   D(21,7,8,19)           93.3106         estimate D2E/DX2                !
 ! D92   D(4,7,17,18)          154.5305         estimate D2E/DX2                !
 ! D93   D(4,7,17,20)           35.4978         estimate D2E/DX2                !
 ! D94   D(4,7,17,30)          -84.0092         estimate D2E/DX2                !
 ! D95   D(8,7,17,18)           33.6722         estimate D2E/DX2                !
 ! D96   D(8,7,17,20)          -85.3604         estimate D2E/DX2                !
 ! D97   D(8,7,17,30)          155.1326         estimate D2E/DX2                !
 ! D98   D(21,7,17,18)         -82.1799         estimate D2E/DX2                !
 ! D99   D(21,7,17,20)         158.7875         estimate D2E/DX2                !
 ! D100  D(21,7,17,30)          39.2805         estimate D2E/DX2                !
 ! D101  D(4,7,21,44)           44.7849         estimate D2E/DX2                !
 ! D102  D(8,7,21,44)          173.6814         estimate D2E/DX2                !
 ! D103  D(17,7,21,44)         -76.2109         estimate D2E/DX2                !
 ! D104  D(7,8,9,10)             0.6765         estimate D2E/DX2                !
 ! D105  D(7,8,9,11)          -177.713          estimate D2E/DX2                !
 ! D106  D(19,8,9,10)          171.0725         estimate D2E/DX2                !
 ! D107  D(19,8,9,11)           -7.317          estimate D2E/DX2                !
 ! D108  D(7,8,19,18)            4.0824         estimate D2E/DX2                !
 ! D109  D(9,8,19,18)         -167.2106         estimate D2E/DX2                !
 ! D110  D(8,9,10,5)           -21.3892         estimate D2E/DX2                !
 ! D111  D(8,9,10,16)          160.5247         estimate D2E/DX2                !
 ! D112  D(11,9,10,5)          156.9811         estimate D2E/DX2                !
 ! D113  D(11,9,10,16)         -21.105          estimate D2E/DX2                !
 ! D114  D(8,9,11,12)          -52.6506         estimate D2E/DX2                !
 ! D115  D(8,9,11,13)          124.3374         estimate D2E/DX2                !
 ! D116  D(10,9,11,12)         129.0113         estimate D2E/DX2                !
 ! D117  D(10,9,11,13)         -54.0006         estimate D2E/DX2                !
 ! D118  D(9,11,13,14)         146.2323         estimate D2E/DX2                !
 ! D119  D(9,11,13,15)         -91.9201         estimate D2E/DX2                !
 ! D120  D(9,11,13,36)          25.7987         estimate D2E/DX2                !
 ! D121  D(12,11,13,14)        -36.8207         estimate D2E/DX2                !
 ! D122  D(12,11,13,15)         85.0268         estimate D2E/DX2                !
 ! D123  D(12,11,13,36)       -157.2543         estimate D2E/DX2                !
 ! D124  D(11,13,14,37)        172.0182         estimate D2E/DX2                !
 ! D125  D(11,13,14,38)         54.6384         estimate D2E/DX2                !
 ! D126  D(11,13,14,62)        -67.6475         estimate D2E/DX2                !
 ! D127  D(15,13,14,37)         51.7032         estimate D2E/DX2                !
 ! D128  D(15,13,14,38)        -65.6765         estimate D2E/DX2                !
 ! D129  D(15,13,14,62)        172.0375         estimate D2E/DX2                !
 ! D130  D(36,13,14,37)        -66.7785         estimate D2E/DX2                !
 ! D131  D(36,13,14,38)        175.8418         estimate D2E/DX2                !
 ! D132  D(36,13,14,62)         53.5558         estimate D2E/DX2                !
 ! D133  D(11,13,15,39)        -61.044          estimate D2E/DX2                !
 ! D134  D(11,13,15,40)        178.4379         estimate D2E/DX2                !
 ! D135  D(11,13,15,41)         58.5889         estimate D2E/DX2                !
 ! D136  D(14,13,15,39)         61.4462         estimate D2E/DX2                !
 ! D137  D(14,13,15,40)        -59.0718         estimate D2E/DX2                !
 ! D138  D(14,13,15,41)       -178.9208         estimate D2E/DX2                !
 ! D139  D(36,13,15,39)       -179.8462         estimate D2E/DX2                !
 ! D140  D(36,13,15,40)         59.6358         estimate D2E/DX2                !
 ! D141  D(36,13,15,41)        -60.2132         estimate D2E/DX2                !
 ! D142  D(13,14,62,63)       -177.8091         estimate D2E/DX2                !
 ! D143  D(13,14,62,64)        -58.3629         estimate D2E/DX2                !
 ! D144  D(13,14,62,65)         62.5548         estimate D2E/DX2                !
 ! D145  D(37,14,62,63)        -56.8117         estimate D2E/DX2                !
 ! D146  D(37,14,62,64)         62.6345         estimate D2E/DX2                !
 ! D147  D(37,14,62,65)       -176.4477         estimate D2E/DX2                !
 ! D148  D(38,14,62,63)         58.9767         estimate D2E/DX2                !
 ! D149  D(38,14,62,64)        178.4229         estimate D2E/DX2                !
 ! D150  D(38,14,62,65)        -60.6594         estimate D2E/DX2                !
 ! D151  D(7,17,18,19)         -33.5291         estimate D2E/DX2                !
 ! D152  D(7,17,18,28)          84.5078         estimate D2E/DX2                !
 ! D153  D(7,17,18,29)        -151.8974         estimate D2E/DX2                !
 ! D154  D(20,17,18,19)         76.2098         estimate D2E/DX2                !
 ! D155  D(20,17,18,28)       -165.7533         estimate D2E/DX2                !
 ! D156  D(20,17,18,29)        -42.1584         estimate D2E/DX2                !
 ! D157  D(30,17,18,19)       -155.7194         estimate D2E/DX2                !
 ! D158  D(30,17,18,28)        -37.6825         estimate D2E/DX2                !
 ! D159  D(30,17,18,29)         85.9124         estimate D2E/DX2                !
 ! D160  D(7,17,20,3)          -36.0115         estimate D2E/DX2                !
 ! D161  D(7,17,20,42)          83.6368         estimate D2E/DX2                !
 ! D162  D(7,17,20,43)        -157.2851         estimate D2E/DX2                !
 ! D163  D(18,17,20,3)        -146.0589         estimate D2E/DX2                !
 ! D164  D(18,17,20,42)        -26.4106         estimate D2E/DX2                !
 ! D165  D(18,17,20,43)         92.6676         estimate D2E/DX2                !
 ! D166  D(30,17,20,3)          85.19           estimate D2E/DX2                !
 ! D167  D(30,17,20,42)       -155.1617         estimate D2E/DX2                !
 ! D168  D(30,17,20,43)        -36.0836         estimate D2E/DX2                !
 ! D169  D(17,18,19,8)          18.5004         estimate D2E/DX2                !
 ! D170  D(28,18,19,8)        -102.6409         estimate D2E/DX2                !
 ! D171  D(29,18,19,8)         140.2736         estimate D2E/DX2                !
 ! D172  D(17,18,28,53)       -179.9567         estimate D2E/DX2                !
 ! D173  D(17,18,28,54)         59.7366         estimate D2E/DX2                !
 ! D174  D(17,18,28,55)        -62.5142         estimate D2E/DX2                !
 ! D175  D(19,18,28,53)        -63.7055         estimate D2E/DX2                !
 ! D176  D(19,18,28,54)        175.9878         estimate D2E/DX2                !
 ! D177  D(19,18,28,55)         53.737          estimate D2E/DX2                !
 ! D178  D(29,18,28,53)         53.5293         estimate D2E/DX2                !
 ! D179  D(29,18,28,54)        -66.7774         estimate D2E/DX2                !
 ! D180  D(29,18,28,55)        170.9718         estimate D2E/DX2                !
 ! D181  D(17,18,29,56)       -178.1195         estimate D2E/DX2                !
 ! D182  D(17,18,29,57)        -57.6139         estimate D2E/DX2                !
 ! D183  D(17,18,29,58)         64.6969         estimate D2E/DX2                !
 ! D184  D(19,18,29,56)         65.2996         estimate D2E/DX2                !
 ! D185  D(19,18,29,57)       -174.1948         estimate D2E/DX2                !
 ! D186  D(19,18,29,58)        -51.884          estimate D2E/DX2                !
 ! D187  D(28,18,29,56)        -51.9081         estimate D2E/DX2                !
 ! D188  D(28,18,29,57)         68.5975         estimate D2E/DX2                !
 ! D189  D(28,18,29,58)       -169.0917         estimate D2E/DX2                !
 ! D190  D(5,22,23,24)          38.9429         estimate D2E/DX2                !
 ! D191  D(5,22,23,25)         161.9983         estimate D2E/DX2                !
 ! D192  D(5,22,23,47)         -74.5588         estimate D2E/DX2                !
 ! D193  D(45,22,23,24)        161.0301         estimate D2E/DX2                !
 ! D194  D(45,22,23,25)        -75.9145         estimate D2E/DX2                !
 ! D195  D(45,22,23,47)         47.5284         estimate D2E/DX2                !
 ! D196  D(46,22,23,24)        -78.85           estimate D2E/DX2                !
 ! D197  D(46,22,23,25)         44.2053         estimate D2E/DX2                !
 ! D198  D(46,22,23,47)        167.6482         estimate D2E/DX2                !
 ! D199  D(22,23,24,4)         -26.229          estimate D2E/DX2                !
 ! D200  D(25,23,24,4)        -151.712          estimate D2E/DX2                !
 ! D201  D(47,23,24,4)          89.9326         estimate D2E/DX2                !
 ! D202  D(22,23,25,26)        -70.0441         estimate D2E/DX2                !
 ! D203  D(22,23,25,27)        110.0006         estimate D2E/DX2                !
 ! D204  D(24,23,25,26)         49.6194         estimate D2E/DX2                !
 ! D205  D(24,23,25,27)       -130.3359         estimate D2E/DX2                !
 ! D206  D(47,23,25,26)        166.1141         estimate D2E/DX2                !
 ! D207  D(47,23,25,27)        -13.8412         estimate D2E/DX2                !
 ! D208  D(23,25,26,48)        -67.6401         estimate D2E/DX2                !
 ! D209  D(23,25,26,49)         53.4905         estimate D2E/DX2                !
 ! D210  D(23,25,26,50)        173.0884         estimate D2E/DX2                !
 ! D211  D(27,25,26,48)        112.3155         estimate D2E/DX2                !
 ! D212  D(27,25,26,49)       -126.5539         estimate D2E/DX2                !
 ! D213  D(27,25,26,50)         -6.9561         estimate D2E/DX2                !
 ! D214  D(23,25,27,51)          0.0005         estimate D2E/DX2                !
 ! D215  D(23,25,27,52)        179.866          estimate D2E/DX2                !
 ! D216  D(26,25,27,51)       -179.9543         estimate D2E/DX2                !
 ! D217  D(26,25,27,52)         -0.0887         estimate D2E/DX2                !
 --------------------------------------------------------------------------------
 Trust Radius=3.00D-01 FncErr=1.00D-07 GrdErr=1.00D-06
 Number of steps in this run=    390 maximum allowed number of steps=    390.
 GradGradGradGradGradGradGradGradGradGradGradGradGradGradGradGradGradGrad

 Stoichiometry    C26H34O5
 Framework group  C1[X(C26H34O5)]
 Deg. of freedom   189
 Full point group                 C1      NOp   1
 Largest Abelian subgroup         C1      NOp   1
 Largest concise Abelian subgroup C1      NOp   1
                         Standard orientation:                         
 ---------------------------------------------------------------------
 Center     Atomic      Atomic             Coordinates (Angstroms)
 Number     Number       Type             X           Y           Z
 ---------------------------------------------------------------------
      1          6           0       -0.298479   -1.361478    2.813661
      2          6           0       -0.470263   -0.039681    2.953228
      3          6           0       -1.139060    0.795121    1.886726
      4          6           0       -1.351700    0.113542    0.502652
      5          6           0       -0.866780   -1.340197    0.317643
      6          6           0       -0.771905   -2.143838    1.634793
      7          6           0       -0.719695    1.084589   -0.513337
      8          6           0        0.727853    0.866335   -0.790837
      9          6           0        1.309489   -0.337338   -0.748609
     10          6           0        0.468476   -1.511767   -0.424013
     11          6           0        2.771707   -0.472873   -0.987731
     12          8           0        3.293514    0.005303   -1.994324
     13          6           0        3.590935   -1.164644    0.101950
     14          6           0        4.757212   -1.969645   -0.490156
     15          6           0        4.108844   -0.089610    1.057530
     16          8           0        0.874533   -2.636256   -0.727502
     17          6           0       -0.660311    2.450092    0.135407
     18          6           0        0.508451    3.125412   -0.611066
     19          8           0        1.441834    2.056805   -0.906134
     20          6           0       -0.367176    2.096409    1.599794
     21          8           0       -1.433970    1.098643   -1.735885
     22          6           0       -1.974157   -1.934298   -0.560970
     23          6           0       -3.213465   -1.231886   -0.033972
     24          8           0       -2.796722    0.116906    0.229582
     25          6           0       -4.411834   -1.268771   -0.949351
     26          6           0       -4.382251   -0.468622   -2.220433
     27          6           0       -5.494179   -2.004139   -0.637861
     28          6           0        0.079638    3.772614   -1.937941
     29          6           0        1.236149    4.185527    0.223556
     30          1           0       -1.594693    3.016108    0.046959
     31          1           0       -2.122870    1.083377    2.285227
     32          6           0       -0.084205    0.652313    4.235097
     33          1           0        0.142946   -1.939447    3.624244
     34          1           0       -0.098026   -3.001735    1.513732
     35          1           0       -1.738252   -2.582107    1.912173
     36          1           0        2.950685   -1.847380    0.671340
     37          1           0        5.400125   -2.330389    0.322197
     38          1           0        5.381719   -1.333888   -1.129490
     39          1           0        4.756087    0.626322    0.538618
     40          1           0        4.681743   -0.537652    1.875882
     41          1           0        3.279944    0.475650    1.497853
     42          1           0        0.705361    1.939993    1.768260
     43          1           0       -0.681438    2.906836    2.267366
     44          1           0       -2.375173    1.140818   -1.477933
     45          1           0       -2.054085   -3.024877   -0.489356
     46          1           0       -1.793014   -1.693231   -1.615702
     47          1           0       -3.494094   -1.655455    0.938595
     48          1           0       -4.389037    0.602268   -1.997226
     49          1           0       -3.494298   -0.703742   -2.813805
     50          1           0       -5.253730   -0.672484   -2.852687
     51          1           0       -5.543579   -2.591405    0.274090
     52          1           0       -6.364564   -2.038114   -1.286577
     53          1           0        0.939486    4.238776   -2.433888
     54          1           0       -0.681909    4.542340   -1.776337
     55          1           0       -0.306791    3.044434   -2.655743
     56          1           0        2.034368    4.657839   -0.361357
     57          1           0        0.548766    4.967697    0.561206
     58          1           0        1.736282    3.752992    1.095479
     59          1           0        0.238125   -0.057367    5.004739
     60          1           0        0.740446    1.351678    4.068399
     61          1           0       -0.938158    1.206484    4.638218
     62          6           0        4.286089   -3.173515   -1.295314
     63          1           0        5.147449   -3.738866   -1.665066
     64          1           0        3.681407   -3.845160   -0.677728
     65          1           0        3.688961   -2.869405   -2.160250
 ---------------------------------------------------------------------
 Rotational constants (GHZ):      0.1981919      0.1327735      0.1167111
 Standard basis: 6-31G(d) (6D, 7F)
 There are   533 symmetry adapted basis functions of A   symmetry.
 Integral buffers will be    131072 words long.
 Raffenetti 2 integral format.
 Two-electron integral symmetry is turned on.
   533 basis functions,  1004 primitive gaussians,   533 cartesian basis functions
   115 alpha electrons      115 beta electrons
       nuclear repulsion energy      3534.1043764445 Hartrees.
 NAtoms=   65 NActive=   65 NUniq=   65 SFac= 1.00D+00 NAtFMM=   50 NAOKFM=T Big=T
 One-electron integrals computed using PRISM.
 NBasis=   533 RedAO= T  NBF=   533
 NBsUse=   533 1.00D-06 NBFU=   533
 Harris functional with IExCor=  402 diagonalized for initial guess.
 ExpMin= 1.61D-01 ExpMax= 5.48D+03 ExpMxC= 8.25D+02 IAcc=1 IRadAn=         1 AccDes= 0.00D+00
 HarFok:  IExCor=  402 AccDes= 0.00D+00 IRadAn=         1 IDoV= 1
 ScaDFX=  1.000000  1.000000  1.000000  1.000000
 FoFCou: FMM=F IPFlag=           0 FMFlag=      100000 FMFlg1=        2001
         NFxFlg=           0 DoJE=T BraDBF=F KetDBF=T FulRan=T
         Omega=  0.000000  0.000000  1.000000  0.000000  0.000000 ICntrl=     500 IOpCl=  0
         NMat0=    1 NMatS0=    1 NMatT0=    0 NMatD0=    1 NMtDS0=    0 NMtDT0=    0
         I1Cent=           4 NGrid=           0.
 Petite list used in FoFCou.
 Initial guess orbital symmetries:
       Occupied  (A) (A) (A) (A) (A) (A) (A) (A) (A) (A) (A) (A)
                 (A) (A) (A) (A) (A) (A) (A) (A) (A) (A) (A) (A)
                 (A) (A) (A) (A) (A) (A) (A) (A) (A) (A) (A) (A)
                 (A) (A) (A) (A) (A) (A) (A) (A) (A) (A) (A) (A)
                 (A) (A) (A) (A) (A) (A) (A) (A) (A) (A) (A) (A)
                 (A) (A) (A) (A) (A) (A) (A) (A) (A) (A) (A) (A)
                 (A) (A) (A) (A) (A) (A) (A) (A) (A) (A) (A) (A)
                 (A) (A) (A) (A) (A) (A) (A) (A) (A) (A) (A) (A)
                 (A) (A) (A) (A) (A) (A) (A) (A) (A) (A) (A) (A)
                 (A) (A) (A) (A) (A) (A) (A)
       Virtual   (A) (A) (A) (A) (A) (A) (A) (A) (A) (A) (A) (A)
                 (A) (A) (A) (A) (A) (A) (A) (A) (A) (A) (A) (A)
                 (A) (A) (A) (A) (A) (A) (A) (A) (A) (A) (A) (A)
                 (A) (A) (A) (A) (A) (A) (A) (A) (A) (A) (A) (A)
                 (A) (A) (A) (A) (A) (A) (A) (A) (A) (A) (A) (A)
                 (A) (A) (A) (A) (A) (A) (A) (A) (A) (A) (A) (A)
                 (A) (A) (A) (A) (A) (A) (A) (A) (A) (A) (A) (A)
                 (A) (A) (A) (A) (A) (A) (A) (A) (A) (A) (A) (A)
                 (A) (A) (A) (A) (A) (A) (A) (A) (A) (A) (A) (A)
                 (A) (A) (A) (A) (A) (A) (A) (A) (A) (A) (A) (A)
                 (A) (A) (A) (A) (A) (A) (A) (A) (A) (A) (A) (A)
                 (A) (A) (A) (A) (A) (A) (A) (A) (A) (A) (A) (A)
                 (A) (A) (A) (A) (A) (A) (A) (A) (A) (A) (A) (A)
                 (A) (A) (A) (A) (A) (A) (A) (A) (A) (A) (A) (A)
                 (A) (A) (A) (A) (A) (A) (A) (A) (A) (A) (A) (A)
                 (A) (A) (A) (A) (A) (A) (A) (A) (A) (A) (A) (A)
                 (A) (A) (A) (A) (A) (A) (A) (A) (A) (A) (A) (A)
                 (A) (A) (A) (A) (A) (A) (A) (A) (A) (A) (A) (A)
                 (A) (A) (A) (A) (A) (A) (A) (A) (A) (A) (A) (A)
                 (A) (A) (A) (A) (A) (A) (A) (A) (A) (A) (A) (A)
                 (A) (A) (A) (A) (A) (A) (A) (A) (A) (A) (A) (A)
                 (A) (A) (A) (A) (A) (A) (A) (A) (A) (A) (A) (A)
                 (A) (A) (A) (A) (A) (A) (A) (A) (A) (A) (A) (A)
                 (A) (A) (A) (A) (A) (A) (A) (A) (A) (A) (A) (A)
                 (A) (A) (A) (A) (A) (A) (A) (A) (A) (A) (A) (A)
                 (A) (A) (A) (A) (A) (A) (A) (A) (A) (A) (A) (A)
                 (A) (A) (A) (A) (A) (A) (A) (A) (A) (A) (A) (A)
                 (A) (A) (A) (A) (A) (A) (A) (A) (A) (A) (A) (A)
                 (A) (A) (A) (A) (A) (A) (A) (A) (A) (A) (A) (A)
                 (A) (A) (A) (A) (A) (A) (A) (A) (A) (A) (A) (A)
                 (A) (A) (A) (A) (A) (A) (A) (A) (A) (A) (A) (A)
                 (A) (A) (A) (A) (A) (A) (A) (A) (A) (A) (A) (A)
                 (A) (A) (A) (A) (A) (A) (A) (A) (A) (A) (A) (A)
                 (A) (A) (A) (A) (A) (A) (A) (A) (A) (A) (A) (A)
                 (A) (A) (A) (A) (A) (A) (A) (A) (A) (A)
 The electronic state of the initial guess is 1-A.
 Requested convergence on RMS density matrix=1.00D-08 within 128 cycles.
 Requested convergence on MAX density matrix=1.00D-06.
 Requested convergence on             energy=1.00D-06.
 No special actions if energy rises.
 Integral accuracy reduced to 1.0D-05 until final iterations.
 Initial convergence to 1.0D-05 achieved.  Increase integral accuracy.
 SCF Done:  E(RB3LYP) =  -1387.30365765     A.U. after   16 cycles
             Convg  =    0.4161D-08             -V/T =  2.0091

 **********************************************************************

            Population analysis using the SCF density.

 **********************************************************************

 Orbital symmetries:
       Occupied  (A) (A) (A) (A) (A) (A) (A) (A) (A) (A) (A) (A)
                 (A) (A) (A) (A) (A) (A) (A) (A) (A) (A) (A) (A)
                 (A) (A) (A) (A) (A) (A) (A) (A) (A) (A) (A) (A)
                 (A) (A) (A) (A) (A) (A) (A) (A) (A) (A) (A) (A)
                 (A) (A) (A) (A) (A) (A) (A) (A) (A) (A) (A) (A)
                 (A) (A) (A) (A) (A) (A) (A) (A) (A) (A) (A) (A)
                 (A) (A) (A) (A) (A) (A) (A) (A) (A) (A) (A) (A)
                 (A) (A) (A) (A) (A) (A) (A) (A) (A) (A) (A) (A)
                 (A) (A) (A) (A) (A) (A) (A) (A) (A) (A) (A) (A)
                 (A) (A) (A) (A) (A) (A) (A)
       Virtual   (A) (A) (A) (A) (A) (A) (A) (A) (A) (A) (A) (A)
                 (A) (A) (A) (A) (A) (A) (A) (A) (A) (A) (A) (A)
                 (A) (A) (A) (A) (A) (A) (A) (A) (A) (A) (A) (A)
                 (A) (A) (A) (A) (A) (A) (A) (A) (A) (A) (A) (A)
                 (A) (A) (A) (A) (A) (A) (A) (A) (A) (A) (A) (A)
                 (A) (A) (A) (A) (A) (A) (A) (A) (A) (A) (A) (A)
                 (A) (A) (A) (A) (A) (A) (A) (A) (A) (A) (A) (A)
                 (A) (A) (A) (A) (A) (A) (A) (A) (A) (A) (A) (A)
                 (A) (A) (A) (A) (A) (A) (A) (A) (A) (A) (A) (A)
                 (A) (A) (A) (A) (A) (A) (A) (A) (A) (A) (A) (A)
                 (A) (A) (A) (A) (A) (A) (A) (A) (A) (A) (A) (A)
                 (A) (A) (A) (A) (A) (A) (A) (A) (A) (A) (A) (A)
                 (A) (A) (A) (A) (A) (A) (A) (A) (A) (A) (A) (A)
                 (A) (A) (A) (A) (A) (A) (A) (A) (A) (A) (A) (A)
                 (A) (A) (A) (A) (A) (A) (A) (A) (A) (A) (A) (A)
                 (A) (A) (A) (A) (A) (A) (A) (A) (A) (A) (A) (A)
                 (A) (A) (A) (A) (A) (A) (A) (A) (A) (A) (A) (A)
                 (A) (A) (A) (A) (A) (A) (A) (A) (A) (A) (A) (A)
                 (A) (A) (A) (A) (A) (A) (A) (A) (A) (A) (A) (A)
                 (A) (A) (A) (A) (A) (A) (A) (A) (A) (A) (A) (A)
                 (A) (A) (A) (A) (A) (A) (A) (A) (A) (A) (A) (A)
                 (A) (A) (A) (A) (A) (A) (A) (A) (A) (A) (A) (A)
                 (A) (A) (A) (A) (A) (A) (A) (A) (A) (A) (A) (A)
                 (A) (A) (A) (A) (A) (A) (A) (A) (A) (A) (A) (A)
                 (A) (A) (A) (A) (A) (A) (A) (A) (A) (A) (A) (A)
                 (A) (A) (A) (A) (A) (A) (A) (A) (A) (A) (A) (A)
                 (A) (A) (A) (A) (A) (A) (A) (A) (A) (A) (A) (A)
                 (A) (A) (A) (A) (A) (A) (A) (A) (A) (A) (A) (A)
                 (A) (A) (A) (A) (A) (A) (A) (A) (A) (A) (A) (A)
                 (A) (A) (A) (A) (A) (A) (A) (A) (A) (A) (A) (A)
                 (A) (A) (A) (A) (A) (A) (A) (A) (A) (A) (A) (A)
                 (A) (A) (A) (A) (A) (A) (A) (A) (A) (A) (A) (A)
                 (A) (A) (A) (A) (A) (A) (A) (A) (A) (A) (A) (A)
                 (A) (A) (A) (A) (A) (A) (A) (A) (A) (A) (A) (A)
                 (A) (A) (A) (A) (A) (A) (A) (A) (A) (A)
 The electronic state is 1-A.
 Alpha  occ. eigenvalues --  -19.19602 -19.16804 -19.15583 -19.13672 -19.12875
 Alpha  occ. eigenvalues --  -10.28032 -10.27279 -10.26726 -10.26147 -10.26070
 Alpha  occ. eigenvalues --  -10.25755 -10.24863 -10.21861 -10.20553 -10.20546
 Alpha  occ. eigenvalues --  -10.20253 -10.19782 -10.19749 -10.19608 -10.19565
 Alpha  occ. eigenvalues --  -10.19512 -10.18931 -10.18865 -10.18707 -10.18596
 Alpha  occ. eigenvalues --  -10.18534 -10.18358 -10.17570 -10.17528 -10.16620
 Alpha  occ. eigenvalues --  -10.15158  -1.08480  -1.05992  -1.03418  -1.02607
 Alpha  occ. eigenvalues --   -1.02046  -0.87592  -0.84099  -0.82814  -0.81848
 Alpha  occ. eigenvalues --   -0.80557  -0.79862  -0.77067  -0.74553  -0.73889
 Alpha  occ. eigenvalues --   -0.72464  -0.71667  -0.69738  -0.69460  -0.68178
 Alpha  occ. eigenvalues --   -0.65578  -0.64184  -0.63306  -0.61814  -0.61057
 Alpha  occ. eigenvalues --   -0.59520  -0.59021  -0.57526  -0.54896  -0.54021
 Alpha  occ. eigenvalues --   -0.53173  -0.52092  -0.51174  -0.50626  -0.49403
 Alpha  occ. eigenvalues --   -0.48762  -0.47977  -0.46919  -0.46350  -0.45754
 Alpha  occ. eigenvalues --   -0.45258  -0.44594  -0.44134  -0.43955  -0.43416
 Alpha  occ. eigenvalues --   -0.43172  -0.42385  -0.42053  -0.41854  -0.41536
 Alpha  occ. eigenvalues --   -0.41156  -0.40950  -0.40581  -0.40190  -0.39891
 Alpha  occ. eigenvalues --   -0.39407  -0.39016  -0.38545  -0.38289  -0.38219
 Alpha  occ. eigenvalues --   -0.37655  -0.37589  -0.37106  -0.36955  -0.36613
 Alpha  occ. eigenvalues --   -0.36206  -0.35733  -0.34986  -0.34721  -0.34227
 Alpha  occ. eigenvalues --   -0.33933  -0.33562  -0.32891  -0.32661  -0.32125
 Alpha  occ. eigenvalues --   -0.31845  -0.31480  -0.30870  -0.28107  -0.27034
 Alpha  occ. eigenvalues --   -0.25852  -0.25320  -0.24586  -0.23808  -0.23150
 Alpha virt. eigenvalues --   -0.05664  -0.02288   0.00632   0.01739   0.04585
 Alpha virt. eigenvalues --    0.06431   0.07328   0.08177   0.08966   0.09823
 Alpha virt. eigenvalues --    0.10081   0.10750   0.11334   0.11764   0.12434
 Alpha virt. eigenvalues --    0.12670   0.13065   0.13393   0.14042   0.14214
 Alpha virt. eigenvalues --    0.14357   0.14457   0.14652   0.15395   0.16017
 Alpha virt. eigenvalues --    0.16353   0.16723   0.17076   0.17365   0.17593
 Alpha virt. eigenvalues --    0.18015   0.18268   0.18459   0.19074   0.19214
 Alpha virt. eigenvalues --    0.19433   0.19576   0.19802   0.20133   0.20468
 Alpha virt. eigenvalues --    0.20755   0.21227   0.21612   0.22177   0.22610
 Alpha virt. eigenvalues --    0.22746   0.23243   0.23755   0.24122   0.24418
 Alpha virt. eigenvalues --    0.24935   0.25546   0.25689   0.26345   0.26480
 Alpha virt. eigenvalues --    0.27443   0.27797   0.28264   0.28822   0.29562
 Alpha virt. eigenvalues --    0.31193   0.31677   0.32685   0.33265   0.34387
 Alpha virt. eigenvalues --    0.34512   0.36248   0.37257   0.38736   0.39101
 Alpha virt. eigenvalues --    0.42549   0.45048   0.46962   0.47499   0.48156
 Alpha virt. eigenvalues --    0.49497   0.50386   0.50864   0.51344   0.51549
 Alpha virt. eigenvalues --    0.52024   0.52337   0.52572   0.52924   0.53782
 Alpha virt. eigenvalues --    0.54574   0.54770   0.55211   0.55742   0.56560
 Alpha virt. eigenvalues --    0.56846   0.57174   0.57819   0.58331   0.59007
 Alpha virt. eigenvalues --    0.59435   0.59776   0.60673   0.61388   0.62031
 Alpha virt. eigenvalues --    0.62453   0.62992   0.63486   0.64493   0.64763
 Alpha virt. eigenvalues --    0.65412   0.65935   0.66443   0.66729   0.67240
 Alpha virt. eigenvalues --    0.67847   0.67932   0.68096   0.68441   0.69152
 Alpha virt. eigenvalues --    0.69473   0.70836   0.71336   0.73052   0.73491
 Alpha virt. eigenvalues --    0.73894   0.75000   0.75443   0.75726   0.75991
 Alpha virt. eigenvalues --    0.76916   0.77755   0.78594   0.79301   0.79462
 Alpha virt. eigenvalues --    0.80482   0.80687   0.81025   0.81792   0.82499
 Alpha virt. eigenvalues --    0.82775   0.83191   0.83823   0.84288   0.84973
 Alpha virt. eigenvalues --    0.85301   0.85544   0.86097   0.86308   0.87063
 Alpha virt. eigenvalues --    0.87188   0.87740   0.88274   0.88868   0.89027
 Alpha virt. eigenvalues --    0.89294   0.89959   0.90124   0.90661   0.90790
 Alpha virt. eigenvalues --    0.90995   0.91519   0.91674   0.91996   0.92713
 Alpha virt. eigenvalues --    0.92779   0.93060   0.93980   0.94479   0.94910
 Alpha virt. eigenvalues --    0.95506   0.95960   0.96187   0.96791   0.97052
 Alpha virt. eigenvalues --    0.98126   0.98688   0.99059   0.99346   0.99645
 Alpha virt. eigenvalues --    1.00914   1.01663   1.02873   1.03278   1.04276
 Alpha virt. eigenvalues --    1.05107   1.06435   1.07457   1.07683   1.08719
 Alpha virt. eigenvalues --    1.09223   1.10504   1.11489   1.11766   1.13191
 Alpha virt. eigenvalues --    1.13435   1.13913   1.16013   1.16831   1.17006
 Alpha virt. eigenvalues --    1.17725   1.18657   1.18814   1.19221   1.21116
 Alpha virt. eigenvalues --    1.22374   1.23387   1.24002   1.24837   1.25369
 Alpha virt. eigenvalues --    1.27713   1.28967   1.30468   1.30768   1.32870
 Alpha virt. eigenvalues --    1.33902   1.35139   1.38159   1.39833   1.41066
 Alpha virt. eigenvalues --    1.41466   1.42432   1.43081   1.44974   1.46326
 Alpha virt. eigenvalues --    1.47538   1.49359   1.50081   1.50631   1.51608
 Alpha virt. eigenvalues --    1.53097   1.54029   1.55099   1.56158   1.57461
 Alpha virt. eigenvalues --    1.58585   1.60459   1.61037   1.62066   1.63281
 Alpha virt. eigenvalues --    1.64456   1.65709   1.66771   1.67960   1.69301
 Alpha virt. eigenvalues --    1.70337   1.71191   1.72788   1.73088   1.74079
 Alpha virt. eigenvalues --    1.74956   1.75619   1.76806   1.77486   1.78465
 Alpha virt. eigenvalues --    1.78785   1.79356   1.80761   1.81502   1.81820
 Alpha virt. eigenvalues --    1.82244   1.83041   1.83708   1.84722   1.84925
 Alpha virt. eigenvalues --    1.85779   1.87066   1.87337   1.88015   1.88811
 Alpha virt. eigenvalues --    1.89002   1.89758   1.90296   1.90990   1.92109
 Alpha virt. eigenvalues --    1.92199   1.92878   1.93101   1.93511   1.94194
 Alpha virt. eigenvalues --    1.95470   1.96582   1.97137   1.97651   1.97995
 Alpha virt. eigenvalues --    1.98912   1.99701   2.00064   2.00755   2.01933
 Alpha virt. eigenvalues --    2.02455   2.03527   2.03842   2.05334   2.05797
 Alpha virt. eigenvalues --    2.06657   2.06958   2.07944   2.08647   2.09514
 Alpha virt. eigenvalues --    2.10049   2.11498   2.12086   2.12520   2.13357
 Alpha virt. eigenvalues --    2.15244   2.15757   2.16672   2.19061   2.19618
 Alpha virt. eigenvalues --    2.20354   2.20716   2.21662   2.22198   2.23003
 Alpha virt. eigenvalues --    2.23169   2.23889   2.25076   2.26147   2.27186
 Alpha virt. eigenvalues --    2.28177   2.28443   2.29037   2.30982   2.31675
 Alpha virt. eigenvalues --    2.32772   2.33108   2.33845   2.34516   2.35311
 Alpha virt. eigenvalues --    2.36475   2.37163   2.37541   2.37893   2.39375
 Alpha virt. eigenvalues --    2.39546   2.40715   2.41260   2.42148   2.43116
 Alpha virt. eigenvalues --    2.43993   2.44701   2.45896   2.47748   2.48221
 Alpha virt. eigenvalues --    2.49477   2.50066   2.51710   2.52120   2.54183
 Alpha virt. eigenvalues --    2.56094   2.56744   2.57741   2.58775   2.59723
 Alpha virt. eigenvalues --    2.61318   2.62873   2.64381   2.64811   2.65949
 Alpha virt. eigenvalues --    2.66291   2.68189   2.69274   2.70388   2.72494
 Alpha virt. eigenvalues --    2.73427   2.73680   2.75529   2.77674   2.78875
 Alpha virt. eigenvalues --    2.79664   2.81450   2.82036   2.82817   2.85114
 Alpha virt. eigenvalues --    2.88336   2.89048   2.92436   2.94664   2.95735
 Alpha virt. eigenvalues --    2.96184   2.98860   3.00608   3.01823   3.02657
 Alpha virt. eigenvalues --    3.04817   3.06094   3.12604   3.17426   3.19538
 Alpha virt. eigenvalues --    3.24038   3.29649   4.02348   4.09429   4.11609
 Alpha virt. eigenvalues --    4.13147   4.14855   4.16419   4.18291   4.19136
 Alpha virt. eigenvalues --    4.22080   4.23051   4.25175   4.27690   4.30923
 Alpha virt. eigenvalues --    4.32671   4.35645   4.37139   4.39115   4.44275
 Alpha virt. eigenvalues --    4.47436   4.49986   4.52571   4.57859   4.59926
 Alpha virt. eigenvalues --    4.62194   4.65604   4.67362   4.71083   4.79882
 Alpha virt. eigenvalues --    4.92162   4.98788   5.19422
          Condensed to atoms (all electrons):
 Mulliken atomic charges:
              1
     1  C   -0.196552
     2  C    0.187220
     3  C   -0.186638
     4  C    0.326600
     5  C   -0.043050
     6  C   -0.335961
     7  C    0.194291
     8  C    0.406899
     9  C   -0.083976
    10  C    0.414135
    11  C    0.429272
    12  O   -0.459594
    13  C   -0.149183
    14  C   -0.249063
    15  C   -0.455885
    16  O   -0.502259
    17  C   -0.158893
    18  C    0.309528
    19  O   -0.523001
    20  C   -0.321578
    21  O   -0.660820
    22  C   -0.312862
    23  C    0.088448
    24  O   -0.591382
    25  C    0.226410
    26  C   -0.532744
    27  C   -0.401115
    28  C   -0.461131
    29  C   -0.464516
    30  H    0.143137
    31  H    0.165707
    32  C   -0.516821
    33  H    0.122766
    34  H    0.177805
    35  H    0.154740
    36  H    0.140997
    37  H    0.121430
    38  H    0.152749
    39  H    0.162816
    40  H    0.148954
    41  H    0.139351
    42  H    0.163997
    43  H    0.149705
    44  H    0.422784
    45  H    0.169713
    46  H    0.172024
    47  H    0.132393
    48  H    0.158406
    49  H    0.175850
    50  H    0.158975
    51  H    0.138575
    52  H    0.142360
    53  H    0.154257
    54  H    0.137400
    55  H    0.187346
    56  H    0.162021
    57  H    0.149964
    58  H    0.154930
    59  H    0.158251
    60  H    0.157951
    61  H    0.151894
    62  C   -0.445891
    63  H    0.131224
    64  H    0.145856
    65  H    0.163785
 Sum of Mulliken atomic charges =   0.00000
 Mulliken charges with hydrogens summed into heavy atoms:
              1
     1  C   -0.073786
     2  C    0.187220
     3  C   -0.020931
     4  C    0.326600
     5  C   -0.043050
     6  C   -0.003416
     7  C    0.194291
     8  C    0.406899
     9  C   -0.083976
    10  C    0.414135
    11  C    0.429272
    12  O   -0.459594
    13  C   -0.008186
    14  C    0.025116
    15  C   -0.004764
    16  O   -0.502259
    17  C   -0.015757
    18  C    0.309528
    19  O   -0.523001
    20  C   -0.007876
    21  O   -0.238036
    22  C    0.028874
    23  C    0.220841
    24  O   -0.591382
    25  C    0.226410
    26  C   -0.039514
    27  C   -0.120180
    28  C    0.017872
    29  C    0.002400
    32  C   -0.048725
    62  C   -0.005026
 Sum of Mulliken charges with hydrogens summed into heavy atoms =   0.00000
 Electronic spatial extent (au):  <R**2>=          11262.4680
 Charge=              0.0000 electrons
 Dipole moment (field-independent basis, Debye):
    X=             -3.9952    Y=              2.3576    Z=              4.3809  Tot=              6.3807
 Quadrupole moment (field-independent basis, Debye-Ang):
   XX=           -185.6845   YY=           -178.8404   ZZ=           -186.9989
   XY=              2.4910   XZ=             12.3335   YZ=             -1.8470
 Traceless Quadrupole moment (field-independent basis, Debye-Ang):
   XX=             -1.8432   YY=              5.0009   ZZ=             -3.1576
   XY=              2.4910   XZ=             12.3335   YZ=             -1.8470
 Octapole moment (field-independent basis, Debye-Ang**2):
  XXX=            -38.6234  YYY=             64.8989  ZZZ=              8.4375  XYY=            -15.4376
  XXY=            -16.8090  XXZ=              2.5949  XZZ=            -25.1135  YZZ=             -1.1956
  YYZ=              9.9612  XYZ=             -1.8700
 Hexadecapole moment (field-independent basis, Debye-Ang**3):
 XXXX=          -7637.9053 YYYY=          -4356.6617 ZZZZ=          -2964.5358 XXXY=             41.8344
 XXXZ=            191.6261 YYYX=             32.7653 YYYZ=            -78.0656 ZZZX=             39.9334
 ZZZY=             -6.3482 XXYY=          -1986.0046 XXZZ=          -1802.3487 YYZZ=          -1218.3852
 XXYZ=             -4.7150 YYXZ=            -17.4453 ZZXY=             -7.2832
 N-N= 3.534104376445D+03 E-N=-1.029430150540D+04  KE= 1.374794434717D+03
 Calling FoFJK, ICntrl=      2127 FMM=T ISym2X=0 I1Cent= 0 IOpClX= 0 NMat=1 NMatS=1 NMatT=0.
 ***** Axes restored to original set *****
 -------------------------------------------------------------------
 Center     Atomic                   Forces (Hartrees/Bohr)
 Number     Number              X              Y              Z
 -------------------------------------------------------------------
      1        6           0.009272884   -0.000361715    0.000747938
      2        6          -0.011529760   -0.005308967    0.003304122
      3        6          -0.001302508   -0.008331907   -0.000837982
      4        6           0.002837694   -0.004286807    0.011343286
      5        6          -0.011721249    0.000532415    0.000497204
      6        6          -0.005173795   -0.011106314   -0.001678488
      7        6           0.013078650    0.019585339    0.009902896
      8        6           0.017117510   -0.011232495   -0.021756239
      9        6          -0.004248825    0.000259070    0.005488501
     10        6          -0.007982083   -0.001945803   -0.020581315
     11        6          -0.007150987    0.010772003   -0.018846396
     12        8          -0.003093622   -0.012909076    0.014064176
     13        6          -0.004002843   -0.001330430   -0.008475555
     14        6          -0.003968677    0.002228883   -0.001079900
     15        6           0.009022568   -0.003427428    0.001533755
     16        8           0.009731918   -0.002674858    0.009751759
     17        6           0.007750500   -0.010980214   -0.005948831
     18        6           0.030723534    0.006105367   -0.001154401
     19        8          -0.028546302    0.006231229    0.029485949
     20        6           0.012134015   -0.004913062    0.000574677
     21        8          -0.005932850    0.007661028   -0.003896508
     22        6          -0.007126321    0.009130820    0.000450476
     23        6          -0.002407806    0.003538904    0.008691758
     24        8          -0.000359329   -0.005091552   -0.014043271
     25        6          -0.002597950    0.005884814    0.016688851
     26        6          -0.000800794    0.002420481   -0.001441448
     27        6           0.003088673   -0.005274943   -0.008395601
     28        6          -0.003313078    0.007516791   -0.005389157
     29        6          -0.003871493   -0.006177016   -0.008880436
     30        1          -0.002050549    0.001101344   -0.001403299
     31        1          -0.003198997    0.005738156   -0.000085253
     32        6          -0.001175460    0.000960437   -0.001380123
     33        1           0.001276161   -0.000802100   -0.000201670
     34        1           0.000207425    0.007971331   -0.000697788
     35        1          -0.000431320    0.005476068    0.001991191
     36        1           0.000682337    0.002210755    0.001004443
     37        1           0.002579109   -0.002248117    0.000870211
     38        1           0.003383627   -0.000613865    0.002112114
     39        1          -0.000916501    0.000647535   -0.000319977
     40        1          -0.000884982   -0.000186713    0.000189252
     41        1           0.001228010   -0.001480209    0.000603957
     42        1           0.000285433    0.002619968   -0.000206008
     43        1          -0.001379984   -0.002110514   -0.001555574
     44        1          -0.003244650   -0.002567482   -0.001791933
     45        1           0.001660900   -0.002320742   -0.001201436
     46        1           0.001658479   -0.000342760    0.002443777
     47        1          -0.004479763    0.001845197    0.002344524
     48        1           0.002413508    0.000813658   -0.002848379
     49        1           0.003099524    0.000111686   -0.003269332
     50        1          -0.000352370   -0.002383223    0.001268303
     51        1           0.000474011   -0.001206086    0.001346791
     52        1          -0.001740376    0.000516263   -0.000854270
     53        1           0.001863302   -0.003839745    0.000624636
     54        1           0.000512711   -0.000891646    0.000375992
     55        1          -0.000930480   -0.002538570    0.005444554
     56        1           0.000514718    0.002871637    0.001434348
     57        1          -0.000739935    0.001158854    0.000615099
     58        1          -0.000112229   -0.000056125    0.003742248
     59        1          -0.001156274    0.001799723   -0.000591587
     60        1           0.004513013   -0.001842967    0.000404469
     61        1           0.004002627   -0.001048959   -0.000020376
     62        6          -0.004402616    0.001834851   -0.002074860
     63        1          -0.001672528    0.000755054   -0.000580077
     64        1          -0.000698397    0.001515573    0.001003200
     65        1          -0.000415160    0.000017177    0.001143012
 -------------------------------------------------------------------
 Cartesian Forces:  Max     0.030723534 RMS     0.006784544

 GradGradGradGradGradGradGradGradGradGradGradGradGradGradGradGradGradGrad
 Berny optimization.
 Internal  Forces:  Max     0.023964800 RMS     0.003470254
 Search for a local minimum.
 Step number   1 out of a maximum of  390
 All quantities printed in internal units (Hartrees-Bohrs-Radians)
 Mixed Optimization -- RFO/linear search
 Second derivative matrix not updated -- first step.
 ITU=  0
     Eigenvalues ---    0.00272   0.00292   0.00330   0.00386   0.00386
     Eigenvalues ---    0.00428   0.00462   0.00530   0.00579   0.00606
     Eigenvalues ---    0.00654   0.00673   0.00719   0.00736   0.00806
     Eigenvalues ---    0.00927   0.01085   0.01237   0.01252   0.01390
     Eigenvalues ---    0.01480   0.01622   0.01714   0.01804   0.01920
     Eigenvalues ---    0.02524   0.02815   0.02815   0.03014   0.03144
     Eigenvalues ---    0.03553   0.03589   0.03830   0.04054   0.04106
     Eigenvalues ---    0.04130   0.04311   0.04365   0.04628   0.04721
     Eigenvalues ---    0.04796   0.04845   0.04929   0.05092   0.05236
     Eigenvalues ---    0.05300   0.05367   0.05467   0.05488   0.05500
     Eigenvalues ---    0.05503   0.05530   0.05545   0.05551   0.05633
     Eigenvalues ---    0.05651   0.05694   0.05967   0.06263   0.06528
     Eigenvalues ---    0.06733   0.06737   0.07101   0.07148   0.07228
     Eigenvalues ---    0.07233   0.07237   0.07311   0.07715   0.08323
     Eigenvalues ---    0.08379   0.08599   0.08963   0.09162   0.09959
     Eigenvalues ---    0.10111   0.10606   0.11041   0.11611   0.12190
     Eigenvalues ---    0.13115   0.14673   0.15215   0.15950   0.16000
     Eigenvalues ---    0.16000   0.16000   0.16000   0.16000   0.16000
     Eigenvalues ---    0.16000   0.16000   0.16000   0.16000   0.16000
     Eigenvalues ---    0.16000   0.16000   0.16000   0.16000   0.16000
     Eigenvalues ---    0.16000   0.16000   0.16000   0.16000   0.16000
     Eigenvalues ---    0.16128   0.16375   0.17168   0.17722   0.18386
     Eigenvalues ---    0.19807   0.21448   0.21913   0.22795   0.23462
     Eigenvalues ---    0.24391   0.24924   0.24969   0.24980   0.24992
     Eigenvalues ---    0.25000   0.25000   0.25000   0.25964   0.27151
     Eigenvalues ---    0.27406   0.27741   0.27803   0.27917   0.28316
     Eigenvalues ---    0.28756   0.28758   0.28890   0.29151   0.29539
     Eigenvalues ---    0.29540   0.30079   0.30469   0.30529   0.31509
     Eigenvalues ---    0.31653   0.32003   0.32142   0.33168   0.33689
     Eigenvalues ---    0.33693   0.33947   0.33983   0.34017   0.34017
     Eigenvalues ---    0.34028   0.34040   0.34045   0.34057   0.34070
     Eigenvalues ---    0.34126   0.34129   0.34146   0.34151   0.34152
     Eigenvalues ---    0.34166   0.34178   0.34197   0.34250   0.34260
     Eigenvalues ---    0.34266   0.34279   0.34280   0.34286   0.34322
     Eigenvalues ---    0.34338   0.34346   0.34349   0.34363   0.34407
     Eigenvalues ---    0.34460   0.34927   0.35270   0.35302   0.36506
     Eigenvalues ---    0.37497   0.43071   0.43471   0.52007   0.53515
     Eigenvalues ---    0.54413   0.56080   0.89653   0.90873
 RFO step:  Lambda=-2.22061311D-02 EMin= 2.72294109D-03
 Linear search not attempted -- first point.
 Iteration  1 RMS(Cart)=  0.05256564 RMS(Int)=  0.00077415
 Iteration  2 RMS(Cart)=  0.00151481 RMS(Int)=  0.00023061
 Iteration  3 RMS(Cart)=  0.00000105 RMS(Int)=  0.00023061
 Iteration  4 RMS(Cart)=  0.00000000 RMS(Int)=  0.00023061
 Variable       Old X    -DE/DX   Delta X   Delta X   Delta X     New X
                                 (Linear)    (Quad)   (Total)
    R1        2.53261  -0.00145   0.00000  -0.00299  -0.00305   2.52956
    R2        2.81940   0.00893   0.00000   0.02687   0.02676   2.84616
    R3        2.05794   0.00005   0.00000   0.00014   0.00014   2.05807
    R4        2.85443   0.00374   0.00000   0.00826   0.00831   2.86274
    R5        2.84784   0.00315   0.00000   0.00931   0.00931   2.85715
    R6        2.94302   0.00534   0.00000   0.01193   0.01201   2.95503
    R7        2.91011   0.01145   0.00000   0.03918   0.03911   2.94922
    R8        2.07851  -0.00093   0.00000  -0.00260  -0.00260   2.07591
    R9        2.91700   0.00844   0.00000   0.02553   0.02528   2.94228
   R10        2.91202   0.00846   0.00000   0.02709   0.02716   2.93918
   R11        2.77903  -0.00591   0.00000  -0.01617  -0.01614   2.76289
   R12        2.92128   0.00018   0.00000   0.00336   0.00329   2.92457
   R13        2.90453   0.00671   0.00000   0.01607   0.01597   2.92050
   R14        2.89764   0.01124   0.00000   0.03807   0.03795   2.93559
   R15        2.07419  -0.00146   0.00000  -0.00403  -0.00403   2.07016
   R16        2.07254   0.00282   0.00000   0.00778   0.00778   2.08032
   R17        2.81565   0.01034   0.00000   0.02263   0.02227   2.83792
   R18        2.85905   0.01508   0.00000   0.05484   0.05437   2.91341
   R19        2.67582   0.00480   0.00000   0.01059   0.01059   2.68641
   R20        2.52751   0.01611   0.00000   0.02804   0.02816   2.55567
   R21        2.63228  -0.02396   0.00000  -0.05609  -0.05591   2.57636
   R22        2.79778  -0.00204   0.00000  -0.00853  -0.00846   2.78933
   R23        2.81159   0.01126   0.00000   0.03136   0.03136   2.84295
   R24        2.33093  -0.01197   0.00000  -0.01303  -0.01303   2.31790
   R25        2.32533  -0.01912   0.00000  -0.02054  -0.02054   2.30480
   R26        2.88892   0.00046   0.00000   0.00144   0.00144   2.89037
   R27        2.90233   0.00232   0.00000   0.00745   0.00745   2.90978
   R28        2.88891   0.00879   0.00000   0.02767   0.02767   2.91658
   R29        2.07031   0.00000   0.00000   0.00001   0.00001   2.07032
   R30        2.07302   0.00114   0.00000   0.00314   0.00314   2.07616
   R31        2.07263  -0.00049   0.00000  -0.00135  -0.00135   2.07128
   R32        2.87806   0.00803   0.00000   0.02485   0.02485   2.90291
   R33        2.07074  -0.00009   0.00000  -0.00024  -0.00024   2.07050
   R34        2.06893   0.00050   0.00000   0.00138   0.00138   2.07031
   R35        2.07050   0.00126   0.00000   0.00348   0.00348   2.07398
   R36        2.91489  -0.00080   0.00000   0.00930   0.00957   2.92445
   R37        2.90025   0.00505   0.00000   0.01839   0.01835   2.91860
[...]
     54          1           0       -0.533165    4.635548   -1.861750
     55          1           0       -0.428447    3.013114   -2.582729
     56          1           0        2.074093    4.551837   -0.303836
     57          1           0        0.551331    5.064870    0.447819
     58          1           0        1.532408    3.788199    1.198195
     59          1           0       -0.185295    0.111402    5.066180
     60          1           0        0.237025    1.567235    4.151246
     61          1           0       -1.434880    1.291458    4.628991
     62          6           0        5.210994   -2.298667   -1.814329
     63          1           0        6.258796   -2.419293   -2.113498
     64          1           0        4.754300   -3.296064   -1.790150
     65          1           0        4.707351   -1.712757   -2.588777
 ---------------------------------------------------------------------
 Rotational constants (GHZ):      0.1964787      0.1264839      0.1143272

 **********************************************************************

            Population analysis using the SCF density.

 **********************************************************************

 Orbital symmetries:
       Occupied  (A) (A) (A) (A) (A) (A) (A) (A) (A) (A) (A) (A)
                 (A) (A) (A) (A) (A) (A) (A) (A) (A) (A) (A) (A)
                 (A) (A) (A) (A) (A) (A) (A) (A) (A) (A) (A) (A)
                 (A) (A) (A) (A) (A) (A) (A) (A) (A) (A) (A) (A)
                 (A) (A) (A) (A) (A) (A) (A) (A) (A) (A) (A) (A)
                 (A) (A) (A) (A) (A) (A) (A) (A) (A) (A) (A) (A)
                 (A) (A) (A) (A) (A) (A) (A) (A) (A) (A) (A) (A)
                 (A) (A) (A) (A) (A) (A) (A) (A) (A) (A) (A) (A)
                 (A) (A) (A) (A) (A) (A) (A) (A) (A) (A) (A) (A)
                 (A) (A) (A) (A) (A) (A) (A)
       Virtual   (A) (A) (A) (A) (A) (A) (A) (A) (A) (A) (A) (A)
                 (A) (A) (A) (A) (A) (A) (A) (A) (A) (A) (A) (A)
                 (A) (A) (A) (A) (A) (A) (A) (A) (A) (A) (A) (A)
                 (A) (A) (A) (A) (A) (A) (A) (A) (A) (A) (A) (A)
                 (A) (A) (A) (A) (A) (A) (A) (A) (A) (A) (A) (A)
                 (A) (A) (A) (A) (A) (A) (A) (A) (A) (A) (A) (A)
                 (A) (A) (A) (A) (A) (A) (A) (A) (A) (A) (A) (A)
                 (A) (A) (A) (A) (A) (A) (A) (A) (A) (A) (A) (A)
                 (A) (A) (A) (A) (A) (A) (A) (A) (A) (A) (A) (A)
                 (A) (A) (A) (A) (A) (A) (A) (A) (A) (A) (A) (A)
                 (A) (A) (A) (A) (A) (A) (A) (A) (A) (A) (A) (A)
                 (A) (A) (A) (A) (A) (A) (A) (A) (A) (A) (A) (A)
                 (A) (A) (A) (A) (A) (A) (A) (A) (A) (A) (A) (A)
                 (A) (A) (A) (A) (A) (A) (A) (A) (A) (A) (A) (A)
                 (A) (A) (A) (A) (A) (A) (A) (A) (A) (A) (A) (A)
                 (A) (A) (A) (A) (A) (A) (A) (A) (A) (A) (A) (A)
                 (A) (A) (A) (A) (A) (A) (A) (A) (A) (A) (A) (A)
                 (A) (A) (A) (A) (A) (A) (A) (A) (A) (A) (A) (A)
                 (A) (A) (A) (A) (A) (A) (A) (A) (A) (A) (A) (A)
                 (A) (A) (A) (A) (A) (A) (A) (A) (A) (A) (A) (A)
                 (A) (A) (A) (A) (A) (A) (A) (A) (A) (A) (A) (A)
                 (A) (A) (A) (A) (A) (A) (A) (A) (A) (A) (A) (A)
                 (A) (A) (A) (A) (A) (A) (A) (A) (A) (A) (A) (A)
                 (A) (A) (A) (A) (A) (A) (A) (A) (A) (A) (A) (A)
                 (A) (A) (A) (A) (A) (A) (A) (A) (A) (A) (A) (A)
                 (A) (A) (A) (A) (A) (A) (A) (A) (A) (A) (A) (A)
                 (A) (A) (A) (A) (A) (A) (A) (A) (A) (A) (A) (A)
                 (A) (A) (A) (A) (A) (A) (A) (A) (A) (A) (A) (A)
                 (A) (A) (A) (A) (A) (A) (A) (A) (A) (A) (A) (A)
                 (A) (A) (A) (A) (A) (A) (A) (A) (A) (A) (A) (A)
                 (A) (A) (A) (A) (A) (A) (A) (A) (A) (A) (A) (A)
                 (A) (A) (A) (A) (A) (A) (A) (A) (A) (A) (A) (A)
                 (A) (A) (A) (A) (A) (A) (A) (A) (A) (A) (A) (A)
                 (A) (A) (A) (A) (A) (A) (A) (A) (A) (A) (A) (A)
                 (A) (A) (A) (A) (A) (A) (A) (A) (A) (A)
 The electronic state is 1-A.
 Alpha  occ. eigenvalues --  -19.19771 -19.16862 -19.15942 -19.12793 -19.11975
 Alpha  occ. eigenvalues --  -10.27572 -10.27298 -10.26692 -10.25996 -10.25975
 Alpha  occ. eigenvalues --  -10.25956 -10.25101 -10.21525 -10.20811 -10.20705
 Alpha  occ. eigenvalues --  -10.20623 -10.20127 -10.19862 -10.19522 -10.19371
 Alpha  occ. eigenvalues --  -10.19251 -10.19230 -10.19071 -10.18909 -10.18793
 Alpha  occ. eigenvalues --  -10.18613 -10.18070 -10.17329 -10.17111 -10.16182
 Alpha  occ. eigenvalues --  -10.15197  -1.09498  -1.06099  -1.03064  -1.02694
 Alpha  occ. eigenvalues --   -1.01893  -0.86841  -0.83696  -0.82509  -0.81484
 Alpha  occ. eigenvalues --   -0.80374  -0.78922  -0.76721  -0.74384  -0.73345
 Alpha  occ. eigenvalues --   -0.71987  -0.71091  -0.70116  -0.69933  -0.68006
 Alpha  occ. eigenvalues --   -0.65251  -0.63637  -0.63234  -0.61645  -0.60736
 Alpha  occ. eigenvalues --   -0.59432  -0.58649  -0.57045  -0.54659  -0.53915
 Alpha  occ. eigenvalues --   -0.52924  -0.51865  -0.50952  -0.50581  -0.49525
 Alpha  occ. eigenvalues --   -0.47947  -0.47480  -0.47045  -0.46436  -0.45665
 Alpha  occ. eigenvalues --   -0.45098  -0.44528  -0.44003  -0.43818  -0.43680
 Alpha  occ. eigenvalues --   -0.42417  -0.42116  -0.41725  -0.41587  -0.41344
 Alpha  occ. eigenvalues --   -0.40821  -0.40751  -0.40658  -0.40040  -0.39632
 Alpha  occ. eigenvalues --   -0.39361  -0.39274  -0.38476  -0.38285  -0.38021
 Alpha  occ. eigenvalues --   -0.37617  -0.37321  -0.37145  -0.36971  -0.36697
 Alpha  occ. eigenvalues --   -0.36317  -0.35790  -0.35094  -0.34743  -0.34152
 Alpha  occ. eigenvalues --   -0.33880  -0.33709  -0.32848  -0.32346  -0.31916
 Alpha  occ. eigenvalues --   -0.31514  -0.31147  -0.30757  -0.28418  -0.27134
 Alpha  occ. eigenvalues --   -0.25765  -0.24554  -0.24397  -0.23541  -0.22377
 Alpha virt. eigenvalues --   -0.05009  -0.01576   0.00533   0.01664   0.06027
 Alpha virt. eigenvalues --    0.07493   0.08132   0.08471   0.09446   0.10033
 Alpha virt. eigenvalues --    0.10234   0.10824   0.11706   0.12025   0.12490
 Alpha virt. eigenvalues --    0.12627   0.13327   0.13373   0.14016   0.14033
 Alpha virt. eigenvalues --    0.14491   0.14783   0.15440   0.15538   0.16165
 Alpha virt. eigenvalues --    0.16343   0.16951   0.17043   0.17173   0.17416
 Alpha virt. eigenvalues --    0.17875   0.17964   0.18356   0.18795   0.18881
 Alpha virt. eigenvalues --    0.19335   0.19800   0.19930   0.20216   0.20342
 Alpha virt. eigenvalues --    0.20748   0.21059   0.21436   0.21890   0.22078
 Alpha virt. eigenvalues --    0.22374   0.23092   0.23501   0.24021   0.24279
 Alpha virt. eigenvalues --    0.24701   0.25287   0.25604   0.26088   0.27040
 Alpha virt. eigenvalues --    0.27445   0.27747   0.28333   0.28547   0.29442
 Alpha virt. eigenvalues --    0.30750   0.31433   0.32321   0.33033   0.33904
 Alpha virt. eigenvalues --    0.34214   0.36633   0.37314   0.38898   0.40250
 Alpha virt. eigenvalues --    0.42338   0.44812   0.46244   0.48043   0.48149
 Alpha virt. eigenvalues --    0.49261   0.50241   0.50843   0.51198   0.51475
 Alpha virt. eigenvalues --    0.51881   0.51933   0.52493   0.53389   0.53805
 Alpha virt. eigenvalues --    0.54033   0.54160   0.55135   0.55374   0.56287
 Alpha virt. eigenvalues --    0.56850   0.57388   0.57846   0.58372   0.58949
 Alpha virt. eigenvalues --    0.59292   0.60028   0.60991   0.61144   0.62100
 Alpha virt. eigenvalues --    0.62681   0.63086   0.63420   0.64095   0.64375
 Alpha virt. eigenvalues --    0.65361   0.66173   0.66473   0.66814   0.67157
 Alpha virt. eigenvalues --    0.67544   0.67811   0.68571   0.68951   0.69549
 Alpha virt. eigenvalues --    0.69642   0.70964   0.71547   0.72193   0.72977
 Alpha virt. eigenvalues --    0.74165   0.74302   0.75099   0.76046   0.76383
 Alpha virt. eigenvalues --    0.77224   0.77473   0.77913   0.78972   0.79655
 Alpha virt. eigenvalues --    0.80372   0.80893   0.81164   0.82021   0.82542
 Alpha virt. eigenvalues --    0.83025   0.83600   0.84004   0.84867   0.85224
 Alpha virt. eigenvalues --    0.85553   0.86062   0.86253   0.86934   0.87300
 Alpha virt. eigenvalues --    0.87448   0.88109   0.88484   0.88759   0.88909
 Alpha virt. eigenvalues --    0.89005   0.89781   0.90077   0.90461   0.90635
 Alpha virt. eigenvalues --    0.91281   0.91609   0.91778   0.92465   0.92858
 Alpha virt. eigenvalues --    0.93511   0.93846   0.94368   0.94782   0.95115
 Alpha virt. eigenvalues --    0.95499   0.96355   0.96757   0.97297   0.97555
 Alpha virt. eigenvalues --    0.97940   0.98341   0.99184   0.99498   1.00094
 Alpha virt. eigenvalues --    1.00752   1.01007   1.02726   1.03448   1.04723
 Alpha virt. eigenvalues --    1.04983   1.05723   1.06845   1.07670   1.08594
 Alpha virt. eigenvalues --    1.08852   1.09824   1.12086   1.12696   1.12958
 Alpha virt. eigenvalues --    1.13556   1.15135   1.16046   1.16772   1.17284
 Alpha virt. eigenvalues --    1.17769   1.18428   1.19555   1.20560   1.21714
 Alpha virt. eigenvalues --    1.22083   1.24573   1.24973   1.26043   1.26772
 Alpha virt. eigenvalues --    1.27901   1.29483   1.30306   1.30388   1.32669
 Alpha virt. eigenvalues --    1.34108   1.36405   1.38918   1.39376   1.40649
 Alpha virt. eigenvalues --    1.41275   1.43095   1.43758   1.45166   1.46350
 Alpha virt. eigenvalues --    1.48278   1.48642   1.50534   1.51127   1.51554
 Alpha virt. eigenvalues --    1.52343   1.53818   1.54072   1.56138   1.57844
 Alpha virt. eigenvalues --    1.58713   1.60267   1.61220   1.61918   1.64147
 Alpha virt. eigenvalues --    1.65649   1.66011   1.66751   1.67975   1.68183
 Alpha virt. eigenvalues --    1.70016   1.71358   1.72033   1.72921   1.73458
 Alpha virt. eigenvalues --    1.74586   1.74787   1.75251   1.76825   1.77860
 Alpha virt. eigenvalues --    1.78650   1.79455   1.79903   1.80531   1.81176
 Alpha virt. eigenvalues --    1.81924   1.82162   1.82763   1.83724   1.84537
 Alpha virt. eigenvalues --    1.85836   1.86077   1.87501   1.87728   1.87813
 Alpha virt. eigenvalues --    1.88751   1.89630   1.90060   1.90356   1.91805
 Alpha virt. eigenvalues --    1.92409   1.92582   1.93064   1.94203   1.94506
 Alpha virt. eigenvalues --    1.94988   1.96370   1.97238   1.97615   1.97948
 Alpha virt. eigenvalues --    1.98547   1.99043   1.99820   2.00601   2.01633
 Alpha virt. eigenvalues --    2.02112   2.02783   2.03101   2.03441   2.05213
 Alpha virt. eigenvalues --    2.05591   2.06797   2.07341   2.08795   2.09316
 Alpha virt. eigenvalues --    2.10344   2.10544   2.11260   2.12164   2.12663
 Alpha virt. eigenvalues --    2.13714   2.15023   2.15927   2.18091   2.18594
 Alpha virt. eigenvalues --    2.18882   2.19227   2.20937   2.21145   2.22129
 Alpha virt. eigenvalues --    2.23083   2.24246   2.24603   2.25586   2.26679
 Alpha virt. eigenvalues --    2.27329   2.29179   2.29247   2.31229   2.31328
 Alpha virt. eigenvalues --    2.32069   2.32941   2.33909   2.34494   2.35635
 Alpha virt. eigenvalues --    2.36171   2.36443   2.37600   2.38042   2.39295
 Alpha virt. eigenvalues --    2.39683   2.41318   2.41660   2.41944   2.42956
 Alpha virt. eigenvalues --    2.44260   2.44445   2.46156   2.47654   2.48200
 Alpha virt. eigenvalues --    2.48699   2.50257   2.51701   2.53412   2.54131
 Alpha virt. eigenvalues --    2.55049   2.55667   2.57073   2.58963   2.59645
 Alpha virt. eigenvalues --    2.60122   2.61880   2.62825   2.63503   2.65425
 Alpha virt. eigenvalues --    2.65917   2.67592   2.67965   2.69842   2.71640
 Alpha virt. eigenvalues --    2.72140   2.72758   2.73930   2.75668   2.76969
 Alpha virt. eigenvalues --    2.79365   2.80792   2.82208   2.83418   2.83898
 Alpha virt. eigenvalues --    2.86846   2.88727   2.92470   2.94715   2.95364
 Alpha virt. eigenvalues --    2.96945   2.98755   3.01213   3.01605   3.02678
 Alpha virt. eigenvalues --    3.04977   3.06416   3.11782   3.17334   3.20087
 Alpha virt. eigenvalues --    3.25420   3.30031   4.04432   4.06362   4.08908
 Alpha virt. eigenvalues --    4.11911   4.13371   4.15169   4.17568   4.18879
 Alpha virt. eigenvalues --    4.21847   4.23152   4.25211   4.28217   4.29555
 Alpha virt. eigenvalues --    4.31778   4.34987   4.36844   4.38117   4.45537
 Alpha virt. eigenvalues --    4.48700   4.50459   4.52135   4.54770   4.57955
 Alpha virt. eigenvalues --    4.62933   4.66636   4.68625   4.71197   4.79419
 Alpha virt. eigenvalues --    4.90161   5.00876   5.18828
          Condensed to atoms (all electrons):
 Mulliken atomic charges:
              1
     1  C   -0.190868
     2  C    0.191768
     3  C   -0.190025
     4  C    0.326744
     5  C   -0.045986
     6  C   -0.338079
     7  C    0.184524
     8  C    0.403273
     9  C   -0.078004
    10  C    0.407870
    11  C    0.423121
    12  O   -0.460349
    13  C   -0.175719
    14  C   -0.238511
    15  C   -0.463892
    16  O   -0.509748
    17  C   -0.161435
    18  C    0.298905
    19  O   -0.498795
    20  C   -0.322302
    21  O   -0.667049
    22  C   -0.310725
    23  C    0.074683
    24  O   -0.596160
    25  C    0.241112
    26  C   -0.547544
    27  C   -0.403918
    28  C   -0.467953
    29  C   -0.460406
    30  H    0.145262
    31  H    0.166233
    32  C   -0.519237
    33  H    0.123488
    34  H    0.183014
    35  H    0.148683
    36  H    0.179342
    37  H    0.118771
    38  H    0.144719
    39  H    0.148025
    40  H    0.149472
    41  H    0.146139
    42  H    0.163704
    43  H    0.152495
    44  H    0.433259
    45  H    0.169335
    46  H    0.167204
    47  H    0.134811
    48  H    0.166431
    49  H    0.175746
    50  H    0.162351
    51  H    0.141645
    52  H    0.142457
    53  H    0.164563
    54  H    0.141780
    55  H    0.193160
    56  H    0.170296
    57  H    0.150482
    58  H    0.159187
    59  H    0.158353
    60  H    0.157551
    61  H    0.152690
    62  C   -0.453250
    63  H    0.134131
    64  H    0.138252
    65  H    0.164920
 Sum of Mulliken atomic charges =   0.00000
 Mulliken charges with hydrogens summed into heavy atoms:
              1
     1  C   -0.067379
     2  C    0.191768
     3  C   -0.023791
     4  C    0.326744
     5  C   -0.045986
     6  C   -0.006381
     7  C    0.184524
     8  C    0.403273
     9  C   -0.078004
    10  C    0.407870
    11  C    0.423121
    12  O   -0.460349
    13  C    0.003622
    14  C    0.024980
    15  C   -0.020257
    16  O   -0.509748
    17  C   -0.016174
    18  C    0.298905
    19  O   -0.498795
    20  C   -0.006103
    21  O   -0.233790
    22  C    0.025814
    23  C    0.209494
    24  O   -0.596160
    25  C    0.241112
    26  C   -0.043016
    27  C   -0.119816
    28  C    0.031550
    29  C    0.019558
    32  C   -0.050641
    62  C   -0.015947
 Sum of Mulliken charges with hydrogens summed into heavy atoms =   0.00000
 Electronic spatial extent (au):  <R**2>=          11571.5197
 Charge=              0.0000 electrons
 Dipole moment (field-independent basis, Debye):
    X=             -4.8147    Y=              2.5485    Z=              3.2463  Tot=              6.3415
 Quadrupole moment (field-independent basis, Debye-Ang):
   XX=           -188.8868   YY=           -176.6720   ZZ=           -183.2356
   XY=              2.8098   XZ=             10.8134   YZ=              0.1314
 Traceless Quadrupole moment (field-independent basis, Debye-Ang):
   XX=             -5.9553   YY=              6.2595   ZZ=             -0.3042
   XY=              2.8098   XZ=             10.8134   YZ=              0.1314
 Octapole moment (field-independent basis, Debye-Ang**2):
  XXX=            -54.3896  YYY=             74.1094  ZZZ=              0.7726  XYY=            -16.1555
  XXY=            -23.9227  XXZ=             -1.7926  XZZ=            -23.2238  YZZ=             -0.1854
  YYZ=              4.9080  XYZ=             -1.5584
 Hexadecapole moment (field-independent basis, Debye-Ang**3):
 XXXX=          -8123.7005 YYYY=          -4172.8930 ZZZZ=          -3146.7803 XXXY=             67.8816
 XXXZ=            199.8992 YYYX=             52.5144 YYYZ=            -74.7661 ZZZX=             37.8099
 ZZZY=             -7.7940 XXYY=          -2016.0655 XXZZ=          -1864.2456 YYZZ=          -1227.1129
 XXYZ=             11.5211 YYXZ=             -9.0132 ZZXY=              0.2055
 N-N= 3.511029281196D+03 E-N=-1.024820267450D+04  KE= 1.374463402422D+03
 1\1\GINC-B0606\FOpt\RB3LYP\6-31G(d)\C26H34O5\CAOFEI\24-Mar-2021\0\\# o
 pt rb3lyp/6-31g(d) geom=connectivity\\Title Card Required\\0,1\C,0.243
 4098226,-0.1150458617,0.186805113\C,1.5785266216,-0.0481959719,0.12852
 95796\C,2.3024324792,1.2802961989,0.0618046553\C,1.4199609659,2.538700
 1999,-0.2223649643\C,-0.1066997262,2.3515365187,-0.4583229145\C,-0.664
 8159574,1.0795902667,0.2380004345\C,2.1244268105,3.2465260255,-1.41072
 85006\C,1.6579037291,2.7582913723,-2.7687842228\C,0.3836128422,2.36387
 13468,-3.0527894409\C,-0.578249274,2.313073334,-1.9403658542\C,0.00407
 53136,1.9840913596,-4.4642700764\O,0.5748574639,2.5139984449,-5.404596
 073\C,-1.0123418858,0.8569500273,-4.6800149049\C,-1.4720993361,0.77321
 87643,-6.1440399147\C,-0.3752302157,-0.4712619091,-4.2105193773\O,-1.7
 878957325,2.2148210981,-2.1272547392\C,3.5894571389,2.762838273,-1.453
 7122186\C,3.970830917,2.9705901885,-2.9373375921\O,2.675080198,2.72906
 2874,-3.6278931343\C,3.4503070809,1.299625125,-0.9917102566\O,1.939887
 1695,4.6481955851,-1.3685064489\C,-0.6999642187,3.6090997535,0.2290863
 175\C,0.2305789208,3.7897061843,1.4309029266\O,1.5384071443,3.45375505
 1,0.9041125264\C,0.2353124476,5.1572627868,2.0788704764\C,0.843841891,
 6.3174605438,1.3301718789\C,-0.3222570043,5.3090590082,3.2843942622\C,
 4.4058413229,4.4041406861,-3.2515333027\C,4.9556099269,1.9669240611,-3
 .5315299079\H,4.2278504182,3.3451871566,-0.7824059086\H,2.7509662853,1
 .4735826365,1.0464297839\C,2.4381344,-1.2867667682,0.2008080594\H,-0.2
 32746229,-1.0915767662,0.2681214359\H,-1.635363281,0.8579903735,-0.215
 5618615\H,-0.8796505106,1.307411527,1.2931425935\H,-1.8737189523,1.062
 1209756,-4.0372788063\H,-2.0380227603,-0.1605228833,-6.2662837136\H,-0
 .5911598495,0.6980952161,-6.7922345637\H,0.5029159067,-0.7203679397,-4
 .8190571865\H,-1.0971629505,-1.2893548243,-4.3108120659\H,-0.060216383
 3,-0.4293554799,-3.1619129273\H,3.1661033074,0.6693720423,-1.841350363
 5\H,4.3834430156,0.8935709359,-0.5911708836\H,1.975956594,4.8504330893
 ,-0.413442671\H,-1.743899916,3.463822998,0.5171646598\H,-0.6441450525,
 4.4752789293,-0.436786528\H,-0.0215165433,3.0526176643,2.2050398047\H,
 1.935583242,6.2149284039,1.2678486895\H,0.4634169343,6.3990921413,0.30
 48776954\H,0.6360679037,7.2621919687,1.840578707\H,-0.7341076168,4.467
 3708038,3.8359195136\H,-0.3954068858,6.2825709182,3.761976633\H,4.4719
 569314,4.541264516,-4.335441806\H,5.3947582658,4.5960710822,-2.8193639
 409\H,3.6975775869,5.1271667958,-2.8435172582\H,5.0775999184,2.1563585
 373,-4.6023710821\H,5.9341250625,2.0761474542,-3.0509449876\H,4.619873
 117,0.9350129412,-3.4059339398\H,1.8247491068,-2.1851084795,0.32002503
 35\H,3.055802423,-1.4194281636,-0.6964130848\H,3.1309576896,-1.2354470
 713,1.0528902667\C,-2.3418114678,1.9527305947,-6.5928488262\H,-2.67556
 60209,1.8202946275,-7.6287112346\H,-3.2360090542,2.047868529,-5.964107
 9834\H,-1.7860414903,2.8933941833,-6.5381755789\\Version=EM64L-G09RevB
 .01\State=1-A\HF=-1387.3200275\RMSD=8.318e-09\RMSF=3.424e-06\Dipole=1.
 4664062,-0.3942167,1.9796394\Quadrupole=3.2929233,4.7486964,-8.0416197
 ,-0.0396133,-4.8243424,4.1661281\PG=C01 [X(C26H34O5)]\\@


 WAR ES EIN GOTT DER DIESE ZEICHEN SCHRIEB?
          - LUDWIG BOLTZMANN, QUOTING GOETHE, ABOUT MAXWELL'S EQUATIONS.
 Job cpu time:  0 days 21 hours 22 minutes 39.8 seconds.
 File lengths (MBytes):  RWF=    186 Int=      0 D2E=      0 Chk=     20 Scr=      1
 Normal termination of Gaussian 09 at Wed Mar 24 18:10:48 2021.
