 Entering Gaussian System, Link 0=g09
 Initial command:
 /public/software/g09/g09/l1.exe /tmp/Gau-2935.inp -scrdir=/tmp/
 Entering Link 1 = /public/software/g09/g09/l1.exe PID=      2936.
  
 Copyright (c) 1988,1990,1992,1993,1995,1998,2003,2009,2010,
            Gaussian, Inc.  All Rights Reserved.
  
 This is part of the Gaussian(R) 09 program.  It is based on
 the Gaussian(R) 03 system (copyright 2003, Gaussian, Inc.),
 the Gaussian(R) 98 system (copyright 1998, Gaussian, Inc.),
 the Gaussian(R) 94 system (copyright 1995, Gaussian, Inc.),
 the Gaussian 92(TM) system (copyright 1992, Gaussian, Inc.),
 the Gaussian 90(TM) system (copyright 1990, Gaussian, Inc.),
 the Gaussian 88(TM) system (copyright 1988, Gaussian, Inc.),
 the Gaussian 86(TM) system (copyright 1986, Carnegie Mellon
 University), and the Gaussian 82(TM) system (copyright 1983,
 Carnegie Mellon University). Gaussian is a federally registered
 trademark of Gaussian, Inc.
  
 This software contains proprietary and confidential information,
 including trade secrets, belonging to Gaussian, Inc.
  
 This software is provided under written license and may be
 used, copied, transmitted, or stored only in accord with that
 written license.
  
 The following legend is applicable only to US Government
 contracts under FAR:
  
                    RESTRICTED RIGHTS LEGEND
  
 Use, reproduction and disclosure by the US Government is
 subject to restrictions as set forth in subparagraphs (a)
 and (c) of the Commercial Computer Software - Restricted
 Rights clause in FAR 52.227-19.
  
 Gaussian, Inc.
 340 Quinnipiac St., Bldg. 40, Wallingford CT 06492
  
  
 ---------------------------------------------------------------
 Warning -- This program may not be used in any manner that
 competes with the business of Gaussian, Inc. or will provide
 assistance to any competitor of Gaussian, Inc.  The licensee
 of this program is prohibited from giving any competitor of
 Gaussian, Inc. access to this program.  By using this program,
 the user acknowledges that Gaussian, Inc. is engaged in the
 business of creating and licensing software in the field of
 computational chemistry and represents and warrants to the
 licensee that it is not a competitor of Gaussian, Inc. and that
 it will not use this program in any manner prohibited above.
 ---------------------------------------------------------------
  

 Cite this work as:
 Gaussian 09, Revision B.01,
 M. J. Frisch, G. W. Trucks, H. B. Schlegel, G. E. Scuseria, 
 M. A. Robb, J. R. Cheeseman, G. Scalmani, V. Barone, B. Mennucci, 
 G. A. Petersson, H. Nakatsuji, M. Caricato, X. Li, H. P. Hratchian, 
 A. F. Izmaylov, J. Bloino, G. Zheng, J. L. Sonnenberg, M. Hada, 
 M. Ehara, K. Toyota, R. Fukuda, J. Hasegawa, M. Ishida, T. Nakajima, 
 Y. Honda, O. Kitao, H. Nakai, T. Vreven, J. A. Montgomery, Jr., 
 J. E. Peralta, F. Ogliaro, M. Bearpark, J. J. Heyd, E. Brothers, 
 K. N. Kudin, V. N. Staroverov, T. Keith, R. Kobayashi, J. Normand, 
 K. Raghavachari, A. Rendell, J. C. Burant, S. S. Iyengar, J. Tomasi, 
 M. Cossi, N. Rega, J. M. Millam, M. Klene, J. E. Knox, J. B. Cross, 
 V. Bakken, C. Adamo, J. Jaramillo, R. Gomperts, R. E. Stratmann, 
 O. Yazyev, A. J. Austin, R. Cammi, C. Pomelli, J. W. Ochterski, 
 R. L. Martin, K. Morokuma, V. G. Zakrzewski, G. A. Voth, 
 P. Salvador, J. J. Dannenberg, S. Dapprich, A. D. Daniels, 
 O. Farkas, J. B. Foresman, J. V. Ortiz, J. Cioslowski, 
 and D. J. Fox, Gaussian, Inc., Wallingford CT, 2010.
 
 ******************************************
 Gaussian 09:  EM64L-G09RevB.01 12-Aug-2010
                24-Mar-2021 
 ******************************************
 %mem=600MW
 %nprocshared=10
 Will use up to   10 processors via shared memory.
 ---------------------------------------
 # opt rb3lyp/6-31g(d) geom=connectivity
 ---------------------------------------
 1/14=-1,18=20,19=15,26=3,38=1,57=2/1,3;
 2/9=110,12=2,17=6,18=5,40=1/2;
 3/5=1,6=6,7=1,11=2,16=1,25=1,30=1,71=1,74=-5,116=1/1,2,3;
 4//1;
 5/5=2,38=5/2;
 6/7=2,8=2,9=2,10=2,28=1/1;
 7//1,2,3,16;
 1/14=-1,18=20,19=15/3(2);
 2/9=110/2;
 99//99;
 2/9=110/2;
 3/5=1,6=6,7=1,11=2,16=1,25=1,30=1,71=1,74=-5,116=1/1,2,3;
 4/5=5,16=3/1;
 5/5=2,38=5/2;
 7//1,2,3,16;
 1/14=-1,18=20,19=15/3(-5);
 2/9=110/2;
 6/7=2,8=2,9=2,10=2,19=2,28=1/1;
 99/9=1/99;
 -------------------
 Title Card Required
 -------------------
 Symbolic Z-matrix:
 Charge =  0 Multiplicity = 1
 C                     0.        0.        0. 
 C                     1.3405    0.        0. 
 C                     2.1209    1.2875    0. 
 C                     1.3778    2.5444    0.5439 
 C                    -0.1625    2.4591    0.683 
 C                    -0.8044    1.2577   -0.0424 
 C                     1.8959    3.7037   -0.3375 
 C                     0.941     4.1966   -1.37 
 C                    -0.3799    4.2423   -1.1729 
 C                    -0.8755    3.6973    0.1115 
 C                    -1.3127    4.6751   -2.2348 
 O                    -2.1833    3.8943   -2.621 
 C                    -1.1715    6.0892   -2.7871 
 C                    -1.0547    6.0279   -4.3171 
 C                    -2.3687    6.9132   -2.3176 
 O                    -1.8834    4.178     0.6266 
 C                     3.0024    3.1609   -1.222 
 C                     2.9219    4.0533   -2.4746 
 O                     1.5369    4.4591   -2.5957 
 C                     2.5938    1.6923   -1.4007 
 O                     2.334     4.8091    0.4388 
 C                    -0.3855    2.3845    2.206 
 C                     0.9872    2.1216    2.7979 
 O                     1.8825    2.7768    1.8923 
 C                     1.1524    2.6332    4.2109 
 C                     0.3241    1.9288    5.2523 
 C                     1.9852    3.6284    4.5621 
 C                     3.7717    5.3266   -2.3388 
 C                     3.3229    3.3347   -3.7657 
 H                     3.9904    3.2192   -0.7484 
 H                     3.0126    1.1295    0.6254 
 C                     2.1349   -1.2751   -0.0161 
 H                    -0.5504   -0.9381   -0.0301 
 H                    -1.7932    1.0568    0.3909 
 H                    -0.9949    1.4819   -1.1003 
 H                    -0.2623    6.5448   -2.3769 
 H                    -0.294     5.2883   -4.5964 
 H                    -1.997     5.6784   -4.7571 
 H                    -2.2582    7.9669   -2.5907 
 H                    -2.4721    6.8619   -1.2279 
 H                    -3.3034    6.5431   -2.753 
 H                     1.7819    1.5745   -2.1292 
 H                     3.4379    1.083    -1.7411 
 H                     2.4848    4.4543    1.3408 
 H                    -0.774     3.3337    2.5962 
 H                    -1.0991    1.6092    2.5066 
 H                     1.2216    1.0502    2.7816 
 H                     0.5376    0.8549    5.2439 
 H                     0.5292    2.2982    6.2628 
 H                    -0.7433    2.0736    5.0582 
 H                     2.0747    3.9562    5.5934 
 H                     2.6014    4.1464    3.835 
 H                     3.662     5.96     -3.2271 
 H                     4.8326    5.086    -2.2156 
 H                     3.4559    5.9462   -1.4944 
 H                     2.6345    2.5187   -4.0079 
 H                     3.2757    4.0194   -4.6208 
 H                     4.3395    2.9338   -3.7014 
 H                     1.491    -2.1608   -0.0239 
 H                     2.7707   -1.3182   -0.906 
 H                     2.7726   -1.3356    0.8717 
 C                    -0.6769    7.3632   -4.9409 
 H                    -0.5368    7.2469   -6.0204 
 H                    -1.4577    8.1136   -4.7867 
 H                     0.2583    7.7434   -4.5179 
 

 GradGradGradGradGradGradGradGradGradGradGradGradGradGradGradGradGradGrad
 Berny optimization.
 Initialization pass.
                           ----------------------------
                           !    Initial Parameters    !
                           ! (Angstroms and Degrees)  !
 --------------------------                            --------------------------
 ! Name  Definition              Value          Derivative Info.                !
 --------------------------------------------------------------------------------
 ! R1    R(1,2)                  1.3405         estimate D2E/DX2                !
 ! R2    R(1,6)                  1.4935         estimate D2E/DX2                !
 ! R3    R(1,33)                 1.0881         estimate D2E/DX2                !
 ! R4    R(2,3)                  1.5055         estimate D2E/DX2                !
 ! R5    R(2,32)                 1.5024         estimate D2E/DX2                !
 ! R6    R(3,4)                  1.5581         estimate D2E/DX2                !
 ! R7    R(3,20)                 1.5328         estimate D2E/DX2                !
 ! R8    R(3,31)                 1.1006         estimate D2E/DX2                !
 ! R9    R(4,5)                  1.5489         estimate D2E/DX2                !
 ! R10   R(4,7)                  1.5457         estimate D2E/DX2                !
 ! R11   R(4,24)                 1.4584         estimate D2E/DX2                !
 ! R12   R(5,6)                  1.5432         estimate D2E/DX2                !
 ! R13   R(5,10)                 1.5389         estimate D2E/DX2                !
 ! R14   R(5,22)                 1.541          estimate D2E/DX2                !
 ! R15   R(6,34)                 1.0981         estimate D2E/DX2                !
 ! R16   R(6,35)                 1.098          estimate D2E/DX2                !
 ! R17   R(7,8)                  1.4902         estimate D2E/DX2                !
 ! R18   R(7,17)                 1.517          estimate D2E/DX2                !
 ! R19   R(7,21)                 1.42           estimate D2E/DX2                !
 ! R20   R(8,9)                  1.3363         estimate D2E/DX2                !
 ! R21   R(8,19)                 1.3879         estimate D2E/DX2                !
 ! R22   R(9,10)                 1.4807         estimate D2E/DX2                !
 ! R23   R(9,11)                 1.4782         estimate D2E/DX2                !
 ! R24   R(10,16)                1.2297         estimate D2E/DX2                !
 ! R25   R(11,12)                1.2316         estimate D2E/DX2                !
 ! R26   R(11,13)                1.5247         estimate D2E/DX2                !
 ! R27   R(13,14)                1.5357         estimate D2E/DX2                !
 ! R28   R(13,15)                1.5273         estimate D2E/DX2                !
 ! R29   R(13,36)                1.0966         estimate D2E/DX2                !
 ! R30   R(14,37)                1.0971         estimate D2E/DX2                !
 ! R31   R(14,38)                1.0971         estimate D2E/DX2                !
 ! R32   R(14,62)                1.5215         estimate D2E/DX2                !
 ! R33   R(15,39)                1.0941         estimate D2E/DX2                !
 ! R34   R(15,40)                1.0958         estimate D2E/DX2                !
 ! R35   R(15,41)                1.0955         estimate D2E/DX2                !
 ! R36   R(17,18)                1.5401         estimate D2E/DX2                !
 ! R37   R(17,20)                1.5348         estimate D2E/DX2                !
 ! R38   R(17,30)                1.0972         estimate D2E/DX2                !
 ! R39   R(18,19)                1.4483         estimate D2E/DX2                !
 ! R40   R(18,28)                1.5368         estimate D2E/DX2                !
 ! R41   R(18,29)                1.5311         estimate D2E/DX2                !
 ! R42   R(20,42)                1.0972         estimate D2E/DX2                !
 ! R43   R(20,43)                1.0953         estimate D2E/DX2                !
 ! R44   R(21,44)                0.9809         estimate D2E/DX2                !
 ! R45   R(22,23)                1.5178         estimate D2E/DX2                !
 ! R46   R(22,45)                1.0973         estimate D2E/DX2                !
 ! R47   R(22,46)                1.0958         estimate D2E/DX2                !
 ! R48   R(23,24)                1.4321         estimate D2E/DX2                !
 ! R49   R(23,25)                1.5118         estimate D2E/DX2                !
 ! R50   R(23,47)                1.0969         estimate D2E/DX2                !
 ! R51   R(24,44)                1.8657         estimate D2E/DX2                !
 ! R52   R(25,26)                1.5056         estimate D2E/DX2                !
 ! R53   R(25,27)                1.3444         estimate D2E/DX2                !
 ! R54   R(26,48)                1.0949         estimate D2E/DX2                !
 ! R55   R(26,49)                1.0953         estimate D2E/DX2                !
 ! R56   R(26,50)                1.0945         estimate D2E/DX2                !
 ! R57   R(27,51)                1.0858         estimate D2E/DX2                !
 ! R58   R(27,52)                1.0848         estimate D2E/DX2                !
 ! R59   R(28,53)                1.0965         estimate D2E/DX2                !
 ! R60   R(28,54)                1.0948         estimate D2E/DX2                !
 ! R61   R(28,55)                1.0939         estimate D2E/DX2                !
 ! R62   R(29,56)                1.0947         estimate D2E/DX2                !
 ! R63   R(29,57)                1.0965         estimate D2E/DX2                !
 ! R64   R(29,58)                1.0947         estimate D2E/DX2                !
 ! R65   R(32,59)                1.095          estimate D2E/DX2                !
 ! R66   R(32,60)                1.0945         estimate D2E/DX2                !
 ! R67   R(32,61)                1.0948         estimate D2E/DX2                !
 ! R68   R(62,63)                1.0947         estimate D2E/DX2                !
 ! R69   R(62,64)                1.0939         estimate D2E/DX2                !
 ! R70   R(62,65)                1.0946         estimate D2E/DX2                !
 ! A1    A(2,1,6)              122.5874         estimate D2E/DX2                !
 ! A2    A(2,1,33)             120.388          estimate D2E/DX2                !
 ! A3    A(6,1,33)             116.9235         estimate D2E/DX2                !
 ! A4    A(1,2,3)              121.2216         estimate D2E/DX2                !
 ! A5    A(1,2,32)             121.9213         estimate D2E/DX2                !
 ! A6    A(3,2,32)             116.8535         estimate D2E/DX2                !
 ! A7    A(2,3,4)              116.2716         estimate D2E/DX2                !
 ! A8    A(2,3,20)             112.6913         estimate D2E/DX2                !
 ! A9    A(2,3,31)             107.2901         estimate D2E/DX2                !
 ! A10   A(4,3,20)             104.6604         estimate D2E/DX2                !
 ! A11   A(4,3,31)             107.6893         estimate D2E/DX2                !
 ! A12   A(20,3,31)            107.8923         estimate D2E/DX2                !
 ! A13   A(3,4,5)              117.4635         estimate D2E/DX2                !
 ! A14   A(3,4,7)              104.247          estimate D2E/DX2                !
 ! A15   A(3,4,24)             106.6331         estimate D2E/DX2                !
 ! A16   A(5,4,7)              115.2031         estimate D2E/DX2                !
 ! A17   A(5,4,24)             105.6574         estimate D2E/DX2                !
 ! A18   A(7,4,24)             106.9598         estimate D2E/DX2                !
 ! A19   A(4,5,6)              114.4744         estimate D2E/DX2                !
 ! A20   A(4,5,10)             112.525          estimate D2E/DX2                !
 ! A21   A(4,5,22)             103.6105         estimate D2E/DX2                !
 ! A22   A(6,5,10)             105.0169         estimate D2E/DX2                !
 ! A23   A(6,5,22)             111.5103         estimate D2E/DX2                !
 ! A24   A(10,5,22)            109.8118         estimate D2E/DX2                !
 ! A25   A(1,6,5)              114.7207         estimate D2E/DX2                !
 ! A26   A(1,6,34)             108.6454         estimate D2E/DX2                !
 ! A27   A(1,6,35)             107.0214         estimate D2E/DX2                !
 ! A28   A(5,6,34)             109.3592         estimate D2E/DX2                !
 ! A29   A(5,6,35)             111.4735         estimate D2E/DX2                !
 ! A30   A(34,6,35)            105.147          estimate D2E/DX2                !
 ! A31   A(4,7,8)              115.3634         estimate D2E/DX2                !
 ! A32   A(4,7,17)             107.9743         estimate D2E/DX2                !
 ! A33   A(4,7,21)             112.0559         estimate D2E/DX2                !
 ! A34   A(8,7,17)             100.472          estimate D2E/DX2                !
 ! A35   A(8,7,21)             108.6011         estimate D2E/DX2                !
 ! A36   A(17,7,21)            111.8542         estimate D2E/DX2                !
 ! A37   A(7,8,9)              122.8539         estimate D2E/DX2                !
 ! A38   A(7,8,19)             113.5345         estimate D2E/DX2                !
 ! A39   A(9,8,19)             123.2425         estimate D2E/DX2                !
 ! A40   A(8,9,10)             116.5012         estimate D2E/DX2                !
 ! A41   A(8,9,11)             121.8583         estimate D2E/DX2                !
 ! A42   A(10,9,11)            121.3128         estimate D2E/DX2                !
 ! A43   A(5,10,9)             117.5959         estimate D2E/DX2                !
 ! A44   A(5,10,16)            122.5957         estimate D2E/DX2                !
 ! A45   A(9,10,16)            119.591          estimate D2E/DX2                !
 ! A46   A(9,11,12)            119.0605         estimate D2E/DX2                !
 ! A47   A(9,11,13)            118.2512         estimate D2E/DX2                !
 ! A48   A(12,11,13)           122.6757         estimate D2E/DX2                !
 ! A49   A(11,13,14)           109.3248         estimate D2E/DX2                !
 ! A50   A(11,13,15)           108.4474         estimate D2E/DX2                !
 ! A51   A(11,13,36)           109.0639         estimate D2E/DX2                !
 ! A52   A(14,13,15)           112.7941         estimate D2E/DX2                !
 ! A53   A(14,13,36)           109.0391         estimate D2E/DX2                !
 ! A54   A(15,13,36)           108.1059         estimate D2E/DX2                !
 ! A55   A(13,14,37)           109.4679         estimate D2E/DX2                !
 ! A56   A(13,14,38)           110.3014         estimate D2E/DX2                !
 ! A57   A(13,14,62)           113.0999         estimate D2E/DX2                !
 ! A58   A(37,14,38)           106.1806         estimate D2E/DX2                !
 ! A59   A(37,14,62)           108.3664         estimate D2E/DX2                !
 ! A60   A(38,14,62)           109.173          estimate D2E/DX2                !
 ! A61   A(13,15,39)           111.3267         estimate D2E/DX2                !
 ! A62   A(13,15,40)           110.7567         estimate D2E/DX2                !
 ! A63   A(13,15,41)           111.3674         estimate D2E/DX2                !
 ! A64   A(39,15,40)           107.6281         estimate D2E/DX2                !
 ! A65   A(39,15,41)           108.1986         estimate D2E/DX2                !
 ! A66   A(40,15,41)           107.3913         estimate D2E/DX2                !
 ! A67   A(7,17,18)            103.2241         estimate D2E/DX2                !
 ! A68   A(7,17,20)            102.4787         estimate D2E/DX2                !
 ! A69   A(7,17,30)            112.7132         estimate D2E/DX2                !
 ! A70   A(18,17,20)           116.4768         estimate D2E/DX2                !
 ! A71   A(18,17,30)           111.5522         estimate D2E/DX2                !
 ! A72   A(20,17,30)           109.9271         estimate D2E/DX2                !
 ! A73   A(17,18,19)           106.281          estimate D2E/DX2                !
 ! A74   A(17,18,28)           112.291          estimate D2E/DX2                !
 ! A75   A(17,18,29)           113.5912         estimate D2E/DX2                !
 ! A76   A(19,18,28)           107.6998         estimate D2E/DX2                !
 ! A77   A(19,18,29)           108.1473         estimate D2E/DX2                !
 ! A78   A(28,18,29)           108.5755         estimate D2E/DX2                !
 ! A79   A(8,19,18)            106.4839         estimate D2E/DX2                !
 ! A80   A(3,20,17)            103.205          estimate D2E/DX2                !
 ! A81   A(3,20,42)            110.4936         estimate D2E/DX2                !
 ! A82   A(3,20,43)            112.0158         estimate D2E/DX2                !
 ! A83   A(17,20,42)           112.1508         estimate D2E/DX2                !
 ! A84   A(17,20,43)           111.3039         estimate D2E/DX2                !
 ! A85   A(42,20,43)           107.7106         estimate D2E/DX2                !
 ! A86   A(7,21,44)            105.5786         estimate D2E/DX2                !
 ! A87   A(5,22,23)            105.2431         estimate D2E/DX2                !
 ! A88   A(5,22,45)            111.1481         estimate D2E/DX2                !
 ! A89   A(5,22,46)            113.5538         estimate D2E/DX2                !
 ! A90   A(23,22,45)           109.3505         estimate D2E/DX2                !
 ! A91   A(23,22,46)           111.0659         estimate D2E/DX2                !
 ! A92   A(45,22,46)           106.4941         estimate D2E/DX2                !
 ! A93   A(22,23,24)           103.8598         estimate D2E/DX2                !
 ! A94   A(22,23,25)           113.8716         estimate D2E/DX2                !
 ! A95   A(22,23,47)           110.8953         estimate D2E/DX2                !
 ! A96   A(24,23,25)           111.5853         estimate D2E/DX2                !
 ! A97   A(24,23,47)           107.6914         estimate D2E/DX2                !
 ! A98   A(25,23,47)           108.7284         estimate D2E/DX2                !
 ! A99   A(4,24,23)            107.1819         estimate D2E/DX2                !
 ! A100  A(23,25,26)           115.3433         estimate D2E/DX2                !
 ! A101  A(23,25,27)           124.2194         estimate D2E/DX2                !
 ! A102  A(26,25,27)           120.4279         estimate D2E/DX2                !
 ! A103  A(25,26,48)           110.2603         estimate D2E/DX2                !
 ! A104  A(25,26,49)           112.169          estimate D2E/DX2                !
 ! A105  A(25,26,50)           110.6073         estimate D2E/DX2                !
 ! A106  A(48,26,49)           107.5386         estimate D2E/DX2                !
 ! A107  A(48,26,50)           108.575          estimate D2E/DX2                !
 ! A108  A(49,26,50)           107.5543         estimate D2E/DX2                !
 ! A109  A(25,27,51)           121.5106         estimate D2E/DX2                !
 ! A110  A(25,27,52)           122.025          estimate D2E/DX2                !
 ! A111  A(51,27,52)           116.4644         estimate D2E/DX2                !
 ! A112  A(18,28,53)           110.5909         estimate D2E/DX2                !
 ! A113  A(18,28,54)           111.3273         estimate D2E/DX2                !
 ! A114  A(18,28,55)           112.2008         estimate D2E/DX2                !
 ! A115  A(53,28,54)           108.3647         estimate D2E/DX2                !
 ! A116  A(53,28,55)           105.6209         estimate D2E/DX2                !
 ! A117  A(54,28,55)           108.5036         estimate D2E/DX2                !
 ! A118  A(18,29,56)           111.8218         estimate D2E/DX2                !
 ! A119  A(18,29,57)           110.688          estimate D2E/DX2                !
 ! A120  A(18,29,58)           111.4435         estimate D2E/DX2                !
 ! A121  A(56,29,57)           105.418          estimate D2E/DX2                !
 ! A122  A(56,29,58)           108.9047         estimate D2E/DX2                !
 ! A123  A(57,29,58)           108.3293         estimate D2E/DX2                !
 ! A124  A(2,32,59)            112.0625         estimate D2E/DX2                !
 ! A125  A(2,32,60)            110.443          estimate D2E/DX2                !
 ! A126  A(2,32,61)            110.2557         estimate D2E/DX2                !
 ! A127  A(59,32,60)           107.6935         estimate D2E/DX2                !
 ! A128  A(59,32,61)           107.6736         estimate D2E/DX2                !
 ! A129  A(60,32,61)           108.5898         estimate D2E/DX2                !
 ! A130  A(14,62,63)           110.0493         estimate D2E/DX2                !
 ! A131  A(14,62,64)           111.5323         estimate D2E/DX2                !
 ! A132  A(14,62,65)           111.0118         estimate D2E/DX2                !
 ! A133  A(63,62,64)           107.6518         estimate D2E/DX2                !
 ! A134  A(63,62,65)           107.9767         estimate D2E/DX2                !
 ! A135  A(64,62,65)           108.4882         estimate D2E/DX2                !
 ! D1    D(6,1,2,3)              1.9308         estimate D2E/DX2                !
 ! D2    D(6,1,2,32)          -177.3458         estimate D2E/DX2                !
 ! D3    D(33,1,2,3)           178.1622         estimate D2E/DX2                !
 ! D4    D(33,1,2,32)           -1.1144         estimate D2E/DX2                !
 ! D5    D(2,1,6,5)            -33.0967         estimate D2E/DX2                !
 ! D6    D(2,1,6,34)          -155.8138         estimate D2E/DX2                !
 ! D7    D(2,1,6,35)            91.1259         estimate D2E/DX2                !
 ! D8    D(33,1,6,5)           150.5492         estimate D2E/DX2                !
 ! D9    D(33,1,6,34)           27.8321         estimate D2E/DX2                !
 ! D10   D(33,1,6,35)          -85.2282         estimate D2E/DX2                !
 ! D11   D(1,2,3,4)             22.9096         estimate D2E/DX2                !
 ! D12   D(1,2,3,20)           -97.9088         estimate D2E/DX2                !
 ! D13   D(1,2,3,31)           143.4765         estimate D2E/DX2                !
 ! D14   D(32,2,3,4)          -157.7786         estimate D2E/DX2                !
 ! D15   D(32,2,3,20)           81.403          estimate D2E/DX2                !
 ! D16   D(32,2,3,31)          -37.2118         estimate D2E/DX2                !
 ! D17   D(1,2,32,59)           -0.191          estimate D2E/DX2                !
 ! D18   D(1,2,32,60)          119.8788         estimate D2E/DX2                !
 ! D19   D(1,2,32,61)         -120.1078         estimate D2E/DX2                !
 ! D20   D(3,2,32,59)         -179.4976         estimate D2E/DX2                !
 ! D21   D(3,2,32,60)          -59.4278         estimate D2E/DX2                !
 ! D22   D(3,2,32,61)           60.5856         estimate D2E/DX2                !
 ! D23   D(2,3,4,5)            -15.5061         estimate D2E/DX2                !
 ! D24   D(2,3,4,7)           -144.3436         estimate D2E/DX2                !
 ! D25   D(2,3,4,24)           102.7048         estimate D2E/DX2                !
 ! D26   D(20,3,4,5)           109.5105         estimate D2E/DX2                !
 ! D27   D(20,3,4,7)           -19.327          estimate D2E/DX2                !
 ! D28   D(20,3,4,24)         -132.2786         estimate D2E/DX2                !
 ! D29   D(31,3,4,5)          -135.8591         estimate D2E/DX2                !
 ! D30   D(31,3,4,7)            95.3034         estimate D2E/DX2                !
 ! D31   D(31,3,4,24)          -17.6482         estimate D2E/DX2                !
 ! D32   D(2,3,20,17)          165.1356         estimate D2E/DX2                !
 ! D33   D(2,3,20,42)           45.0594         estimate D2E/DX2                !
 ! D34   D(2,3,20,43)          -75.0356         estimate D2E/DX2                !
 ! D35   D(4,3,20,17)           37.8857         estimate D2E/DX2                !
 ! D36   D(4,3,20,42)          -82.1905         estimate D2E/DX2                !
 ! D37   D(4,3,20,43)          157.7145         estimate D2E/DX2                !
 ! D38   D(31,3,20,17)         -76.6022         estimate D2E/DX2                !
 ! D39   D(31,3,20,42)         163.3216         estimate D2E/DX2                !
 ! D40   D(31,3,20,43)          43.2266         estimate D2E/DX2                !
 ! D41   D(3,4,5,6)            -13.6545         estimate D2E/DX2                !
 ! D42   D(3,4,5,10)          -133.4544         estimate D2E/DX2                !
 ! D43   D(3,4,5,22)           107.9948         estimate D2E/DX2                !
 ! D44   D(7,4,5,6)            109.7918         estimate D2E/DX2                !
 ! D45   D(7,4,5,10)           -10.0081         estimate D2E/DX2                !
 ! D46   D(7,4,5,22)          -128.5589         estimate D2E/DX2                !
 ! D47   D(24,4,5,6)          -132.3863         estimate D2E/DX2                !
 ! D48   D(24,4,5,10)          107.8138         estimate D2E/DX2                !
 ! D49   D(24,4,5,22)          -10.737          estimate D2E/DX2                !
 ! D50   D(3,4,7,8)            104.8949         estimate D2E/DX2                !
 ! D51   D(3,4,7,17)            -6.5286         estimate D2E/DX2                !
 ! D52   D(3,4,7,21)          -130.1492         estimate D2E/DX2                !
 ! D53   D(5,4,7,8)            -25.2992         estimate D2E/DX2                !
 ! D54   D(5,4,7,17)          -136.7226         estimate D2E/DX2                !
 ! D55   D(5,4,7,21)            99.6568         estimate D2E/DX2                !
 ! D56   D(24,4,7,8)          -142.3877         estimate D2E/DX2                !
 ! D57   D(24,4,7,17)          106.1889         estimate D2E/DX2                !
 ! D58   D(24,4,7,21)          -17.4317         estimate D2E/DX2                !
 ! D59   D(3,4,24,23)          -94.0888         estimate D2E/DX2                !
 ! D60   D(5,4,24,23)           31.6158         estimate D2E/DX2                !
 ! D61   D(7,4,24,23)          154.8335         estimate D2E/DX2                !
 ! D62   D(4,5,6,1)             37.0396         estimate D2E/DX2                !
 ! D63   D(4,5,6,34)           159.3712         estimate D2E/DX2                !
 ! D64   D(4,5,6,35)           -84.7907         estimate D2E/DX2                !
 ! D65   D(10,5,6,1)           160.9503         estimate D2E/DX2                !
 ! D66   D(10,5,6,34)          -76.7181         estimate D2E/DX2                !
 ! D67   D(10,5,6,35)           39.12           estimate D2E/DX2                !
 ! D68   D(22,5,6,1)           -80.1738         estimate D2E/DX2                !
 ! D69   D(22,5,6,34)           42.1578         estimate D2E/DX2                !
 ! D70   D(22,5,6,35)          157.9959         estimate D2E/DX2                !
 ! D71   D(4,5,10,9)            41.9867         estimate D2E/DX2                !
 ! D72   D(4,5,10,16)         -143.3989         estimate D2E/DX2                !
 ! D73   D(6,5,10,9)           -83.1561         estimate D2E/DX2                !
 ! D74   D(6,5,10,16)           91.4583         estimate D2E/DX2                !
 ! D75   D(22,5,10,9)          156.8332         estimate D2E/DX2                !
 ! D76   D(22,5,10,16)         -28.5524         estimate D2E/DX2                !
 ! D77   D(4,5,22,23)          -12.1649         estimate D2E/DX2                !
 ! D78   D(4,5,22,45)          106.1059         estimate D2E/DX2                !
 ! D79   D(4,5,22,46)         -133.8466         estimate D2E/DX2                !
 ! D80   D(6,5,22,23)          111.4489         estimate D2E/DX2                !
 ! D81   D(6,5,22,45)         -130.2803         estimate D2E/DX2                !
 ! D82   D(6,5,22,46)          -10.2328         estimate D2E/DX2                !
 ! D83   D(10,5,22,23)        -132.5745         estimate D2E/DX2                !
 ! D84   D(10,5,22,45)         -14.3037         estimate D2E/DX2                !
 ! D85   D(10,5,22,46)         105.7438         estimate D2E/DX2                !
 ! D86   D(4,7,8,9)             34.9535         estimate D2E/DX2                !
 ! D87   D(4,7,8,19)          -138.2721         estimate D2E/DX2                !
 ! D88   D(17,7,8,9)           150.7333         estimate D2E/DX2                !
 ! D89   D(17,7,8,19)          -22.4922         estimate D2E/DX2                !
 ! D90   D(21,7,8,9)           -91.7748         estimate D2E/DX2                !
 ! D91   D(21,7,8,19)           94.9997         estimate D2E/DX2                !
 ! D92   D(4,7,17,18)          151.0482         estimate D2E/DX2                !
 ! D93   D(4,7,17,20)           29.6444         estimate D2E/DX2                !
 ! D94   D(4,7,17,30)          -88.4582         estimate D2E/DX2                !
 ! D95   D(8,7,17,18)           29.8547         estimate D2E/DX2                !
 ! D96   D(8,7,17,20)          -91.5491         estimate D2E/DX2                !
 ! D97   D(8,7,17,30)          150.3484         estimate D2E/DX2                !
 ! D98   D(21,7,17,18)         -85.2092         estimate D2E/DX2                !
 ! D99   D(21,7,17,20)         153.387          estimate D2E/DX2                !
 ! D100  D(21,7,17,30)          35.2845         estimate D2E/DX2                !
 ! D101  D(4,7,21,44)           18.8421         estimate D2E/DX2                !
 ! D102  D(8,7,21,44)          147.4522         estimate D2E/DX2                !
 ! D103  D(17,7,21,44)        -102.5731         estimate D2E/DX2                !
 ! D104  D(7,8,9,10)            -3.5487         estimate D2E/DX2                !
 ! D105  D(7,8,9,11)          -177.054          estimate D2E/DX2                !
 ! D106  D(19,8,9,10)          169.0216         estimate D2E/DX2                !
 ! D107  D(19,8,9,11)           -4.4838         estimate D2E/DX2                !
 ! D108  D(7,8,19,18)            4.2974         estimate D2E/DX2                !
 ! D109  D(9,8,19,18)         -168.898          estimate D2E/DX2                !
 ! D110  D(8,9,10,5)           -36.5149         estimate D2E/DX2                !
 ! D111  D(8,9,10,16)          148.7026         estimate D2E/DX2                !
 ! D112  D(11,9,10,5)          137.0286         estimate D2E/DX2                !
 ! D113  D(11,9,10,16)         -37.754          estimate D2E/DX2                !
 ! D114  D(8,9,11,12)          120.2882         estimate D2E/DX2                !
 ! D115  D(8,9,11,13)          -60.9681         estimate D2E/DX2                !
 ! D116  D(10,9,11,12)         -52.9072         estimate D2E/DX2                !
 ! D117  D(10,9,11,13)         125.8364         estimate D2E/DX2                !
 ! D118  D(9,11,13,14)         126.9259         estimate D2E/DX2                !
 ! D119  D(9,11,13,15)        -109.723          estimate D2E/DX2                !
 ! D120  D(9,11,13,36)           7.7864         estimate D2E/DX2                !
 ! D121  D(12,11,13,14)        -54.3788         estimate D2E/DX2                !
 ! D122  D(12,11,13,15)         68.9723         estimate D2E/DX2                !
 ! D123  D(12,11,13,36)       -173.5183         estimate D2E/DX2                !
 ! D124  D(11,13,14,37)        -49.3919         estimate D2E/DX2                !
 ! D125  D(11,13,14,38)         67.0896         estimate D2E/DX2                !
 ! D126  D(11,13,14,62)       -170.3296         estimate D2E/DX2                !
 ! D127  D(15,13,14,37)       -170.1292         estimate D2E/DX2                !
 ! D128  D(15,13,14,38)        -53.6477         estimate D2E/DX2                !
 ! D129  D(15,13,14,62)         68.9331         estimate D2E/DX2                !
 ! D130  D(36,13,14,37)         69.7629         estimate D2E/DX2                !
 ! D131  D(36,13,14,38)       -173.7556         estimate D2E/DX2                !
 ! D132  D(36,13,14,62)        -51.1748         estimate D2E/DX2                !
 ! D133  D(11,13,15,39)        173.4608         estimate D2E/DX2                !
 ! D134  D(11,13,15,40)         53.7492         estimate D2E/DX2                !
 ! D135  D(11,13,15,41)        -65.691          estimate D2E/DX2                !
 ! D136  D(14,13,15,39)        -65.3021         estimate D2E/DX2                !
 ! D137  D(14,13,15,40)        174.9863         estimate D2E/DX2                !
 ! D138  D(14,13,15,41)         55.5461         estimate D2E/DX2                !
 ! D139  D(36,13,15,39)         55.3408         estimate D2E/DX2                !
 ! D140  D(36,13,15,40)        -64.3707         estimate D2E/DX2                !
 ! D141  D(36,13,15,41)        176.189          estimate D2E/DX2                !
 ! D142  D(13,14,62,63)        175.9273         estimate D2E/DX2                !
 ! D143  D(13,14,62,64)        -64.666          estimate D2E/DX2                !
 ! D144  D(13,14,62,65)         56.4474         estimate D2E/DX2                !
 ! D145  D(37,14,62,63)         54.3676         estimate D2E/DX2                !
 ! D146  D(37,14,62,64)        173.7743         estimate D2E/DX2                !
 ! D147  D(37,14,62,65)        -65.1123         estimate D2E/DX2                !
 ! D148  D(38,14,62,63)        -60.8659         estimate D2E/DX2                !
 ! D149  D(38,14,62,64)         58.5408         estimate D2E/DX2                !
 ! D150  D(38,14,62,65)        179.6542         estimate D2E/DX2                !
 ! D151  D(7,17,18,19)         -29.5181         estimate D2E/DX2                !
 ! D152  D(7,17,18,28)          88.0008         estimate D2E/DX2                !
 ! D153  D(7,17,18,29)        -148.3087         estimate D2E/DX2                !
 ! D154  D(20,17,18,19)         81.8904         estimate D2E/DX2                !
 ! D155  D(20,17,18,28)       -160.5906         estimate D2E/DX2                !
 ! D156  D(20,17,18,29)        -36.9002         estimate D2E/DX2                !
 ! D157  D(30,17,18,19)       -150.8011         estimate D2E/DX2                !
 ! D158  D(30,17,18,28)        -33.2822         estimate D2E/DX2                !
 ! D159  D(30,17,18,29)         90.4083         estimate D2E/DX2                !
 ! D160  D(7,17,20,3)          -41.4289         estimate D2E/DX2                !
 ! D161  D(7,17,20,42)          77.5041         estimate D2E/DX2                !
 ! D162  D(7,17,20,43)        -161.746          estimate D2E/DX2                !
 ! D163  D(18,17,20,3)        -153.2664         estimate D2E/DX2                !
 ! D164  D(18,17,20,42)        -34.3334         estimate D2E/DX2                !
 ! D165  D(18,17,20,43)         86.4165         estimate D2E/DX2                !
 ! D166  D(30,17,20,3)          78.6291         estimate D2E/DX2                !
 ! D167  D(30,17,20,42)       -162.4379         estimate D2E/DX2                !
 ! D168  D(30,17,20,43)        -41.688          estimate D2E/DX2                !
 ! D169  D(17,18,19,8)          15.9608         estimate D2E/DX2                !
 ! D170  D(28,18,19,8)        -104.5699         estimate D2E/DX2                !
 ! D171  D(29,18,19,8)         138.2694         estimate D2E/DX2                !
 ! D172  D(17,18,28,53)       -177.6835         estimate D2E/DX2                !
 ! D173  D(17,18,28,54)         61.7864         estimate D2E/DX2                !
 ! D174  D(17,18,28,55)        -60.0378         estimate D2E/DX2                !
 ! D175  D(19,18,28,53)        -61.0119         estimate D2E/DX2                !
 ! D176  D(19,18,28,54)        178.458          estimate D2E/DX2                !
 ! D177  D(19,18,28,55)         56.6338         estimate D2E/DX2                !
 ! D178  D(29,18,28,53)         55.8701         estimate D2E/DX2                !
 ! D179  D(29,18,28,54)        -64.66           estimate D2E/DX2                !
 ! D180  D(29,18,28,55)        173.5159         estimate D2E/DX2                !
 ! D181  D(17,18,29,56)         64.3798         estimate D2E/DX2                !
 ! D182  D(17,18,29,57)       -178.4054         estimate D2E/DX2                !
 ! D183  D(17,18,29,58)        -57.7765         estimate D2E/DX2                !
 ! D184  D(19,18,29,56)        -53.3347         estimate D2E/DX2                !
 ! D185  D(19,18,29,57)         63.8801         estimate D2E/DX2                !
 ! D186  D(19,18,29,58)       -175.491          estimate D2E/DX2                !
 ! D187  D(28,18,29,56)       -169.9295         estimate D2E/DX2                !
 ! D188  D(28,18,29,57)        -52.7147         estimate D2E/DX2                !
 ! D189  D(28,18,29,58)         67.9143         estimate D2E/DX2                !
 ! D190  D(5,22,23,24)          31.2833         estimate D2E/DX2                !
 ! D191  D(5,22,23,25)         152.8543         estimate D2E/DX2                !
 ! D192  D(5,22,23,47)         -84.1356         estimate D2E/DX2                !
 ! D193  D(45,22,23,24)        -88.1902         estimate D2E/DX2                !
 ! D194  D(45,22,23,25)         33.3808         estimate D2E/DX2                !
 ! D195  D(45,22,23,47)        156.3909         estimate D2E/DX2                !
 ! D196  D(46,22,23,24)        154.5686         estimate D2E/DX2                !
 ! D197  D(46,22,23,25)        -83.8605         estimate D2E/DX2                !
 ! D198  D(46,22,23,47)         39.1497         estimate D2E/DX2                !
 ! D199  D(22,23,24,4)         -39.4055         estimate D2E/DX2                !
 ! D200  D(25,23,24,4)        -162.49           estimate D2E/DX2                !
 ! D201  D(47,23,24,4)          78.2591         estimate D2E/DX2                !
 ! D202  D(22,23,25,26)         67.2195         estimate D2E/DX2                !
 ! D203  D(22,23,25,27)       -113.8973         estimate D2E/DX2                !
 ! D204  D(24,23,25,26)       -175.5998         estimate D2E/DX2                !
 ! D205  D(24,23,25,27)          3.2833         estimate D2E/DX2                !
 ! D206  D(47,23,25,26)        -56.9658         estimate D2E/DX2                !
 ! D207  D(47,23,25,27)        121.9173         estimate D2E/DX2                !
 ! D208  D(23,25,26,48)         56.6597         estimate D2E/DX2                !
 ! D209  D(23,25,26,49)        176.4791         estimate D2E/DX2                !
 ! D210  D(23,25,26,50)        -63.4438         estimate D2E/DX2                !
 ! D211  D(27,25,26,48)       -122.2693         estimate D2E/DX2                !
 ! D212  D(27,25,26,49)         -2.4499         estimate D2E/DX2                !
 ! D213  D(27,25,26,50)        117.6272         estimate D2E/DX2                !
 ! D214  D(23,25,27,51)       -179.5249         estimate D2E/DX2                !
 ! D215  D(23,25,27,52)          0.5173         estimate D2E/DX2                !
 ! D216  D(26,25,27,51)         -0.6955         estimate D2E/DX2                !
 ! D217  D(26,25,27,52)        179.3467         estimate D2E/DX2                !
 --------------------------------------------------------------------------------
 Trust Radius=3.00D-01 FncErr=1.00D-07 GrdErr=1.00D-06
 Number of steps in this run=    390 maximum allowed number of steps=    390.
 GradGradGradGradGradGradGradGradGradGradGradGradGradGradGradGradGradGrad

 Stoichiometry    C26H34O5
 Framework group  C1[X(C26H34O5)]
 Deg. of freedom   189
 Full point group                 C1      NOp   1
 Largest Abelian subgroup         C1      NOp   1
 Largest concise Abelian subgroup C1      NOp   1
                         Standard orientation:                         
 ---------------------------------------------------------------------
 Center     Atomic      Atomic             Coordinates (Angstroms)
 Number     Number       Type             X           Y           Z
 ---------------------------------------------------------------------
      1          6           0       -2.108808    0.504406    2.734433
      2          6           0       -2.353101    1.587586    1.983446
      3          6           0       -1.778849    1.722527    0.598272
      4          6           0       -1.384882    0.395649   -0.117275
      5          6           0       -1.264404   -0.878170    0.755662
      6          6           0       -1.227954   -0.610859    2.275142
      7          6           0       -0.119684    0.761045   -0.926613
      8          6           0        1.165599    0.260123   -0.362730
      9          6           0        1.271977   -0.912708    0.268828
     10          6           0        0.017844   -1.676126    0.460319
     11          6           0        2.543621   -1.359524    0.875739
     12          8           0        2.580841   -1.590195    2.084932
     13          6           0        3.752521   -1.543530   -0.034951
     14          6           0        4.937381   -0.743264    0.525390
     15          6           0        4.048652   -3.037506   -0.149124
     16          8           0        0.051472   -2.905313    0.475558
     17          6           0        0.093607    2.258541   -0.811178
     18          6           0        1.620273    2.408526   -0.947776
     19          8           0        2.196664    1.187167   -0.424688
     20          6           0       -0.504322    2.573439    0.566862
     21          8           0       -0.213676    0.343314   -2.280552
     22          6           0       -2.499862   -1.708810    0.357536
     23          6           0       -3.376132   -0.762352   -0.442549
     24          8           0       -2.440581    0.112695   -1.082859
     25          6           0       -4.266956   -1.455929   -1.448023
     26          6           0       -5.352179   -2.318455   -0.860559
     27          6           0       -4.149606   -1.322732   -2.780617
     28          6           0        2.063893    2.544452   -2.412911
     29          6           0        2.193906    3.584946   -0.153354
     30          1           0       -0.437916    2.823246   -1.587342
     31          1           0       -2.536243    2.224994   -0.022292
     32          6           0       -3.194393    2.727557    2.483352
     33          1           0       -2.506140    0.434227    3.744918
     34          1           0       -1.510797   -1.525735    2.812577
     35          1           0       -0.210913   -0.379343    2.618267
     36          1           0        3.507843   -1.167176   -1.035436
     37          1           0        4.613583    0.280692    0.749778
     38          1           0        5.271290   -1.173920    1.477608
     39          1           0        4.836263   -3.232079   -0.883213
     40          1           0        3.155608   -3.587248   -0.466970
     41          1           0        4.365984   -3.456142    0.812258
     42          1           0        0.168626    2.287607    1.384915
     43          1           0       -0.721279    3.641871    0.671777
     44          1           0       -1.169783    0.199519   -2.446112
     45          1           0       -2.217154   -2.562158   -0.271783
     46          1           0       -3.044931   -2.121007    1.214080
     47          1           0       -4.001852   -0.153215    0.221179
     48          1           0       -5.981886   -1.728767   -0.186280
     49          1           0       -6.003130   -2.745557   -1.630936
     50          1           0       -4.919735   -3.150147   -0.295524
     51          1           0       -4.819500   -1.836504   -3.463495
     52          1           0       -3.384237   -0.699991   -3.231290
     53          1           0        3.156440    2.608095   -2.480706
     54          1           0        1.636795    3.439390   -2.876862
     55          1           0        1.781748    1.674191   -3.012649
     56          1           0        2.061603    3.450836    0.925035
     57          1           0        3.276698    3.664536   -0.306534
     58          1           0        1.733423    4.532064   -0.452106
     59          1           0       -3.563603    2.551709    3.499174
     60          1           0       -2.612870    3.654744    2.496613
     61          1           0       -4.063949    2.870231    1.833716
     62          6           0        6.117271   -0.673866   -0.432696
     63          1           0        6.902091   -0.034496   -0.015879
     64          1           0        6.552151   -1.662435   -0.606299
     65          1           0        5.815520   -0.253185   -1.397088
 ---------------------------------------------------------------------
 Rotational constants (GHZ):      0.2257327      0.1177339      0.1040514
 Standard basis: 6-31G(d) (6D, 7F)
 There are   533 symmetry adapted basis functions of A   symmetry.
 Integral buffers will be    131072 words long.
 Raffenetti 2 integral format.
 Two-electron integral symmetry is turned on.
   533 basis functions,  1004 primitive gaussians,   533 cartesian basis functions
   115 alpha electrons      115 beta electrons
       nuclear repulsion energy      3493.7859237898 Hartrees.
 NAtoms=   65 NActive=   65 NUniq=   65 SFac= 1.00D+00 NAtFMM=   50 NAOKFM=T Big=T
 One-electron integrals computed using PRISM.
 NBasis=   533 RedAO= T  NBF=   533
 NBsUse=   533 1.00D-06 NBFU=   533
 Harris functional with IExCor=  402 diagonalized for initial guess.
 ExpMin= 1.61D-01 ExpMax= 5.48D+03 ExpMxC= 8.25D+02 IAcc=1 IRadAn=         1 AccDes= 0.00D+00
 HarFok:  IExCor=  402 AccDes= 0.00D+00 IRadAn=         1 IDoV= 1
 ScaDFX=  1.000000  1.000000  1.000000  1.000000
 FoFCou: FMM=F IPFlag=           0 FMFlag=      100000 FMFlg1=        2001
         NFxFlg=           0 DoJE=T BraDBF=F KetDBF=T FulRan=T
         Omega=  0.000000  0.000000  1.000000  0.000000  0.000000 ICntrl=     500 IOpCl=  0
         NMat0=    1 NMatS0=    1 NMatT0=    0 NMatD0=    1 NMtDS0=    0 NMtDT0=    0
         I1Cent=           4 NGrid=           0.
 Petite list used in FoFCou.
 Initial guess orbital symmetries:
       Occupied  (A) (A) (A) (A) (A) (A) (A) (A) (A) (A) (A) (A)
                 (A) (A) (A) (A) (A) (A) (A) (A) (A) (A) (A) (A)
                 (A) (A) (A) (A) (A) (A) (A) (A) (A) (A) (A) (A)
                 (A) (A) (A) (A) (A) (A) (A) (A) (A) (A) (A) (A)
                 (A) (A) (A) (A) (A) (A) (A) (A) (A) (A) (A) (A)
                 (A) (A) (A) (A) (A) (A) (A) (A) (A) (A) (A) (A)
                 (A) (A) (A) (A) (A) (A) (A) (A) (A) (A) (A) (A)
                 (A) (A) (A) (A) (A) (A) (A) (A) (A) (A) (A) (A)
                 (A) (A) (A) (A) (A) (A) (A) (A) (A) (A) (A) (A)
                 (A) (A) (A) (A) (A) (A) (A)
       Virtual   (A) (A) (A) (A) (A) (A) (A) (A) (A) (A) (A) (A)
                 (A) (A) (A) (A) (A) (A) (A) (A) (A) (A) (A) (A)
                 (A) (A) (A) (A) (A) (A) (A) (A) (A) (A) (A) (A)
                 (A) (A) (A) (A) (A) (A) (A) (A) (A) (A) (A) (A)
                 (A) (A) (A) (A) (A) (A) (A) (A) (A) (A) (A) (A)
                 (A) (A) (A) (A) (A) (A) (A) (A) (A) (A) (A) (A)
                 (A) (A) (A) (A) (A) (A) (A) (A) (A) (A) (A) (A)
                 (A) (A) (A) (A) (A) (A) (A) (A) (A) (A) (A) (A)
                 (A) (A) (A) (A) (A) (A) (A) (A) (A) (A) (A) (A)
                 (A) (A) (A) (A) (A) (A) (A) (A) (A) (A) (A) (A)
                 (A) (A) (A) (A) (A) (A) (A) (A) (A) (A) (A) (A)
                 (A) (A) (A) (A) (A) (A) (A) (A) (A) (A) (A) (A)
                 (A) (A) (A) (A) (A) (A) (A) (A) (A) (A) (A) (A)
                 (A) (A) (A) (A) (A) (A) (A) (A) (A) (A) (A) (A)
                 (A) (A) (A) (A) (A) (A) (A) (A) (A) (A) (A) (A)
                 (A) (A) (A) (A) (A) (A) (A) (A) (A) (A) (A) (A)
                 (A) (A) (A) (A) (A) (A) (A) (A) (A) (A) (A) (A)
                 (A) (A) (A) (A) (A) (A) (A) (A) (A) (A) (A) (A)
                 (A) (A) (A) (A) (A) (A) (A) (A) (A) (A) (A) (A)
                 (A) (A) (A) (A) (A) (A) (A) (A) (A) (A) (A) (A)
                 (A) (A) (A) (A) (A) (A) (A) (A) (A) (A) (A) (A)
                 (A) (A) (A) (A) (A) (A) (A) (A) (A) (A) (A) (A)
                 (A) (A) (A) (A) (A) (A) (A) (A) (A) (A) (A) (A)
                 (A) (A) (A) (A) (A) (A) (A) (A) (A) (A) (A) (A)
                 (A) (A) (A) (A) (A) (A) (A) (A) (A) (A) (A) (A)
                 (A) (A) (A) (A) (A) (A) (A) (A) (A) (A) (A) (A)
                 (A) (A) (A) (A) (A) (A) (A) (A) (A) (A) (A) (A)
                 (A) (A) (A) (A) (A) (A) (A) (A) (A) (A) (A) (A)
                 (A) (A) (A) (A) (A) (A) (A) (A) (A) (A) (A) (A)
                 (A) (A) (A) (A) (A) (A) (A) (A) (A) (A) (A) (A)
                 (A) (A) (A) (A) (A) (A) (A) (A) (A) (A) (A) (A)
                 (A) (A) (A) (A) (A) (A) (A) (A) (A) (A) (A) (A)
                 (A) (A) (A) (A) (A) (A) (A) (A) (A) (A) (A) (A)
                 (A) (A) (A) (A) (A) (A) (A) (A) (A) (A) (A) (A)
                 (A) (A) (A) (A) (A) (A) (A) (A) (A) (A)
 The electronic state of the initial guess is 1-A.
 Requested convergence on RMS density matrix=1.00D-08 within 128 cycles.
 Requested convergence on MAX density matrix=1.00D-06.
 Requested convergence on             energy=1.00D-06.
 No special actions if energy rises.
 Integral accuracy reduced to 1.0D-05 until final iterations.
 Initial convergence to 1.0D-05 achieved.  Increase integral accuracy.
 SCF Done:  E(RB3LYP) =  -1387.30301972     A.U. after   16 cycles
             Convg  =    0.4023D-08             -V/T =  2.0091

 **********************************************************************

            Population analysis using the SCF density.

 **********************************************************************

 Orbital symmetries:
       Occupied  (A) (A) (A) (A) (A) (A) (A) (A) (A) (A) (A) (A)
                 (A) (A) (A) (A) (A) (A) (A) (A) (A) (A) (A) (A)
                 (A) (A) (A) (A) (A) (A) (A) (A) (A) (A) (A) (A)
                 (A) (A) (A) (A) (A) (A) (A) (A) (A) (A) (A) (A)
                 (A) (A) (A) (A) (A) (A) (A) (A) (A) (A) (A) (A)
                 (A) (A) (A) (A) (A) (A) (A) (A) (A) (A) (A) (A)
                 (A) (A) (A) (A) (A) (A) (A) (A) (A) (A) (A) (A)
                 (A) (A) (A) (A) (A) (A) (A) (A) (A) (A) (A) (A)
                 (A) (A) (A) (A) (A) (A) (A) (A) (A) (A) (A) (A)
                 (A) (A) (A) (A) (A) (A) (A)
       Virtual   (A) (A) (A) (A) (A) (A) (A) (A) (A) (A) (A) (A)
                 (A) (A) (A) (A) (A) (A) (A) (A) (A) (A) (A) (A)
                 (A) (A) (A) (A) (A) (A) (A) (A) (A) (A) (A) (A)
                 (A) (A) (A) (A) (A) (A) (A) (A) (A) (A) (A) (A)
                 (A) (A) (A) (A) (A) (A) (A) (A) (A) (A) (A) (A)
                 (A) (A) (A) (A) (A) (A) (A) (A) (A) (A) (A) (A)
                 (A) (A) (A) (A) (A) (A) (A) (A) (A) (A) (A) (A)
                 (A) (A) (A) (A) (A) (A) (A) (A) (A) (A) (A) (A)
                 (A) (A) (A) (A) (A) (A) (A) (A) (A) (A) (A) (A)
                 (A) (A) (A) (A) (A) (A) (A) (A) (A) (A) (A) (A)
                 (A) (A) (A) (A) (A) (A) (A) (A) (A) (A) (A) (A)
                 (A) (A) (A) (A) (A) (A) (A) (A) (A) (A) (A) (A)
                 (A) (A) (A) (A) (A) (A) (A) (A) (A) (A) (A) (A)
                 (A) (A) (A) (A) (A) (A) (A) (A) (A) (A) (A) (A)
                 (A) (A) (A) (A) (A) (A) (A) (A) (A) (A) (A) (A)
                 (A) (A) (A) (A) (A) (A) (A) (A) (A) (A) (A) (A)
                 (A) (A) (A) (A) (A) (A) (A) (A) (A) (A) (A) (A)
                 (A) (A) (A) (A) (A) (A) (A) (A) (A) (A) (A) (A)
                 (A) (A) (A) (A) (A) (A) (A) (A) (A) (A) (A) (A)
                 (A) (A) (A) (A) (A) (A) (A) (A) (A) (A) (A) (A)
                 (A) (A) (A) (A) (A) (A) (A) (A) (A) (A) (A) (A)
                 (A) (A) (A) (A) (A) (A) (A) (A) (A) (A) (A) (A)
                 (A) (A) (A) (A) (A) (A) (A) (A) (A) (A) (A) (A)
                 (A) (A) (A) (A) (A) (A) (A) (A) (A) (A) (A) (A)
                 (A) (A) (A) (A) (A) (A) (A) (A) (A) (A) (A) (A)
                 (A) (A) (A) (A) (A) (A) (A) (A) (A) (A) (A) (A)
                 (A) (A) (A) (A) (A) (A) (A) (A) (A) (A) (A) (A)
                 (A) (A) (A) (A) (A) (A) (A) (A) (A) (A) (A) (A)
                 (A) (A) (A) (A) (A) (A) (A) (A) (A) (A) (A) (A)
                 (A) (A) (A) (A) (A) (A) (A) (A) (A) (A) (A) (A)
                 (A) (A) (A) (A) (A) (A) (A) (A) (A) (A) (A) (A)
                 (A) (A) (A) (A) (A) (A) (A) (A) (A) (A) (A) (A)
                 (A) (A) (A) (A) (A) (A) (A) (A) (A) (A) (A) (A)
                 (A) (A) (A) (A) (A) (A) (A) (A) (A) (A) (A) (A)
                 (A) (A) (A) (A) (A) (A) (A) (A) (A) (A)
 The electronic state is 1-A.
 Alpha  occ. eigenvalues --  -19.19782 -19.16998 -19.14690 -19.13507 -19.13041
 Alpha  occ. eigenvalues --  -10.27579 -10.26712 -10.26623 -10.26372 -10.26162
 Alpha  occ. eigenvalues --  -10.25720 -10.24790 -10.21750 -10.20424 -10.20131
 Alpha  occ. eigenvalues --  -10.20044 -10.19942 -10.19693 -10.19618 -10.19116
 Alpha  occ. eigenvalues --  -10.18926 -10.18880 -10.18838 -10.18766 -10.18680
 Alpha  occ. eigenvalues --  -10.18413 -10.17878 -10.17789 -10.17159 -10.16810
 Alpha  occ. eigenvalues --  -10.16659  -1.08670  -1.06329  -1.03258  -1.02085
 Alpha  occ. eigenvalues --   -1.01988  -0.87678  -0.84085  -0.82703  -0.81649
 Alpha  occ. eigenvalues --   -0.80425  -0.79903  -0.77169  -0.74319  -0.73620
 Alpha  occ. eigenvalues --   -0.72694  -0.71867  -0.69807  -0.68931  -0.68491
 Alpha  occ. eigenvalues --   -0.65527  -0.64173  -0.63550  -0.62387  -0.61246
 Alpha  occ. eigenvalues --   -0.59265  -0.58572  -0.57146  -0.55096  -0.53619
 Alpha  occ. eigenvalues --   -0.53105  -0.51883  -0.51059  -0.50473  -0.49620
 Alpha  occ. eigenvalues --   -0.48354  -0.47761  -0.46909  -0.46257  -0.45870
 Alpha  occ. eigenvalues --   -0.45206  -0.44958  -0.44381  -0.43931  -0.43195
 Alpha  occ. eigenvalues --   -0.43023  -0.42612  -0.42489  -0.41958  -0.41765
 Alpha  occ. eigenvalues --   -0.40885  -0.40703  -0.40291  -0.40143  -0.39747
 Alpha  occ. eigenvalues --   -0.39420  -0.39114  -0.38833  -0.38689  -0.38269
 Alpha  occ. eigenvalues --   -0.37856  -0.37715  -0.37102  -0.36350  -0.35832
 Alpha  occ. eigenvalues --   -0.35760  -0.35420  -0.35185  -0.34858  -0.34373
 Alpha  occ. eigenvalues --   -0.33950  -0.33542  -0.33447  -0.32770  -0.32472
 Alpha  occ. eigenvalues --   -0.31821  -0.31764  -0.31223  -0.28168  -0.27081
 Alpha  occ. eigenvalues --   -0.24952  -0.24879  -0.24276  -0.23666  -0.23237
 Alpha virt. eigenvalues --   -0.04798  -0.02252   0.01295   0.01954   0.03824
 Alpha virt. eigenvalues --    0.06599   0.08080   0.08521   0.09291   0.10055
 Alpha virt. eigenvalues --    0.10377   0.10509   0.11305   0.11348   0.12288
 Alpha virt. eigenvalues --    0.12675   0.12995   0.13354   0.13585   0.13982
 Alpha virt. eigenvalues --    0.14284   0.14473   0.14960   0.15299   0.15473
 Alpha virt. eigenvalues --    0.15801   0.15963   0.16467   0.16824   0.17264
 Alpha virt. eigenvalues --    0.17494   0.17849   0.18163   0.18702   0.18937
 Alpha virt. eigenvalues --    0.19143   0.19285   0.19714   0.20046   0.20405
 Alpha virt. eigenvalues --    0.21136   0.21284   0.21361   0.21956   0.22578
 Alpha virt. eigenvalues --    0.23111   0.23624   0.24197   0.24247   0.24524
 Alpha virt. eigenvalues --    0.25396   0.25708   0.25892   0.26270   0.26858
 Alpha virt. eigenvalues --    0.27069   0.27846   0.28296   0.29301   0.30219
 Alpha virt. eigenvalues --    0.31206   0.31412   0.32410   0.34041   0.34262
 Alpha virt. eigenvalues --    0.34739   0.36339   0.37536   0.38678   0.40473
 Alpha virt. eigenvalues --    0.41745   0.44968   0.46572   0.47855   0.48431
 Alpha virt. eigenvalues --    0.49828   0.50564   0.51614   0.51928   0.52189
 Alpha virt. eigenvalues --    0.52334   0.52537   0.53219   0.53269   0.53353
 Alpha virt. eigenvalues --    0.53657   0.54391   0.54854   0.55362   0.56014
 Alpha virt. eigenvalues --    0.56388   0.57198   0.57413   0.58251   0.58394
 Alpha virt. eigenvalues --    0.59692   0.59984   0.60371   0.61201   0.61791
 Alpha virt. eigenvalues --    0.61864   0.62396   0.63045   0.63474   0.64028
 Alpha virt. eigenvalues --    0.64480   0.65167   0.66279   0.66823   0.67238
 Alpha virt. eigenvalues --    0.67463   0.68339   0.68781   0.69133   0.69747
 Alpha virt. eigenvalues --    0.70280   0.70359   0.71407   0.72329   0.72488
 Alpha virt. eigenvalues --    0.73465   0.73790   0.75016   0.75627   0.75938
 Alpha virt. eigenvalues --    0.76824   0.77525   0.78567   0.79357   0.79737
 Alpha virt. eigenvalues --    0.80185   0.80506   0.81137   0.81735   0.82553
 Alpha virt. eigenvalues --    0.82888   0.83124   0.83538   0.84370   0.84896
 Alpha virt. eigenvalues --    0.85151   0.85573   0.86123   0.86304   0.86945
 Alpha virt. eigenvalues --    0.87287   0.87779   0.88185   0.88682   0.89171
 Alpha virt. eigenvalues --    0.89363   0.89609   0.89776   0.90345   0.90554
 Alpha virt. eigenvalues --    0.90777   0.91026   0.91313   0.91542   0.91677
 Alpha virt. eigenvalues --    0.92295   0.93256   0.93593   0.93881   0.94753
 Alpha virt. eigenvalues --    0.95210   0.95407   0.95734   0.96197   0.96596
 Alpha virt. eigenvalues --    0.97167   0.97758   0.98700   0.99050   0.99502
 Alpha virt. eigenvalues --    0.99895   1.00873   1.01999   1.02655   1.03470
 Alpha virt. eigenvalues --    1.03909   1.04972   1.05686   1.07671   1.08259
 Alpha virt. eigenvalues --    1.09179   1.09787   1.11435   1.12063   1.12290
 Alpha virt. eigenvalues --    1.13919   1.14763   1.15473   1.15815   1.16414
 Alpha virt. eigenvalues --    1.17315   1.18279   1.19112   1.19881   1.20174
 Alpha virt. eigenvalues --    1.21069   1.23827   1.24586   1.25919   1.27564
 Alpha virt. eigenvalues --    1.28766   1.29685   1.29920   1.31965   1.33446
 Alpha virt. eigenvalues --    1.33693   1.35154   1.38093   1.38651   1.39720
 Alpha virt. eigenvalues --    1.39790   1.41354   1.43344   1.44335   1.45475
 Alpha virt. eigenvalues --    1.48367   1.49351   1.50343   1.51712   1.52705
 Alpha virt. eigenvalues --    1.53984   1.55553   1.55899   1.57272   1.58468
 Alpha virt. eigenvalues --    1.58698   1.61894   1.62194   1.63737   1.64274
 Alpha virt. eigenvalues --    1.64871   1.65505   1.67758   1.68254   1.69957
 Alpha virt. eigenvalues --    1.70837   1.71429   1.71967   1.73392   1.74913
 Alpha virt. eigenvalues --    1.75114   1.76109   1.76769   1.77462   1.79035
 Alpha virt. eigenvalues --    1.79437   1.79715   1.80274   1.80643   1.81873
 Alpha virt. eigenvalues --    1.82622   1.82982   1.83866   1.85032   1.85531
 Alpha virt. eigenvalues --    1.86758   1.87381   1.87895   1.88318   1.88775
 Alpha virt. eigenvalues --    1.89492   1.89986   1.90541   1.91278   1.91464
 Alpha virt. eigenvalues --    1.92603   1.93319   1.93591   1.94811   1.95414
 Alpha virt. eigenvalues --    1.96051   1.96504   1.97287   1.97523   1.98460
 Alpha virt. eigenvalues --    1.98818   1.98979   1.99696   2.00411   2.00622
 Alpha virt. eigenvalues --    2.01042   2.01882   2.03355   2.03738   2.05508
 Alpha virt. eigenvalues --    2.06078   2.06800   2.07906   2.09006   2.09349
 Alpha virt. eigenvalues --    2.10485   2.11449   2.12211   2.12814   2.15081
 Alpha virt. eigenvalues --    2.15545   2.15981   2.17207   2.17641   2.17991
 Alpha virt. eigenvalues --    2.18644   2.19394   2.20613   2.21981   2.22835
 Alpha virt. eigenvalues --    2.23453   2.24809   2.25388   2.27002   2.27644
 Alpha virt. eigenvalues --    2.28343   2.28974   2.30242   2.30721   2.31586
 Alpha virt. eigenvalues --    2.32077   2.32402   2.33156   2.33817   2.34079
 Alpha virt. eigenvalues --    2.34274   2.37176   2.37738   2.38995   2.39302
 Alpha virt. eigenvalues --    2.41503   2.41810   2.42152   2.43522   2.44409
 Alpha virt. eigenvalues --    2.45466   2.46271   2.47089   2.48451   2.48707
 Alpha virt. eigenvalues --    2.49249   2.51236   2.51877   2.52905   2.54952
 Alpha virt. eigenvalues --    2.57265   2.57859   2.59093   2.59884   2.60737
 Alpha virt. eigenvalues --    2.61942   2.63613   2.64181   2.66008   2.66580
 Alpha virt. eigenvalues --    2.66978   2.67550   2.68422   2.71110   2.71948
 Alpha virt. eigenvalues --    2.72380   2.73809   2.75545   2.76367   2.78157
 Alpha virt. eigenvalues --    2.78804   2.79545   2.80346   2.81589   2.85383
 Alpha virt. eigenvalues --    2.88232   2.90776   2.92683   2.93719   2.94759
 Alpha virt. eigenvalues --    2.98470   2.99465   3.00566   3.02385   3.02958
 Alpha virt. eigenvalues --    3.04634   3.07662   3.12235   3.16587   3.22375
 Alpha virt. eigenvalues --    3.24111   3.27870   4.01532   4.11413   4.13726
 Alpha virt. eigenvalues --    4.14775   4.16714   4.17855   4.18403   4.20144
 Alpha virt. eigenvalues --    4.22784   4.24561   4.25669   4.26228   4.29204
 Alpha virt. eigenvalues --    4.32159   4.33152   4.38154   4.39620   4.43549
 Alpha virt. eigenvalues --    4.46425   4.49155   4.51356   4.56885   4.61533
 Alpha virt. eigenvalues --    4.64833   4.65703   4.70423   4.72887   4.77624
 Alpha virt. eigenvalues --    4.88206   4.94858   5.25802
          Condensed to atoms (all electrons):
 Mulliken atomic charges:
              1
     1  C   -0.196594
     2  C    0.194251
     3  C   -0.193658
     4  C    0.312501
     5  C   -0.026184
     6  C   -0.330456
     7  C    0.201491
     8  C    0.406387
     9  C   -0.098228
    10  C    0.401831
    11  C    0.427880
    12  O   -0.474264
    13  C   -0.140960
    14  C   -0.251083
    15  C   -0.458979
    16  O   -0.477717
    17  C   -0.152287
    18  C    0.305565
    19  O   -0.539085
    20  C   -0.307258
    21  O   -0.675899
    22  C   -0.317403
    23  C    0.116930
    24  O   -0.593415
    25  C    0.180951
    26  C   -0.517399
    27  C   -0.391389
    28  C   -0.460188
    29  C   -0.464279
    30  H    0.147165
    31  H    0.151139
    32  C   -0.519490
    33  H    0.126207
    34  H    0.163881
    35  H    0.182015
    36  H    0.138628
    37  H    0.142211
    38  H    0.150280
    39  H    0.147934
    40  H    0.164688
    41  H    0.162383
    42  H    0.162883
    43  H    0.149675
    44  H    0.427485
    45  H    0.184409
    46  H    0.150924
    47  H    0.136103
    48  H    0.154006
    49  H    0.160821
    50  H    0.166618
    51  H    0.137560
    52  H    0.141081
    53  H    0.149222
    54  H    0.141656
    55  H    0.184999
    56  H    0.158350
    57  H    0.158009
    58  H    0.150760
    59  H    0.158081
    60  H    0.156436
    61  H    0.154544
    62  C   -0.450687
    63  H    0.141874
    64  H    0.146112
    65  H    0.140976
 Sum of Mulliken atomic charges =   0.00000
 Mulliken charges with hydrogens summed into heavy atoms:
              1
     1  C   -0.070387
     2  C    0.194251
     3  C   -0.042519
     4  C    0.312501
     5  C   -0.026184
     6  C    0.015440
     7  C    0.201491
     8  C    0.406387
     9  C   -0.098228
    10  C    0.401831
    11  C    0.427880
    12  O   -0.474264
    13  C   -0.002332
    14  C    0.041408
    15  C    0.016027
    16  O   -0.477717
    17  C   -0.005122
    18  C    0.305565
    19  O   -0.539085
    20  C    0.005301
    21  O   -0.248413
    22  C    0.017931
    23  C    0.253032
    24  O   -0.593415
    25  C    0.180951
    26  C   -0.035955
    27  C   -0.112747
    28  C    0.015688
    29  C    0.002840
    32  C   -0.050428
    62  C   -0.021725
 Sum of Mulliken charges with hydrogens summed into heavy atoms =   0.00000
 Electronic spatial extent (au):  <R**2>=          12014.0636
 Charge=              0.0000 electrons
 Dipole moment (field-independent basis, Debye):
    X=             -3.0084    Y=              4.6376    Z=             -0.6254  Tot=              5.5632
 Quadrupole moment (field-independent basis, Debye-Ang):
   XX=           -174.4966   YY=           -183.2754   ZZ=           -188.7283
   XY=              5.9534   XZ=             -8.6082   YZ=              3.8370
 Traceless Quadrupole moment (field-independent basis, Debye-Ang):
   XX=              7.6702   YY=             -1.1086   ZZ=             -6.5616
   XY=              5.9534   XZ=             -8.6082   YZ=              3.8370
 Octapole moment (field-independent basis, Debye-Ang**2):
  XXX=            -17.7958  YYY=             53.7388  ZZZ=             -9.1455  XYY=             -4.2130
  XXY=            -24.8468  XXZ=            -10.8817  XZZ=            -27.4763  YZZ=              7.1918
  YYZ=            -17.7990  XYZ=              2.4339
 Hexadecapole moment (field-independent basis, Debye-Ang**3):
 XXXX=          -9534.7843 YYYY=          -4033.6240 ZZZZ=          -2410.7184 XXXY=             90.1144
 XXXZ=             21.5333 YYYX=             16.7467 YYYZ=            -20.6855 ZZZX=            -15.8036
 ZZZY=              1.6976 XXYY=          -2193.1725 XXZZ=          -2029.7400 YYZZ=          -1078.3992
 XXYZ=             57.1603 YYXZ=            -11.6351 ZZXY=             45.2159
 N-N= 3.493785923790D+03 E-N=-1.021379052867D+04  KE= 1.374841715054D+03
 Calling FoFJK, ICntrl=      2127 FMM=T ISym2X=0 I1Cent= 0 IOpClX= 0 NMat=1 NMatS=1 NMatT=0.
 ***** Axes restored to original set *****
 -------------------------------------------------------------------
 Center     Atomic                   Forces (Hartrees/Bohr)
 Number     Number              X              Y              Z
 -------------------------------------------------------------------
      1        6           0.009826543    0.000146658    0.001018374
      2        6          -0.009521137   -0.006389273    0.003801174
      3        6          -0.006820031   -0.009704505   -0.003427943
      4        6           0.010419267   -0.007519811    0.012666686
      5        6          -0.008308365    0.004834085    0.005603222
      6        6          -0.008663699   -0.008240935   -0.006062689
      7        6           0.021546218    0.013847277    0.009853315
      8        6          -0.004898261   -0.001981811   -0.024388386
      9        6           0.004543199   -0.003329188    0.004973033
     10        6          -0.019611994    0.016747166    0.000323665
     11        6          -0.020121547   -0.008143807   -0.004742468
     12        8           0.009508678    0.012409219    0.003042913
     13        6           0.000139702   -0.005565388   -0.005241627
     14        6           0.001550942   -0.001035715   -0.005734770
     15        6          -0.007003485    0.003693474    0.005293926
     16        8           0.010922108   -0.011394898   -0.000884859
     17        6           0.003306727   -0.006345630   -0.011613417
     18        6           0.030436215    0.004792150   -0.013578297
     19        8          -0.011369405   -0.008106576    0.033331693
     20        6           0.009443211   -0.001378647   -0.005779311
     21        8          -0.003876460    0.004569055    0.005540248
     22        6          -0.009232297   -0.001703199    0.008841917
     23        6           0.008484324    0.006691925    0.008059259
     24        8          -0.004167741    0.002250915   -0.008584858
     25        6           0.011476016    0.009549269    0.009430475
     26        6          -0.000151462   -0.000306289   -0.000298223
     27        6          -0.004311109   -0.006166528   -0.009033953
     28        6          -0.002032699    0.008404365    0.001693142
     29        6          -0.008444773   -0.000562336   -0.007503787
     30        1          -0.003171914    0.001958385    0.000124813
     31        1          -0.001685671    0.005852483    0.000567235
     32        6          -0.002396460   -0.000376652    0.000145223
     33        1           0.000700469   -0.000844144    0.000009274
     34        1           0.000599267    0.005161005   -0.000442714
     35        1          -0.001691389    0.005434146   -0.000986769
     36        1           0.000884164   -0.001971692   -0.000348018
     37        1           0.000126656   -0.000737058    0.001647295
     38        1          -0.000556683   -0.001714286    0.003226060
     39        1           0.000694377    0.000385209   -0.000415438
     40        1          -0.000185203    0.000447102    0.000510397
     41        1           0.000903156   -0.001328631   -0.000466386
     42        1           0.000364718    0.000707805    0.000826864
     43        1          -0.002081022   -0.001515950   -0.001450480
     44        1          -0.003041485    0.001137600   -0.003800528
     45        1           0.000398192   -0.000999046   -0.004206055
     46        1          -0.000025483    0.000569141   -0.003216621
     47        1          -0.001041925   -0.003622794    0.000730961
     48        1          -0.002969269   -0.003194686    0.000192178
     49        1           0.001009803    0.001040927   -0.001969187
     50        1          -0.002865121   -0.003026743    0.000506060
     51        1          -0.001020243   -0.000510048    0.000399627
     52        1           0.000304287   -0.000158381   -0.000217213
     53        1           0.000565499   -0.003330382   -0.002211366
     54        1           0.000132822   -0.000765445   -0.000351800
     55        1           0.000415108   -0.004501474    0.003415393
     56        1           0.001316896   -0.001856310    0.002718663
     57        1           0.002012617    0.001590832    0.001741155
     58        1          -0.000142292    0.000756833    0.001291855
     59        1          -0.000650743    0.000868204   -0.000354336
     60        1           0.004051192   -0.001618879   -0.000081924
     61        1           0.004262656   -0.001170510    0.000081950
     62        6          -0.000268305    0.001936774   -0.002928451
     63        1           0.000435677    0.001478225   -0.001138494
     64        1           0.000356740    0.002085959   -0.000176320
     65        1           0.001190234    0.001771458    0.000028644
 -------------------------------------------------------------------
 Cartesian Forces:  Max     0.033331693 RMS     0.006652219

 GradGradGradGradGradGradGradGradGradGradGradGradGradGradGradGradGradGrad
 Berny optimization.
 Internal  Forces:  Max     0.017863393 RMS     0.003362458
 Search for a local minimum.
 Step number   1 out of a maximum of  390
 All quantities printed in internal units (Hartrees-Bohrs-Radians)
 Mixed Optimization -- RFO/linear search
 Second derivative matrix not updated -- first step.
 ITU=  0
     Eigenvalues ---    0.00279   0.00294   0.00355   0.00405   0.00439
     Eigenvalues ---    0.00481   0.00482   0.00556   0.00591   0.00610
     Eigenvalues ---    0.00676   0.00692   0.00728   0.00734   0.00884
     Eigenvalues ---    0.01054   0.01167   0.01251   0.01298   0.01453
     Eigenvalues ---    0.01533   0.01717   0.01734   0.01826   0.02086
     Eigenvalues ---    0.02621   0.02825   0.02825   0.03113   0.03217
     Eigenvalues ---    0.03491   0.03708   0.03903   0.04038   0.04084
     Eigenvalues ---    0.04269   0.04335   0.04463   0.04513   0.04638
     Eigenvalues ---    0.04826   0.04892   0.05006   0.05141   0.05284
     Eigenvalues ---    0.05321   0.05338   0.05382   0.05441   0.05470
     Eigenvalues ---    0.05503   0.05536   0.05571   0.05573   0.05655
     Eigenvalues ---    0.05713   0.05866   0.05883   0.05927   0.06146
     Eigenvalues ---    0.06576   0.06802   0.07109   0.07151   0.07152
     Eigenvalues ---    0.07231   0.07272   0.07314   0.07432   0.07991
     Eigenvalues ---    0.08335   0.08441   0.08505   0.09361   0.09434
     Eigenvalues ---    0.09892   0.10252   0.11441   0.11881   0.12276
     Eigenvalues ---    0.12569   0.13296   0.14528   0.15319   0.15738
     Eigenvalues ---    0.15969   0.16000   0.16000   0.16000   0.16000
     Eigenvalues ---    0.16000   0.16000   0.16000   0.16000   0.16000
     Eigenvalues ---    0.16000   0.16000   0.16000   0.16000   0.16000
     Eigenvalues ---    0.16000   0.16000   0.16000   0.16000   0.16000
     Eigenvalues ---    0.16000   0.16539   0.16796   0.17450   0.18099
     Eigenvalues ---    0.19737   0.20917   0.21902   0.22310   0.22485
     Eigenvalues ---    0.23324   0.24781   0.24894   0.24995   0.24995
     Eigenvalues ---    0.24997   0.24998   0.25000   0.26102   0.26655
     Eigenvalues ---    0.27043   0.27166   0.27389   0.27748   0.28351
     Eigenvalues ---    0.28800   0.28905   0.28969   0.29326   0.29673
     Eigenvalues ---    0.29920   0.30216   0.30225   0.30726   0.31168
     Eigenvalues ---    0.31799   0.31818   0.32127   0.33126   0.33621
     Eigenvalues ---    0.33893   0.33899   0.33977   0.33994   0.33998
     Eigenvalues ---    0.34002   0.34002   0.34031   0.34064   0.34072
     Eigenvalues ---    0.34076   0.34151   0.34156   0.34180   0.34210
     Eigenvalues ---    0.34210   0.34236   0.34247   0.34264   0.34268
     Eigenvalues ---    0.34270   0.34273   0.34277   0.34290   0.34293
     Eigenvalues ---    0.34295   0.34342   0.34364   0.34371   0.34777
     Eigenvalues ---    0.35038   0.35270   0.35298   0.35425   0.36590
     Eigenvalues ---    0.37505   0.41122   0.44320   0.50169   0.53440
     Eigenvalues ---    0.54305   0.56238   0.90439   0.91194
 RFO step:  Lambda=-2.09305772D-02 EMin= 2.78550047D-03
 Linear search not attempted -- first point.
 Iteration  1 RMS(Cart)=  0.06714286 RMS(Int)=  0.00107803
 Iteration  2 RMS(Cart)=  0.00176030 RMS(Int)=  0.00023684
 Iteration  3 RMS(Cart)=  0.00000133 RMS(Int)=  0.00023684
 Iteration  4 RMS(Cart)=  0.00000000 RMS(Int)=  0.00023684
 Variable       Old X    -DE/DX   Delta X   Delta X   Delta X     New X
                                 (Linear)    (Quad)   (Total)
    R1        2.53318  -0.00186   0.00000  -0.00384  -0.00394   2.52924
    R2        2.82238   0.00888   0.00000   0.02588   0.02574   2.84812
    R3        2.05614   0.00038   0.00000   0.00101   0.00101   2.05715
    R4        2.84508   0.00506   0.00000   0.01296   0.01301   2.85809
    R5        2.83913   0.00473   0.00000   0.01382   0.01382   2.85295
    R6        2.94447   0.00650   0.00000   0.01647   0.01645   2.96092
    R7        2.89656   0.01049   0.00000   0.03549   0.03546   2.93203
    R8        2.07974  -0.00189   0.00000  -0.00528  -0.00528   2.07446
    R9        2.92703   0.01245   0.00000   0.03933   0.03930   2.96633
   R10        2.92100   0.00825   0.00000   0.03224   0.03245   2.95345
   R11        2.75597  -0.00528   0.00000  -0.01547  -0.01550   2.74047
   R12        2.91631   0.00516   0.00000   0.01908   0.01904   2.93535
   R13        2.90804   0.00506   0.00000   0.00968   0.00933   2.91737
   R14        2.91216   0.00505   0.00000   0.01809   0.01807   2.93023
   R15        2.07512  -0.00166   0.00000  -0.00460  -0.00460   2.07052
   R16        2.07501   0.00236   0.00000   0.00654   0.00654   2.08155
   R17        2.81616   0.01129   0.00000   0.02546   0.02521   2.84137
   R18        2.86673   0.01498   0.00000   0.05262   0.05208   2.91881
   R19        2.68347   0.00255   0.00000   0.00670   0.00670   2.69017
   R20        2.52525   0.01305   0.00000   0.02305   0.02318   2.54843
   R21        2.62280  -0.01786   0.00000  -0.04175  -0.04146   2.58135
   R22        2.79803   0.00335   0.00000   0.00578   0.00592   2.80395
   R23        2.79339   0.01418   0.00000   0.03847   0.03847   2.83185
   R24        2.32387  -0.01378   0.00000  -0.01477  -0.01477   2.30911
   R25        2.32731  -0.01555   0.00000  -0.01680  -0.01680   2.31051
   R26        2.88123   0.00146   0.00000   0.00457   0.00457   2.88580
   R27        2.90201   0.00511   0.00000   0.01648   0.01648   2.91849
   R28        2.88621   0.00762   0.00000   0.02399   0.02399   2.91020
   R29        2.07223  -0.00021   0.00000  -0.00058  -0.00058   2.07165
   R30        2.07326   0.00016   0.00000   0.00045   0.00045   2.07372
   R31        2.07326  -0.00027   0.00000  -0.00076  -0.00076   2.07250
   R32        2.87517   0.00855   0.00000   0.02647   0.02647   2.90164
   R33        2.06757   0.00055   0.00000   0.00151   0.00151   2.06908
   R34        2.07075   0.00051   0.00000   0.00140   0.00140   2.07215
   R35        2.07027  -0.00014   0.00000  -0.00040  -0.00040   2.06988
   R36        2.91034  -0.00008   0.00000   0.01158   0.01176   2.92210
[...]
     54          1           0        1.494495    3.595062   -2.952215
     55          1           0        1.420494    1.823484   -3.058357
     56          1           0        1.858993    3.681712    0.824802
     57          1           0        3.142627    3.792989   -0.391382
     58          1           0        1.641776    4.711790   -0.606363
     59          1           0       -3.693432    2.375155    3.581514
     60          1           0       -2.902758    3.578798    2.548544
     61          1           0       -4.259360    2.649388    1.920484
     62          6           0        6.454561   -1.061307    0.203141
     63          1           0        7.295121   -1.184085    0.895743
     64          1           0        6.644259   -1.712511   -0.657474
     65          1           0        6.470853   -0.024013   -0.155610
 ---------------------------------------------------------------------
 Rotational constants (GHZ):      0.2183381      0.1168697      0.1032352

 **********************************************************************

            Population analysis using the SCF density.

 **********************************************************************

 Orbital symmetries:
       Occupied  (A) (A) (A) (A) (A) (A) (A) (A) (A) (A) (A) (A)
                 (A) (A) (A) (A) (A) (A) (A) (A) (A) (A) (A) (A)
                 (A) (A) (A) (A) (A) (A) (A) (A) (A) (A) (A) (A)
                 (A) (A) (A) (A) (A) (A) (A) (A) (A) (A) (A) (A)
                 (A) (A) (A) (A) (A) (A) (A) (A) (A) (A) (A) (A)
                 (A) (A) (A) (A) (A) (A) (A) (A) (A) (A) (A) (A)
                 (A) (A) (A) (A) (A) (A) (A) (A) (A) (A) (A) (A)
                 (A) (A) (A) (A) (A) (A) (A) (A) (A) (A) (A) (A)
                 (A) (A) (A) (A) (A) (A) (A) (A) (A) (A) (A) (A)
                 (A) (A) (A) (A) (A) (A) (A)
       Virtual   (A) (A) (A) (A) (A) (A) (A) (A) (A) (A) (A) (A)
                 (A) (A) (A) (A) (A) (A) (A) (A) (A) (A) (A) (A)
                 (A) (A) (A) (A) (A) (A) (A) (A) (A) (A) (A) (A)
                 (A) (A) (A) (A) (A) (A) (A) (A) (A) (A) (A) (A)
                 (A) (A) (A) (A) (A) (A) (A) (A) (A) (A) (A) (A)
                 (A) (A) (A) (A) (A) (A) (A) (A) (A) (A) (A) (A)
                 (A) (A) (A) (A) (A) (A) (A) (A) (A) (A) (A) (A)
                 (A) (A) (A) (A) (A) (A) (A) (A) (A) (A) (A) (A)
                 (A) (A) (A) (A) (A) (A) (A) (A) (A) (A) (A) (A)
                 (A) (A) (A) (A) (A) (A) (A) (A) (A) (A) (A) (A)
                 (A) (A) (A) (A) (A) (A) (A) (A) (A) (A) (A) (A)
                 (A) (A) (A) (A) (A) (A) (A) (A) (A) (A) (A) (A)
                 (A) (A) (A) (A) (A) (A) (A) (A) (A) (A) (A) (A)
                 (A) (A) (A) (A) (A) (A) (A) (A) (A) (A) (A) (A)
                 (A) (A) (A) (A) (A) (A) (A) (A) (A) (A) (A) (A)
                 (A) (A) (A) (A) (A) (A) (A) (A) (A) (A) (A) (A)
                 (A) (A) (A) (A) (A) (A) (A) (A) (A) (A) (A) (A)
                 (A) (A) (A) (A) (A) (A) (A) (A) (A) (A) (A) (A)
                 (A) (A) (A) (A) (A) (A) (A) (A) (A) (A) (A) (A)
                 (A) (A) (A) (A) (A) (A) (A) (A) (A) (A) (A) (A)
                 (A) (A) (A) (A) (A) (A) (A) (A) (A) (A) (A) (A)
                 (A) (A) (A) (A) (A) (A) (A) (A) (A) (A) (A) (A)
                 (A) (A) (A) (A) (A) (A) (A) (A) (A) (A) (A) (A)
                 (A) (A) (A) (A) (A) (A) (A) (A) (A) (A) (A) (A)
                 (A) (A) (A) (A) (A) (A) (A) (A) (A) (A) (A) (A)
                 (A) (A) (A) (A) (A) (A) (A) (A) (A) (A) (A) (A)
                 (A) (A) (A) (A) (A) (A) (A) (A) (A) (A) (A) (A)
                 (A) (A) (A) (A) (A) (A) (A) (A) (A) (A) (A) (A)
                 (A) (A) (A) (A) (A) (A) (A) (A) (A) (A) (A) (A)
                 (A) (A) (A) (A) (A) (A) (A) (A) (A) (A) (A) (A)
                 (A) (A) (A) (A) (A) (A) (A) (A) (A) (A) (A) (A)
                 (A) (A) (A) (A) (A) (A) (A) (A) (A) (A) (A) (A)
                 (A) (A) (A) (A) (A) (A) (A) (A) (A) (A) (A) (A)
                 (A) (A) (A) (A) (A) (A) (A) (A) (A) (A) (A) (A)
                 (A) (A) (A) (A) (A) (A) (A) (A) (A) (A)
 The electronic state is 1-A.
 Alpha  occ. eigenvalues --  -19.19797 -19.17132 -19.15150 -19.12968 -19.12443
 Alpha  occ. eigenvalues --  -10.26888 -10.26877 -10.26855 -10.26291 -10.26240
 Alpha  occ. eigenvalues --  -10.26052 -10.24877 -10.21275 -10.20654 -10.20536
 Alpha  occ. eigenvalues --  -10.20374 -10.20078 -10.19906 -10.19506 -10.19369
 Alpha  occ. eigenvalues --  -10.19117 -10.18849 -10.18814 -10.18807 -10.18590
 Alpha  occ. eigenvalues --  -10.18441 -10.18150 -10.17708 -10.16938 -10.16755
 Alpha  occ. eigenvalues --  -10.16583  -1.09126  -1.06666  -1.03309  -1.02373
 Alpha  occ. eigenvalues --   -1.02062  -0.86979  -0.83840  -0.82149  -0.81328
 Alpha  occ. eigenvalues --   -0.80084  -0.79413  -0.76835  -0.73941  -0.73139
 Alpha  occ. eigenvalues --   -0.72353  -0.71435  -0.70293  -0.69000  -0.68391
 Alpha  occ. eigenvalues --   -0.64878  -0.64248  -0.63589  -0.62165  -0.60853
 Alpha  occ. eigenvalues --   -0.59024  -0.58322  -0.56776  -0.54941  -0.53286
 Alpha  occ. eigenvalues --   -0.53132  -0.51744  -0.51087  -0.49877  -0.49430
 Alpha  occ. eigenvalues --   -0.48148  -0.47201  -0.46921  -0.46557  -0.46050
 Alpha  occ. eigenvalues --   -0.45069  -0.44585  -0.44238  -0.44099  -0.42907
 Alpha  occ. eigenvalues --   -0.42871  -0.42333  -0.42269  -0.41852  -0.41561
 Alpha  occ. eigenvalues --   -0.40902  -0.40609  -0.40324  -0.40172  -0.39494
 Alpha  occ. eigenvalues --   -0.39289  -0.39034  -0.38809  -0.38542  -0.38337
 Alpha  occ. eigenvalues --   -0.37790  -0.37586  -0.37436  -0.36476  -0.36210
 Alpha  occ. eigenvalues --   -0.35968  -0.35477  -0.35184  -0.34665  -0.34405
 Alpha  occ. eigenvalues --   -0.33706  -0.33631  -0.33255  -0.32861  -0.32306
 Alpha  occ. eigenvalues --   -0.31536  -0.31305  -0.30947  -0.28253  -0.27431
 Alpha  occ. eigenvalues --   -0.25090  -0.24449  -0.24357  -0.23379  -0.22644
 Alpha virt. eigenvalues --   -0.04123  -0.01497   0.01086   0.01965   0.05032
 Alpha virt. eigenvalues --    0.07021   0.08052   0.08749   0.09095   0.10218
 Alpha virt. eigenvalues --    0.10353   0.10548   0.10892   0.11357   0.12252
 Alpha virt. eigenvalues --    0.12751   0.12846   0.13653   0.13859   0.14196
 Alpha virt. eigenvalues --    0.14482   0.14834   0.15041   0.15320   0.15446
 Alpha virt. eigenvalues --    0.15711   0.16187   0.16423   0.16499   0.17234
 Alpha virt. eigenvalues --    0.17482   0.17807   0.18250   0.18637   0.18924
 Alpha virt. eigenvalues --    0.19171   0.19257   0.19501   0.19731   0.20483
 Alpha virt. eigenvalues --    0.20730   0.21028   0.21433   0.21843   0.22817
 Alpha virt. eigenvalues --    0.23224   0.23503   0.23678   0.24133   0.24445
 Alpha virt. eigenvalues --    0.24994   0.25272   0.25503   0.25736   0.26310
 Alpha virt. eigenvalues --    0.27111   0.27805   0.28094   0.28841   0.30268
 Alpha virt. eigenvalues --    0.30785   0.31773   0.32381   0.33756   0.34267
 Alpha virt. eigenvalues --    0.34536   0.36795   0.37714   0.38288   0.39738
 Alpha virt. eigenvalues --    0.41946   0.44878   0.45980   0.47317   0.47980
 Alpha virt. eigenvalues --    0.49478   0.50185   0.50950   0.51158   0.51364
 Alpha virt. eigenvalues --    0.52055   0.52353   0.52744   0.52831   0.53331
 Alpha virt. eigenvalues --    0.54019   0.54102   0.54489   0.55078   0.55664
 Alpha virt. eigenvalues --    0.56718   0.56936   0.57378   0.57813   0.58053
 Alpha virt. eigenvalues --    0.59324   0.59744   0.60289   0.61058   0.61282
 Alpha virt. eigenvalues --    0.61582   0.62047   0.62768   0.63742   0.64296
 Alpha virt. eigenvalues --    0.65623   0.66012   0.66513   0.67014   0.67195
 Alpha virt. eigenvalues --    0.67797   0.68294   0.68738   0.69363   0.70059
 Alpha virt. eigenvalues --    0.70433   0.70888   0.71284   0.71651   0.72398
 Alpha virt. eigenvalues --    0.73396   0.74142   0.75124   0.75549   0.75979
 Alpha virt. eigenvalues --    0.76268   0.77052   0.77267   0.78431   0.78872
 Alpha virt. eigenvalues --    0.79818   0.80716   0.81017   0.81875   0.82422
 Alpha virt. eigenvalues --    0.82958   0.83496   0.83974   0.84485   0.85115
 Alpha virt. eigenvalues --    0.85468   0.85648   0.85921   0.86985   0.87233
 Alpha virt. eigenvalues --    0.87588   0.88180   0.88383   0.88556   0.88936
 Alpha virt. eigenvalues --    0.89126   0.89443   0.89558   0.89833   0.90315
 Alpha virt. eigenvalues --    0.90830   0.91042   0.91284   0.91564   0.91730
 Alpha virt. eigenvalues --    0.91979   0.92467   0.92930   0.93614   0.94263
 Alpha virt. eigenvalues --    0.94563   0.95088   0.95982   0.96246   0.96739
 Alpha virt. eigenvalues --    0.97360   0.98027   0.98662   0.98863   0.99130
 Alpha virt. eigenvalues --    0.99564   1.00756   1.01709   1.02735   1.03001
 Alpha virt. eigenvalues --    1.04339   1.05237   1.06314   1.07624   1.08597
 Alpha virt. eigenvalues --    1.09637   1.10793   1.11143   1.12233   1.12879
 Alpha virt. eigenvalues --    1.13201   1.14135   1.14577   1.14778   1.15853
 Alpha virt. eigenvalues --    1.16500   1.17286   1.18957   1.19599   1.20804
 Alpha virt. eigenvalues --    1.21539   1.24457   1.25239   1.26307   1.28164
 Alpha virt. eigenvalues --    1.28501   1.29823   1.30903   1.32436   1.33617
 Alpha virt. eigenvalues --    1.34765   1.36232   1.37849   1.38206   1.39669
 Alpha virt. eigenvalues --    1.41029   1.41951   1.43949   1.45341   1.45932
 Alpha virt. eigenvalues --    1.48186   1.48680   1.49881   1.51352   1.52465
 Alpha virt. eigenvalues --    1.52648   1.54706   1.55334   1.57000   1.57945
 Alpha virt. eigenvalues --    1.59615   1.61271   1.62282   1.63570   1.64337
 Alpha virt. eigenvalues --    1.66120   1.67076   1.67244   1.67843   1.68627
 Alpha virt. eigenvalues --    1.70919   1.71689   1.72332   1.72767   1.73400
 Alpha virt. eigenvalues --    1.73753   1.74734   1.76132   1.76882   1.77518
 Alpha virt. eigenvalues --    1.78152   1.79002   1.79968   1.81112   1.81318
 Alpha virt. eigenvalues --    1.81775   1.83251   1.83683   1.84249   1.85049
 Alpha virt. eigenvalues --    1.85358   1.86174   1.86504   1.87320   1.87762
 Alpha virt. eigenvalues --    1.88992   1.89564   1.90008   1.90319   1.90790
 Alpha virt. eigenvalues --    1.92162   1.92497   1.93126   1.93245   1.94245
 Alpha virt. eigenvalues --    1.95001   1.96021   1.96202   1.97490   1.97717
 Alpha virt. eigenvalues --    1.98311   1.98451   1.99115   1.99500   1.99742
 Alpha virt. eigenvalues --    2.00896   2.02309   2.03015   2.03210   2.04888
 Alpha virt. eigenvalues --    2.05460   2.05721   2.06751   2.07122   2.08367
 Alpha virt. eigenvalues --    2.10620   2.11086   2.11619   2.12096   2.12378
 Alpha virt. eigenvalues --    2.13872   2.14083   2.16032   2.17030   2.17617
 Alpha virt. eigenvalues --    2.18409   2.19360   2.19902   2.20790   2.21317
 Alpha virt. eigenvalues --    2.23769   2.24148   2.24429   2.26709   2.27209
 Alpha virt. eigenvalues --    2.27532   2.29279   2.29972   2.30805   2.31298
 Alpha virt. eigenvalues --    2.31428   2.32592   2.32912   2.33373   2.34007
 Alpha virt. eigenvalues --    2.34315   2.37030   2.37564   2.38779   2.39665
 Alpha virt. eigenvalues --    2.40225   2.40821   2.42322   2.42465   2.44135
 Alpha virt. eigenvalues --    2.44736   2.45493   2.47752   2.48445   2.48742
 Alpha virt. eigenvalues --    2.49296   2.50313   2.51464   2.53508   2.55520
 Alpha virt. eigenvalues --    2.55634   2.57124   2.58056   2.59270   2.59752
 Alpha virt. eigenvalues --    2.62693   2.63095   2.64159   2.65536   2.65785
 Alpha virt. eigenvalues --    2.66533   2.66603   2.67798   2.69525   2.70657
 Alpha virt. eigenvalues --    2.71412   2.72345   2.74886   2.76239   2.77481
 Alpha virt. eigenvalues --    2.78549   2.78826   2.79840   2.80539   2.84023
 Alpha virt. eigenvalues --    2.87373   2.88999   2.91817   2.94722   2.96074
 Alpha virt. eigenvalues --    2.98759   2.99324   3.00150   3.02097   3.02982
 Alpha virt. eigenvalues --    3.04534   3.06394   3.11490   3.13172   3.21628
 Alpha virt. eigenvalues --    3.25186   3.26764   4.02202   4.07537   4.10471
 Alpha virt. eigenvalues --    4.12473   4.14242   4.16166   4.17531   4.18834
 Alpha virt. eigenvalues --    4.23199   4.25007   4.25879   4.26873   4.29515
 Alpha virt. eigenvalues --    4.31650   4.32653   4.36756   4.40611   4.43525
 Alpha virt. eigenvalues --    4.45848   4.48402   4.50769   4.55800   4.60100
 Alpha virt. eigenvalues --    4.64333   4.66167   4.69085   4.72878   4.76512
 Alpha virt. eigenvalues --    4.88171   4.94435   5.23051
          Condensed to atoms (all electrons):
 Mulliken atomic charges:
              1
     1  C   -0.194555
     2  C    0.197425
     3  C   -0.198054
     4  C    0.307821
     5  C   -0.027998
     6  C   -0.328192
     7  C    0.199337
     8  C    0.399614
     9  C   -0.096029
    10  C    0.399443
    11  C    0.424851
    12  O   -0.459314
    13  C   -0.174514
    14  C   -0.240747
    15  C   -0.459268
    16  O   -0.465220
    17  C   -0.155143
    18  C    0.299452
    19  O   -0.537352
    20  C   -0.309196
    21  O   -0.674177
    22  C   -0.330399
    23  C    0.117402
    24  O   -0.588701
    25  C    0.183856
    26  C   -0.518789
    27  C   -0.394917
    28  C   -0.467098
    29  C   -0.461610
    30  H    0.148642
    31  H    0.149845
    32  C   -0.521238
    33  H    0.125539
    34  H    0.166425
    35  H    0.173743
    36  H    0.153906
    37  H    0.138395
    38  H    0.148500
    39  H    0.150317
    40  H    0.162096
    41  H    0.160148
    42  H    0.161508
    43  H    0.151386
    44  H    0.430063
    45  H    0.189238
    46  H    0.148883
    47  H    0.135307
    48  H    0.154096
    49  H    0.160492
    50  H    0.169783
    51  H    0.136369
    52  H    0.145305
    53  H    0.155526
    54  H    0.145394
    55  H    0.196237
    56  H    0.161513
    57  H    0.162821
    58  H    0.152132
    59  H    0.158341
    60  H    0.155285
    61  H    0.155296
    62  C   -0.452360
    63  H    0.143175
    64  H    0.144047
    65  H    0.135920
 Sum of Mulliken atomic charges =   0.00000
 Mulliken charges with hydrogens summed into heavy atoms:
              1
     1  C   -0.069017
     2  C    0.197425
     3  C   -0.048210
     4  C    0.307821
     5  C   -0.027998
     6  C    0.011976
     7  C    0.199337
     8  C    0.399614
     9  C   -0.096029
    10  C    0.399443
    11  C    0.424851
    12  O   -0.459314
    13  C   -0.020608
    14  C    0.046148
    15  C    0.013293
    16  O   -0.465220
    17  C   -0.006501
    18  C    0.299452
    19  O   -0.537352
    20  C    0.003698
    21  O   -0.244114
    22  C    0.007723
    23  C    0.252710
    24  O   -0.588701
    25  C    0.183856
    26  C   -0.034419
    27  C   -0.113243
    28  C    0.030058
    29  C    0.014855
    32  C   -0.052317
    62  C   -0.029218
 Sum of Mulliken charges with hydrogens summed into heavy atoms =   0.00000
 Electronic spatial extent (au):  <R**2>=          12158.2193
 Charge=              0.0000 electrons
 Dipole moment (field-independent basis, Debye):
    X=             -3.0624    Y=              5.4825    Z=             -0.6541  Tot=              6.3138
 Quadrupole moment (field-independent basis, Debye-Ang):
   XX=           -175.7587   YY=           -183.2255   ZZ=           -187.0767
   XY=              8.8601   XZ=             -8.9400   YZ=              4.0665
 Traceless Quadrupole moment (field-independent basis, Debye-Ang):
   XX=              6.2616   YY=             -1.2052   ZZ=             -5.0564
   XY=              8.8601   XZ=             -8.9400   YZ=              4.0665
 Octapole moment (field-independent basis, Debye-Ang**2):
  XXX=            -20.3493  YYY=             62.0896  ZZZ=             -6.8856  XYY=            -13.4380
  XXY=            -17.7421  XXZ=            -10.6756  XZZ=            -21.8918  YZZ=              7.4917
  YYZ=            -24.0610  XYZ=              2.5590
 Hexadecapole moment (field-independent basis, Debye-Ang**3):
 XXXX=          -9631.7006 YYYY=          -4082.9643 ZZZZ=          -2516.6559 XXXY=             98.7632
 XXXZ=            -14.3996 YYYX=             52.5052 YYYZ=            -22.7908 ZZZX=            -10.3816
 ZZZY=             -0.3260 XXYY=          -2213.5430 XXZZ=          -2036.3680 YYZZ=          -1109.7821
 XXYZ=             59.0929 YYXZ=            -25.3597 ZZXY=             51.8926
 N-N= 3.479182308825D+03 E-N=-1.018447766049D+04  KE= 1.374463966696D+03
 1\1\GINC-B0603\FOpt\RB3LYP\6-31G(d)\C26H34O5\CAOFEI\24-Mar-2021\0\\# o
 pt rb3lyp/6-31g(d) geom=connectivity\\Title Card Required\\0,1\C,0.096
 6660934,-0.0460007581,-0.1481777022\C,1.4283664696,-0.0531189574,-0.01
 10605836\C,2.1945718336,1.249052007,0.0275353\C,1.4131938139,2.4943319
 271,0.5596616855\C,-0.1503229315,2.3874266735,0.6017681349\C,-0.706802
 1536,1.2208835514,-0.2694500079\C,1.9617678848,3.6898269278,-0.2874562
 211\C,1.0128937327,4.1162381451,-1.3966720108\C,-0.3278183277,4.194756
 697,-1.2356356113\C,-0.8561130827,3.6566323895,0.0468780887\C,-1.31872
 91051,4.657068282,-2.2658467232\O,-2.3499196095,4.0234470483,-2.423918
 0013\C,-1.0251285803,5.9385488354,-3.0457267718\C,-1.9290815333,6.0489
 475582,-4.2852035974\C,-1.1728339657,7.1336785662,-2.0764594673\O,-1.8
 567856042,4.099215989,0.5817278807\C,3.1518369033,3.1736533141,-1.1269
 94998\C,3.1344718317,4.0917916078,-2.3691547195\O,1.6898457319,4.40816
 37512,-2.5202899351\C,2.7817234561,1.692657998,-1.3385611092\O,2.23335
 63262,4.8256255812,0.5090256497\C,-0.4697442034,2.195725141,2.10520944
 63\C,0.8990349953,2.0929570548,2.8041906143\O,1.8081012997,2.756943650
 5,1.9149857357\C,0.9624817957,2.6773682786,4.1956516471\C,0.0329713322
 ,2.0267307804,5.1911303674\C,1.7887640525,3.6721218279,4.52683725\C,3.
 8732391877,5.4103462799,-2.127353583\C,3.5663123359,3.4491075753,-3.68
 33722604\H,4.0908766744,3.2694789116,-0.5738278859\H,3.0418167907,1.14
 26313649,0.7189332696\C,2.2356029059,-1.3224430477,0.0777503272\H,-0.4
 442951685,-0.9896451203,-0.2045319522\H,-1.7481344519,1.0508228339,0.0
 242525506\H,-0.7538703982,1.5354267214,-1.3219451117\H,0.0240297873,5.
 8976123433,-3.3656785094\H,-1.874652931,5.1047641291,-4.8409133731\H,-
 2.9723144404,6.1394100612,-3.9599278701\H,-0.8934222693,8.069590735,-2
 .5704966778\H,-0.5318540378,7.0144328384,-1.1969197269\H,-2.2089021502
 ,7.2240211174,-1.7302035625\H,2.0150432248,1.5896079926,-2.1157492631\
 H,3.6346336028,1.0780266543,-1.6424830621\H,2.1636186573,4.5084713043,
 1.43218019\H,-1.035614258,3.0606077589,2.4616638457\H,-1.0766324049,1.
 304460143,2.2840337186\H,1.1958554441,1.0324030696,2.8615615911\H,0.21
 51181087,0.9451547194,5.258476593\H,0.1637856313,2.4541525486,6.189253
 78\H,-1.0188812148,2.1526251668,4.9035378226\H,1.8117844174,4.06747920
 93,5.5388693002\H,2.4716732396,4.1178882658,3.812062102\H,3.6748518746
 ,6.1063528682,-2.9489760167\H,4.9536874595,5.2319253677,-2.0823769047\
 H,3.5573564148,5.8668834922,-1.1866552598\H,2.9794214771,2.5561183803,
 -3.912282704\H,3.4433058149,4.1591512554,-4.507512626\H,4.6238127524,3
 .1676482493,-3.6321321675\H,1.5964512071,-2.2095113616,0.026264075\H,2
 .9702127445,-1.389957947,-0.7366649911\H,2.8064152692,-1.3661563953,1.
 0158297605\C,-1.5650309037,7.208129124,-5.2194507787\H,-2.2004098004,7
 .1994913658,-6.1124968878\H,-1.6939272342,8.1838947099,-4.7378109384\H
 ,-0.5222318143,7.1389234477,-5.555201154\\Version=EM64L-G09RevB.01\Sta
 te=1-A\HF=-1387.3184853\RMSD=6.645e-09\RMSF=6.595e-06\Dipole=2.1671963
 ,-1.2098426,0.0999474\Quadrupole=-7.7129033,3.9178693,3.795034,1.31987
 88,-7.0503089,-4.3525636\PG=C01 [X(C26H34O5)]\\@


 OF ALL THE WONDERS OF THE UNIVERSE, THE GREATEST IS MAN.

                                    -- ARISTOTLE
 Job cpu time:  0 days  9 hours 59 minutes 43.3 seconds.
 File lengths (MBytes):  RWF=    186 Int=      0 D2E=      0 Chk=     20 Scr=      1
 Normal termination of Gaussian 09 at Wed Mar 24 15:49:50 2021.
