 Entering Gaussian System, Link 0=g09
 Initial command:
 /public/software/g09/g09/l1.exe /tmp/Gau-23624.inp -scrdir=/tmp/
 Entering Link 1 = /public/software/g09/g09/l1.exe PID=     23625.
  
 Copyright (c) 1988,1990,1992,1993,1995,1998,2003,2009,2010,
            Gaussian, Inc.  All Rights Reserved.
  
 This is part of the Gaussian(R) 09 program.  It is based on
 the Gaussian(R) 03 system (copyright 2003, Gaussian, Inc.),
 the Gaussian(R) 98 system (copyright 1998, Gaussian, Inc.),
 the Gaussian(R) 94 system (copyright 1995, Gaussian, Inc.),
 the Gaussian 92(TM) system (copyright 1992, Gaussian, Inc.),
 the Gaussian 90(TM) system (copyright 1990, Gaussian, Inc.),
 the Gaussian 88(TM) system (copyright 1988, Gaussian, Inc.),
 the Gaussian 86(TM) system (copyright 1986, Carnegie Mellon
 University), and the Gaussian 82(TM) system (copyright 1983,
 Carnegie Mellon University). Gaussian is a federally registered
 trademark of Gaussian, Inc.
  
 This software contains proprietary and confidential information,
 including trade secrets, belonging to Gaussian, Inc.
  
 This software is provided under written license and may be
 used, copied, transmitted, or stored only in accord with that
 written license.
  
 The following legend is applicable only to US Government
 contracts under FAR:
  
                    RESTRICTED RIGHTS LEGEND
  
 Use, reproduction and disclosure by the US Government is
 subject to restrictions as set forth in subparagraphs (a)
 and (c) of the Commercial Computer Software - Restricted
 Rights clause in FAR 52.227-19.
  
 Gaussian, Inc.
 340 Quinnipiac St., Bldg. 40, Wallingford CT 06492
  
  
 ---------------------------------------------------------------
 Warning -- This program may not be used in any manner that
 competes with the business of Gaussian, Inc. or will provide
 assistance to any competitor of Gaussian, Inc.  The licensee
 of this program is prohibited from giving any competitor of
 Gaussian, Inc. access to this program.  By using this program,
 the user acknowledges that Gaussian, Inc. is engaged in the
 business of creating and licensing software in the field of
 computational chemistry and represents and warrants to the
 licensee that it is not a competitor of Gaussian, Inc. and that
 it will not use this program in any manner prohibited above.
 ---------------------------------------------------------------
  

 Cite this work as:
 Gaussian 09, Revision B.01,
 M. J. Frisch, G. W. Trucks, H. B. Schlegel, G. E. Scuseria, 
 M. A. Robb, J. R. Cheeseman, G. Scalmani, V. Barone, B. Mennucci, 
 G. A. Petersson, H. Nakatsuji, M. Caricato, X. Li, H. P. Hratchian, 
 A. F. Izmaylov, J. Bloino, G. Zheng, J. L. Sonnenberg, M. Hada, 
 M. Ehara, K. Toyota, R. Fukuda, J. Hasegawa, M. Ishida, T. Nakajima, 
 Y. Honda, O. Kitao, H. Nakai, T. Vreven, J. A. Montgomery, Jr., 
 J. E. Peralta, F. Ogliaro, M. Bearpark, J. J. Heyd, E. Brothers, 
 K. N. Kudin, V. N. Staroverov, T. Keith, R. Kobayashi, J. Normand, 
 K. Raghavachari, A. Rendell, J. C. Burant, S. S. Iyengar, J. Tomasi, 
 M. Cossi, N. Rega, J. M. Millam, M. Klene, J. E. Knox, J. B. Cross, 
 V. Bakken, C. Adamo, J. Jaramillo, R. Gomperts, R. E. Stratmann, 
 O. Yazyev, A. J. Austin, R. Cammi, C. Pomelli, J. W. Ochterski, 
 R. L. Martin, K. Morokuma, V. G. Zakrzewski, G. A. Voth, 
 P. Salvador, J. J. Dannenberg, S. Dapprich, A. D. Daniels, 
 O. Farkas, J. B. Foresman, J. V. Ortiz, J. Cioslowski, 
 and D. J. Fox, Gaussian, Inc., Wallingford CT, 2010.
 
 ******************************************
 Gaussian 09:  EM64L-G09RevB.01 12-Aug-2010
                24-Mar-2021 
 ******************************************
 %mem=600MW
 %nprocshared=10
 Will use up to   10 processors via shared memory.
 ---------------------------------------
 # opt rb3lyp/6-31g(d) geom=connectivity
 ---------------------------------------
 1/14=-1,18=20,19=15,26=3,38=1,57=2/1,3;
 2/9=110,12=2,17=6,18=5,40=1/2;
 3/5=1,6=6,7=1,11=2,16=1,25=1,30=1,71=1,74=-5,116=1/1,2,3;
 4//1;
 5/5=2,38=5/2;
 6/7=2,8=2,9=2,10=2,28=1/1;
 7//1,2,3,16;
 1/14=-1,18=20,19=15/3(2);
 2/9=110/2;
 99//99;
 2/9=110/2;
 3/5=1,6=6,7=1,11=2,16=1,25=1,30=1,71=1,74=-5,116=1/1,2,3;
 4/5=5,16=3/1;
 5/5=2,38=5/2;
 7//1,2,3,16;
 1/14=-1,18=20,19=15/3(-5);
 2/9=110/2;
 6/7=2,8=2,9=2,10=2,19=2,28=1/1;
 99/9=1/99;
 -------------------
 Title Card Required
 -------------------
 Symbolic Z-matrix:
 Charge =  0 Multiplicity = 1
 C                     0.        0.        0. 
 C                     1.3405    0.        0. 
 C                     2.1206    1.2876    0. 
 C                     1.3779    2.5441    0.5458 
 C                    -0.1626    2.4591    0.6836 
 C                    -0.804     1.2579   -0.0427 
 C                     1.8978    3.7044   -0.3332 
 C                     0.9434    4.202    -1.3636 
 C                    -0.3772    4.2481   -1.1669 
 C                    -0.8768    3.6967    0.1127 
 C                    -1.3067    4.6815   -2.2314 
 O                    -2.138     3.8796   -2.6581 
 C                    -1.2233    6.128    -2.7109 
 C                    -1.5112    6.2412   -4.2157 
 C                    -2.2302    6.9524   -1.9096 
 O                    -1.8906    4.1702    0.6229 
 C                     3.0025    3.1614   -1.2202 
 C                     2.9225    4.0564   -2.471 
 O                     1.5392    4.468    -2.588 
 C                     2.5915    1.6938   -1.4009 
 O                     2.3389    4.807     0.4454 
 C                    -0.3868    2.3843    2.2064 
 C                     0.9849    2.1184    2.7989 
 O                     1.8819    2.7736    1.895 
 C                     1.1497    2.6277    4.2128 
 C                     0.3199    1.9227    5.2526 
 C                     1.9833    3.6216    4.566 
 C                     3.7775    5.326    -2.3345 
 C                     3.3167    3.3393   -3.765 
 H                     3.991     3.2172   -0.7474 
 H                     3.013     1.1294    0.6243 
 C                     2.135    -1.2749   -0.0163 
 H                    -0.5505   -0.938    -0.0303 
 H                    -1.7933    1.0571    0.3895 
 H                    -0.9933    1.4827   -1.1007 
 H                    -0.2204    6.5245   -2.5148 
 H                    -1.583     7.3      -4.4934 
 H                    -2.4777    5.7837   -4.4597 
 H                    -3.2536    6.5938   -2.0665 
 H                    -2.021     6.8904   -0.8361 
 H                    -2.1897    8.0076   -2.1992 
 H                     1.7781    1.5785   -2.1281 
 H                     3.4342    1.0839   -1.7439 
 H                     2.4898    4.4495    1.3463 
 H                    -0.7734    3.3344    2.5964 
 H                    -1.1024    1.6105    2.5062 
 H                     1.2178    1.0466    2.7814 
 H                     0.5323    0.8487    5.2429 
 H                     0.5247    2.2906    6.2638 
 H                    -0.7472    2.069     5.0579 
 H                     2.0725    3.9478    5.5978 
 H                     2.6006    4.1399    3.8401 
 H                     3.6672    5.9623   -3.2206 
 H                     4.8379    5.0811   -2.2155 
 H                     3.4669    5.9441   -1.4871 
 H                     2.6242    2.5267   -4.007 
 H                     3.2693    4.0263   -4.6183 
 H                     4.3319    2.9343   -3.7049 
 H                     1.4912   -2.1607   -0.0244 
 H                     2.7709   -1.3178   -0.9062 
 H                     2.7727   -1.3356    0.8715 
 C                    -0.4283    5.5975   -5.0717 
 H                    -0.3564    4.5216   -4.8863 
 H                    -0.6551    5.7392   -6.1333 
 H                     0.5488    6.049    -4.8726 
 

 GradGradGradGradGradGradGradGradGradGradGradGradGradGradGradGradGradGrad
 Berny optimization.
 Initialization pass.
                           ----------------------------
                           !    Initial Parameters    !
                           ! (Angstroms and Degrees)  !
 --------------------------                            --------------------------
 ! Name  Definition              Value          Derivative Info.                !
 --------------------------------------------------------------------------------
 ! R1    R(1,2)                  1.3405         estimate D2E/DX2                !
 ! R2    R(1,6)                  1.4935         estimate D2E/DX2                !
 ! R3    R(1,33)                 1.088          estimate D2E/DX2                !
 ! R4    R(2,3)                  1.5055         estimate D2E/DX2                !
 ! R5    R(2,32)                 1.5023         estimate D2E/DX2                !
 ! R6    R(3,4)                  1.5583         estimate D2E/DX2                !
 ! R7    R(3,20)                 1.5327         estimate D2E/DX2                !
 ! R8    R(3,31)                 1.1005         estimate D2E/DX2                !
 ! R9    R(4,5)                  1.549          estimate D2E/DX2                !
 ! R10   R(4,7)                  1.5457         estimate D2E/DX2                !
 ! R11   R(4,24)                 1.4584         estimate D2E/DX2                !
 ! R12   R(5,6)                  1.5433         estimate D2E/DX2                !
 ! R13   R(5,10)                 1.5387         estimate D2E/DX2                !
 ! R14   R(5,22)                 1.541          estimate D2E/DX2                !
 ! R15   R(6,34)                 1.0981         estimate D2E/DX2                !
 ! R16   R(6,35)                 1.0981         estimate D2E/DX2                !
 ! R17   R(7,8)                  1.49           estimate D2E/DX2                !
 ! R18   R(7,17)                 1.5172         estimate D2E/DX2                !
 ! R19   R(7,21)                 1.42           estimate D2E/DX2                !
 ! R20   R(8,9)                  1.336          estimate D2E/DX2                !
 ! R21   R(8,19)                 1.3874         estimate D2E/DX2                !
 ! R22   R(9,10)                 1.4802         estimate D2E/DX2                !
 ! R23   R(9,11)                 1.4782         estimate D2E/DX2                !
 ! R24   R(10,16)                1.2298         estimate D2E/DX2                !
 ! R25   R(11,12)                1.2313         estimate D2E/DX2                !
 ! R26   R(11,13)                1.5262         estimate D2E/DX2                !
 ! R27   R(13,14)                1.5363         estimate D2E/DX2                !
 ! R28   R(13,15)                1.5283         estimate D2E/DX2                !
 ! R29   R(13,36)                1.0961         estimate D2E/DX2                !
 ! R30   R(14,37)                1.097          estimate D2E/DX2                !
 ! R31   R(14,38)                1.0968         estimate D2E/DX2                !
 ! R32   R(14,62)                1.5231         estimate D2E/DX2                !
 ! R33   R(15,39)                1.0957         estimate D2E/DX2                !
 ! R34   R(15,40)                1.0955         estimate D2E/DX2                !
 ! R35   R(15,41)                1.095          estimate D2E/DX2                !
 ! R36   R(17,18)                1.5401         estimate D2E/DX2                !
 ! R37   R(17,20)                1.5347         estimate D2E/DX2                !
 ! R38   R(17,30)                1.0972         estimate D2E/DX2                !
 ! R39   R(18,19)                1.448          estimate D2E/DX2                !
 ! R40   R(18,28)                1.5367         estimate D2E/DX2                !
 ! R41   R(18,29)                1.531          estimate D2E/DX2                !
 ! R42   R(20,42)                1.0971         estimate D2E/DX2                !
 ! R43   R(20,43)                1.0953         estimate D2E/DX2                !
 ! R44   R(21,44)                0.9809         estimate D2E/DX2                !
 ! R45   R(22,23)                1.5177         estimate D2E/DX2                !
 ! R46   R(22,45)                1.0974         estimate D2E/DX2                !
 ! R47   R(22,46)                1.0958         estimate D2E/DX2                !
 ! R48   R(23,24)                1.4321         estimate D2E/DX2                !
 ! R49   R(23,25)                1.5118         estimate D2E/DX2                !
 ! R50   R(23,47)                1.097          estimate D2E/DX2                !
 ! R51   R(24,44)                1.8653         estimate D2E/DX2                !
 ! R52   R(25,26)                1.5056         estimate D2E/DX2                !
 ! R53   R(25,27)                1.3444         estimate D2E/DX2                !
 ! R54   R(26,48)                1.0948         estimate D2E/DX2                !
 ! R55   R(26,49)                1.0954         estimate D2E/DX2                !
 ! R56   R(26,50)                1.0945         estimate D2E/DX2                !
 ! R57   R(27,51)                1.0858         estimate D2E/DX2                !
 ! R58   R(27,52)                1.0847         estimate D2E/DX2                !
 ! R59   R(28,53)                1.0965         estimate D2E/DX2                !
 ! R60   R(28,54)                1.0948         estimate D2E/DX2                !
 ! R61   R(28,55)                1.0939         estimate D2E/DX2                !
 ! R62   R(29,56)                1.0947         estimate D2E/DX2                !
 ! R63   R(29,57)                1.0965         estimate D2E/DX2                !
 ! R64   R(29,58)                1.0947         estimate D2E/DX2                !
 ! R65   R(32,59)                1.0951         estimate D2E/DX2                !
 ! R66   R(32,60)                1.0946         estimate D2E/DX2                !
 ! R67   R(32,61)                1.0948         estimate D2E/DX2                !
 ! R68   R(62,63)                1.0941         estimate D2E/DX2                !
 ! R69   R(62,64)                1.0948         estimate D2E/DX2                !
 ! R70   R(62,65)                1.0946         estimate D2E/DX2                !
 ! A1    A(2,1,6)              122.5701         estimate D2E/DX2                !
 ! A2    A(2,1,33)             120.3951         estimate D2E/DX2                !
 ! A3    A(6,1,33)             116.9323         estimate D2E/DX2                !
 ! A4    A(1,2,3)              121.2098         estimate D2E/DX2                !
 ! A5    A(1,2,32)             121.9285         estimate D2E/DX2                !
 ! A6    A(3,2,32)             116.8579         estimate D2E/DX2                !
 ! A7    A(2,3,4)              116.2741         estimate D2E/DX2                !
 ! A8    A(2,3,20)             112.6972         estimate D2E/DX2                !
 ! A9    A(2,3,31)             107.2916         estimate D2E/DX2                !
 ! A10   A(4,3,20)             104.6472         estimate D2E/DX2                !
 ! A11   A(4,3,31)             107.6797         estimate D2E/DX2                !
 ! A12   A(20,3,31)            107.9057         estimate D2E/DX2                !
 ! A13   A(3,4,5)              117.4459         estimate D2E/DX2                !
 ! A14   A(3,4,7)              104.2285         estimate D2E/DX2                !
 ! A15   A(3,4,24)             106.6306         estimate D2E/DX2                !
 ! A16   A(5,4,7)              115.2323         estimate D2E/DX2                !
 ! A17   A(5,4,24)             105.6655         estimate D2E/DX2                !
 ! A18   A(7,4,24)             106.9609         estimate D2E/DX2                !
 ! A19   A(4,5,6)              114.467          estimate D2E/DX2                !
 ! A20   A(4,5,10)             112.6106         estimate D2E/DX2                !
 ! A21   A(4,5,22)             103.6071         estimate D2E/DX2                !
 ! A22   A(6,5,10)             104.9813         estimate D2E/DX2                !
 ! A23   A(6,5,22)             111.5185         estimate D2E/DX2                !
 ! A24   A(10,5,22)            109.7639         estimate D2E/DX2                !
 ! A25   A(1,6,5)              114.7311         estimate D2E/DX2                !
 ! A26   A(1,6,34)             108.6463         estimate D2E/DX2                !
 ! A27   A(1,6,35)             107.0246         estimate D2E/DX2                !
 ! A28   A(5,6,34)             109.3611         estimate D2E/DX2                !
 ! A29   A(5,6,35)             111.4537         estimate D2E/DX2                !
 ! A30   A(34,6,35)            105.1503         estimate D2E/DX2                !
 ! A31   A(4,7,8)              115.372          estimate D2E/DX2                !
 ! A32   A(4,7,17)             107.9809         estimate D2E/DX2                !
 ! A33   A(4,7,21)             112.0572         estimate D2E/DX2                !
 ! A34   A(8,7,17)             100.4632         estimate D2E/DX2                !
 ! A35   A(8,7,21)             108.5918         estimate D2E/DX2                !
 ! A36   A(17,7,21)            111.8552         estimate D2E/DX2                !
 ! A37   A(7,8,9)              122.8787         estimate D2E/DX2                !
 ! A38   A(7,8,19)             113.531          estimate D2E/DX2                !
 ! A39   A(9,8,19)             123.2174         estimate D2E/DX2                !
 ! A40   A(8,9,10)             116.6195         estimate D2E/DX2                !
 ! A41   A(8,9,11)             121.7137         estimate D2E/DX2                !
 ! A42   A(10,9,11)            121.3009         estimate D2E/DX2                !
 ! A43   A(5,10,9)             117.6257         estimate D2E/DX2                !
 ! A44   A(5,10,16)            122.5748         estimate D2E/DX2                !
 ! A45   A(9,10,16)            119.5688         estimate D2E/DX2                !
 ! A46   A(9,11,12)            118.8909         estimate D2E/DX2                !
 ! A47   A(9,11,13)            118.0206         estimate D2E/DX2                !
 ! A48   A(12,11,13)           123.0425         estimate D2E/DX2                !
 ! A49   A(11,13,14)           111.5519         estimate D2E/DX2                !
 ! A50   A(11,13,15)           108.0916         estimate D2E/DX2                !
 ! A51   A(11,13,36)           109.672          estimate D2E/DX2                !
 ! A52   A(14,13,15)           110.5095         estimate D2E/DX2                !
 ! A53   A(14,13,36)           108.6659         estimate D2E/DX2                !
 ! A54   A(15,13,36)           108.2937         estimate D2E/DX2                !
 ! A55   A(13,14,37)           109.351          estimate D2E/DX2                !
 ! A56   A(13,14,38)           110.6288         estimate D2E/DX2                !
 ! A57   A(13,14,62)           112.7136         estimate D2E/DX2                !
 ! A58   A(37,14,38)           106.7751         estimate D2E/DX2                !
 ! A59   A(37,14,62)           108.1911         estimate D2E/DX2                !
 ! A60   A(38,14,62)           108.9783         estimate D2E/DX2                !
 ! A61   A(13,15,39)           111.3308         estimate D2E/DX2                !
 ! A62   A(13,15,40)           110.9445         estimate D2E/DX2                !
 ! A63   A(13,15,41)           110.904          estimate D2E/DX2                !
 ! A64   A(39,15,40)           107.468          estimate D2E/DX2                !
 ! A65   A(39,15,41)           108.1838         estimate D2E/DX2                !
 ! A66   A(40,15,41)           107.8582         estimate D2E/DX2                !
 ! A67   A(7,17,18)            103.2381         estimate D2E/DX2                !
 ! A68   A(7,17,20)            102.479          estimate D2E/DX2                !
 ! A69   A(7,17,30)            112.697          estimate D2E/DX2                !
 ! A70   A(18,17,20)           116.4984         estimate D2E/DX2                !
 ! A71   A(18,17,30)           111.5444         estimate D2E/DX2                !
 ! A72   A(20,17,30)           109.9161         estimate D2E/DX2                !
 ! A73   A(17,18,19)           106.2865         estimate D2E/DX2                !
 ! A74   A(17,18,28)           112.2761         estimate D2E/DX2                !
 ! A75   A(17,18,29)           113.6316         estimate D2E/DX2                !
 ! A76   A(19,18,28)           107.6894         estimate D2E/DX2                !
 ! A77   A(19,18,29)           108.1087         estimate D2E/DX2                !
 ! A78   A(28,18,29)           108.5891         estimate D2E/DX2                !
 ! A79   A(8,19,18)            106.5257         estimate D2E/DX2                !
 ! A80   A(3,20,17)            103.1844         estimate D2E/DX2                !
 ! A81   A(3,20,42)            110.4982         estimate D2E/DX2                !
 ! A82   A(3,20,43)            112.0251         estimate D2E/DX2                !
 ! A83   A(17,20,42)           112.1524         estimate D2E/DX2                !
 ! A84   A(17,20,43)           111.3026         estimate D2E/DX2                !
 ! A85   A(42,20,43)           107.7165         estimate D2E/DX2                !
 ! A86   A(7,21,44)            105.5673         estimate D2E/DX2                !
 ! A87   A(5,22,23)            105.2358         estimate D2E/DX2                !
 ! A88   A(5,22,45)            111.1257         estimate D2E/DX2                !
 ! A89   A(5,22,46)            113.556          estimate D2E/DX2                !
 ! A90   A(23,22,45)           109.3509         estimate D2E/DX2                !
 ! A91   A(23,22,46)           111.0822         estimate D2E/DX2                !
 ! A92   A(45,22,46)           106.5044         estimate D2E/DX2                !
 ! A93   A(22,23,24)           103.8595         estimate D2E/DX2                !
 ! A94   A(22,23,25)           113.8668         estimate D2E/DX2                !
 ! A95   A(22,23,47)           110.907          estimate D2E/DX2                !
 ! A96   A(24,23,25)           111.585          estimate D2E/DX2                !
 ! A97   A(24,23,47)           107.6959         estimate D2E/DX2                !
 ! A98   A(25,23,47)           108.7189         estimate D2E/DX2                !
 ! A99   A(4,24,23)            107.1845         estimate D2E/DX2                !
 ! A100  A(23,25,26)           115.345          estimate D2E/DX2                !
 ! A101  A(23,25,27)           124.2169         estimate D2E/DX2                !
 ! A102  A(26,25,27)           120.4289         estimate D2E/DX2                !
 ! A103  A(25,26,48)           110.2612         estimate D2E/DX2                !
 ! A104  A(25,26,49)           112.163          estimate D2E/DX2                !
 ! A105  A(25,26,50)           110.6031         estimate D2E/DX2                !
 ! A106  A(48,26,49)           107.5407         estimate D2E/DX2                !
 ! A107  A(48,26,50)           108.5831         estimate D2E/DX2                !
 ! A108  A(49,26,50)           107.554          estimate D2E/DX2                !
 ! A109  A(25,27,51)           121.5122         estimate D2E/DX2                !
 ! A110  A(25,27,52)           122.0248         estimate D2E/DX2                !
 ! A111  A(51,27,52)           116.463          estimate D2E/DX2                !
 ! A112  A(18,28,53)           110.5909         estimate D2E/DX2                !
 ! A113  A(18,28,54)           111.3301         estimate D2E/DX2                !
 ! A114  A(18,28,55)           112.1885         estimate D2E/DX2                !
 ! A115  A(53,28,54)           108.3664         estimate D2E/DX2                !
 ! A116  A(53,28,55)           105.6387         estimate D2E/DX2                !
 ! A117  A(54,28,55)           108.4944         estimate D2E/DX2                !
 ! A118  A(18,29,56)           111.8162         estimate D2E/DX2                !
 ! A119  A(18,29,57)           110.679          estimate D2E/DX2                !
 ! A120  A(18,29,58)           111.4489         estimate D2E/DX2                !
 ! A121  A(56,29,57)           105.4081         estimate D2E/DX2                !
 ! A122  A(56,29,58)           108.9151         estimate D2E/DX2                !
 ! A123  A(57,29,58)           108.3379         estimate D2E/DX2                !
 ! A124  A(2,32,59)            112.0627         estimate D2E/DX2                !
 ! A125  A(2,32,60)            110.4458         estimate D2E/DX2                !
 ! A126  A(2,32,61)            110.2619         estimate D2E/DX2                !
 ! A127  A(59,32,60)           107.6875         estimate D2E/DX2                !
 ! A128  A(59,32,61)           107.674          estimate D2E/DX2                !
 ! A129  A(60,32,61)           108.5857         estimate D2E/DX2                !
 ! A130  A(14,62,63)           111.5357         estimate D2E/DX2                !
 ! A131  A(14,62,64)           110.0595         estimate D2E/DX2                !
 ! A132  A(14,62,65)           110.9841         estimate D2E/DX2                !
 ! A133  A(63,62,64)           107.7708         estimate D2E/DX2                !
 ! A134  A(63,62,65)           108.4283         estimate D2E/DX2                !
 ! A135  A(64,62,65)           107.9336         estimate D2E/DX2                !
 ! D1    D(6,1,2,3)              1.9442         estimate D2E/DX2                !
 ! D2    D(6,1,2,32)          -177.3233         estimate D2E/DX2                !
 ! D3    D(33,1,2,3)           178.1498         estimate D2E/DX2                !
 ! D4    D(33,1,2,32)           -1.1177         estimate D2E/DX2                !
 ! D5    D(2,1,6,5)            -33.1553         estimate D2E/DX2                !
 ! D6    D(2,1,6,34)          -155.8828         estimate D2E/DX2                !
 ! D7    D(2,1,6,35)            91.0511         estimate D2E/DX2                !
 ! D8    D(33,1,6,5)           150.5155         estimate D2E/DX2                !
 ! D9    D(33,1,6,34)           27.788          estimate D2E/DX2                !
 ! D10   D(33,1,6,35)          -85.2781         estimate D2E/DX2                !
 ! D11   D(1,2,3,4)             22.9924         estimate D2E/DX2                !
 ! D12   D(1,2,3,20)           -97.8148         estimate D2E/DX2                !
 ! D13   D(1,2,3,31)           143.5496         estimate D2E/DX2                !
 ! D14   D(32,2,3,4)          -157.7044         estimate D2E/DX2                !
 ! D15   D(32,2,3,20)           81.4884         estimate D2E/DX2                !
 ! D16   D(32,2,3,31)          -37.1472         estimate D2E/DX2                !
 ! D17   D(1,2,32,59)           -0.1821         estimate D2E/DX2                !
 ! D18   D(1,2,32,60)          119.8822         estimate D2E/DX2                !
 ! D19   D(1,2,32,61)         -120.1037         estimate D2E/DX2                !
 ! D20   D(3,2,32,59)         -179.4798         estimate D2E/DX2                !
 ! D21   D(3,2,32,60)          -59.4155         estimate D2E/DX2                !
 ! D22   D(3,2,32,61)           60.5985         estimate D2E/DX2                !
 ! D23   D(2,3,4,5)            -15.6399         estimate D2E/DX2                !
 ! D24   D(2,3,4,7)           -144.4875         estimate D2E/DX2                !
 ! D25   D(2,3,4,24)           102.5686         estimate D2E/DX2                !
 ! D26   D(20,3,4,5)           109.3756         estimate D2E/DX2                !
 ! D27   D(20,3,4,7)           -19.472          estimate D2E/DX2                !
 ! D28   D(20,3,4,24)         -132.4159         estimate D2E/DX2                !
 ! D29   D(31,3,4,5)          -135.9892         estimate D2E/DX2                !
 ! D30   D(31,3,4,7)            95.1632         estimate D2E/DX2                !
 ! D31   D(31,3,4,24)          -17.7807         estimate D2E/DX2                !
 ! D32   D(2,3,20,17)          165.2445         estimate D2E/DX2                !
 ! D33   D(2,3,20,42)           45.1759         estimate D2E/DX2                !
 ! D34   D(2,3,20,43)          -74.9358         estimate D2E/DX2                !
 ! D35   D(4,3,20,17)           37.9972         estimate D2E/DX2                !
 ! D36   D(4,3,20,42)          -82.0714         estimate D2E/DX2                !
 ! D37   D(4,3,20,43)          157.8168         estimate D2E/DX2                !
 ! D38   D(31,3,20,17)         -76.4793         estimate D2E/DX2                !
 ! D39   D(31,3,20,42)         163.4521         estimate D2E/DX2                !
 ! D40   D(31,3,20,43)          43.3404         estimate D2E/DX2                !
 ! D41   D(3,4,5,6)            -13.5594         estimate D2E/DX2                !
 ! D42   D(3,4,5,10)          -133.372          estimate D2E/DX2                !
 ! D43   D(3,4,5,22)           108.0935         estimate D2E/DX2                !
 ! D44   D(7,4,5,6)            109.8714         estimate D2E/DX2                !
 ! D45   D(7,4,5,10)            -9.9412         estimate D2E/DX2                !
 ! D46   D(7,4,5,22)          -128.4757         estimate D2E/DX2                !
 ! D47   D(24,4,5,6)          -132.2833         estimate D2E/DX2                !
 ! D48   D(24,4,5,10)          107.9041         estimate D2E/DX2                !
 ! D49   D(24,4,5,22)          -10.6304         estimate D2E/DX2                !
 ! D50   D(3,4,7,8)            105.0233         estimate D2E/DX2                !
 ! D51   D(3,4,7,17)            -6.3982         estimate D2E/DX2                !
 ! D52   D(3,4,7,21)          -130.0255         estimate D2E/DX2                !
 ! D53   D(5,4,7,8)            -25.1534         estimate D2E/DX2                !
 ! D54   D(5,4,7,17)          -136.5748         estimate D2E/DX2                !
 ! D55   D(5,4,7,21)            99.7978         estimate D2E/DX2                !
 ! D56   D(24,4,7,8)          -142.2698         estimate D2E/DX2                !
 ! D57   D(24,4,7,17)          106.3088         estimate D2E/DX2                !
 ! D58   D(24,4,7,21)          -17.3185         estimate D2E/DX2                !
 ! D59   D(3,4,24,23)          -94.143          estimate D2E/DX2                !
 ! D60   D(5,4,24,23)           31.5438         estimate D2E/DX2                !
 ! D61   D(7,4,24,23)          154.8009         estimate D2E/DX2                !
 ! D62   D(4,5,6,1)             37.0406         estimate D2E/DX2                !
 ! D63   D(4,5,6,34)           159.3821         estimate D2E/DX2                !
 ! D64   D(4,5,6,35)           -84.7862         estimate D2E/DX2                !
 ! D65   D(10,5,6,1)           161.0291         estimate D2E/DX2                !
 ! D66   D(10,5,6,34)          -76.6294         estimate D2E/DX2                !
 ! D67   D(10,5,6,35)           39.2023         estimate D2E/DX2                !
 ! D68   D(22,5,6,1)           -80.1693         estimate D2E/DX2                !
 ! D69   D(22,5,6,34)           42.1723         estimate D2E/DX2                !
 ! D70   D(22,5,6,35)          158.004          estimate D2E/DX2                !
 ! D71   D(4,5,10,9)            41.6348         estimate D2E/DX2                !
 ! D72   D(4,5,10,16)         -143.9135         estimate D2E/DX2                !
 ! D73   D(6,5,10,9)           -83.5271         estimate D2E/DX2                !
 ! D74   D(6,5,10,16)           90.9246         estimate D2E/DX2                !
 ! D75   D(22,5,10,9)          156.4976         estimate D2E/DX2                !
 ! D76   D(22,5,10,16)         -29.0507         estimate D2E/DX2                !
 ! D77   D(4,5,22,23)          -12.2699         estimate D2E/DX2                !
 ! D78   D(4,5,22,45)          105.9856         estimate D2E/DX2                !
 ! D79   D(4,5,22,46)         -133.9682         estimate D2E/DX2                !
 ! D80   D(6,5,22,23)          111.3373         estimate D2E/DX2                !
 ! D81   D(6,5,22,45)         -130.4072         estimate D2E/DX2                !
 ! D82   D(6,5,22,46)          -10.361          estimate D2E/DX2                !
 ! D83   D(10,5,22,23)        -132.7542         estimate D2E/DX2                !
 ! D84   D(10,5,22,45)         -14.4987         estimate D2E/DX2                !
 ! D85   D(10,5,22,46)         105.5475         estimate D2E/DX2                !
 ! D86   D(4,7,8,9)             34.8242         estimate D2E/DX2                !
 ! D87   D(4,7,8,19)          -138.3646         estimate D2E/DX2                !
 ! D88   D(17,7,8,9)           150.6102         estimate D2E/DX2                !
 ! D89   D(17,7,8,19)          -22.5785         estimate D2E/DX2                !
 ! D90   D(21,7,8,9)           -91.9046         estimate D2E/DX2                !
 ! D91   D(21,7,8,19)           94.9067         estimate D2E/DX2                !
 ! D92   D(4,7,17,18)          151.0145         estimate D2E/DX2                !
 ! D93   D(4,7,17,20)           29.5812         estimate D2E/DX2                !
 ! D94   D(4,7,17,30)          -88.5009         estimate D2E/DX2                !
 ! D95   D(8,7,17,18)           29.813          estimate D2E/DX2                !
 ! D96   D(8,7,17,20)          -91.6204         estimate D2E/DX2                !
 ! D97   D(8,7,17,30)          150.2976         estimate D2E/DX2                !
 ! D98   D(21,7,17,18)         -85.2359         estimate D2E/DX2                !
 ! D99   D(21,7,17,20)         153.3307         estimate D2E/DX2                !
 ! D100  D(21,7,17,30)          35.2487         estimate D2E/DX2                !
 ! D101  D(4,7,21,44)           18.8553         estimate D2E/DX2                !
 ! D102  D(8,7,21,44)          147.4702         estimate D2E/DX2                !
 ! D103  D(17,7,21,44)        -102.5701         estimate D2E/DX2                !
 ! D104  D(7,8,9,10)            -3.6775         estimate D2E/DX2                !
 ! D105  D(7,8,9,11)          -176.8177         estimate D2E/DX2                !
 ! D106  D(19,8,9,10)          168.8543         estimate D2E/DX2                !
 ! D107  D(19,8,9,11)           -4.2858         estimate D2E/DX2                !
 ! D108  D(7,8,19,18)            4.4825         estimate D2E/DX2                !
 ! D109  D(9,8,19,18)         -168.6799         estimate D2E/DX2                !
 ! D110  D(8,9,10,5)           -36.1354         estimate D2E/DX2                !
 ! D111  D(8,9,10,16)          149.2396         estimate D2E/DX2                !
 ! D112  D(11,9,10,5)          137.0351         estimate D2E/DX2                !
 ! D113  D(11,9,10,16)         -37.5899         estimate D2E/DX2                !
 ! D114  D(8,9,11,12)          117.1513         estimate D2E/DX2                !
 ! D115  D(8,9,11,13)          -65.2392         estimate D2E/DX2                !
 ! D116  D(10,9,11,12)         -55.6697         estimate D2E/DX2                !
 ! D117  D(10,9,11,13)         121.9398         estimate D2E/DX2                !
 ! D118  D(9,11,13,14)         144.9634         estimate D2E/DX2                !
 ! D119  D(9,11,13,15)         -93.3468         estimate D2E/DX2                !
 ! D120  D(9,11,13,36)          24.5236         estimate D2E/DX2                !
 ! D121  D(12,11,13,14)        -37.5335         estimate D2E/DX2                !
 ! D122  D(12,11,13,15)         84.1563         estimate D2E/DX2                !
 ! D123  D(12,11,13,36)       -157.9733         estimate D2E/DX2                !
 ! D124  D(11,13,14,37)        172.0244         estimate D2E/DX2                !
 ! D125  D(11,13,14,38)         54.6978         estimate D2E/DX2                !
 ! D126  D(11,13,14,62)        -67.5975         estimate D2E/DX2                !
 ! D127  D(15,13,14,37)         51.7449         estimate D2E/DX2                !
 ! D128  D(15,13,14,38)        -65.5817         estimate D2E/DX2                !
 ! D129  D(15,13,14,62)        172.123          estimate D2E/DX2                !
 ! D130  D(36,13,14,37)        -66.9476         estimate D2E/DX2                !
 ! D131  D(36,13,14,38)        175.7259         estimate D2E/DX2                !
 ! D132  D(36,13,14,62)         53.4306         estimate D2E/DX2                !
 ! D133  D(11,13,15,39)        -61.0052         estimate D2E/DX2                !
 ! D134  D(11,13,15,40)         58.6325         estimate D2E/DX2                !
 ! D135  D(11,13,15,41)        178.4793         estimate D2E/DX2                !
 ! D136  D(14,13,15,39)         61.3256         estimate D2E/DX2                !
 ! D137  D(14,13,15,40)       -179.0366         estimate D2E/DX2                !
 ! D138  D(14,13,15,41)        -59.1899         estimate D2E/DX2                !
 ! D139  D(36,13,15,39)       -179.7557         estimate D2E/DX2                !
 ! D140  D(36,13,15,40)        -60.118          estimate D2E/DX2                !
 ! D141  D(36,13,15,41)         59.7288         estimate D2E/DX2                !
 ! D142  D(13,14,62,63)         62.7791         estimate D2E/DX2                !
 ! D143  D(13,14,62,64)       -177.6564         estimate D2E/DX2                !
 ! D144  D(13,14,62,65)        -58.2412         estimate D2E/DX2                !
 ! D145  D(37,14,62,63)       -176.1791         estimate D2E/DX2                !
 ! D146  D(37,14,62,64)        -56.6145         estimate D2E/DX2                !
 ! D147  D(37,14,62,65)         62.8006         estimate D2E/DX2                !
 ! D148  D(38,14,62,63)        -60.44           estimate D2E/DX2                !
 ! D149  D(38,14,62,64)         59.1246         estimate D2E/DX2                !
 ! D150  D(38,14,62,65)        178.5398         estimate D2E/DX2                !
 ! D151  D(7,17,18,19)         -29.3665         estimate D2E/DX2                !
 ! D152  D(7,17,18,28)          88.1351         estimate D2E/DX2                !
 ! D153  D(7,17,18,29)        -148.1362         estimate D2E/DX2                !
 ! D154  D(20,17,18,19)         82.0608         estimate D2E/DX2                !
 ! D155  D(20,17,18,28)       -160.4375         estimate D2E/DX2                !
 ! D156  D(20,17,18,29)        -36.7089         estimate D2E/DX2                !
 ! D157  D(30,17,18,19)       -150.6347         estimate D2E/DX2                !
 ! D158  D(30,17,18,28)        -33.133          estimate D2E/DX2                !
 ! D159  D(30,17,18,29)         90.5956         estimate D2E/DX2                !
 ! D160  D(7,17,20,3)          -41.4561         estimate D2E/DX2                !
 ! D161  D(7,17,20,42)          77.4709         estimate D2E/DX2                !
 ! D162  D(7,17,20,43)        -161.7715         estimate D2E/DX2                !
 ! D163  D(18,17,20,3)        -153.3201         estimate D2E/DX2                !
 ! D164  D(18,17,20,42)        -34.3931         estimate D2E/DX2                !
 ! D165  D(18,17,20,43)         86.3646         estimate D2E/DX2                !
 ! D166  D(30,17,20,3)          78.5781         estimate D2E/DX2                !
 ! D167  D(30,17,20,42)       -162.4949         estimate D2E/DX2                !
 ! D168  D(30,17,20,43)        -41.7372         estimate D2E/DX2                !
 ! D169  D(17,18,19,8)          15.7633         estimate D2E/DX2                !
 ! D170  D(28,18,19,8)        -104.7475         estimate D2E/DX2                !
 ! D171  D(29,18,19,8)         138.1016         estimate D2E/DX2                !
 ! D172  D(17,18,28,53)       -177.6008         estimate D2E/DX2                !
 ! D173  D(17,18,28,54)         61.8649         estimate D2E/DX2                !
 ! D174  D(17,18,28,55)        -59.9406         estimate D2E/DX2                !
 ! D175  D(19,18,28,53)        -60.9374         estimate D2E/DX2                !
 ! D176  D(19,18,28,54)        178.5284         estimate D2E/DX2                !
 ! D177  D(19,18,28,55)         56.7228         estimate D2E/DX2                !
 ! D178  D(29,18,28,53)         55.9007         estimate D2E/DX2                !
 ! D179  D(29,18,28,54)        -64.6335         estimate D2E/DX2                !
 ! D180  D(29,18,28,55)        173.5609         estimate D2E/DX2                !
 ! D181  D(17,18,29,56)         64.3673         estimate D2E/DX2                !
 ! D182  D(17,18,29,57)       -178.4397         estimate D2E/DX2                !
 ! D183  D(17,18,29,58)        -57.8023         estimate D2E/DX2                !
 ! D184  D(19,18,29,56)        -53.3525         estimate D2E/DX2                !
 ! D185  D(19,18,29,57)         63.8406         estimate D2E/DX2                !
 ! D186  D(19,18,29,58)       -175.5221         estimate D2E/DX2                !
 ! D187  D(28,18,29,56)       -169.9214         estimate D2E/DX2                !
 ! D188  D(28,18,29,57)        -52.7283         estimate D2E/DX2                !
 ! D189  D(28,18,29,58)         67.909          estimate D2E/DX2                !
 ! D190  D(5,22,23,24)          31.3519         estimate D2E/DX2                !
 ! D191  D(5,22,23,25)         152.9197         estimate D2E/DX2                !
 ! D192  D(5,22,23,47)         -84.0772         estimate D2E/DX2                !
 ! D193  D(45,22,23,24)        -88.0915         estimate D2E/DX2                !
 ! D194  D(45,22,23,25)         33.4762         estimate D2E/DX2                !
 ! D195  D(45,22,23,47)        156.4793         estimate D2E/DX2                !
 ! D196  D(46,22,23,24)        154.6447         estimate D2E/DX2                !
 ! D197  D(46,22,23,25)        -83.7876         estimate D2E/DX2                !
 ! D198  D(46,22,23,47)         39.2155         estimate D2E/DX2                !
 ! D199  D(22,23,24,4)         -39.4041         estimate D2E/DX2                !
 ! D200  D(25,23,24,4)        -162.4823         estimate D2E/DX2                !
 ! D201  D(47,23,24,4)          78.2757         estimate D2E/DX2                !
 ! D202  D(22,23,25,26)         67.2445         estimate D2E/DX2                !
 ! D203  D(22,23,25,27)       -113.863          estimate D2E/DX2                !
 ! D204  D(24,23,25,26)       -175.5787         estimate D2E/DX2                !
 ! D205  D(24,23,25,27)          3.3138         estimate D2E/DX2                !
 ! D206  D(47,23,25,26)        -56.9454         estimate D2E/DX2                !
 ! D207  D(47,23,25,27)        121.9471         estimate D2E/DX2                !
 ! D208  D(23,25,26,48)         56.6706         estimate D2E/DX2                !
 ! D209  D(23,25,26,49)        176.4894         estimate D2E/DX2                !
 ! D210  D(23,25,26,50)        -63.4409         estimate D2E/DX2                !
 ! D211  D(27,25,26,48)       -122.2673         estimate D2E/DX2                !
 ! D212  D(27,25,26,49)         -2.4485         estimate D2E/DX2                !
 ! D213  D(27,25,26,50)        117.6212         estimate D2E/DX2                !
 ! D214  D(23,25,27,51)       -179.5259         estimate D2E/DX2                !
 ! D215  D(23,25,27,52)          0.5028         estimate D2E/DX2                !
 ! D216  D(26,25,27,51)         -0.6867         estimate D2E/DX2                !
 ! D217  D(26,25,27,52)        179.342          estimate D2E/DX2                !
 --------------------------------------------------------------------------------
 Trust Radius=3.00D-01 FncErr=1.00D-07 GrdErr=1.00D-06
 Number of steps in this run=    390 maximum allowed number of steps=    390.
 GradGradGradGradGradGradGradGradGradGradGradGradGradGradGradGradGradGrad

 Stoichiometry    C26H34O5
 Framework group  C1[X(C26H34O5)]
 Deg. of freedom   189
 Full point group                 C1      NOp   1
 Largest Abelian subgroup         C1      NOp   1
 Largest concise Abelian subgroup C1      NOp   1
                         Standard orientation:                         
 ---------------------------------------------------------------------
 Center     Atomic      Atomic             Coordinates (Angstroms)
 Number     Number       Type             X           Y           Z
 ---------------------------------------------------------------------
      1          6           0       -1.937065    0.582549    2.770300
      2          6           0       -2.175874    1.666052    2.018016
      3          6           0       -1.652711    1.768978    0.610118
      4          6           0       -1.332148    0.423023   -0.106777
      5          6           0       -1.217026   -0.845570    0.774570
      6          6           0       -1.111146   -0.564702    2.288403
      7          6           0       -0.090666    0.739449   -0.971549
      8          6           0        1.199689    0.199790   -0.457777
      9          6           0        1.293640   -0.969686    0.181208
     10          6           0        0.025584   -1.688589    0.438561
     11          6           0        2.575152   -1.448494    0.741061
     12          8           0        2.668852   -1.611413    1.957964
     13          6           0        3.706416   -1.771072   -0.231268
     14          6           0        5.078352   -1.413914    0.360637
     15          6           0        3.637493   -3.261543   -0.561889
     16          8           0        0.021658   -2.917769    0.475935
     17          6           0        0.177439    2.229896   -0.878462
     18          6           0        1.701282    2.327346   -1.079290
     19          8           0        2.257533    1.090058   -0.573004
     20          6           0       -0.352446    2.575468    0.519832
     21          8           0       -0.255443    0.314971   -2.316607
     22          6           0       -2.493086   -1.639995    0.434955
     23          6           0       -3.371261   -0.672833   -0.337526
     24          8           0       -2.435813    0.165897   -1.024839
     25          6           0       -4.324893   -1.346137   -1.298207
     26          6           0       -5.411934   -2.167604   -0.657652
     27          6           0       -4.258607   -1.228957   -2.635873
     28          6           0        2.087330    2.440474   -2.562432
     29          6           0        2.347880    3.486934   -0.316841
     30          1           0       -0.366617    2.806113   -1.637252
     31          1           0       -2.416793    2.291152    0.014579
     32          6           0       -2.959345    2.837536    2.538269
     33          1           0       -2.295933    0.534762    3.796333
     34          1           0       -1.400753   -1.464794    2.846788
     35          1           0       -0.074224   -0.362490    2.587795
     36          1           0        3.567131   -1.205832   -1.160019
     37          1           0        5.868596   -1.788395   -0.301639
     38          1           0        5.219969   -1.904485    1.331332
     39          1           0        3.767033   -3.875458    0.336380
     40          1           0        2.667740   -3.520934   -1.000417
     41          1           0        4.415862   -3.538748   -1.280397
     42          1           0        0.343244    2.272727    1.312357
     43          1           0       -0.528452    3.651550    0.623954
     44          1           0       -1.221967    0.202521   -2.440639
     45          1           0       -2.262819   -2.506693   -0.197549
     46          1           0       -3.015037   -2.028083    1.316819
     47          1           0       -3.949235   -0.037996    0.345287
     48          1           0       -5.993931   -1.551734    0.035650
     49          1           0       -6.107565   -2.580369   -1.396260
     50          1           0       -4.983257   -3.007750   -0.102310
     51          1           0       -4.972369   -1.726782   -3.285248
     52          1           0       -3.493061   -0.635467   -3.124068
     53          1           0        3.177576    2.465240   -2.676310
     54          1           0        1.672650    3.347614   -3.013787
     55          1           0        1.749599    1.577853   -3.144179
     56          1           0        2.256399    3.362496    0.766942
     57          1           0        3.425475    3.527898   -0.515456
     58          1           0        1.908335    4.448047   -0.602025
     59          1           0       -3.293372    2.683560    3.569726
     60          1           0       -2.348119    3.745363    2.518653
     61          1           0       -3.848975    3.002478    1.921920
     62          6           0        5.272550    0.087069    0.531206
     63          1           0        4.550929    0.507664    1.237936
     64          1           0        6.276439    0.294544    0.915486
     65          1           0        5.163627    0.607650   -0.425532
 ---------------------------------------------------------------------
 Rotational constants (GHZ):      0.2237739      0.1226006      0.1075426
 Standard basis: 6-31G(d) (6D, 7F)
 There are   533 symmetry adapted basis functions of A   symmetry.
 Integral buffers will be    131072 words long.
 Raffenetti 2 integral format.
 Two-electron integral symmetry is turned on.
   533 basis functions,  1004 primitive gaussians,   533 cartesian basis functions
   115 alpha electrons      115 beta electrons
       nuclear repulsion energy      3512.3856903285 Hartrees.
 NAtoms=   65 NActive=   65 NUniq=   65 SFac= 1.00D+00 NAtFMM=   50 NAOKFM=T Big=T
 One-electron integrals computed using PRISM.
 NBasis=   533 RedAO= T  NBF=   533
 NBsUse=   533 1.00D-06 NBFU=   533
 Harris functional with IExCor=  402 diagonalized for initial guess.
 ExpMin= 1.61D-01 ExpMax= 5.48D+03 ExpMxC= 8.25D+02 IAcc=1 IRadAn=         1 AccDes= 0.00D+00
 HarFok:  IExCor=  402 AccDes= 0.00D+00 IRadAn=         1 IDoV= 1
 ScaDFX=  1.000000  1.000000  1.000000  1.000000
 FoFCou: FMM=F IPFlag=           0 FMFlag=      100000 FMFlg1=        2001
         NFxFlg=           0 DoJE=T BraDBF=F KetDBF=T FulRan=T
         Omega=  0.000000  0.000000  1.000000  0.000000  0.000000 ICntrl=     500 IOpCl=  0
         NMat0=    1 NMatS0=    1 NMatT0=    0 NMatD0=    1 NMtDS0=    0 NMtDT0=    0
         I1Cent=           4 NGrid=           0.
 Petite list used in FoFCou.
 Initial guess orbital symmetries:
       Occupied  (A) (A) (A) (A) (A) (A) (A) (A) (A) (A) (A) (A)
                 (A) (A) (A) (A) (A) (A) (A) (A) (A) (A) (A) (A)
                 (A) (A) (A) (A) (A) (A) (A) (A) (A) (A) (A) (A)
                 (A) (A) (A) (A) (A) (A) (A) (A) (A) (A) (A) (A)
                 (A) (A) (A) (A) (A) (A) (A) (A) (A) (A) (A) (A)
                 (A) (A) (A) (A) (A) (A) (A) (A) (A) (A) (A) (A)
                 (A) (A) (A) (A) (A) (A) (A) (A) (A) (A) (A) (A)
                 (A) (A) (A) (A) (A) (A) (A) (A) (A) (A) (A) (A)
                 (A) (A) (A) (A) (A) (A) (A) (A) (A) (A) (A) (A)
                 (A) (A) (A) (A) (A) (A) (A)
       Virtual   (A) (A) (A) (A) (A) (A) (A) (A) (A) (A) (A) (A)
                 (A) (A) (A) (A) (A) (A) (A) (A) (A) (A) (A) (A)
                 (A) (A) (A) (A) (A) (A) (A) (A) (A) (A) (A) (A)
                 (A) (A) (A) (A) (A) (A) (A) (A) (A) (A) (A) (A)
                 (A) (A) (A) (A) (A) (A) (A) (A) (A) (A) (A) (A)
                 (A) (A) (A) (A) (A) (A) (A) (A) (A) (A) (A) (A)
                 (A) (A) (A) (A) (A) (A) (A) (A) (A) (A) (A) (A)
                 (A) (A) (A) (A) (A) (A) (A) (A) (A) (A) (A) (A)
                 (A) (A) (A) (A) (A) (A) (A) (A) (A) (A) (A) (A)
                 (A) (A) (A) (A) (A) (A) (A) (A) (A) (A) (A) (A)
                 (A) (A) (A) (A) (A) (A) (A) (A) (A) (A) (A) (A)
                 (A) (A) (A) (A) (A) (A) (A) (A) (A) (A) (A) (A)
                 (A) (A) (A) (A) (A) (A) (A) (A) (A) (A) (A) (A)
                 (A) (A) (A) (A) (A) (A) (A) (A) (A) (A) (A) (A)
                 (A) (A) (A) (A) (A) (A) (A) (A) (A) (A) (A) (A)
                 (A) (A) (A) (A) (A) (A) (A) (A) (A) (A) (A) (A)
                 (A) (A) (A) (A) (A) (A) (A) (A) (A) (A) (A) (A)
                 (A) (A) (A) (A) (A) (A) (A) (A) (A) (A) (A) (A)
                 (A) (A) (A) (A) (A) (A) (A) (A) (A) (A) (A) (A)
                 (A) (A) (A) (A) (A) (A) (A) (A) (A) (A) (A) (A)
                 (A) (A) (A) (A) (A) (A) (A) (A) (A) (A) (A) (A)
                 (A) (A) (A) (A) (A) (A) (A) (A) (A) (A) (A) (A)
                 (A) (A) (A) (A) (A) (A) (A) (A) (A) (A) (A) (A)
                 (A) (A) (A) (A) (A) (A) (A) (A) (A) (A) (A) (A)
                 (A) (A) (A) (A) (A) (A) (A) (A) (A) (A) (A) (A)
                 (A) (A) (A) (A) (A) (A) (A) (A) (A) (A) (A) (A)
                 (A) (A) (A) (A) (A) (A) (A) (A) (A) (A) (A) (A)
                 (A) (A) (A) (A) (A) (A) (A) (A) (A) (A) (A) (A)
                 (A) (A) (A) (A) (A) (A) (A) (A) (A) (A) (A) (A)
                 (A) (A) (A) (A) (A) (A) (A) (A) (A) (A) (A) (A)
                 (A) (A) (A) (A) (A) (A) (A) (A) (A) (A) (A) (A)
                 (A) (A) (A) (A) (A) (A) (A) (A) (A) (A) (A) (A)
                 (A) (A) (A) (A) (A) (A) (A) (A) (A) (A) (A) (A)
                 (A) (A) (A) (A) (A) (A) (A) (A) (A) (A) (A) (A)
                 (A) (A) (A) (A) (A) (A) (A) (A) (A) (A)
 The electronic state of the initial guess is 1-A.
 Requested convergence on RMS density matrix=1.00D-08 within 128 cycles.
 Requested convergence on MAX density matrix=1.00D-06.
 Requested convergence on             energy=1.00D-06.
 No special actions if energy rises.
 Integral accuracy reduced to 1.0D-05 until final iterations.
 Initial convergence to 1.0D-05 achieved.  Increase integral accuracy.
 SCF Done:  E(RB3LYP) =  -1387.30419324     A.U. after   16 cycles
             Convg  =    0.4154D-08             -V/T =  2.0091

 **********************************************************************

            Population analysis using the SCF density.

 **********************************************************************

 Orbital symmetries:
       Occupied  (A) (A) (A) (A) (A) (A) (A) (A) (A) (A) (A) (A)
                 (A) (A) (A) (A) (A) (A) (A) (A) (A) (A) (A) (A)
                 (A) (A) (A) (A) (A) (A) (A) (A) (A) (A) (A) (A)
                 (A) (A) (A) (A) (A) (A) (A) (A) (A) (A) (A) (A)
                 (A) (A) (A) (A) (A) (A) (A) (A) (A) (A) (A) (A)
                 (A) (A) (A) (A) (A) (A) (A) (A) (A) (A) (A) (A)
                 (A) (A) (A) (A) (A) (A) (A) (A) (A) (A) (A) (A)
                 (A) (A) (A) (A) (A) (A) (A) (A) (A) (A) (A) (A)
                 (A) (A) (A) (A) (A) (A) (A) (A) (A) (A) (A) (A)
                 (A) (A) (A) (A) (A) (A) (A)
       Virtual   (A) (A) (A) (A) (A) (A) (A) (A) (A) (A) (A) (A)
                 (A) (A) (A) (A) (A) (A) (A) (A) (A) (A) (A) (A)
                 (A) (A) (A) (A) (A) (A) (A) (A) (A) (A) (A) (A)
                 (A) (A) (A) (A) (A) (A) (A) (A) (A) (A) (A) (A)
                 (A) (A) (A) (A) (A) (A) (A) (A) (A) (A) (A) (A)
                 (A) (A) (A) (A) (A) (A) (A) (A) (A) (A) (A) (A)
                 (A) (A) (A) (A) (A) (A) (A) (A) (A) (A) (A) (A)
                 (A) (A) (A) (A) (A) (A) (A) (A) (A) (A) (A) (A)
                 (A) (A) (A) (A) (A) (A) (A) (A) (A) (A) (A) (A)
                 (A) (A) (A) (A) (A) (A) (A) (A) (A) (A) (A) (A)
                 (A) (A) (A) (A) (A) (A) (A) (A) (A) (A) (A) (A)
                 (A) (A) (A) (A) (A) (A) (A) (A) (A) (A) (A) (A)
                 (A) (A) (A) (A) (A) (A) (A) (A) (A) (A) (A) (A)
                 (A) (A) (A) (A) (A) (A) (A) (A) (A) (A) (A) (A)
                 (A) (A) (A) (A) (A) (A) (A) (A) (A) (A) (A) (A)
                 (A) (A) (A) (A) (A) (A) (A) (A) (A) (A) (A) (A)
                 (A) (A) (A) (A) (A) (A) (A) (A) (A) (A) (A) (A)
                 (A) (A) (A) (A) (A) (A) (A) (A) (A) (A) (A) (A)
                 (A) (A) (A) (A) (A) (A) (A) (A) (A) (A) (A) (A)
                 (A) (A) (A) (A) (A) (A) (A) (A) (A) (A) (A) (A)
                 (A) (A) (A) (A) (A) (A) (A) (A) (A) (A) (A) (A)
                 (A) (A) (A) (A) (A) (A) (A) (A) (A) (A) (A) (A)
                 (A) (A) (A) (A) (A) (A) (A) (A) (A) (A) (A) (A)
                 (A) (A) (A) (A) (A) (A) (A) (A) (A) (A) (A) (A)
                 (A) (A) (A) (A) (A) (A) (A) (A) (A) (A) (A) (A)
                 (A) (A) (A) (A) (A) (A) (A) (A) (A) (A) (A) (A)
                 (A) (A) (A) (A) (A) (A) (A) (A) (A) (A) (A) (A)
                 (A) (A) (A) (A) (A) (A) (A) (A) (A) (A) (A) (A)
                 (A) (A) (A) (A) (A) (A) (A) (A) (A) (A) (A) (A)
                 (A) (A) (A) (A) (A) (A) (A) (A) (A) (A) (A) (A)
                 (A) (A) (A) (A) (A) (A) (A) (A) (A) (A) (A) (A)
                 (A) (A) (A) (A) (A) (A) (A) (A) (A) (A) (A) (A)
                 (A) (A) (A) (A) (A) (A) (A) (A) (A) (A) (A) (A)
                 (A) (A) (A) (A) (A) (A) (A) (A) (A) (A) (A) (A)
                 (A) (A) (A) (A) (A) (A) (A) (A) (A) (A)
 The electronic state is 1-A.
 Alpha  occ. eigenvalues --  -19.19725 -19.17020 -19.14701 -19.13579 -19.13301
 Alpha  occ. eigenvalues --  -10.27648 -10.26963 -10.26650 -10.26394 -10.26123
 Alpha  occ. eigenvalues --  -10.25728 -10.24816 -10.21794 -10.20433 -10.20154
 Alpha  occ. eigenvalues --  -10.20035 -10.19937 -10.19705 -10.19648 -10.19155
 Alpha  occ. eigenvalues --  -10.18935 -10.18924 -10.18788 -10.18768 -10.18693
 Alpha  occ. eigenvalues --  -10.18463 -10.17855 -10.17811 -10.16917 -10.16908
 Alpha  occ. eigenvalues --  -10.15936  -1.08663  -1.06348  -1.03370  -1.02294
 Alpha  occ. eigenvalues --   -1.02000  -0.87691  -0.84101  -0.82730  -0.81665
 Alpha  occ. eigenvalues --   -0.80415  -0.79814  -0.77155  -0.74342  -0.73616
 Alpha  occ. eigenvalues --   -0.72673  -0.71901  -0.69776  -0.68950  -0.68502
 Alpha  occ. eigenvalues --   -0.65100  -0.64071  -0.63435  -0.62007  -0.61248
 Alpha  occ. eigenvalues --   -0.59408  -0.59012  -0.57206  -0.55176  -0.53657
 Alpha  occ. eigenvalues --   -0.53114  -0.51876  -0.51062  -0.50488  -0.49681
 Alpha  occ. eigenvalues --   -0.48670  -0.47908  -0.46960  -0.46255  -0.45864
 Alpha  occ. eigenvalues --   -0.45095  -0.44472  -0.43947  -0.43607  -0.43238
 Alpha  occ. eigenvalues --   -0.42750  -0.42566  -0.42332  -0.41997  -0.41768
 Alpha  occ. eigenvalues --   -0.41078  -0.40738  -0.40506  -0.40238  -0.39980
 Alpha  occ. eigenvalues --   -0.39563  -0.39254  -0.38817  -0.38695  -0.38381
 Alpha  occ. eigenvalues --   -0.37782  -0.37640  -0.37042  -0.36169  -0.35846
 Alpha  occ. eigenvalues --   -0.35777  -0.35365  -0.35092  -0.34748  -0.34383
 Alpha  occ. eigenvalues --   -0.34052  -0.33390  -0.32979  -0.32799  -0.32469
 Alpha  occ. eigenvalues --   -0.31957  -0.31718  -0.30966  -0.28190  -0.27116
 Alpha  occ. eigenvalues --   -0.24980  -0.24945  -0.24401  -0.23710  -0.23375
 Alpha virt. eigenvalues --   -0.04782  -0.02354   0.01270   0.01931   0.03644
 Alpha virt. eigenvalues --    0.06456   0.07971   0.08468   0.09241   0.10020
 Alpha virt. eigenvalues --    0.10476   0.10811   0.11004   0.11346   0.12192
 Alpha virt. eigenvalues --    0.12613   0.13009   0.13388   0.13647   0.13872
 Alpha virt. eigenvalues --    0.14126   0.14474   0.14933   0.15363   0.15500
 Alpha virt. eigenvalues --    0.15875   0.16367   0.16504   0.16809   0.17582
 Alpha virt. eigenvalues --    0.18078   0.18291   0.18736   0.18843   0.19093
 Alpha virt. eigenvalues --    0.19427   0.19569   0.19830   0.20082   0.20437
 Alpha virt. eigenvalues --    0.20845   0.21100   0.21465   0.21583   0.22484
 Alpha virt. eigenvalues --    0.23056   0.23939   0.24172   0.24294   0.25052
 Alpha virt. eigenvalues --    0.25328   0.25456   0.25771   0.26082   0.26680
 Alpha virt. eigenvalues --    0.27166   0.27367   0.28159   0.28419   0.30216
 Alpha virt. eigenvalues --    0.31210   0.31614   0.32513   0.33971   0.34421
 Alpha virt. eigenvalues --    0.34678   0.36334   0.37412   0.38315   0.40437
 Alpha virt. eigenvalues --    0.42005   0.44945   0.45829   0.47726   0.48432
 Alpha virt. eigenvalues --    0.49733   0.50028   0.50617   0.51513   0.51872
 Alpha virt. eigenvalues --    0.52060   0.52429   0.52732   0.53143   0.53524
 Alpha virt. eigenvalues --    0.53705   0.54498   0.54728   0.55257   0.55739
 Alpha virt. eigenvalues --    0.56617   0.57100   0.57573   0.58391   0.59304
 Alpha virt. eigenvalues --    0.59902   0.60277   0.60911   0.60997   0.61856
 Alpha virt. eigenvalues --    0.62251   0.62883   0.63559   0.64353   0.64486
 Alpha virt. eigenvalues --    0.65234   0.65869   0.66308   0.66472   0.66830
 Alpha virt. eigenvalues --    0.67497   0.68087   0.68586   0.69383   0.69697
 Alpha virt. eigenvalues --    0.70317   0.70872   0.71323   0.72392   0.72619
 Alpha virt. eigenvalues --    0.73637   0.74394   0.75166   0.75822   0.76008
 Alpha virt. eigenvalues --    0.76784   0.77598   0.77723   0.78824   0.78925
 Alpha virt. eigenvalues --    0.79438   0.80168   0.81058   0.81612   0.82641
 Alpha virt. eigenvalues --    0.82827   0.83120   0.83143   0.84392   0.84978
 Alpha virt. eigenvalues --    0.85480   0.85674   0.86102   0.86260   0.86676
 Alpha virt. eigenvalues --    0.87597   0.87958   0.88392   0.89025   0.89303
 Alpha virt. eigenvalues --    0.89793   0.89839   0.90079   0.90378   0.90507
 Alpha virt. eigenvalues --    0.90917   0.91146   0.91576   0.91699   0.91954
 Alpha virt. eigenvalues --    0.92337   0.92790   0.93560   0.94307   0.94497
 Alpha virt. eigenvalues --    0.95031   0.95397   0.96035   0.96335   0.96508
 Alpha virt. eigenvalues --    0.97664   0.97989   0.98156   0.98791   0.99759
 Alpha virt. eigenvalues --    0.99772   1.01091   1.01295   1.02400   1.04117
 Alpha virt. eigenvalues --    1.04808   1.04967   1.05676   1.06823   1.08412
 Alpha virt. eigenvalues --    1.08954   1.10381   1.11799   1.12281   1.12625
 Alpha virt. eigenvalues --    1.14187   1.14464   1.15495   1.16003   1.16366
 Alpha virt. eigenvalues --    1.17556   1.18595   1.19104   1.19780   1.20268
 Alpha virt. eigenvalues --    1.20601   1.22432   1.24017   1.25738   1.27095
 Alpha virt. eigenvalues --    1.28921   1.29403   1.30224   1.31032   1.33647
 Alpha virt. eigenvalues --    1.35131   1.37953   1.38300   1.39645   1.40021
 Alpha virt. eigenvalues --    1.41193   1.43289   1.43382   1.45360   1.46582
 Alpha virt. eigenvalues --    1.48113   1.49381   1.50603   1.51361   1.52267
 Alpha virt. eigenvalues --    1.53476   1.54578   1.55218   1.57122   1.57629
 Alpha virt. eigenvalues --    1.58859   1.62096   1.62719   1.63264   1.65118
 Alpha virt. eigenvalues --    1.65285   1.66019   1.67687   1.68129   1.68807
 Alpha virt. eigenvalues --    1.71135   1.71255   1.73096   1.73656   1.74638
 Alpha virt. eigenvalues --    1.75034   1.76084   1.76819   1.77929   1.79160
 Alpha virt. eigenvalues --    1.79939   1.80006   1.80251   1.80836   1.82189
 Alpha virt. eigenvalues --    1.82543   1.83515   1.84306   1.84942   1.86203
 Alpha virt. eigenvalues --    1.86712   1.87310   1.87783   1.88534   1.88544
 Alpha virt. eigenvalues --    1.89497   1.89916   1.90320   1.90879   1.91359
 Alpha virt. eigenvalues --    1.92051   1.93233   1.93520   1.94226   1.95567
 Alpha virt. eigenvalues --    1.95875   1.96236   1.96678   1.97076   1.97603
 Alpha virt. eigenvalues --    1.98677   1.99149   2.00304   2.00376   2.00614
 Alpha virt. eigenvalues --    2.01627   2.02505   2.03528   2.04333   2.05718
 Alpha virt. eigenvalues --    2.06159   2.06698   2.07476   2.09015   2.09473
 Alpha virt. eigenvalues --    2.10654   2.11372   2.11873   2.12854   2.14255
 Alpha virt. eigenvalues --    2.15500   2.15978   2.17262   2.17580   2.18466
 Alpha virt. eigenvalues --    2.19227   2.20249   2.20618   2.22071   2.22495
 Alpha virt. eigenvalues --    2.23561   2.24772   2.25269   2.26875   2.27790
 Alpha virt. eigenvalues --    2.28188   2.28674   2.29453   2.31071   2.31368
 Alpha virt. eigenvalues --    2.32163   2.32815   2.33694   2.33978   2.34460
 Alpha virt. eigenvalues --    2.36117   2.36476   2.38010   2.39064   2.40358
 Alpha virt. eigenvalues --    2.40535   2.41666   2.42111   2.42568   2.43677
 Alpha virt. eigenvalues --    2.44490   2.45567   2.47417   2.47961   2.48758
 Alpha virt. eigenvalues --    2.48796   2.50463   2.52008   2.53311   2.55387
 Alpha virt. eigenvalues --    2.55665   2.57940   2.58363   2.59740   2.61075
 Alpha virt. eigenvalues --    2.61380   2.63200   2.64251   2.65535   2.66333
 Alpha virt. eigenvalues --    2.67286   2.67738   2.69946   2.71752   2.72166
 Alpha virt. eigenvalues --    2.73058   2.73677   2.76135   2.76388   2.78602
 Alpha virt. eigenvalues --    2.78875   2.79416   2.81184   2.81512   2.85381
 Alpha virt. eigenvalues --    2.88059   2.90767   2.92933   2.93999   2.94673
 Alpha virt. eigenvalues --    2.98421   2.99261   3.00423   3.02394   3.03154
 Alpha virt. eigenvalues --    3.04643   3.07667   3.12098   3.16591   3.22304
 Alpha virt. eigenvalues --    3.23790   3.27950   4.01427   4.11454   4.13733
 Alpha virt. eigenvalues --    4.14840   4.15733   4.17305   4.18426   4.21458
 Alpha virt. eigenvalues --    4.22740   4.23437   4.25481   4.26039   4.29803
 Alpha virt. eigenvalues --    4.32586   4.33721   4.38097   4.39837   4.44584
 Alpha virt. eigenvalues --    4.46504   4.48829   4.51593   4.56719   4.61578
 Alpha virt. eigenvalues --    4.64779   4.65648   4.69993   4.72285   4.77619
 Alpha virt. eigenvalues --    4.88395   4.94956   5.25993
          Condensed to atoms (all electrons):
 Mulliken atomic charges:
              1
     1  C   -0.196553
     2  C    0.194505
     3  C   -0.193691
     4  C    0.312729
     5  C   -0.025967
     6  C   -0.330866
     7  C    0.201261
     8  C    0.408732
     9  C   -0.093967
    10  C    0.402542
    11  C    0.426820
    12  O   -0.470314
    13  C   -0.149775
    14  C   -0.248415
    15  C   -0.456092
    16  O   -0.479452
    17  C   -0.152613
    18  C    0.305240
    19  O   -0.536534
    20  C   -0.307163
    21  O   -0.675874
    22  C   -0.317132
    23  C    0.116607
    24  O   -0.593439
    25  C    0.181109
    26  C   -0.517489
    27  C   -0.391474
    28  C   -0.460745
    29  C   -0.464381
    30  H    0.147168
    31  H    0.151109
    32  C   -0.519603
    33  H    0.126255
    34  H    0.163754
    35  H    0.182171
    36  H    0.142915
    37  H    0.125010
    38  H    0.154019
    39  H    0.162585
    40  H    0.164610
    41  H    0.146643
    42  H    0.163037
    43  H    0.149791
    44  H    0.427488
    45  H    0.184057
    46  H    0.151123
    47  H    0.136278
    48  H    0.154126
    49  H    0.160872
    50  H    0.166549
    51  H    0.137626
    52  H    0.141150
    53  H    0.149651
    54  H    0.141574
    55  H    0.184576
    56  H    0.158361
    57  H    0.159916
    58  H    0.150097
    59  H    0.158089
    60  H    0.156581
    61  H    0.154581
    62  C   -0.447566
    63  H    0.155194
    64  H    0.134187
    65  H    0.138412
 Sum of Mulliken atomic charges =   0.00000
 Mulliken charges with hydrogens summed into heavy atoms:
              1
     1  C   -0.070298
     2  C    0.194505
     3  C   -0.042582
     4  C    0.312729
     5  C   -0.025967
     6  C    0.015060
     7  C    0.201261
     8  C    0.408732
     9  C   -0.093967
    10  C    0.402542
    11  C    0.426820
    12  O   -0.470314
    13  C   -0.006860
    14  C    0.030614
    15  C    0.017746
    16  O   -0.479452
    17  C   -0.005445
    18  C    0.305240
    19  O   -0.536534
    20  C    0.005665
    21  O   -0.248386
    22  C    0.018048
    23  C    0.252885
    24  O   -0.593439
    25  C    0.181109
    26  C   -0.035942
    27  C   -0.112698
    28  C    0.015056
    29  C    0.003993
    32  C   -0.050352
    62  C   -0.019773
 Sum of Mulliken charges with hydrogens summed into heavy atoms =   0.00000
 Electronic spatial extent (au):  <R**2>=          11683.2319
 Charge=              0.0000 electrons
 Dipole moment (field-independent basis, Debye):
    X=             -3.0337    Y=              4.5070    Z=             -0.6082  Tot=              5.4668
 Quadrupole moment (field-independent basis, Debye-Ang):
   XX=           -176.0604   YY=           -183.5375   ZZ=           -187.6436
   XY=              5.2391   XZ=             -9.6801   YZ=              3.5045
 Traceless Quadrupole moment (field-independent basis, Debye-Ang):
   XX=              6.3534   YY=             -1.1237   ZZ=             -5.2297
   XY=              5.2391   XZ=             -9.6801   YZ=              3.5045
 Octapole moment (field-independent basis, Debye-Ang**2):
  XXX=            -23.9899  YYY=             52.4593  ZZZ=             -6.1236  XYY=             -2.2062
  XXY=            -26.8570  XXZ=            -18.9628  XZZ=            -23.8169  YZZ=              6.8709
  YYZ=            -18.0598  XYZ=              3.0356
 Hexadecapole moment (field-independent basis, Debye-Ang**3):
 XXXX=          -9004.2783 YYYY=          -4086.9180 ZZZZ=          -2420.2370 XXXY=             81.2013
 XXXZ=            -27.5551 YYYX=              5.7134 YYYZ=            -23.7798 ZZZX=            -15.9463
 ZZZY=             -3.4550 XXYY=          -2130.2140 XXZZ=          -1934.6713 YYZZ=          -1085.3559
 XXYZ=             57.5618 YYXZ=            -20.1949 ZZXY=             37.4764
 N-N= 3.512385690329D+03 E-N=-1.025100429043D+04  KE= 1.374837468439D+03
 Calling FoFJK, ICntrl=      2127 FMM=T ISym2X=0 I1Cent= 0 IOpClX= 0 NMat=1 NMatS=1 NMatT=0.
 ***** Axes restored to original set *****
 -------------------------------------------------------------------
 Center     Atomic                   Forces (Hartrees/Bohr)
 Number     Number              X              Y              Z
 -------------------------------------------------------------------
      1        6           0.009894195    0.000157196    0.001108962
      2        6          -0.009570237   -0.006237295    0.003792400
      3        6          -0.006879365   -0.009733621   -0.003533591
      4        6           0.010463863   -0.007518919    0.012438406
      5        6          -0.008300683    0.004877018    0.005614543
      6        6          -0.008732009   -0.008299267   -0.006173506
      7        6           0.021601562    0.013867406    0.010269836
      8        6          -0.004569267   -0.001722329   -0.024722922
      9        6           0.004495315   -0.002928609    0.005831799
     10        6          -0.018905175    0.016591375   -0.000211046
     11        6          -0.018663565   -0.007333690   -0.007638844
     12        8           0.008747947    0.012715075    0.003852557
     13        6          -0.004417352    0.000168068   -0.011702931
     14        6           0.001783803   -0.001071173   -0.003611472
     15        6          -0.004385873    0.002397082    0.010758279
     16        8           0.010537705   -0.011082227   -0.000444238
     17        6           0.003213433   -0.006472788   -0.011592540
     18        6           0.030425432    0.005009989   -0.013655493
     19        8          -0.011083471   -0.008489354    0.033736561
     20        6           0.009473496   -0.001553414   -0.005695166
     21        8          -0.003850477    0.004512954    0.005563573
     22        6          -0.009316141   -0.001742237    0.008735198
     23        6           0.008611776    0.006600474    0.008249422
     24        8          -0.004237428    0.002180211   -0.008628571
     25        6           0.011496215    0.009600201    0.009393322
     26        6          -0.000129254   -0.000210856   -0.000267913
     27        6          -0.004349054   -0.006215848   -0.009065444
     28        6          -0.001911416    0.008406993    0.001797510
     29        6          -0.008355434   -0.000471322   -0.007535184
     30        1          -0.003157949    0.001906322    0.000209763
     31        1          -0.001649718    0.005865239    0.000554218
     32        6          -0.002395653   -0.000439329    0.000109555
     33        1           0.000696642   -0.000855260    0.000010673
     34        1           0.000583368    0.005157779   -0.000420300
     35        1          -0.001602939    0.005448372   -0.000976457
     36        1           0.000844728   -0.002239949    0.001301238
     37        1          -0.001251536    0.001582426    0.002606526
     38        1          -0.000469963    0.000185500    0.003764056
     39        1           0.000583183   -0.000631491   -0.000962038
     40        1          -0.001293762    0.000197587    0.000971892
     41        1           0.001047734    0.000100368   -0.001079437
     42        1           0.000407541    0.000760802    0.000826902
     43        1          -0.002129888   -0.001501392   -0.001457776
     44        1          -0.003014505    0.001177667   -0.003800735
     45        1           0.000363733   -0.001061644   -0.004049626
     46        1          -0.000042643    0.000633467   -0.003207056
     47        1          -0.001044503   -0.003600743    0.000670309
     48        1          -0.002966764   -0.003242183    0.000197252
     49        1           0.000997122    0.001018619   -0.002009756
     50        1          -0.002875346   -0.003024744    0.000489991
     51        1          -0.001027668   -0.000515498    0.000435743
     52        1           0.000334047   -0.000115122   -0.000191262
     53        1           0.000569182   -0.003297739   -0.002227758
     54        1           0.000133079   -0.000770222   -0.000370146
     55        1           0.000340345   -0.004558829    0.003406823
     56        1           0.001336225   -0.001864364    0.002647789
     57        1           0.001954758    0.001460087    0.001836609
     58        1          -0.000080613    0.000747395    0.001326820
     59        1          -0.000650090    0.000881397   -0.000342834
     60        1           0.004024973   -0.001585461   -0.000040677
     61        1           0.004272586   -0.001184276    0.000081259
     62        6           0.000764161   -0.000952582   -0.005371457
     63        1           0.000998998   -0.000170602    0.000238795
     64        1           0.000855826   -0.000584628   -0.001691545
     65        1           0.001456769   -0.000928063   -0.000150862
 -------------------------------------------------------------------
 Cartesian Forces:  Max     0.033736561 RMS     0.006706155

 GradGradGradGradGradGradGradGradGradGradGradGradGradGradGradGradGradGrad
 Berny optimization.
 Internal  Forces:  Max     0.018026108 RMS     0.003445311
 Search for a local minimum.
 Step number   1 out of a maximum of  390
 All quantities printed in internal units (Hartrees-Bohrs-Radians)
 Mixed Optimization -- RFO/linear search
 Second derivative matrix not updated -- first step.
 ITU=  0
     Eigenvalues ---    0.00280   0.00286   0.00355   0.00392   0.00420
     Eigenvalues ---    0.00461   0.00482   0.00560   0.00593   0.00609
     Eigenvalues ---    0.00665   0.00692   0.00728   0.00736   0.00885
     Eigenvalues ---    0.01055   0.01167   0.01250   0.01299   0.01453
     Eigenvalues ---    0.01534   0.01721   0.01735   0.01830   0.02087
     Eigenvalues ---    0.02622   0.02824   0.02824   0.03112   0.03217
     Eigenvalues ---    0.03535   0.03710   0.03904   0.04083   0.04154
     Eigenvalues ---    0.04269   0.04334   0.04461   0.04511   0.04716
     Eigenvalues ---    0.04839   0.04893   0.05006   0.05141   0.05286
     Eigenvalues ---    0.05321   0.05337   0.05384   0.05442   0.05503
     Eigenvalues ---    0.05504   0.05525   0.05556   0.05573   0.05644
     Eigenvalues ---    0.05655   0.05697   0.05885   0.05928   0.06146
     Eigenvalues ---    0.06576   0.06799   0.07110   0.07151   0.07152
     Eigenvalues ---    0.07230   0.07272   0.07314   0.07436   0.07993
     Eigenvalues ---    0.08336   0.08350   0.08505   0.09362   0.09434
     Eigenvalues ---    0.09893   0.10254   0.11441   0.11883   0.12211
     Eigenvalues ---    0.12572   0.13301   0.14531   0.15322   0.15739
     Eigenvalues ---    0.15969   0.16000   0.16000   0.16000   0.16000
     Eigenvalues ---    0.16000   0.16000   0.16000   0.16000   0.16000
     Eigenvalues ---    0.16000   0.16000   0.16000   0.16000   0.16000
     Eigenvalues ---    0.16000   0.16000   0.16000   0.16000   0.16000
     Eigenvalues ---    0.16000   0.16355   0.16540   0.17707   0.18100
     Eigenvalues ---    0.19740   0.20914   0.21917   0.22307   0.22486
     Eigenvalues ---    0.23333   0.24760   0.24886   0.24981   0.24995
     Eigenvalues ---    0.24997   0.24998   0.25000   0.26097   0.26654
     Eigenvalues ---    0.27041   0.27167   0.27402   0.27749   0.28353
     Eigenvalues ---    0.28811   0.28852   0.28976   0.29328   0.29585
     Eigenvalues ---    0.29779   0.30072   0.30235   0.30730   0.31166
     Eigenvalues ---    0.31799   0.31822   0.32139   0.33169   0.33624
     Eigenvalues ---    0.33893   0.33898   0.33973   0.33997   0.34000
     Eigenvalues ---    0.34020   0.34021   0.34039   0.34071   0.34077
     Eigenvalues ---    0.34115   0.34153   0.34162   0.34190   0.34200
     Eigenvalues ---    0.34203   0.34233   0.34245   0.34259   0.34264
     Eigenvalues ---    0.34266   0.34268   0.34271   0.34280   0.34283
     Eigenvalues ---    0.34287   0.34293   0.34341   0.34366   0.34781
     Eigenvalues ---    0.35041   0.35268   0.35302   0.35430   0.36628
     Eigenvalues ---    0.37505   0.41122   0.44400   0.50172   0.53440
     Eigenvalues ---    0.54380   0.56225   0.90534   0.91189
 RFO step:  Lambda=-2.21011665D-02 EMin= 2.80069980D-03
 Linear search not attempted -- first point.
 Iteration  1 RMS(Cart)=  0.08906275 RMS(Int)=  0.00188348
 Iteration  2 RMS(Cart)=  0.00364773 RMS(Int)=  0.00024632
 Iteration  3 RMS(Cart)=  0.00000717 RMS(Int)=  0.00024629
 Iteration  4 RMS(Cart)=  0.00000000 RMS(Int)=  0.00024629
 Variable       Old X    -DE/DX   Delta X   Delta X   Delta X     New X
                                 (Linear)    (Quad)   (Total)
    R1        2.53318  -0.00193   0.00000  -0.00393  -0.00403   2.52915
    R2        2.82231   0.00883   0.00000   0.02569   0.02553   2.84785
    R3        2.05608   0.00039   0.00000   0.00104   0.00104   2.05712
    R4        2.84494   0.00500   0.00000   0.01273   0.01278   2.85773
    R5        2.83891   0.00475   0.00000   0.01382   0.01382   2.85273
    R6        2.94476   0.00643   0.00000   0.01621   0.01619   2.96095
    R7        2.89644   0.01036   0.00000   0.03484   0.03483   2.93127
    R8        2.07969  -0.00187   0.00000  -0.00521  -0.00521   2.07448
    R9        2.92716   0.01228   0.00000   0.03808   0.03803   2.96518
   R10        2.92098   0.00819   0.00000   0.03164   0.03180   2.95278
   R11        2.75604  -0.00527   0.00000  -0.01540  -0.01543   2.74060
   R12        2.91642   0.00517   0.00000   0.01903   0.01898   2.93541
   R13        2.90776   0.00487   0.00000   0.00906   0.00871   2.91647
   R14        2.91213   0.00522   0.00000   0.01848   0.01846   2.93059
   R15        2.07512  -0.00163   0.00000  -0.00452  -0.00452   2.07060
   R16        2.07503   0.00233   0.00000   0.00646   0.00646   2.08149
   R17        2.81576   0.01199   0.00000   0.02741   0.02717   2.84293
   R18        2.86714   0.01498   0.00000   0.05226   0.05171   2.91885
   R19        2.68349   0.00257   0.00000   0.00670   0.00668   2.69017
   R20        2.52461   0.01410   0.00000   0.02488   0.02503   2.54963
   R21        2.62181  -0.01803   0.00000  -0.04174  -0.04143   2.58038
   R22        2.79719   0.00325   0.00000   0.00566   0.00580   2.80299
   R23        2.79332   0.01569   0.00000   0.04241   0.04241   2.83574
   R24        2.32390  -0.01314   0.00000  -0.01407  -0.01407   2.30983
   R25        2.32688  -0.01552   0.00000  -0.01674  -0.01674   2.31014
   R26        2.88407  -0.00045   0.00000  -0.00142  -0.00142   2.88265
   R27        2.90313   0.00321   0.00000   0.01033   0.01033   2.91346
   R28        2.88798   0.00886   0.00000   0.02786   0.02786   2.91584
   R29        2.07136   0.00020   0.00000   0.00055   0.00055   2.07191
   R30        2.07296   0.00095   0.00000   0.00263   0.00263   2.07559
   R31        2.07265  -0.00050   0.00000  -0.00139  -0.00139   2.07125
   R32        2.87820   0.00794   0.00000   0.02458   0.02458   2.90278
   R33        2.07057  -0.00021   0.00000  -0.00057  -0.00057   2.07000
   R34        2.07010   0.00070   0.00000   0.00191   0.00191   2.07201
   R35        2.06919   0.00043   0.00000   0.00117   0.00117   2.07036
   R36        2.91038  -0.00013   0.00000   0.01119   0.01136   2.92173
[...]
     54          1           0        1.603953    3.432886   -3.115422
     55          1           0        1.412712    1.669301   -3.205001
     56          1           0        2.164162    3.514542    0.637613
     57          1           0        3.389439    3.533522   -0.641254
     58          1           0        1.943483    4.548532   -0.790494
     59          1           0       -3.312453    2.582051    3.678963
     60          1           0       -2.499720    3.724347    2.594811
     61          1           0       -3.943964    2.880687    2.046038
     62          6           0        5.388109   -0.235426    1.311037
     63          1           0        4.615519   -0.097040    2.074758
     64          1           0        6.356534   -0.279239    1.822455
     65          1           0        5.389749    0.653225    0.667367
 ---------------------------------------------------------------------
 Rotational constants (GHZ):      0.2172310      0.1214016      0.1074409

 **********************************************************************

            Population analysis using the SCF density.

 **********************************************************************

 Orbital symmetries:
       Occupied  (A) (A) (A) (A) (A) (A) (A) (A) (A) (A) (A) (A)
                 (A) (A) (A) (A) (A) (A) (A) (A) (A) (A) (A) (A)
                 (A) (A) (A) (A) (A) (A) (A) (A) (A) (A) (A) (A)
                 (A) (A) (A) (A) (A) (A) (A) (A) (A) (A) (A) (A)
                 (A) (A) (A) (A) (A) (A) (A) (A) (A) (A) (A) (A)
                 (A) (A) (A) (A) (A) (A) (A) (A) (A) (A) (A) (A)
                 (A) (A) (A) (A) (A) (A) (A) (A) (A) (A) (A) (A)
                 (A) (A) (A) (A) (A) (A) (A) (A) (A) (A) (A) (A)
                 (A) (A) (A) (A) (A) (A) (A) (A) (A) (A) (A) (A)
                 (A) (A) (A) (A) (A) (A) (A)
       Virtual   (A) (A) (A) (A) (A) (A) (A) (A) (A) (A) (A) (A)
                 (A) (A) (A) (A) (A) (A) (A) (A) (A) (A) (A) (A)
                 (A) (A) (A) (A) (A) (A) (A) (A) (A) (A) (A) (A)
                 (A) (A) (A) (A) (A) (A) (A) (A) (A) (A) (A) (A)
                 (A) (A) (A) (A) (A) (A) (A) (A) (A) (A) (A) (A)
                 (A) (A) (A) (A) (A) (A) (A) (A) (A) (A) (A) (A)
                 (A) (A) (A) (A) (A) (A) (A) (A) (A) (A) (A) (A)
                 (A) (A) (A) (A) (A) (A) (A) (A) (A) (A) (A) (A)
                 (A) (A) (A) (A) (A) (A) (A) (A) (A) (A) (A) (A)
                 (A) (A) (A) (A) (A) (A) (A) (A) (A) (A) (A) (A)
                 (A) (A) (A) (A) (A) (A) (A) (A) (A) (A) (A) (A)
                 (A) (A) (A) (A) (A) (A) (A) (A) (A) (A) (A) (A)
                 (A) (A) (A) (A) (A) (A) (A) (A) (A) (A) (A) (A)
                 (A) (A) (A) (A) (A) (A) (A) (A) (A) (A) (A) (A)
                 (A) (A) (A) (A) (A) (A) (A) (A) (A) (A) (A) (A)
                 (A) (A) (A) (A) (A) (A) (A) (A) (A) (A) (A) (A)
                 (A) (A) (A) (A) (A) (A) (A) (A) (A) (A) (A) (A)
                 (A) (A) (A) (A) (A) (A) (A) (A) (A) (A) (A) (A)
                 (A) (A) (A) (A) (A) (A) (A) (A) (A) (A) (A) (A)
                 (A) (A) (A) (A) (A) (A) (A) (A) (A) (A) (A) (A)
                 (A) (A) (A) (A) (A) (A) (A) (A) (A) (A) (A) (A)
                 (A) (A) (A) (A) (A) (A) (A) (A) (A) (A) (A) (A)
                 (A) (A) (A) (A) (A) (A) (A) (A) (A) (A) (A) (A)
                 (A) (A) (A) (A) (A) (A) (A) (A) (A) (A) (A) (A)
                 (A) (A) (A) (A) (A) (A) (A) (A) (A) (A) (A) (A)
                 (A) (A) (A) (A) (A) (A) (A) (A) (A) (A) (A) (A)
                 (A) (A) (A) (A) (A) (A) (A) (A) (A) (A) (A) (A)
                 (A) (A) (A) (A) (A) (A) (A) (A) (A) (A) (A) (A)
                 (A) (A) (A) (A) (A) (A) (A) (A) (A) (A) (A) (A)
                 (A) (A) (A) (A) (A) (A) (A) (A) (A) (A) (A) (A)
                 (A) (A) (A) (A) (A) (A) (A) (A) (A) (A) (A) (A)
                 (A) (A) (A) (A) (A) (A) (A) (A) (A) (A) (A) (A)
                 (A) (A) (A) (A) (A) (A) (A) (A) (A) (A) (A) (A)
                 (A) (A) (A) (A) (A) (A) (A) (A) (A) (A) (A) (A)
                 (A) (A) (A) (A) (A) (A) (A) (A) (A) (A)
 The electronic state is 1-A.
 Alpha  occ. eigenvalues --  -19.19819 -19.17150 -19.15152 -19.13009 -19.12496
 Alpha  occ. eigenvalues --  -10.26936 -10.26887 -10.26882 -10.26347 -10.26267
 Alpha  occ. eigenvalues --  -10.26067 -10.24897 -10.21323 -10.20663 -10.20541
 Alpha  occ. eigenvalues --  -10.20375 -10.20098 -10.19913 -10.19539 -10.19347
 Alpha  occ. eigenvalues --  -10.19124 -10.18853 -10.18835 -10.18818 -10.18632
 Alpha  occ. eigenvalues --  -10.18449 -10.18109 -10.17726 -10.16968 -10.16835
 Alpha  occ. eigenvalues --  -10.16171  -1.09153  -1.06678  -1.03335  -1.02392
 Alpha  occ. eigenvalues --   -1.02111  -0.86991  -0.83849  -0.82170  -0.81345
 Alpha  occ. eigenvalues --   -0.80100  -0.79382  -0.76844  -0.73959  -0.73145
 Alpha  occ. eigenvalues --   -0.72337  -0.71585  -0.70309  -0.69024  -0.68412
 Alpha  occ. eigenvalues --   -0.64755  -0.64000  -0.63392  -0.61862  -0.60874
 Alpha  occ. eigenvalues --   -0.59105  -0.58869  -0.56795  -0.55060  -0.53298
 Alpha  occ. eigenvalues --   -0.53140  -0.51760  -0.51054  -0.49879  -0.49439
 Alpha  occ. eigenvalues --   -0.48409  -0.47564  -0.46993  -0.46598  -0.46034
 Alpha  occ. eigenvalues --   -0.44951  -0.44300  -0.44103  -0.43326  -0.42870
 Alpha  occ. eigenvalues --   -0.42486  -0.42343  -0.42117  -0.41808  -0.41606
 Alpha  occ. eigenvalues --   -0.41003  -0.40787  -0.40517  -0.40113  -0.40012
 Alpha  occ. eigenvalues --   -0.39397  -0.39173  -0.39011  -0.38596  -0.38394
 Alpha  occ. eigenvalues --   -0.37727  -0.37620  -0.37260  -0.36358  -0.35963
 Alpha  occ. eigenvalues --   -0.35799  -0.35426  -0.35291  -0.34697  -0.34498
 Alpha  occ. eigenvalues --   -0.33857  -0.33640  -0.32989  -0.32727  -0.32331
 Alpha  occ. eigenvalues --   -0.31635  -0.31342  -0.30923  -0.28274  -0.27439
 Alpha  occ. eigenvalues --   -0.25108  -0.24505  -0.24362  -0.23402  -0.22704
 Alpha virt. eigenvalues --   -0.04182  -0.01630   0.01073   0.01946   0.04978
 Alpha virt. eigenvalues --    0.06976   0.08001   0.08709   0.09043   0.10187
 Alpha virt. eigenvalues --    0.10471   0.10828   0.10996   0.11379   0.12235
 Alpha virt. eigenvalues --    0.12710   0.12880   0.13299   0.13681   0.13882
 Alpha virt. eigenvalues --    0.14315   0.14722   0.15048   0.15226   0.15503
 Alpha virt. eigenvalues --    0.15971   0.16324   0.16494   0.16660   0.17419
 Alpha virt. eigenvalues --    0.17837   0.18346   0.18383   0.18918   0.19261
 Alpha virt. eigenvalues --    0.19358   0.19404   0.19671   0.19850   0.20353
 Alpha virt. eigenvalues --    0.20519   0.20966   0.21202   0.21379   0.22149
 Alpha virt. eigenvalues --    0.23106   0.23572   0.23658   0.24113   0.24766
 Alpha virt. eigenvalues --    0.24974   0.25225   0.25577   0.26112   0.26252
 Alpha virt. eigenvalues --    0.26812   0.27778   0.27993   0.28265   0.30007
 Alpha virt. eigenvalues --    0.30474   0.31751   0.32074   0.33709   0.34018
 Alpha virt. eigenvalues --    0.34350   0.36881   0.37424   0.38240   0.39726
 Alpha virt. eigenvalues --    0.42241   0.44826   0.45639   0.47345   0.48069
 Alpha virt. eigenvalues --    0.49457   0.49954   0.50238   0.50911   0.51128
 Alpha virt. eigenvalues --    0.51472   0.51968   0.52609   0.52804   0.53372
 Alpha virt. eigenvalues --    0.53494   0.54135   0.54369   0.54936   0.55725
 Alpha virt. eigenvalues --    0.56731   0.57310   0.57822   0.57932   0.58640
 Alpha virt. eigenvalues --    0.59667   0.60170   0.60606   0.61285   0.61346
 Alpha virt. eigenvalues --    0.61946   0.62621   0.63460   0.63970   0.64303
 Alpha virt. eigenvalues --    0.65165   0.65557   0.66277   0.66461   0.67071
 Alpha virt. eigenvalues --    0.67488   0.67862   0.68606   0.69090   0.69962
 Alpha virt. eigenvalues --    0.70539   0.70997   0.71287   0.71575   0.72567
 Alpha virt. eigenvalues --    0.73600   0.74760   0.75404   0.75514   0.75777
 Alpha virt. eigenvalues --    0.75982   0.76791   0.77417   0.78565   0.78825
 Alpha virt. eigenvalues --    0.79053   0.80278   0.80741   0.81655   0.82132
 Alpha virt. eigenvalues --    0.82892   0.83305   0.84111   0.84592   0.85243
 Alpha virt. eigenvalues --    0.85576   0.85778   0.86013   0.86658   0.86932
 Alpha virt. eigenvalues --    0.87529   0.87725   0.88312   0.88561   0.88640
 Alpha virt. eigenvalues --    0.89240   0.89418   0.90101   0.90444   0.90528
 Alpha virt. eigenvalues --    0.90905   0.91138   0.91333   0.91611   0.91835
 Alpha virt. eigenvalues --    0.92436   0.92837   0.93521   0.94148   0.94563
 Alpha virt. eigenvalues --    0.94661   0.95042   0.95749   0.96372   0.96516
 Alpha virt. eigenvalues --    0.97127   0.97484   0.97628   0.98865   0.98912
 Alpha virt. eigenvalues --    0.99793   1.00892   1.01633   1.02749   1.02972
 Alpha virt. eigenvalues --    1.04289   1.05197   1.05868   1.08135   1.08950
 Alpha virt. eigenvalues --    1.09708   1.10895   1.11477   1.11860   1.12246
 Alpha virt. eigenvalues --    1.13806   1.13939   1.14184   1.14947   1.16288
 Alpha virt. eigenvalues --    1.16406   1.17706   1.18620   1.19260   1.20156
 Alpha virt. eigenvalues --    1.21385   1.22902   1.24783   1.25381   1.26785
 Alpha virt. eigenvalues --    1.28587   1.29420   1.30622   1.31821   1.34069
 Alpha virt. eigenvalues --    1.35582   1.37754   1.38180   1.38900   1.39854
 Alpha virt. eigenvalues --    1.41289   1.43183   1.44734   1.45091   1.46294
 Alpha virt. eigenvalues --    1.47808   1.48453   1.50309   1.51420   1.52236
 Alpha virt. eigenvalues --    1.53098   1.54650   1.54891   1.56939   1.57137
 Alpha virt. eigenvalues --    1.59991   1.60746   1.62185   1.62873   1.63918
 Alpha virt. eigenvalues --    1.64571   1.64676   1.67156   1.67577   1.68350
 Alpha virt. eigenvalues --    1.70595   1.71411   1.72655   1.73379   1.73508
 Alpha virt. eigenvalues --    1.74266   1.75448   1.76650   1.77194   1.77850
 Alpha virt. eigenvalues --    1.78374   1.79261   1.80552   1.80970   1.81625
 Alpha virt. eigenvalues --    1.81931   1.83067   1.84100   1.84133   1.85238
 Alpha virt. eigenvalues --    1.85892   1.86252   1.86904   1.87469   1.87928
 Alpha virt. eigenvalues --    1.89157   1.89243   1.89916   1.90281   1.90832
 Alpha virt. eigenvalues --    1.92322   1.92728   1.93210   1.93801   1.94497
 Alpha virt. eigenvalues --    1.94819   1.95610   1.96234   1.96362   1.97838
 Alpha virt. eigenvalues --    1.98268   1.98475   1.98800   1.99281   2.00197
 Alpha virt. eigenvalues --    2.01449   2.01816   2.02615   2.03573   2.05061
 Alpha virt. eigenvalues --    2.05439   2.06354   2.06870   2.07361   2.08314
 Alpha virt. eigenvalues --    2.10600   2.11000   2.11789   2.12219   2.12376
 Alpha virt. eigenvalues --    2.14087   2.14858   2.16803   2.17426   2.17766
 Alpha virt. eigenvalues --    2.18837   2.19426   2.19917   2.20720   2.22023
 Alpha virt. eigenvalues --    2.23975   2.24128   2.24430   2.26746   2.27171
 Alpha virt. eigenvalues --    2.27586   2.28590   2.29739   2.29891   2.31134
 Alpha virt. eigenvalues --    2.32507   2.32703   2.33054   2.33549   2.34045
 Alpha virt. eigenvalues --    2.36073   2.37490   2.37816   2.38999   2.39855
 Alpha virt. eigenvalues --    2.40474   2.40891   2.41511   2.42484   2.42701
 Alpha virt. eigenvalues --    2.44011   2.45442   2.46560   2.48040   2.48317
 Alpha virt. eigenvalues --    2.48664   2.50117   2.51396   2.53002   2.54549
 Alpha virt. eigenvalues --    2.55523   2.56354   2.58031   2.58477   2.59688
 Alpha virt. eigenvalues --    2.62547   2.63162   2.63395   2.65212   2.65691
 Alpha virt. eigenvalues --    2.66394   2.67749   2.69679   2.70300   2.70992
 Alpha virt. eigenvalues --    2.72142   2.72668   2.75328   2.76168   2.77406
 Alpha virt. eigenvalues --    2.78106   2.78841   2.79764   2.81085   2.83963
 Alpha virt. eigenvalues --    2.87275   2.88731   2.91770   2.94658   2.95912
 Alpha virt. eigenvalues --    2.98711   2.99303   3.00551   3.01697   3.02826
 Alpha virt. eigenvalues --    3.04878   3.06423   3.11352   3.13223   3.21547
 Alpha virt. eigenvalues --    3.25009   3.26588   4.02328   4.09434   4.11566
 Alpha virt. eigenvalues --    4.12453   4.14688   4.16219   4.18276   4.19750
 Alpha virt. eigenvalues --    4.23097   4.24117   4.25229   4.26706   4.30085
 Alpha virt. eigenvalues --    4.31792   4.32495   4.36759   4.39203   4.43653
 Alpha virt. eigenvalues --    4.46995   4.48760   4.50891   4.55947   4.60411
 Alpha virt. eigenvalues --    4.64307   4.67521   4.68754   4.72606   4.76444
 Alpha virt. eigenvalues --    4.88182   4.94414   5.23223
          Condensed to atoms (all electrons):
 Mulliken atomic charges:
              1
     1  C   -0.194186
     2  C    0.197571
     3  C   -0.197698
     4  C    0.307451
     5  C   -0.027969
     6  C   -0.328668
     7  C    0.199701
     8  C    0.402140
     9  C   -0.097677
    10  C    0.401091
    11  C    0.429072
    12  O   -0.465397
    13  C   -0.165442
    14  C   -0.243642
    15  C   -0.455704
    16  O   -0.467408
    17  C   -0.154915
    18  C    0.297943
    19  O   -0.535599
    20  C   -0.309115
    21  O   -0.673853
    22  C   -0.329579
    23  C    0.117060
    24  O   -0.588659
    25  C    0.183837
    26  C   -0.518798
    27  C   -0.394944
    28  C   -0.467194
    29  C   -0.461728
    30  H    0.148708
    31  H    0.150002
    32  C   -0.521330
    33  H    0.125563
    34  H    0.166422
    35  H    0.173997
    36  H    0.147217
    37  H    0.122808
    38  H    0.154615
    39  H    0.162555
    40  H    0.161337
    41  H    0.146021
    42  H    0.161666
    43  H    0.151490
    44  H    0.429855
    45  H    0.188691
    46  H    0.149081
    47  H    0.135482
    48  H    0.153925
    49  H    0.160516
    50  H    0.169924
    51  H    0.136397
    52  H    0.145380
    53  H    0.155735
    54  H    0.145498
    55  H    0.196091
    56  H    0.161924
    57  H    0.163597
    58  H    0.151972
    59  H    0.158361
    60  H    0.155389
    61  H    0.155337
    62  C   -0.452224
    63  H    0.156702
    64  H    0.138997
    65  H    0.134610
 Sum of Mulliken atomic charges =   0.00000
 Mulliken charges with hydrogens summed into heavy atoms:
              1
     1  C   -0.068623
     2  C    0.197571
     3  C   -0.047696
     4  C    0.307451
     5  C   -0.027969
     6  C    0.011751
     7  C    0.199701
     8  C    0.402140
     9  C   -0.097677
    10  C    0.401091
    11  C    0.429072
    12  O   -0.465397
    13  C   -0.018225
    14  C    0.033781
    15  C    0.014208
    16  O   -0.467408
    17  C   -0.006207
    18  C    0.297943
    19  O   -0.535599
    20  C    0.004042
    21  O   -0.243999
    22  C    0.008193
    23  C    0.252542
    24  O   -0.588659
    25  C    0.183837
    26  C   -0.034433
    27  C   -0.113167
    28  C    0.030130
    29  C    0.015765
    32  C   -0.052243
    62  C   -0.021915
 Sum of Mulliken charges with hydrogens summed into heavy atoms =   0.00000
 Electronic spatial extent (au):  <R**2>=          11793.7444
 Charge=              0.0000 electrons
 Dipole moment (field-independent basis, Debye):
    X=             -2.8340    Y=              5.5364    Z=             -0.6259  Tot=              6.2510
 Quadrupole moment (field-independent basis, Debye-Ang):
   XX=           -175.9677   YY=           -184.6715   ZZ=           -186.0240
   XY=              8.4574   XZ=             -9.8109   YZ=              3.6606
 Traceless Quadrupole moment (field-independent basis, Debye-Ang):
   XX=              6.2534   YY=             -2.4504   ZZ=             -3.8030
   XY=              8.4574   XZ=             -9.8109   YZ=              3.6606
 Octapole moment (field-independent basis, Debye-Ang**2):
  XXX=            -20.7740  YYY=             63.2411  ZZZ=             -4.3755  XYY=            -10.0198
  XXY=            -19.3586  XXZ=            -17.7466  XZZ=            -19.1362  YZZ=              7.5744
  YYZ=            -24.5202  XYZ=              2.0497
 Hexadecapole moment (field-independent basis, Debye-Ang**3):
 XXXX=          -9010.5655 YYYY=          -4081.0638 ZZZZ=          -2580.3202 XXXY=            103.8735
 XXXZ=            -46.2708 YYYX=             40.4726 YYYZ=            -22.7396 ZZZX=            -11.9850
 ZZZY=             -9.5996 XXYY=          -2135.9109 XXZZ=          -1949.8486 YYZZ=          -1115.8077
 XXYZ=             54.1077 YYXZ=            -38.0132 ZZXY=             42.5841
 N-N= 3.495341494689D+03 E-N=-1.021679355844D+04  KE= 1.374467052620D+03
 1\1\GINC-B0803\FOpt\RB3LYP\6-31G(d)\C26H34O5\CAOFEI\24-Mar-2021\0\\# o
 pt rb3lyp/6-31g(d) geom=connectivity\\Title Card Required\\0,1\C,0.055
 1676549,-0.0087631638,-0.1432902276\C,1.3899021896,-0.0302806437,-0.04
 40260705\C,2.169840914,1.2632118241,-0.0046326468\C,1.415673112,2.5068
 837081,0.568254669\C,-0.1479380958,2.4155285992,0.6485184402\C,-0.7396
 516111,1.2666200817,-0.2233168839\C,1.9576782154,3.711299588,-0.270273
 8251\C,0.9853769688,4.1687609753,-1.3459014326\C,-0.350143078,4.258119
 0329,-1.1503860597\C,-0.857066419,3.6977608338,0.1297815927\C,-1.34972
 60583,4.7586629048,-2.1514827122\O,-2.3837108467,4.1343941009,-2.33017
 60002\C,-1.0777280367,6.0891860315,-2.8546739445\C,-1.7703595461,6.171
 8860967,-4.2234610037\C,-1.5583080154,7.2090957982,-1.9027306134\O,-1.
 8469270714,4.1338905669,0.6902678305\C,3.1187478597,3.1966223301,-1.15
 06346417\C,3.0781575277,4.1364180745,-2.3764253121\O,1.6334316585,4.47
 09959239,-2.4829808492\C,2.7274272671,1.7229830002,-1.3771212207\O,2.2
 6512389,4.8279645472,0.5393276739\C,-0.4313705422,2.2062063296,2.15743
 40744\C,0.9532755959,2.070450138,2.8180295314\O,1.8474650497,2.7401757
 043,1.9182353721\C,1.0613455488,2.6243658132,4.2191730895\C,0.14743278
 5,1.9664517136,5.2243250387\C,1.9111939327,3.5992917651,4.5495998669\C
 ,3.8381653262,5.4427346557,-2.1325737402\C,3.4666697194,3.5129583747,-
 3.7132437364\H,4.0731995753,3.273282608,-0.6214210207\H,3.0330065062,1
 .1369218831,0.6633808329\C,2.1871880285,-1.3082519258,0.0001018645\H,-
 0.4957824219,-0.9465664464,-0.2004746368\H,-1.7736219281,1.1016091512,
 0.0979794514\H,-0.8143702957,1.5963342414,-1.2696472156\H,0.0053050912
 ,6.1965450392,-2.984869955\H,-1.6734771942,7.2010496844,-4.5949231851\
 H,-2.8409283965,5.9822900073,-4.0851724808\H,-2.6428275563,7.151223644
 9,-1.7588860128\H,-1.0831212611,7.1349832712,-0.9187500554\H,-1.317838
 9241,8.1909066746,-2.3257065157\H,1.9419620248,1.6402567902,-2.1377988
 408\H,3.566345199,1.1048114605,-1.7110987637\H,2.214567116,4.494724845
 8,1.4580197446\H,-0.9726917702,3.0747835461,2.5418380734\H,-1.04842666
 22,1.3225431676,2.339385307\H,1.2367663094,1.0050200696,2.8474221356\H
 ,0.3024951858,0.8789135447,5.2516928716\H,0.3211692691,2.3586494461,6.
 2303101452\H,-0.909501495,2.128271442,4.9756398511\H,1.9669262723,3.97
 19463175,5.5689410859\H,2.5814241751,4.0507764002,3.826466217\H,3.6252
 637638,6.1544365592,-2.9369483774\H,4.9173638283,5.2519537943,-2.12024
 14002\H,3.5536212939,5.8874716587,-1.1762331773\H,2.8651634557,2.62965
 2432,-3.9417205972\H,3.3265680359,4.23870036,-4.5207171203\H,4.5226331
 487,3.2215489753,-3.6972262663\H,1.5388694835,-2.1886643008,-0.0510354
 187\H,2.8994599028,-1.3667356765,-0.834609221\H,2.7820025276,-1.374608
 1707,0.9217777301\C,-1.2057482402,5.1972505715,-5.2625965083\H,-1.3502
 995819,4.1586720593,-4.9467244933\H,-1.7046189878,5.3224892757,-6.2304
 587931\H,-0.1311913725,5.3568328936,-5.4171115141\\Version=EM64L-G09Re
 vB.01\State=1-A\HF=-1387.319602\RMSD=5.582e-09\RMSF=4.203e-06\Dipole=2
 .1391583,-1.2104185,0.0851119\Quadrupole=-7.7999695,4.2382355,3.561734
 ,1.8335151,-6.8358117,-4.558462\PG=C01 [X(C26H34O5)]\\@


 IT IS NOT EASY TO DESCRIBE
     THE SEA WITH THE MOUTH

                   -- KOKYU
 Job cpu time:  0 days  4 hours 53 minutes 10.0 seconds.
 File lengths (MBytes):  RWF=    186 Int=      0 D2E=      0 Chk=     20 Scr=      1
 Normal termination of Gaussian 09 at Wed Mar 24 14:21:43 2021.
