 Entering Gaussian System, Link 0=g09
 Initial command:
 /public/software/g09/g09/l1.exe /tmp/Gau-17320.inp -scrdir=/tmp/
 Entering Link 1 = /public/software/g09/g09/l1.exe PID=     17321.
  
 Copyright (c) 1988,1990,1992,1993,1995,1998,2003,2009,2010,
            Gaussian, Inc.  All Rights Reserved.
  
 This is part of the Gaussian(R) 09 program.  It is based on
 the Gaussian(R) 03 system (copyright 2003, Gaussian, Inc.),
 the Gaussian(R) 98 system (copyright 1998, Gaussian, Inc.),
 the Gaussian(R) 94 system (copyright 1995, Gaussian, Inc.),
 the Gaussian 92(TM) system (copyright 1992, Gaussian, Inc.),
 the Gaussian 90(TM) system (copyright 1990, Gaussian, Inc.),
 the Gaussian 88(TM) system (copyright 1988, Gaussian, Inc.),
 the Gaussian 86(TM) system (copyright 1986, Carnegie Mellon
 University), and the Gaussian 82(TM) system (copyright 1983,
 Carnegie Mellon University). Gaussian is a federally registered
 trademark of Gaussian, Inc.
  
 This software contains proprietary and confidential information,
 including trade secrets, belonging to Gaussian, Inc.
  
 This software is provided under written license and may be
 used, copied, transmitted, or stored only in accord with that
 written license.
  
 The following legend is applicable only to US Government
 contracts under FAR:
  
                    RESTRICTED RIGHTS LEGEND
  
 Use, reproduction and disclosure by the US Government is
 subject to restrictions as set forth in subparagraphs (a)
 and (c) of the Commercial Computer Software - Restricted
 Rights clause in FAR 52.227-19.
  
 Gaussian, Inc.
 340 Quinnipiac St., Bldg. 40, Wallingford CT 06492
  
  
 ---------------------------------------------------------------
 Warning -- This program may not be used in any manner that
 competes with the business of Gaussian, Inc. or will provide
 assistance to any competitor of Gaussian, Inc.  The licensee
 of this program is prohibited from giving any competitor of
 Gaussian, Inc. access to this program.  By using this program,
 the user acknowledges that Gaussian, Inc. is engaged in the
 business of creating and licensing software in the field of
 computational chemistry and represents and warrants to the
 licensee that it is not a competitor of Gaussian, Inc. and that
 it will not use this program in any manner prohibited above.
 ---------------------------------------------------------------
  

 Cite this work as:
 Gaussian 09, Revision B.01,
 M. J. Frisch, G. W. Trucks, H. B. Schlegel, G. E. Scuseria, 
 M. A. Robb, J. R. Cheeseman, G. Scalmani, V. Barone, B. Mennucci, 
 G. A. Petersson, H. Nakatsuji, M. Caricato, X. Li, H. P. Hratchian, 
 A. F. Izmaylov, J. Bloino, G. Zheng, J. L. Sonnenberg, M. Hada, 
 M. Ehara, K. Toyota, R. Fukuda, J. Hasegawa, M. Ishida, T. Nakajima, 
 Y. Honda, O. Kitao, H. Nakai, T. Vreven, J. A. Montgomery, Jr., 
 J. E. Peralta, F. Ogliaro, M. Bearpark, J. J. Heyd, E. Brothers, 
 K. N. Kudin, V. N. Staroverov, T. Keith, R. Kobayashi, J. Normand, 
 K. Raghavachari, A. Rendell, J. C. Burant, S. S. Iyengar, J. Tomasi, 
 M. Cossi, N. Rega, J. M. Millam, M. Klene, J. E. Knox, J. B. Cross, 
 V. Bakken, C. Adamo, J. Jaramillo, R. Gomperts, R. E. Stratmann, 
 O. Yazyev, A. J. Austin, R. Cammi, C. Pomelli, J. W. Ochterski, 
 R. L. Martin, K. Morokuma, V. G. Zakrzewski, G. A. Voth, 
 P. Salvador, J. J. Dannenberg, S. Dapprich, A. D. Daniels, 
 O. Farkas, J. B. Foresman, J. V. Ortiz, J. Cioslowski, 
 and D. J. Fox, Gaussian, Inc., Wallingford CT, 2010.
 
 ******************************************
 Gaussian 09:  EM64L-G09RevB.01 12-Aug-2010
                24-Mar-2021 
 ******************************************
 %mem=600MW
 %nprocshared=10
 Will use up to   10 processors via shared memory.
 ---------------------------------------
 # opt rb3lyp/6-31g(d) geom=connectivity
 ---------------------------------------
 1/14=-1,18=20,19=15,26=3,38=1,57=2/1,3;
 2/9=110,12=2,17=6,18=5,40=1/2;
 3/5=1,6=6,7=1,11=2,16=1,25=1,30=1,71=1,74=-5,116=1/1,2,3;
 4//1;
 5/5=2,38=5/2;
 6/7=2,8=2,9=2,10=2,28=1/1;
 7//1,2,3,16;
 1/14=-1,18=20,19=15/3(2);
 2/9=110/2;
 99//99;
 2/9=110/2;
 3/5=1,6=6,7=1,11=2,16=1,25=1,30=1,71=1,74=-5,116=1/1,2,3;
 4/5=5,16=3/1;
 5/5=2,38=5/2;
 7//1,2,3,16;
 1/14=-1,18=20,19=15/3(-5);
 2/9=110/2;
 6/7=2,8=2,9=2,10=2,19=2,28=1/1;
 99/9=1/99;
 -------------------
 Title Card Required
 -------------------
 Symbolic Z-matrix:
 Charge =  0 Multiplicity = 1
 C                     0.        0.        0. 
 C                     1.3418    0.        0. 
 C                     2.1324    1.2892    0. 
 C                     1.3337    2.5788   -0.3499 
 C                    -0.1537    2.4361   -0.7037 
 C                    -0.8233    1.2478    0.0173 
 C                     2.151     3.2624   -1.463 
 C                     1.8088    2.8416   -2.8526 
 C                     0.5981    2.4038   -3.2171 
 C                    -0.4785    2.3372   -2.2018 
 C                     0.3718    1.9373   -4.6118 
 O                     0.6053    2.6766   -5.5673 
 C                    -0.0945    0.4929   -4.7925 
 C                    -1.0402    0.3484   -5.9941 
 C                     1.1437   -0.3851   -4.9745 
 O                    -1.6438    2.1973   -2.5808 
 C                     3.5644    2.7272   -1.3778 
 C                     4.0847    2.921    -2.817 
 O                     2.9306    2.7326   -3.673 
 C                     3.3285    1.2643   -0.9681 
 O                     2.0981    4.6754   -1.3753 
 C                    -0.7258    3.7569   -0.186 
 C                     0.0905    4.0154    1.0746 
 O                     1.3941    3.4581    0.8154 
 C                     0.2597    5.4416    1.5466 
 C                     1.1607    5.6161    2.7431 
 C                    -0.3479    6.5107    1.0039 
 C                     4.6454    4.33     -3.0676 
 C                     5.1555    1.9015   -3.2216 
 H                     4.1825    3.2475   -0.6372 
 H                     2.5439    1.4005    1.0141 
 C                     2.1121   -1.2896    0.1052 
 H                    -0.5466   -0.9398    0.0566 
 H                    -1.0391    1.4787    1.0673 
 H                    -1.7969    1.0203   -0.4342 
 H                    -0.6213    0.1585   -3.8918 
 H                    -0.5732    0.7439   -6.9042 
 H                    -1.2376   -0.7152   -6.1761 
 H                     1.8119   -0.3047   -4.11 
 H                     0.8633   -1.4378   -5.0846 
 H                     1.7155   -0.0886   -5.8609 
 H                     3.0963    0.6336   -1.8347 
 H                     4.2222    0.8426   -0.4943 
 H                     2.1622    4.8922   -0.4237 
 H                    -1.8012    3.7182    0.0213 
 H                    -0.572     4.5426   -0.9358 
 H                    -0.3363    3.4405    1.9059 
 H                     1.1824    6.6523    3.0972 
 H                     0.8142    4.992     3.5734 
 H                     2.1884    5.3309    2.4964 
 H                    -1.0219    6.4383    0.1574 
 H                    -0.19      7.5103    1.3996 
 H                     5.0024    4.4238   -4.1002 
 H                     5.4803    4.5506   -2.3947 
 H                     3.8887    5.1102   -2.9525 
 H                     5.5158    2.1009   -4.2378 
 H                     6.0124    1.9319   -2.541 
 H                     4.7625    0.8805   -3.251 
 H                     1.4532   -2.1504    0.262 
 H                     2.6847   -1.4769   -0.8081 
 H                     2.8053   -1.2489    0.9518 
 C                    -2.3744    1.0497   -5.7756 
 H                    -2.2451    2.129    -5.6507 
 H                    -3.0295    0.8884   -6.6376 
 H                    -2.8817    0.658    -4.8882 
 

 GradGradGradGradGradGradGradGradGradGradGradGradGradGradGradGradGradGrad
 Berny optimization.
 Initialization pass.
                           ----------------------------
                           !    Initial Parameters    !
                           ! (Angstroms and Degrees)  !
 --------------------------                            --------------------------
 ! Name  Definition              Value          Derivative Info.                !
 --------------------------------------------------------------------------------
 ! R1    R(1,2)                  1.3418         estimate D2E/DX2                !
 ! R2    R(1,6)                  1.495          estimate D2E/DX2                !
 ! R3    R(1,33)                 1.0887         estimate D2E/DX2                !
 ! R4    R(2,3)                  1.5123         estimate D2E/DX2                !
 ! R5    R(2,32)                 1.5058         estimate D2E/DX2                !
 ! R6    R(3,4)                  1.5567         estimate D2E/DX2                !
 ! R7    R(3,20)                 1.539          estimate D2E/DX2                !
 ! R8    R(3,31)                 1.1001         estimate D2E/DX2                !
 ! R9    R(4,5)                  1.5355         estimate D2E/DX2                !
 ! R10   R(4,7)                  1.5409         estimate D2E/DX2                !
 ! R11   R(4,24)                 1.4611         estimate D2E/DX2                !
 ! R12   R(5,6)                  1.5428         estimate D2E/DX2                !
 ! R13   R(5,10)                 1.5361         estimate D2E/DX2                !
 ! R14   R(5,22)                 1.5296         estimate D2E/DX2                !
 ! R15   R(6,34)                 1.0965         estimate D2E/DX2                !
 ! R16   R(6,35)                 1.097          estimate D2E/DX2                !
 ! R17   R(7,8)                  1.4917         estimate D2E/DX2                !
 ! R18   R(7,17)                 1.5137         estimate D2E/DX2                !
 ! R19   R(7,21)                 1.4167         estimate D2E/DX2                !
 ! R20   R(8,9)                  1.338          estimate D2E/DX2                !
 ! R21   R(8,19)                 1.394          estimate D2E/DX2                !
 ! R22   R(9,10)                 1.4813         estimate D2E/DX2                !
 ! R23   R(9,11)                 1.488          estimate D2E/DX2                !
 ! R24   R(10,16)                1.2333         estimate D2E/DX2                !
 ! R25   R(11,12)                1.2305         estimate D2E/DX2                !
 ! R26   R(11,13)                1.5285         estimate D2E/DX2                !
 ! R27   R(13,14)                1.5359         estimate D2E/DX2                !
 ! R28   R(13,15)                1.5288         estimate D2E/DX2                !
 ! R29   R(13,36)                1.0957         estimate D2E/DX2                !
 ! R30   R(14,37)                1.0967         estimate D2E/DX2                !
 ! R31   R(14,38)                1.097          estimate D2E/DX2                !
 ! R32   R(14,62)                1.523          estimate D2E/DX2                !
 ! R33   R(15,39)                1.0956         estimate D2E/DX2                !
 ! R34   R(15,40)                1.095          estimate D2E/DX2                !
 ! R35   R(15,41)                1.0957         estimate D2E/DX2                !
 ! R36   R(17,18)                1.5426         estimate D2E/DX2                !
 ! R37   R(17,20)                1.5374         estimate D2E/DX2                !
 ! R38   R(17,30)                1.096          estimate D2E/DX2                !
 ! R39   R(18,19)                1.4492         estimate D2E/DX2                !
 ! R40   R(18,28)                1.537          estimate D2E/DX2                !
 ! R41   R(18,29)                1.5329         estimate D2E/DX2                !
 ! R42   R(20,42)                1.0967         estimate D2E/DX2                !
 ! R43   R(20,43)                1.0959         estimate D2E/DX2                !
 ! R44   R(21,44)                0.9781         estimate D2E/DX2                !
 ! R45   R(22,23)                1.5239         estimate D2E/DX2                !
 ! R46   R(22,45)                1.0959         estimate D2E/DX2                !
 ! R47   R(22,46)                1.0969         estimate D2E/DX2                !
 ! R48   R(23,24)                1.4412         estimate D2E/DX2                !
 ! R49   R(23,25)                1.5118         estimate D2E/DX2                !
 ! R50   R(23,47)                1.0971         estimate D2E/DX2                !
 ! R51   R(25,26)                1.5079         estimate D2E/DX2                !
 ! R52   R(25,27)                1.3441         estimate D2E/DX2                !
 ! R53   R(26,48)                1.0952         estimate D2E/DX2                !
 ! R54   R(26,49)                1.095          estimate D2E/DX2                !
 ! R55   R(26,50)                1.0947         estimate D2E/DX2                !
 ! R56   R(27,51)                1.0845         estimate D2E/DX2                !
 ! R57   R(27,52)                1.0866         estimate D2E/DX2                !
 ! R58   R(28,53)                1.0966         estimate D2E/DX2                !
 ! R59   R(28,54)                1.0948         estimate D2E/DX2                !
 ! R60   R(28,55)                1.093          estimate D2E/DX2                !
 ! R61   R(29,56)                1.0965         estimate D2E/DX2                !
 ! R62   R(29,57)                1.0947         estimate D2E/DX2                !
 ! R63   R(29,58)                1.0944         estimate D2E/DX2                !
 ! R64   R(32,59)                1.0953         estimate D2E/DX2                !
 ! R65   R(32,60)                1.0941         estimate D2E/DX2                !
 ! R66   R(32,61)                1.0949         estimate D2E/DX2                !
 ! R67   R(62,63)                1.0942         estimate D2E/DX2                !
 ! R68   R(62,64)                1.0946         estimate D2E/DX2                !
 ! R69   R(62,65)                1.0947         estimate D2E/DX2                !
 ! A1    A(2,1,6)              123.4143         estimate D2E/DX2                !
 ! A2    A(2,1,33)             120.1378         estimate D2E/DX2                !
 ! A3    A(6,1,33)             116.3215         estimate D2E/DX2                !
 ! A4    A(1,2,3)              121.5186         estimate D2E/DX2                !
 ! A5    A(1,2,32)             120.767          estimate D2E/DX2                !
 ! A6    A(3,2,32)             117.5575         estimate D2E/DX2                !
 ! A7    A(2,3,4)              115.9745         estimate D2E/DX2                !
 ! A8    A(2,3,20)             113.1106         estimate D2E/DX2                !
 ! A9    A(2,3,31)             106.368          estimate D2E/DX2                !
 ! A10   A(4,3,20)             105.7098         estimate D2E/DX2                !
 ! A11   A(4,3,31)             108.3795         estimate D2E/DX2                !
 ! A12   A(20,3,31)            106.9062         estimate D2E/DX2                !
 ! A13   A(3,4,5)              118.1498         estimate D2E/DX2                !
 ! A14   A(3,4,7)              104.9365         estimate D2E/DX2                !
 ! A15   A(3,4,24)             107.3418         estimate D2E/DX2                !
 ! A16   A(5,4,7)              112.8656         estimate D2E/DX2                !
 ! A17   A(5,4,24)             106.2444         estimate D2E/DX2                !
 ! A18   A(7,4,24)             106.692          estimate D2E/DX2                !
 ! A19   A(4,5,6)              112.6007         estimate D2E/DX2                !
 ! A20   A(4,5,10)             115.8176         estimate D2E/DX2                !
 ! A21   A(4,5,22)             101.7744         estimate D2E/DX2                !
 ! A22   A(6,5,10)             108.3252         estimate D2E/DX2                !
 ! A23   A(6,5,22)             110.1555         estimate D2E/DX2                !
 ! A24   A(10,5,22)            107.8535         estimate D2E/DX2                !
 ! A25   A(1,6,5)              113.4802         estimate D2E/DX2                !
 ! A26   A(1,6,34)             107.17           estimate D2E/DX2                !
 ! A27   A(1,6,35)             108.1123         estimate D2E/DX2                !
 ! A28   A(5,6,34)             111.7603         estimate D2E/DX2                !
 ! A29   A(5,6,35)             110.6444         estimate D2E/DX2                !
 ! A30   A(34,6,35)            105.2544         estimate D2E/DX2                !
 ! A31   A(4,7,8)              115.2211         estimate D2E/DX2                !
 ! A32   A(4,7,17)             107.322          estimate D2E/DX2                !
 ! A33   A(4,7,21)             112.2074         estimate D2E/DX2                !
 ! A34   A(8,7,17)              99.6071         estimate D2E/DX2                !
 ! A35   A(8,7,21)             109.2966         estimate D2E/DX2                !
 ! A36   A(17,7,21)            112.5828         estimate D2E/DX2                !
 ! A37   A(7,8,9)              123.6173         estimate D2E/DX2                !
 ! A38   A(7,8,19)             112.6858         estimate D2E/DX2                !
 ! A39   A(9,8,19)             122.8355         estimate D2E/DX2                !
 ! A40   A(8,9,10)             119.0528         estimate D2E/DX2                !
 ! A41   A(8,9,11)             119.7052         estimate D2E/DX2                !
 ! A42   A(10,9,11)            121.1855         estimate D2E/DX2                !
 ! A43   A(5,10,9)             120.7889         estimate D2E/DX2                !
 ! A44   A(5,10,16)            120.4494         estimate D2E/DX2                !
 ! A45   A(9,10,16)            118.7614         estimate D2E/DX2                !
 ! A46   A(9,11,12)            120.7058         estimate D2E/DX2                !
 ! A47   A(9,11,13)            116.9664         estimate D2E/DX2                !
 ! A48   A(12,11,13)           122.2659         estimate D2E/DX2                !
 ! A49   A(11,13,14)           111.6677         estimate D2E/DX2                !
 ! A50   A(11,13,15)           108.0412         estimate D2E/DX2                !
 ! A51   A(11,13,36)           109.748          estimate D2E/DX2                !
 ! A52   A(14,13,15)           110.5804         estimate D2E/DX2                !
 ! A53   A(14,13,36)           108.5632         estimate D2E/DX2                !
 ! A54   A(15,13,36)           108.1789         estimate D2E/DX2                !
 ! A55   A(13,14,37)           110.6769         estimate D2E/DX2                !
 ! A56   A(13,14,38)           109.379          estimate D2E/DX2                !
 ! A57   A(13,14,62)           112.5706         estimate D2E/DX2                !
 ! A58   A(37,14,38)           106.774          estimate D2E/DX2                !
 ! A59   A(37,14,62)           109.0273         estimate D2E/DX2                !
 ! A60   A(38,14,62)           108.2171         estimate D2E/DX2                !
 ! A61   A(13,15,39)           110.9708         estimate D2E/DX2                !
 ! A62   A(13,15,40)           110.8986         estimate D2E/DX2                !
 ! A63   A(13,15,41)           111.3192         estimate D2E/DX2                !
 ! A64   A(39,15,40)           107.8233         estimate D2E/DX2                !
 ! A65   A(39,15,41)           107.4698         estimate D2E/DX2                !
 ! A66   A(40,15,41)           108.2072         estimate D2E/DX2                !
 ! A67   A(7,17,18)            102.5917         estimate D2E/DX2                !
 ! A68   A(7,17,20)            102.0145         estimate D2E/DX2                !
 ! A69   A(7,17,30)            113.3758         estimate D2E/DX2                !
 ! A70   A(18,17,20)           114.8302         estimate D2E/DX2                !
 ! A71   A(18,17,30)           112.3694         estimate D2E/DX2                !
 ! A72   A(20,17,30)           110.9884         estimate D2E/DX2                !
 ! A73   A(17,18,19)           105.4349         estimate D2E/DX2                !
 ! A74   A(17,18,28)           112.9747         estimate D2E/DX2                !
 ! A75   A(17,18,29)           113.4731         estimate D2E/DX2                !
 ! A76   A(19,18,28)           108.2631         estimate D2E/DX2                !
 ! A77   A(19,18,29)           108.2969         estimate D2E/DX2                !
 ! A78   A(28,18,29)           108.1693         estimate D2E/DX2                !
 ! A79   A(8,19,18)            106.4435         estimate D2E/DX2                !
 ! A80   A(3,20,17)            105.7532         estimate D2E/DX2                !
 ! A81   A(3,20,42)            109.9882         estimate D2E/DX2                !
 ! A82   A(3,20,43)            111.5961         estimate D2E/DX2                !
 ! A83   A(17,20,42)           111.6627         estimate D2E/DX2                !
 ! A84   A(17,20,43)           110.869          estimate D2E/DX2                !
 ! A85   A(42,20,43)           107.0378         estimate D2E/DX2                !
 ! A86   A(7,21,44)            106.1921         estimate D2E/DX2                !
 ! A87   A(5,22,23)            103.0672         estimate D2E/DX2                !
 ! A88   A(5,22,45)            113.6123         estimate D2E/DX2                !
 ! A89   A(5,22,46)            109.5547         estimate D2E/DX2                !
 ! A90   A(23,22,45)           112.0345         estimate D2E/DX2                !
 ! A91   A(23,22,46)           111.6444         estimate D2E/DX2                !
 ! A92   A(45,22,46)           106.9893         estimate D2E/DX2                !
 ! A93   A(22,23,24)           105.6729         estimate D2E/DX2                !
 ! A94   A(22,23,25)           118.5713         estimate D2E/DX2                !
 ! A95   A(22,23,47)           109.2393         estimate D2E/DX2                !
 ! A96   A(24,23,25)           108.6456         estimate D2E/DX2                !
 ! A97   A(24,23,47)           106.5893         estimate D2E/DX2                !
 ! A98   A(25,23,47)           107.5363         estimate D2E/DX2                !
 ! A99   A(4,24,23)            109.8014         estimate D2E/DX2                !
 ! A100  A(23,25,26)           115.0734         estimate D2E/DX2                !
 ! A101  A(23,25,27)           125.0094         estimate D2E/DX2                !
 ! A102  A(26,25,27)           119.8957         estimate D2E/DX2                !
 ! A103  A(25,26,48)           112.2008         estimate D2E/DX2                !
 ! A104  A(25,26,49)           110.2819         estimate D2E/DX2                !
 ! A105  A(25,26,50)           110.608          estimate D2E/DX2                !
 ! A106  A(48,26,49)           107.4788         estimate D2E/DX2                !
 ! A107  A(48,26,50)           107.5022         estimate D2E/DX2                !
 ! A108  A(49,26,50)           108.631          estimate D2E/DX2                !
 ! A109  A(25,27,51)           122.8882         estimate D2E/DX2                !
 ! A110  A(25,27,52)           121.2637         estimate D2E/DX2                !
 ! A111  A(51,27,52)           115.8477         estimate D2E/DX2                !
 ! A112  A(18,28,53)           110.5302         estimate D2E/DX2                !
 ! A113  A(18,28,54)           111.2666         estimate D2E/DX2                !
 ! A114  A(18,28,55)           112.622          estimate D2E/DX2                !
 ! A115  A(53,28,54)           108.2564         estimate D2E/DX2                !
 ! A116  A(53,28,55)           105.2778         estimate D2E/DX2                !
 ! A117  A(54,28,55)           108.6283         estimate D2E/DX2                !
 ! A118  A(18,29,56)           110.6845         estimate D2E/DX2                !
 ! A119  A(18,29,57)           111.3603         estimate D2E/DX2                !
 ! A120  A(18,29,58)           112.1304         estimate D2E/DX2                !
 ! A121  A(56,29,57)           108.2964         estimate D2E/DX2                !
 ! A122  A(56,29,58)           105.2338         estimate D2E/DX2                !
 ! A123  A(57,29,58)           108.8863         estimate D2E/DX2                !
 ! A124  A(2,32,59)            112.0441         estimate D2E/DX2                !
 ! A125  A(2,32,60)            110.8554         estimate D2E/DX2                !
 ! A126  A(2,32,61)            110.2452         estimate D2E/DX2                !
 ! A127  A(59,32,60)           107.4449         estimate D2E/DX2                !
 ! A128  A(59,32,61)           107.4197         estimate D2E/DX2                !
 ! A129  A(60,32,61)           108.6902         estimate D2E/DX2                !
 ! A130  A(14,62,63)           111.5344         estimate D2E/DX2                !
 ! A131  A(14,62,64)           110.0864         estimate D2E/DX2                !
 ! A132  A(14,62,65)           110.9473         estimate D2E/DX2                !
 ! A133  A(63,62,64)           107.8163         estimate D2E/DX2                !
 ! A134  A(63,62,65)           108.3726         estimate D2E/DX2                !
 ! A135  A(64,62,65)           107.9572         estimate D2E/DX2                !
 ! D1    D(6,1,2,3)             -0.7943         estimate D2E/DX2                !
 ! D2    D(6,1,2,32)           174.5421         estimate D2E/DX2                !
 ! D3    D(33,1,2,3)          -176.5535         estimate D2E/DX2                !
 ! D4    D(33,1,2,32)           -1.2171         estimate D2E/DX2                !
 ! D5    D(2,1,6,5)             31.4068         estimate D2E/DX2                !
 ! D6    D(2,1,6,34)           -92.4603         estimate D2E/DX2                !
 ! D7    D(2,1,6,35)           154.5356         estimate D2E/DX2                !
 ! D8    D(33,1,6,5)          -152.6847         estimate D2E/DX2                !
 ! D9    D(33,1,6,34)           83.4482         estimate D2E/DX2                !
 ! D10   D(33,1,6,35)          -29.556          estimate D2E/DX2                !
 ! D11   D(1,2,3,4)            -14.4787         estimate D2E/DX2                !
 ! D12   D(1,2,3,20)          -136.8481         estimate D2E/DX2                !
 ! D13   D(1,2,3,31)           106.0949         estimate D2E/DX2                !
 ! D14   D(32,2,3,4)           170.041          estimate D2E/DX2                !
 ! D15   D(32,2,3,20)           47.6717         estimate D2E/DX2                !
 ! D16   D(32,2,3,31)          -69.3854         estimate D2E/DX2                !
 ! D17   D(1,2,32,59)           -4.8759         estimate D2E/DX2                !
 ! D18   D(1,2,32,60)          115.1488         estimate D2E/DX2                !
 ! D19   D(1,2,32,61)         -124.4529         estimate D2E/DX2                !
 ! D20   D(3,2,32,59)          170.6401         estimate D2E/DX2                !
 ! D21   D(3,2,32,60)          -69.3352         estimate D2E/DX2                !
 ! D22   D(3,2,32,61)           51.0631         estimate D2E/DX2                !
 ! D23   D(2,3,4,5)             -1.8707         estimate D2E/DX2                !
 ! D24   D(2,3,4,7)           -128.6579         estimate D2E/DX2                !
 ! D25   D(2,3,4,24)           118.0931         estimate D2E/DX2                !
 ! D26   D(20,3,4,5)           124.3276         estimate D2E/DX2                !
 ! D27   D(20,3,4,7)            -2.4595         estimate D2E/DX2                !
 ! D28   D(20,3,4,24)         -115.7085         estimate D2E/DX2                !
 ! D29   D(31,3,4,5)          -121.3554         estimate D2E/DX2                !
 ! D30   D(31,3,4,7)           111.8574         estimate D2E/DX2                !
 ! D31   D(31,3,4,24)           -1.3916         estimate D2E/DX2                !
 ! D32   D(2,3,20,17)          152.4484         estimate D2E/DX2                !
 ! D33   D(2,3,20,42)           31.7353         estimate D2E/DX2                !
 ! D34   D(2,3,20,43)          -86.9048         estimate D2E/DX2                !
 ! D35   D(4,3,20,17)           24.5184         estimate D2E/DX2                !
 ! D36   D(4,3,20,42)          -96.1946         estimate D2E/DX2                !
 ! D37   D(4,3,20,43)          145.1652         estimate D2E/DX2                !
 ! D38   D(31,3,20,17)         -90.8116         estimate D2E/DX2                !
 ! D39   D(31,3,20,42)         148.4754         estimate D2E/DX2                !
 ! D40   D(31,3,20,43)          29.8352         estimate D2E/DX2                !
 ! D41   D(3,4,5,6)             30.4514         estimate D2E/DX2                !
 ! D42   D(3,4,5,10)           -94.9794         estimate D2E/DX2                !
 ! D43   D(3,4,5,22)           148.3575         estimate D2E/DX2                !
 ! D44   D(7,4,5,6)            153.3326         estimate D2E/DX2                !
 ! D45   D(7,4,5,10)            27.9018         estimate D2E/DX2                !
 ! D46   D(7,4,5,22)           -88.7614         estimate D2E/DX2                !
 ! D47   D(24,4,5,6)           -90.0804         estimate D2E/DX2                !
 ! D48   D(24,4,5,10)          144.4888         estimate D2E/DX2                !
 ! D49   D(24,4,5,22)           27.8256         estimate D2E/DX2                !
 ! D50   D(3,4,7,8)             88.9225         estimate D2E/DX2                !
 ! D51   D(3,4,7,17)           -20.9632         estimate D2E/DX2                !
 ! D52   D(3,4,7,21)          -145.1448         estimate D2E/DX2                !
 ! D53   D(5,4,7,8)            -41.0496         estimate D2E/DX2                !
 ! D54   D(5,4,7,17)          -150.9353         estimate D2E/DX2                !
 ! D55   D(5,4,7,21)            84.8832         estimate D2E/DX2                !
 ! D56   D(24,4,7,8)          -157.3707         estimate D2E/DX2                !
 ! D57   D(24,4,7,17)           92.7436         estimate D2E/DX2                !
 ! D58   D(24,4,7,21)          -31.4379         estimate D2E/DX2                !
 ! D59   D(3,4,24,23)         -135.7212         estimate D2E/DX2                !
 ! D60   D(5,4,24,23)           -8.4361         estimate D2E/DX2                !
 ! D61   D(7,4,24,23)          112.2213         estimate D2E/DX2                !
 ! D62   D(4,5,6,1)            -44.2715         estimate D2E/DX2                !
 ! D63   D(4,5,6,34)            77.0575         estimate D2E/DX2                !
 ! D64   D(4,5,6,35)          -165.9983         estimate D2E/DX2                !
 ! D65   D(10,5,6,1)            85.1342         estimate D2E/DX2                !
 ! D66   D(10,5,6,34)         -153.5367         estimate D2E/DX2                !
 ! D67   D(10,5,6,35)          -36.5925         estimate D2E/DX2                !
 ! D68   D(22,5,6,1)          -157.1168         estimate D2E/DX2                !
 ! D69   D(22,5,6,34)          -35.7877         estimate D2E/DX2                !
 ! D70   D(22,5,6,35)           81.1565         estimate D2E/DX2                !
 ! D71   D(4,5,10,9)            -1.0722         estimate D2E/DX2                !
 ! D72   D(4,5,10,16)          178.753          estimate D2E/DX2                !
 ! D73   D(6,5,10,9)          -128.6592         estimate D2E/DX2                !
 ! D74   D(6,5,10,16)           51.1661         estimate D2E/DX2                !
 ! D75   D(22,5,10,9)          112.1303         estimate D2E/DX2                !
 ! D76   D(22,5,10,16)         -68.0445         estimate D2E/DX2                !
 ! D77   D(4,5,22,23)          -36.0122         estimate D2E/DX2                !
 ! D78   D(4,5,22,45)         -157.4647         estimate D2E/DX2                !
 ! D79   D(4,5,22,46)           82.9523         estimate D2E/DX2                !
 ! D80   D(6,5,22,23)           83.6367         estimate D2E/DX2                !
 ! D81   D(6,5,22,45)          -37.8158         estimate D2E/DX2                !
 ! D82   D(6,5,22,46)         -157.3987         estimate D2E/DX2                !
 ! D83   D(10,5,22,23)        -158.3232         estimate D2E/DX2                !
 ! D84   D(10,5,22,45)          80.2243         estimate D2E/DX2                !
 ! D85   D(10,5,22,46)         -39.3586         estimate D2E/DX2                !
 ! D86   D(4,7,8,9)             28.155          estimate D2E/DX2                !
 ! D87   D(4,7,8,19)          -141.4664         estimate D2E/DX2                !
 ! D88   D(17,7,8,9)           142.5814         estimate D2E/DX2                !
 ! D89   D(17,7,8,19)          -27.04           estimate D2E/DX2                !
 ! D90   D(21,7,8,9)           -99.2591         estimate D2E/DX2                !
 ! D91   D(21,7,8,19)           91.1195         estimate D2E/DX2                !
 ! D92   D(4,7,17,18)          154.8995         estimate D2E/DX2                !
 ! D93   D(4,7,17,20)           35.7261         estimate D2E/DX2                !
 ! D94   D(4,7,17,30)          -83.6759         estimate D2E/DX2                !
 ! D95   D(8,7,17,18)           34.5352         estimate D2E/DX2                !
 ! D96   D(8,7,17,20)          -84.6382         estimate D2E/DX2                !
 ! D97   D(8,7,17,30)          155.9598         estimate D2E/DX2                !
 ! D98   D(21,7,17,18)         -81.1477         estimate D2E/DX2                !
 ! D99   D(21,7,17,20)         159.6789         estimate D2E/DX2                !
 ! D100  D(21,7,17,30)          40.277          estimate D2E/DX2                !
 ! D101  D(4,7,21,44)           40.5946         estimate D2E/DX2                !
 ! D102  D(8,7,21,44)          169.6879         estimate D2E/DX2                !
 ! D103  D(17,7,21,44)         -80.6099         estimate D2E/DX2                !
 ! D104  D(7,8,9,10)             0.5576         estimate D2E/DX2                !
 ! D105  D(7,8,9,11)          -176.742          estimate D2E/DX2                !
 ! D106  D(19,8,9,10)          169.1481         estimate D2E/DX2                !
 ! D107  D(19,8,9,11)           -8.1515         estimate D2E/DX2                !
 ! D108  D(7,8,19,18)            6.7414         estimate D2E/DX2                !
 ! D109  D(9,8,19,18)         -162.9734         estimate D2E/DX2                !
 ! D110  D(8,9,10,5)           -14.6221         estimate D2E/DX2                !
 ! D111  D(8,9,10,16)          165.5498         estimate D2E/DX2                !
 ! D112  D(11,9,10,5)          162.6362         estimate D2E/DX2                !
 ! D113  D(11,9,10,16)         -17.1919         estimate D2E/DX2                !
 ! D114  D(8,9,11,12)          -56.7205         estimate D2E/DX2                !
 ! D115  D(8,9,11,13)          120.4837         estimate D2E/DX2                !
 ! D116  D(10,9,11,12)         126.0388         estimate D2E/DX2                !
 ! D117  D(10,9,11,13)         -56.757          estimate D2E/DX2                !
 ! D118  D(9,11,13,14)         146.2875         estimate D2E/DX2                !
 ! D119  D(9,11,13,15)         -91.8952         estimate D2E/DX2                !
 ! D120  D(9,11,13,36)          25.8507         estimate D2E/DX2                !
 ! D121  D(12,11,13,14)        -36.5554         estimate D2E/DX2                !
 ! D122  D(12,11,13,15)         85.262          estimate D2E/DX2                !
 ! D123  D(12,11,13,36)       -156.9922         estimate D2E/DX2                !
 ! D124  D(11,13,14,37)         54.6588         estimate D2E/DX2                !
 ! D125  D(11,13,14,38)        172.0293         estimate D2E/DX2                !
 ! D126  D(11,13,14,62)        -67.6336         estimate D2E/DX2                !
 ! D127  D(15,13,14,37)        -65.6822         estimate D2E/DX2                !
 ! D128  D(15,13,14,38)         51.6884         estimate D2E/DX2                !
 ! D129  D(15,13,14,62)        172.0254         estimate D2E/DX2                !
 ! D130  D(36,13,14,37)        175.7865         estimate D2E/DX2                !
 ! D131  D(36,13,14,38)        -66.843          estimate D2E/DX2                !
 ! D132  D(36,13,14,62)         53.4941         estimate D2E/DX2                !
 ! D133  D(11,13,15,39)         58.8304         estimate D2E/DX2                !
 ! D134  D(11,13,15,40)        178.6471         estimate D2E/DX2                !
 ! D135  D(11,13,15,41)        -60.8193         estimate D2E/DX2                !
 ! D136  D(14,13,15,39)       -178.6839         estimate D2E/DX2                !
 ! D137  D(14,13,15,40)        -58.8673         estimate D2E/DX2                !
 ! D138  D(14,13,15,41)         61.6663         estimate D2E/DX2                !
 ! D139  D(36,13,15,39)        -59.919          estimate D2E/DX2                !
 ! D140  D(36,13,15,40)         59.8976         estimate D2E/DX2                !
 ! D141  D(36,13,15,41)       -179.5688         estimate D2E/DX2                !
 ! D142  D(13,14,62,63)         62.5653         estimate D2E/DX2                !
 ! D143  D(13,14,62,64)       -177.7961         estimate D2E/DX2                !
 ! D144  D(13,14,62,65)        -58.3576         estimate D2E/DX2                !
 ! D145  D(37,14,62,63)        -60.6528         estimate D2E/DX2                !
 ! D146  D(37,14,62,64)         58.9857         estimate D2E/DX2                !
 ! D147  D(37,14,62,65)        178.4243         estimate D2E/DX2                !
 ! D148  D(38,14,62,63)       -176.4307         estimate D2E/DX2                !
 ! D149  D(38,14,62,64)        -56.7922         estimate D2E/DX2                !
 ! D150  D(38,14,62,65)         62.6464         estimate D2E/DX2                !
 ! D151  D(7,17,18,19)         -33.0104         estimate D2E/DX2                !
 ! D152  D(7,17,18,28)          85.035          estimate D2E/DX2                !
 ! D153  D(7,17,18,29)        -151.3677         estimate D2E/DX2                !
 ! D154  D(20,17,18,19)         76.7673         estimate D2E/DX2                !
 ! D155  D(20,17,18,28)       -165.1873         estimate D2E/DX2                !
 ! D156  D(20,17,18,29)        -41.59           estimate D2E/DX2                !
 ! D157  D(30,17,18,19)       -155.1206         estimate D2E/DX2                !
 ! D158  D(30,17,18,28)        -37.0752         estimate D2E/DX2                !
 ! D159  D(30,17,18,29)         86.5221         estimate D2E/DX2                !
 ! D160  D(7,17,20,3)          -36.9283         estimate D2E/DX2                !
 ! D161  D(7,17,20,42)          82.6889         estimate D2E/DX2                !
 ! D162  D(7,17,20,43)        -158.0474         estimate D2E/DX2                !
 ! D163  D(18,17,20,3)        -147.0527         estimate D2E/DX2                !
 ! D164  D(18,17,20,42)        -27.4356         estimate D2E/DX2                !
 ! D165  D(18,17,20,43)         91.8282         estimate D2E/DX2                !
 ! D166  D(30,17,20,3)          84.1439         estimate D2E/DX2                !
 ! D167  D(30,17,20,42)       -156.239          estimate D2E/DX2                !
 ! D168  D(30,17,20,43)        -36.9752         estimate D2E/DX2                !
 ! D169  D(17,18,19,8)          16.5964         estimate D2E/DX2                !
 ! D170  D(28,18,19,8)        -104.5698         estimate D2E/DX2                !
 ! D171  D(29,18,19,8)         138.3671         estimate D2E/DX2                !
 ! D172  D(17,18,28,53)       -179.9576         estimate D2E/DX2                !
 ! D173  D(17,18,28,54)         59.73           estimate D2E/DX2                !
 ! D174  D(17,18,28,55)        -62.514          estimate D2E/DX2                !
 ! D175  D(19,18,28,53)        -63.5782         estimate D2E/DX2                !
 ! D176  D(19,18,28,54)        176.1094         estimate D2E/DX2                !
 ! D177  D(19,18,28,55)         53.8654         estimate D2E/DX2                !
 ! D178  D(29,18,28,53)         53.567          estimate D2E/DX2                !
 ! D179  D(29,18,28,54)        -66.7454         estimate D2E/DX2                !
 ! D180  D(29,18,28,55)        171.0105         estimate D2E/DX2                !
 ! D181  D(17,18,29,56)       -178.1377         estimate D2E/DX2                !
 ! D182  D(17,18,29,57)        -57.6085         estimate D2E/DX2                !
 ! D183  D(17,18,29,58)         64.6851         estimate D2E/DX2                !
 ! D184  D(19,18,29,56)         65.1703         estimate D2E/DX2                !
 ! D185  D(19,18,29,57)       -174.3005         estimate D2E/DX2                !
 ! D186  D(19,18,29,58)        -52.0069         estimate D2E/DX2                !
 ! D187  D(28,18,29,56)        -51.9531         estimate D2E/DX2                !
 ! D188  D(28,18,29,57)         68.5761         estimate D2E/DX2                !
 ! D189  D(28,18,29,58)       -169.1303         estimate D2E/DX2                !
 ! D190  D(5,22,23,24)          32.1435         estimate D2E/DX2                !
 ! D191  D(5,22,23,25)         154.2095         estimate D2E/DX2                !
 ! D192  D(5,22,23,47)         -82.187          estimate D2E/DX2                !
 ! D193  D(45,22,23,24)        154.6593         estimate D2E/DX2                !
 ! D194  D(45,22,23,25)        -83.2746         estimate D2E/DX2                !
 ! D195  D(45,22,23,47)         40.3289         estimate D2E/DX2                !
 ! D196  D(46,22,23,24)        -85.3582         estimate D2E/DX2                !
 ! D197  D(46,22,23,25)         36.7079         estimate D2E/DX2                !
 ! D198  D(46,22,23,47)        160.3114         estimate D2E/DX2                !
 ! D199  D(22,23,24,4)         -14.8821         estimate D2E/DX2                !
 ! D200  D(25,23,24,4)        -143.1185         estimate D2E/DX2                !
 ! D201  D(47,23,24,4)         101.2658         estimate D2E/DX2                !
 ! D202  D(22,23,25,26)       -175.8638         estimate D2E/DX2                !
 ! D203  D(22,23,25,27)          5.8308         estimate D2E/DX2                !
 ! D204  D(24,23,25,26)        -55.3069         estimate D2E/DX2                !
 ! D205  D(24,23,25,27)        126.3877         estimate D2E/DX2                !
 ! D206  D(47,23,25,26)         59.6941         estimate D2E/DX2                !
 ! D207  D(47,23,25,27)       -118.6113         estimate D2E/DX2                !
 ! D208  D(23,25,26,48)       -175.1115         estimate D2E/DX2                !
 ! D209  D(23,25,26,49)        -55.332          estimate D2E/DX2                !
 ! D210  D(23,25,26,50)         64.856          estimate D2E/DX2                !
 ! D211  D(27,25,26,48)          3.2876         estimate D2E/DX2                !
 ! D212  D(27,25,26,49)        123.067          estimate D2E/DX2                !
 ! D213  D(27,25,26,50)       -116.745          estimate D2E/DX2                !
 ! D214  D(23,25,27,51)         -0.407          estimate D2E/DX2                !
 ! D215  D(23,25,27,52)        179.344          estimate D2E/DX2                !
 ! D216  D(26,25,27,51)       -178.6365         estimate D2E/DX2                !
 ! D217  D(26,25,27,52)          1.1145         estimate D2E/DX2                !
 --------------------------------------------------------------------------------
 Trust Radius=3.00D-01 FncErr=1.00D-07 GrdErr=1.00D-06
 Number of steps in this run=    390 maximum allowed number of steps=    390.
 GradGradGradGradGradGradGradGradGradGradGradGradGradGradGradGradGradGrad

 Stoichiometry    C26H34O5
 Framework group  C1[X(C26H34O5)]
 Deg. of freedom   189
 Full point group                 C1      NOp   1
 Largest Abelian subgroup         C1      NOp   1
 Largest concise Abelian subgroup C1      NOp   1
                         Standard orientation:                         
 ---------------------------------------------------------------------
 Center     Atomic      Atomic             Coordinates (Angstroms)
 Number     Number       Type             X           Y           Z
 ---------------------------------------------------------------------
      1          6           0       -0.194936   -1.518936    2.808304
      2          6           0       -0.348249   -0.195414    2.967091
      3          6           0       -1.085075    0.643159    1.946813
      4          6           0       -1.340437   -0.030595    0.566862
      5          6           0       -0.795511   -1.448313    0.340973
      6          6           0       -0.741436   -2.276898    1.641275
      7          6           0       -0.822033    0.982657   -0.471819
      8          6           0        0.619803    0.845584   -0.828868
      9          6           0        1.290273   -0.310959   -0.772290
     10          6           0        0.575963   -1.536406   -0.345233
     11          6           0        2.746157   -0.334986   -1.078635
     12          8           0        3.168176    0.080046   -2.157392
     13          6           0        3.678725   -0.832187    0.025669
     14          6           0        4.889731   -1.581663   -0.549501
     15          6           0        4.133622    0.377907    0.841689
     16          8           0        1.104294   -2.632301   -0.547758
     17          6           0       -0.788207    2.338950    0.199540
     18          6           0        0.289414    3.088472   -0.610716
     19          8           0        1.249861    2.076809   -1.003471
     20          6           0       -0.379013    1.974848    1.636053
     21          8           0       -1.599775    0.980999   -1.655953
     22          6           0       -1.836462   -2.034265   -0.614488
     23          6           0       -3.140449   -1.416557   -0.124249
     24          8           0       -2.787639   -0.115139    0.384650
     25          6           0       -4.279762   -1.259281   -1.105416
     26          6           0       -5.496331   -0.551722   -0.563951
     27          6           0       -4.281040   -1.724111   -2.366608
     28          6           0       -0.266306    3.745345   -1.884356
     29          6           0        1.025297    4.162183    0.198800
     30          1           0       -1.754882    2.855278    0.185632
     31          1           0       -2.057596    0.893836    2.395682
     32          6           0        0.120212    0.489004    4.223918
     33          1           0        0.290258   -2.109858    3.583286
     34          1           0       -1.733046   -2.645201    1.930149
     35          1           0       -0.128904   -3.176238    1.501637
     36          1           0        3.134169   -1.509412    0.693072
     37          1           0        5.418541   -0.959154   -1.281370
     38          1           0        5.601731   -1.796071    0.256987
     39          1           0        3.275563    0.904025    1.274413
     40          1           0        4.787978    0.070762    1.664127
     41          1           0        4.679778    1.095532    0.219355
     42          1           0        0.706988    1.854048    1.729343
     43          1           0       -0.675987    2.762270    2.338043
     44          1           0       -2.531907    0.903695   -1.369935
     45          1           0       -1.871961   -3.129545   -0.606855
     46          1           0       -1.605012   -1.728246   -1.642088
     47          1           0       -3.516310   -1.995134    0.728808
     48          1           0       -6.322108   -0.539072   -1.283327
     49          1           0       -5.855838   -1.053177    0.340626
     50          1           0       -5.259167    0.487976   -0.316672
     51          1           0       -3.441767   -2.258431   -2.798120
     52          1           0       -5.139701   -1.585359   -3.017884
     53          1           0        0.531421    4.264969   -2.428537
     54          1           0       -1.049403    4.472565   -1.646810
     55          1           0       -0.669802    3.016311   -2.591643
     56          1           0        1.755628    4.687281   -0.428200
     57          1           0        0.328463    4.901219    0.607046
     58          1           0        1.607414    3.732661    1.020022
     59          1           0        0.492690   -0.224927    4.966397
     60          1           0        0.931957    1.189625    4.006504
     61          1           0       -0.705444    1.040802    4.685139
     62          6           0        4.503110   -2.900270   -1.206353
     63          1           0        3.839988   -2.743294   -2.062410
     64          1           0        5.398098   -3.417548   -1.566407
     65          1           0        3.996467   -3.558769   -0.493646
 ---------------------------------------------------------------------
 Rotational constants (GHZ):      0.2029798      0.1319457      0.1182684
 Standard basis: 6-31G(d) (6D, 7F)
 There are   533 symmetry adapted basis functions of A   symmetry.
 Integral buffers will be    131072 words long.
 Raffenetti 2 integral format.
 Two-electron integral symmetry is turned on.
   533 basis functions,  1004 primitive gaussians,   533 cartesian basis functions
   115 alpha electrons      115 beta electrons
       nuclear repulsion energy      3539.7553983898 Hartrees.
 NAtoms=   65 NActive=   65 NUniq=   65 SFac= 1.00D+00 NAtFMM=   50 NAOKFM=T Big=T
 One-electron integrals computed using PRISM.
 NBasis=   533 RedAO= T  NBF=   533
 NBsUse=   533 1.00D-06 NBFU=   533
 Harris functional with IExCor=  402 diagonalized for initial guess.
 ExpMin= 1.61D-01 ExpMax= 5.48D+03 ExpMxC= 8.25D+02 IAcc=1 IRadAn=         1 AccDes= 0.00D+00
 HarFok:  IExCor=  402 AccDes= 0.00D+00 IRadAn=         1 IDoV= 1
 ScaDFX=  1.000000  1.000000  1.000000  1.000000
 FoFCou: FMM=F IPFlag=           0 FMFlag=      100000 FMFlg1=        2001
         NFxFlg=           0 DoJE=T BraDBF=F KetDBF=T FulRan=T
         Omega=  0.000000  0.000000  1.000000  0.000000  0.000000 ICntrl=     500 IOpCl=  0
         NMat0=    1 NMatS0=    1 NMatT0=    0 NMatD0=    1 NMtDS0=    0 NMtDT0=    0
         I1Cent=           4 NGrid=           0.
 Petite list used in FoFCou.
 Initial guess orbital symmetries:
       Occupied  (A) (A) (A) (A) (A) (A) (A) (A) (A) (A) (A) (A)
                 (A) (A) (A) (A) (A) (A) (A) (A) (A) (A) (A) (A)
                 (A) (A) (A) (A) (A) (A) (A) (A) (A) (A) (A) (A)
                 (A) (A) (A) (A) (A) (A) (A) (A) (A) (A) (A) (A)
                 (A) (A) (A) (A) (A) (A) (A) (A) (A) (A) (A) (A)
                 (A) (A) (A) (A) (A) (A) (A) (A) (A) (A) (A) (A)
                 (A) (A) (A) (A) (A) (A) (A) (A) (A) (A) (A) (A)
                 (A) (A) (A) (A) (A) (A) (A) (A) (A) (A) (A) (A)
                 (A) (A) (A) (A) (A) (A) (A) (A) (A) (A) (A) (A)
                 (A) (A) (A) (A) (A) (A) (A)
       Virtual   (A) (A) (A) (A) (A) (A) (A) (A) (A) (A) (A) (A)
                 (A) (A) (A) (A) (A) (A) (A) (A) (A) (A) (A) (A)
                 (A) (A) (A) (A) (A) (A) (A) (A) (A) (A) (A) (A)
                 (A) (A) (A) (A) (A) (A) (A) (A) (A) (A) (A) (A)
                 (A) (A) (A) (A) (A) (A) (A) (A) (A) (A) (A) (A)
                 (A) (A) (A) (A) (A) (A) (A) (A) (A) (A) (A) (A)
                 (A) (A) (A) (A) (A) (A) (A) (A) (A) (A) (A) (A)
                 (A) (A) (A) (A) (A) (A) (A) (A) (A) (A) (A) (A)
                 (A) (A) (A) (A) (A) (A) (A) (A) (A) (A) (A) (A)
                 (A) (A) (A) (A) (A) (A) (A) (A) (A) (A) (A) (A)
                 (A) (A) (A) (A) (A) (A) (A) (A) (A) (A) (A) (A)
                 (A) (A) (A) (A) (A) (A) (A) (A) (A) (A) (A) (A)
                 (A) (A) (A) (A) (A) (A) (A) (A) (A) (A) (A) (A)
                 (A) (A) (A) (A) (A) (A) (A) (A) (A) (A) (A) (A)
                 (A) (A) (A) (A) (A) (A) (A) (A) (A) (A) (A) (A)
                 (A) (A) (A) (A) (A) (A) (A) (A) (A) (A) (A) (A)
                 (A) (A) (A) (A) (A) (A) (A) (A) (A) (A) (A) (A)
                 (A) (A) (A) (A) (A) (A) (A) (A) (A) (A) (A) (A)
                 (A) (A) (A) (A) (A) (A) (A) (A) (A) (A) (A) (A)
                 (A) (A) (A) (A) (A) (A) (A) (A) (A) (A) (A) (A)
                 (A) (A) (A) (A) (A) (A) (A) (A) (A) (A) (A) (A)
                 (A) (A) (A) (A) (A) (A) (A) (A) (A) (A) (A) (A)
                 (A) (A) (A) (A) (A) (A) (A) (A) (A) (A) (A) (A)
                 (A) (A) (A) (A) (A) (A) (A) (A) (A) (A) (A) (A)
                 (A) (A) (A) (A) (A) (A) (A) (A) (A) (A) (A) (A)
                 (A) (A) (A) (A) (A) (A) (A) (A) (A) (A) (A) (A)
                 (A) (A) (A) (A) (A) (A) (A) (A) (A) (A) (A) (A)
                 (A) (A) (A) (A) (A) (A) (A) (A) (A) (A) (A) (A)
                 (A) (A) (A) (A) (A) (A) (A) (A) (A) (A) (A) (A)
                 (A) (A) (A) (A) (A) (A) (A) (A) (A) (A) (A) (A)
                 (A) (A) (A) (A) (A) (A) (A) (A) (A) (A) (A) (A)
                 (A) (A) (A) (A) (A) (A) (A) (A) (A) (A) (A) (A)
                 (A) (A) (A) (A) (A) (A) (A) (A) (A) (A) (A) (A)
                 (A) (A) (A) (A) (A) (A) (A) (A) (A) (A) (A) (A)
                 (A) (A) (A) (A) (A) (A) (A) (A) (A) (A)
 The electronic state of the initial guess is 1-A.
 Requested convergence on RMS density matrix=1.00D-08 within 128 cycles.
 Requested convergence on MAX density matrix=1.00D-06.
 Requested convergence on             energy=1.00D-06.
 No special actions if energy rises.
 Integral accuracy reduced to 1.0D-05 until final iterations.
 Initial convergence to 1.0D-05 achieved.  Increase integral accuracy.
 SCF Done:  E(RB3LYP) =  -1387.30533082     A.U. after   16 cycles
             Convg  =    0.4444D-08             -V/T =  2.0091

 **********************************************************************

            Population analysis using the SCF density.

 **********************************************************************

 Orbital symmetries:
       Occupied  (A) (A) (A) (A) (A) (A) (A) (A) (A) (A) (A) (A)
                 (A) (A) (A) (A) (A) (A) (A) (A) (A) (A) (A) (A)
                 (A) (A) (A) (A) (A) (A) (A) (A) (A) (A) (A) (A)
                 (A) (A) (A) (A) (A) (A) (A) (A) (A) (A) (A) (A)
                 (A) (A) (A) (A) (A) (A) (A) (A) (A) (A) (A) (A)
                 (A) (A) (A) (A) (A) (A) (A) (A) (A) (A) (A) (A)
                 (A) (A) (A) (A) (A) (A) (A) (A) (A) (A) (A) (A)
                 (A) (A) (A) (A) (A) (A) (A) (A) (A) (A) (A) (A)
                 (A) (A) (A) (A) (A) (A) (A) (A) (A) (A) (A) (A)
                 (A) (A) (A) (A) (A) (A) (A)
       Virtual   (A) (A) (A) (A) (A) (A) (A) (A) (A) (A) (A) (A)
                 (A) (A) (A) (A) (A) (A) (A) (A) (A) (A) (A) (A)
                 (A) (A) (A) (A) (A) (A) (A) (A) (A) (A) (A) (A)
                 (A) (A) (A) (A) (A) (A) (A) (A) (A) (A) (A) (A)
                 (A) (A) (A) (A) (A) (A) (A) (A) (A) (A) (A) (A)
                 (A) (A) (A) (A) (A) (A) (A) (A) (A) (A) (A) (A)
                 (A) (A) (A) (A) (A) (A) (A) (A) (A) (A) (A) (A)
                 (A) (A) (A) (A) (A) (A) (A) (A) (A) (A) (A) (A)
                 (A) (A) (A) (A) (A) (A) (A) (A) (A) (A) (A) (A)
                 (A) (A) (A) (A) (A) (A) (A) (A) (A) (A) (A) (A)
                 (A) (A) (A) (A) (A) (A) (A) (A) (A) (A) (A) (A)
                 (A) (A) (A) (A) (A) (A) (A) (A) (A) (A) (A) (A)
                 (A) (A) (A) (A) (A) (A) (A) (A) (A) (A) (A) (A)
                 (A) (A) (A) (A) (A) (A) (A) (A) (A) (A) (A) (A)
                 (A) (A) (A) (A) (A) (A) (A) (A) (A) (A) (A) (A)
                 (A) (A) (A) (A) (A) (A) (A) (A) (A) (A) (A) (A)
                 (A) (A) (A) (A) (A) (A) (A) (A) (A) (A) (A) (A)
                 (A) (A) (A) (A) (A) (A) (A) (A) (A) (A) (A) (A)
                 (A) (A) (A) (A) (A) (A) (A) (A) (A) (A) (A) (A)
                 (A) (A) (A) (A) (A) (A) (A) (A) (A) (A) (A) (A)
                 (A) (A) (A) (A) (A) (A) (A) (A) (A) (A) (A) (A)
                 (A) (A) (A) (A) (A) (A) (A) (A) (A) (A) (A) (A)
                 (A) (A) (A) (A) (A) (A) (A) (A) (A) (A) (A) (A)
                 (A) (A) (A) (A) (A) (A) (A) (A) (A) (A) (A) (A)
                 (A) (A) (A) (A) (A) (A) (A) (A) (A) (A) (A) (A)
                 (A) (A) (A) (A) (A) (A) (A) (A) (A) (A) (A) (A)
                 (A) (A) (A) (A) (A) (A) (A) (A) (A) (A) (A) (A)
                 (A) (A) (A) (A) (A) (A) (A) (A) (A) (A) (A) (A)
                 (A) (A) (A) (A) (A) (A) (A) (A) (A) (A) (A) (A)
                 (A) (A) (A) (A) (A) (A) (A) (A) (A) (A) (A) (A)
                 (A) (A) (A) (A) (A) (A) (A) (A) (A) (A) (A) (A)
                 (A) (A) (A) (A) (A) (A) (A) (A) (A) (A) (A) (A)
                 (A) (A) (A) (A) (A) (A) (A) (A) (A) (A) (A) (A)
                 (A) (A) (A) (A) (A) (A) (A) (A) (A) (A) (A) (A)
                 (A) (A) (A) (A) (A) (A) (A) (A) (A) (A)
 The electronic state is 1-A.
 Alpha  occ. eigenvalues --  -19.19492 -19.16878 -19.15406 -19.13635 -19.12864
 Alpha  occ. eigenvalues --  -10.28018 -10.27231 -10.26683 -10.26077 -10.25987
 Alpha  occ. eigenvalues --  -10.25637 -10.25123 -10.21720 -10.20659 -10.20561
 Alpha  occ. eigenvalues --  -10.20179 -10.19774 -10.19733 -10.19586 -10.19578
 Alpha  occ. eigenvalues --  -10.19327 -10.18834 -10.18772 -10.18730 -10.18652
 Alpha  occ. eigenvalues --  -10.18450 -10.18305 -10.17521 -10.17466 -10.16574
 Alpha  occ. eigenvalues --  -10.15101  -1.08369  -1.06072  -1.03392  -1.02390
 Alpha  occ. eigenvalues --   -1.02012  -0.87615  -0.84037  -0.82704  -0.81806
 Alpha  occ. eigenvalues --   -0.80567  -0.79803  -0.76969  -0.74597  -0.73824
 Alpha  occ. eigenvalues --   -0.72418  -0.71627  -0.69500  -0.69238  -0.68085
 Alpha  occ. eigenvalues --   -0.65474  -0.64219  -0.63559  -0.61783  -0.61040
 Alpha  occ. eigenvalues --   -0.59545  -0.58957  -0.57446  -0.54920  -0.53755
 Alpha  occ. eigenvalues --   -0.53078  -0.52118  -0.51203  -0.50583  -0.49279
 Alpha  occ. eigenvalues --   -0.48817  -0.48117  -0.46755  -0.46227  -0.45970
 Alpha  occ. eigenvalues --   -0.45164  -0.44652  -0.43938  -0.43741  -0.43140
 Alpha  occ. eigenvalues --   -0.43095  -0.42198  -0.42156  -0.41831  -0.41658
 Alpha  occ. eigenvalues --   -0.41181  -0.40949  -0.40466  -0.40129  -0.39709
 Alpha  occ. eigenvalues --   -0.39264  -0.39061  -0.38497  -0.38254  -0.38088
 Alpha  occ. eigenvalues --   -0.37590  -0.37521  -0.37138  -0.36902  -0.36631
 Alpha  occ. eigenvalues --   -0.36502  -0.35664  -0.34958  -0.34529  -0.34069
 Alpha  occ. eigenvalues --   -0.33719  -0.33377  -0.32790  -0.32525  -0.32065
 Alpha  occ. eigenvalues --   -0.31791  -0.31346  -0.30823  -0.27984  -0.26627
 Alpha  occ. eigenvalues --   -0.26071  -0.25641  -0.24546  -0.23785  -0.23130
 Alpha virt. eigenvalues --   -0.05619  -0.02082   0.00348   0.01729   0.04788
 Alpha virt. eigenvalues --    0.06151   0.07472   0.08753   0.08847   0.10141
 Alpha virt. eigenvalues --    0.10505   0.10919   0.11436   0.11851   0.12417
 Alpha virt. eigenvalues --    0.12775   0.13100   0.13500   0.13782   0.14115
 Alpha virt. eigenvalues --    0.14406   0.14521   0.14852   0.15073   0.15815
 Alpha virt. eigenvalues --    0.16327   0.16523   0.16948   0.17486   0.17557
 Alpha virt. eigenvalues --    0.17851   0.18372   0.18626   0.19146   0.19515
 Alpha virt. eigenvalues --    0.19568   0.19673   0.19791   0.19994   0.20091
 Alpha virt. eigenvalues --    0.20817   0.21150   0.21325   0.21564   0.22562
 Alpha virt. eigenvalues --    0.22812   0.23257   0.23725   0.24284   0.24778
 Alpha virt. eigenvalues --    0.25170   0.25524   0.25758   0.26413   0.26542
 Alpha virt. eigenvalues --    0.27415   0.27570   0.28241   0.28902   0.29350
 Alpha virt. eigenvalues --    0.31131   0.31688   0.32199   0.33229   0.33996
 Alpha virt. eigenvalues --    0.34377   0.36269   0.37992   0.38767   0.39407
 Alpha virt. eigenvalues --    0.42010   0.44827   0.46734   0.47761   0.48266
 Alpha virt. eigenvalues --    0.49597   0.50491   0.50910   0.51201   0.51413
 Alpha virt. eigenvalues --    0.51987   0.52641   0.52689   0.53456   0.53774
 Alpha virt. eigenvalues --    0.54242   0.54911   0.55334   0.55939   0.56489
 Alpha virt. eigenvalues --    0.57256   0.57436   0.57739   0.58573   0.58884
 Alpha virt. eigenvalues --    0.59071   0.59846   0.60309   0.60933   0.61740
 Alpha virt. eigenvalues --    0.62400   0.62785   0.63536   0.64594   0.64868
 Alpha virt. eigenvalues --    0.65164   0.65852   0.66572   0.66775   0.67097
 Alpha virt. eigenvalues --    0.67827   0.68183   0.68431   0.69105   0.69226
 Alpha virt. eigenvalues --    0.69718   0.70737   0.71826   0.73144   0.73435
 Alpha virt. eigenvalues --    0.74164   0.74989   0.75375   0.75790   0.76382
 Alpha virt. eigenvalues --    0.76820   0.77637   0.78737   0.79736   0.80300
 Alpha virt. eigenvalues --    0.80474   0.80801   0.81424   0.81894   0.82487
 Alpha virt. eigenvalues --    0.82703   0.82948   0.83695   0.84491   0.84832
 Alpha virt. eigenvalues --    0.85528   0.85900   0.86115   0.86670   0.87039
 Alpha virt. eigenvalues --    0.87360   0.87902   0.88246   0.88819   0.89084
 Alpha virt. eigenvalues --    0.89198   0.90061   0.90194   0.90625   0.90781
 Alpha virt. eigenvalues --    0.91424   0.91616   0.91763   0.91845   0.92471
 Alpha virt. eigenvalues --    0.92948   0.93167   0.93622   0.94011   0.94594
 Alpha virt. eigenvalues --    0.95108   0.95586   0.96117   0.96329   0.97002
 Alpha virt. eigenvalues --    0.97532   0.97893   0.98299   0.98855   0.99131
 Alpha virt. eigenvalues --    1.00565   1.01590   1.02556   1.03408   1.04474
 Alpha virt. eigenvalues --    1.05299   1.05691   1.06368   1.07746   1.08453
 Alpha virt. eigenvalues --    1.09130   1.10602   1.11242   1.12015   1.13209
 Alpha virt. eigenvalues --    1.13709   1.14123   1.15010   1.16121   1.17239
 Alpha virt. eigenvalues --    1.17585   1.18185   1.18643   1.19490   1.20115
 Alpha virt. eigenvalues --    1.21239   1.22711   1.23931   1.25241   1.25780
 Alpha virt. eigenvalues --    1.26342   1.30039   1.30494   1.31190   1.33484
 Alpha virt. eigenvalues --    1.35421   1.36332   1.37334   1.38250   1.40615
 Alpha virt. eigenvalues --    1.40787   1.41947   1.43134   1.43806   1.46192
 Alpha virt. eigenvalues --    1.47257   1.48361   1.51032   1.51294   1.52978
 Alpha virt. eigenvalues --    1.53594   1.55505   1.55991   1.56847   1.59098
 Alpha virt. eigenvalues --    1.60433   1.61037   1.61369   1.62447   1.62988
 Alpha virt. eigenvalues --    1.64203   1.66248   1.66688   1.67443   1.68653
 Alpha virt. eigenvalues --    1.71265   1.72147   1.72899   1.73092   1.73697
 Alpha virt. eigenvalues --    1.74712   1.76687   1.77395   1.78382   1.78793
 Alpha virt. eigenvalues --    1.79334   1.80040   1.80431   1.81418   1.81804
 Alpha virt. eigenvalues --    1.82681   1.83098   1.83839   1.84811   1.85529
 Alpha virt. eigenvalues --    1.86040   1.87123   1.87141   1.87777   1.88489
 Alpha virt. eigenvalues --    1.88900   1.89698   1.90130   1.90962   1.91216
 Alpha virt. eigenvalues --    1.91772   1.92402   1.93221   1.93730   1.94489
 Alpha virt. eigenvalues --    1.95490   1.96187   1.96710   1.97571   1.98561
 Alpha virt. eigenvalues --    1.99073   1.99831   2.00093   2.01413   2.02195
 Alpha virt. eigenvalues --    2.02674   2.03104   2.04509   2.05371   2.06220
 Alpha virt. eigenvalues --    2.06739   2.07320   2.08606   2.08826   2.09358
 Alpha virt. eigenvalues --    2.10185   2.11599   2.11986   2.12630   2.13397
 Alpha virt. eigenvalues --    2.14877   2.15516   2.16832   2.16892   2.18678
 Alpha virt. eigenvalues --    2.19899   2.20586   2.21484   2.22418   2.23258
 Alpha virt. eigenvalues --    2.23660   2.24663   2.25217   2.26098   2.27573
 Alpha virt. eigenvalues --    2.28240   2.28845   2.30145   2.30972   2.31693
 Alpha virt. eigenvalues --    2.32725   2.33364   2.33645   2.34356   2.34917
 Alpha virt. eigenvalues --    2.36013   2.36886   2.37429   2.38571   2.39140
 Alpha virt. eigenvalues --    2.39827   2.40610   2.41486   2.42042   2.43171
 Alpha virt. eigenvalues --    2.44378   2.44619   2.45243   2.47608   2.48196
 Alpha virt. eigenvalues --    2.49474   2.49836   2.51242   2.52266   2.53669
 Alpha virt. eigenvalues --    2.56492   2.57246   2.57578   2.58718   2.60286
 Alpha virt. eigenvalues --    2.61311   2.63185   2.64032   2.65203   2.66531
 Alpha virt. eigenvalues --    2.67342   2.68248   2.68718   2.70745   2.71062
 Alpha virt. eigenvalues --    2.73085   2.74109   2.75033   2.77837   2.79055
 Alpha virt. eigenvalues --    2.79658   2.81886   2.82110   2.82687   2.85283
 Alpha virt. eigenvalues --    2.86946   2.89151   2.91085   2.94922   2.95139
 Alpha virt. eigenvalues --    2.95927   3.00288   3.00685   3.01723   3.02825
 Alpha virt. eigenvalues --    3.05586   3.06420   3.12274   3.18635   3.21049
 Alpha virt. eigenvalues --    3.24275   3.29427   4.01056   4.08867   4.11182
 Alpha virt. eigenvalues --    4.13714   4.15059   4.16406   4.18746   4.19873
 Alpha virt. eigenvalues --    4.22342   4.24411   4.24547   4.27936   4.31081
 Alpha virt. eigenvalues --    4.33515   4.35084   4.37874   4.38689   4.42819
 Alpha virt. eigenvalues --    4.46458   4.48010   4.53154   4.57053   4.61355
 Alpha virt. eigenvalues --    4.64031   4.64680   4.67352   4.73219   4.81576
 Alpha virt. eigenvalues --    4.90522   4.99502   5.16870
          Condensed to atoms (all electrons):
 Mulliken atomic charges:
              1
     1  C   -0.196905
     2  C    0.184814
     3  C   -0.183941
     4  C    0.320434
     5  C   -0.050871
     6  C   -0.330253
     7  C    0.211686
     8  C    0.402054
     9  C   -0.085451
    10  C    0.425088
    11  C    0.428956
    12  O   -0.458573
    13  C   -0.148571
    14  C   -0.249194
    15  C   -0.457635
    16  O   -0.504834
    17  C   -0.159074
    18  C    0.310710
    19  O   -0.524250
    20  C   -0.324232
    21  O   -0.657022
    22  C   -0.326955
    23  C    0.106428
    24  O   -0.585878
    25  C    0.175834
    26  C   -0.504767
    27  C   -0.390395
    28  C   -0.461116
    29  C   -0.463480
    30  H    0.143314
    31  H    0.165719
    32  C   -0.516790
    33  H    0.123467
    34  H    0.153353
    35  H    0.177831
    36  H    0.142678
    37  H    0.152498
    38  H    0.121278
    39  H    0.139934
    40  H    0.148828
    41  H    0.163325
    42  H    0.165048
    43  H    0.149094
    44  H    0.411887
    45  H    0.168125
    46  H    0.176233
    47  H    0.136253
    48  H    0.154319
    49  H    0.154273
    50  H    0.165288
    51  H    0.151077
    52  H    0.143408
    53  H    0.153147
    54  H    0.136980
    55  H    0.188465
    56  H    0.161557
    57  H    0.149612
    58  H    0.154431
    59  H    0.158524
    60  H    0.157820
    61  H    0.151502
    62  C   -0.445354
    63  H    0.163677
    64  H    0.130670
    65  H    0.145920
 Sum of Mulliken atomic charges =   0.00000
 Mulliken charges with hydrogens summed into heavy atoms:
              1
     1  C   -0.073437
     2  C    0.184814
     3  C   -0.018222
     4  C    0.320434
     5  C   -0.050871
     6  C    0.000930
     7  C    0.211686
     8  C    0.402054
     9  C   -0.085451
    10  C    0.425088
    11  C    0.428956
    12  O   -0.458573
    13  C   -0.005892
    14  C    0.024582
    15  C   -0.005548
    16  O   -0.504834
    17  C   -0.015760
    18  C    0.310710
    19  O   -0.524250
    20  C   -0.010090
    21  O   -0.245136
    22  C    0.017402
    23  C    0.242681
    24  O   -0.585878
    25  C    0.175834
    26  C   -0.030886
    27  C   -0.095909
    28  C    0.017476
    29  C    0.002120
    32  C   -0.048944
    62  C   -0.005086
 Sum of Mulliken charges with hydrogens summed into heavy atoms =   0.00000
 Electronic spatial extent (au):  <R**2>=          11179.3581
 Charge=              0.0000 electrons
 Dipole moment (field-independent basis, Debye):
    X=             -4.3100    Y=              2.1636    Z=              4.5684  Tot=              6.6429
 Quadrupole moment (field-independent basis, Debye-Ang):
   XX=           -182.6442   YY=           -179.3981   ZZ=           -188.3714
   XY=              2.8543   XZ=             11.2796   YZ=              0.5194
 Traceless Quadrupole moment (field-independent basis, Debye-Ang):
   XX=              0.8271   YY=              4.0731   ZZ=             -4.9002
   XY=              2.8543   XZ=             11.2796   YZ=              0.5194
 Octapole moment (field-independent basis, Debye-Ang**2):
  XXX=            -48.4991  YYY=             57.6928  ZZZ=             11.5281  XYY=            -18.6669
  XXY=             -5.0541  XXZ=              8.6113  XZZ=            -23.7910  YZZ=             -6.5565
  YYZ=              4.7676  XYZ=             -4.9506
 Hexadecapole moment (field-independent basis, Debye-Ang**3):
 XXXX=          -7614.7577 YYYY=          -4157.8778 ZZZZ=          -2978.3024 XXXY=            -13.8390
 XXXZ=            147.4035 YYYX=             32.6019 YYYZ=            -63.6802 ZZZX=             54.7280
 ZZZY=              4.6899 XXYY=          -2012.7484 XXZZ=          -1829.0556 YYZZ=          -1173.8605
 XXYZ=              2.3374 YYXZ=            -10.1373 ZZXY=             -0.7739
 N-N= 3.539755398390D+03 E-N=-1.030568823385D+04  KE= 1.374763052344D+03
 Calling FoFJK, ICntrl=      2127 FMM=T ISym2X=0 I1Cent= 0 IOpClX= 0 NMat=1 NMatS=1 NMatT=0.
 ***** Axes restored to original set *****
 -------------------------------------------------------------------
 Center     Atomic                   Forces (Hartrees/Bohr)
 Number     Number              X              Y              Z
 -------------------------------------------------------------------
      1        6           0.008862033   -0.000005292    0.000685582
      2        6          -0.012249450   -0.004674176    0.002507181
      3        6          -0.001183420   -0.007935873   -0.000551677
      4        6           0.001624705   -0.004006815    0.011343272
      5        6          -0.011157773   -0.003411036    0.001681194
      6        6          -0.004692430   -0.010274205   -0.000716734
      7        6           0.012195426    0.019697543    0.009649708
      8        6           0.017980374   -0.009942914   -0.019390583
      9        6          -0.004733486    0.000943810    0.006563797
     10        6          -0.006473714   -0.003027205   -0.020868951
     11        6          -0.008290644    0.009996330   -0.019658060
     12        8          -0.001890261   -0.013742433    0.013979885
     13        6          -0.003625627   -0.001768150   -0.008641164
     14        6          -0.004012551    0.001778986   -0.001113101
     15        6           0.009109827   -0.002357124    0.001898953
     16        8           0.008568712   -0.001116044    0.009857407
     17        6           0.008157065   -0.011161196   -0.005368687
     18        6           0.030945632    0.007225050    0.000856350
     19        8          -0.030757578    0.004652637    0.027520123
     20        6           0.011823167   -0.004053001    0.001023931
     21        8          -0.006330000    0.006935858   -0.004291430
     22        6          -0.006919781    0.014229249    0.001069978
     23        6          -0.005195569    0.007730234    0.000978293
     24        8           0.002098160   -0.006795572   -0.009716086
     25        6          -0.002803671    0.015147226    0.000183274
     26        6           0.001330332    0.001567021    0.000335741
     27        6           0.000910098   -0.009957850   -0.001082760
     28        6          -0.002900055    0.007649402   -0.005406896
     29        6          -0.003252437   -0.006268841   -0.009125973
     30        1          -0.001928234    0.000924271   -0.001508150
     31        1          -0.003430498    0.005886645   -0.000118133
     32        6          -0.001107036    0.000731073   -0.001324133
     33        1           0.001590306   -0.001076406   -0.000161286
     34        1          -0.000205451    0.005610121    0.001677811
     35        1           0.000906594    0.007394720   -0.002107142
     36        1           0.000328044    0.002298689    0.000974946
     37        1           0.003374819   -0.000155583    0.002189297
     38        1           0.002769803   -0.001913601    0.000968848
     39        1           0.001664106   -0.001269450    0.000481653
     40        1          -0.000861039   -0.000211709    0.000150524
     41        1          -0.000912708    0.000463607   -0.000317016
     42        1           0.000366315    0.002618782   -0.000346376
     43        1          -0.001220658   -0.002096676   -0.001637879
     44        1          -0.002100951   -0.004116056   -0.002141957
     45        1           0.001414346   -0.002957696   -0.000989940
     46        1           0.001994537    0.000610233    0.003381234
     47        1          -0.001661121   -0.001111075    0.002899760
     48        1          -0.001365250   -0.000179561   -0.001709984
     49        1           0.002486702   -0.002629191    0.001864559
     50        1           0.000933831   -0.003252890    0.002516682
     51        1          -0.000205318   -0.000420290   -0.001373989
     52        1          -0.000085236   -0.000596781    0.001113444
     53        1           0.001873673   -0.003863099    0.000648943
     54        1           0.000506547   -0.000949284    0.000397525
     55        1          -0.001324068   -0.002622354    0.005419740
     56        1           0.000432480    0.002859477    0.001430847
     57        1          -0.000747093    0.001140639    0.000583759
     58        1          -0.000253425   -0.000007424    0.003766639
     59        1          -0.001134113    0.001739654   -0.000561618
     60        1           0.004467104   -0.001802326    0.000466884
     61        1           0.004016184   -0.001130542    0.000010563
     62        6          -0.004510159    0.001189322   -0.002196069
     63        1          -0.000582254   -0.000101936    0.001097308
     64        1          -0.001715417    0.000481871   -0.000702335
     65        1          -0.000912446    0.001459208    0.000952475
 -------------------------------------------------------------------
 Cartesian Forces:  Max     0.030945632 RMS     0.006717040

 GradGradGradGradGradGradGradGradGradGradGradGradGradGradGradGradGradGrad
 Berny optimization.
 Internal  Forces:  Max     0.023702995 RMS     0.003450550
 Search for a local minimum.
 Step number   1 out of a maximum of  390
 All quantities printed in internal units (Hartrees-Bohrs-Radians)
 Mixed Optimization -- RFO/linear search
 Second derivative matrix not updated -- first step.
 ITU=  0
     Eigenvalues ---    0.00276   0.00291   0.00331   0.00385   0.00389
     Eigenvalues ---    0.00431   0.00461   0.00556   0.00605   0.00610
     Eigenvalues ---    0.00632   0.00661   0.00685   0.00689   0.00718
     Eigenvalues ---    0.00925   0.01079   0.01237   0.01245   0.01379
     Eigenvalues ---    0.01471   0.01610   0.01710   0.01793   0.01915
     Eigenvalues ---    0.02494   0.02828   0.02828   0.03038   0.03122
     Eigenvalues ---    0.03549   0.03602   0.03731   0.04040   0.04118
     Eigenvalues ---    0.04131   0.04323   0.04416   0.04579   0.04665
     Eigenvalues ---    0.04719   0.04844   0.04923   0.05096   0.05240
     Eigenvalues ---    0.05303   0.05383   0.05417   0.05499   0.05499
     Eigenvalues ---    0.05505   0.05530   0.05546   0.05550   0.05628
     Eigenvalues ---    0.05634   0.05694   0.05946   0.06291   0.06652
     Eigenvalues ---    0.06701   0.06860   0.07089   0.07115   0.07178
     Eigenvalues ---    0.07249   0.07249   0.07337   0.07623   0.08328
     Eigenvalues ---    0.08381   0.08810   0.09003   0.09141   0.09738
     Eigenvalues ---    0.10095   0.10635   0.10832   0.11618   0.12194
     Eigenvalues ---    0.13124   0.14676   0.15160   0.15960   0.16000
     Eigenvalues ---    0.16000   0.16000   0.16000   0.16000   0.16000
     Eigenvalues ---    0.16000   0.16000   0.16000   0.16000   0.16000
     Eigenvalues ---    0.16000   0.16000   0.16000   0.16000   0.16000
     Eigenvalues ---    0.16000   0.16000   0.16000   0.16000   0.16000
     Eigenvalues ---    0.16371   0.16496   0.17288   0.17724   0.18315
     Eigenvalues ---    0.19655   0.21525   0.21913   0.22765   0.23555
     Eigenvalues ---    0.24505   0.24910   0.24971   0.24974   0.24988
     Eigenvalues ---    0.24994   0.25000   0.25000   0.25938   0.27188
     Eigenvalues ---    0.27434   0.27714   0.27844   0.28242   0.28303
     Eigenvalues ---    0.28639   0.28784   0.28883   0.29160   0.29537
     Eigenvalues ---    0.29560   0.30076   0.30254   0.30488   0.31173
     Eigenvalues ---    0.31559   0.31722   0.31774   0.33098   0.33674
     Eigenvalues ---    0.33676   0.34000   0.34011   0.34020   0.34028
     Eigenvalues ---    0.34048   0.34053   0.34062   0.34068   0.34076
     Eigenvalues ---    0.34127   0.34139   0.34142   0.34160   0.34161
     Eigenvalues ---    0.34175   0.34206   0.34213   0.34244   0.34246
     Eigenvalues ---    0.34247   0.34267   0.34273   0.34275   0.34281
     Eigenvalues ---    0.34283   0.34307   0.34335   0.34342   0.34473
     Eigenvalues ---    0.34967   0.35208   0.35382   0.35459   0.36519
     Eigenvalues ---    0.37161   0.42960   0.43295   0.51758   0.53214
     Eigenvalues ---    0.54294   0.56290   0.89707   0.90889
 RFO step:  Lambda=-2.15551217D-02 EMin= 2.76091608D-03
 Linear search not attempted -- first point.
 Iteration  1 RMS(Cart)=  0.05432604 RMS(Int)=  0.00076652
 Iteration  2 RMS(Cart)=  0.00149400 RMS(Int)=  0.00023376
 Iteration  3 RMS(Cart)=  0.00000105 RMS(Int)=  0.00023376
 Iteration  4 RMS(Cart)=  0.00000000 RMS(Int)=  0.00023376
 Variable       Old X    -DE/DX   Delta X   Delta X   Delta X     New X
                                 (Linear)    (Quad)   (Total)
    R1        2.53563  -0.00216   0.00000  -0.00448  -0.00452   2.53111
    R2        2.82521   0.00827   0.00000   0.02501   0.02494   2.85014
    R3        2.05729   0.00012   0.00000   0.00033   0.00033   2.05762
    R4        2.85785   0.00354   0.00000   0.00754   0.00757   2.86542
    R5        2.84559   0.00349   0.00000   0.01029   0.01029   2.85588
    R6        2.94180   0.00473   0.00000   0.01078   0.01080   2.95260
    R7        2.90827   0.01144   0.00000   0.03971   0.03970   2.94797
    R8        2.07880  -0.00080   0.00000  -0.00223  -0.00223   2.07658
    R9        2.90176   0.00844   0.00000   0.02667   0.02650   2.92826
   R10        2.91182   0.00796   0.00000   0.02581   0.02585   2.93768
   R11        2.76103  -0.00490   0.00000  -0.01174  -0.01175   2.74929
   R12        2.91549  -0.00100   0.00000  -0.00066  -0.00074   2.91475
   R13        2.90279   0.00643   0.00000   0.01461   0.01454   2.91733
   R14        2.89062   0.01313   0.00000   0.04262   0.04259   2.93321
   R15        2.07215   0.00283   0.00000   0.00781   0.00781   2.07995
   R16        2.07311  -0.00147   0.00000  -0.00407  -0.00407   2.06905
   R17        2.81890   0.00976   0.00000   0.02093   0.02056   2.83946
   R18        2.86055   0.01481   0.00000   0.05356   0.05306   2.91360
   R19        2.67719   0.00273   0.00000   0.00605   0.00605   2.68323
   R20        2.52851   0.01608   0.00000   0.02798   0.02806   2.55657
   R21        2.63437  -0.02370   0.00000  -0.05584  -0.05566   2.57872
   R22        2.79931  -0.00336   0.00000  -0.01272  -0.01265   2.78665
   R23        2.81184   0.01205   0.00000   0.03364   0.03364   2.84547
   R24        2.33068  -0.01100   0.00000  -0.01197  -0.01197   2.31871
   R25        2.32526  -0.01947   0.00000  -0.02093  -0.02093   2.30433
   R26        2.88849   0.00054   0.00000   0.00171   0.00171   2.89020
   R27        2.90248   0.00225   0.00000   0.00725   0.00725   2.90974
   R28        2.88896   0.00896   0.00000   0.02826   0.02826   2.91723
   R29        2.07061  -0.00006   0.00000  -0.00016  -0.00016   2.07045
   R30        2.07250  -0.00043   0.00000  -0.00120  -0.00120   2.07130
   R31        2.07297   0.00119   0.00000   0.00330   0.00330   2.07627
   R32        2.87813   0.00804   0.00000   0.02496   0.02496   2.90309
   R33        2.07036   0.00130   0.00000   0.00358   0.00358   2.07394
   R34        2.06916   0.00041   0.00000   0.00112   0.00112   2.07028
   R35        2.07058  -0.00009   0.00000  -0.00026  -0.00026   2.07033
   R36        2.91506  -0.00105   0.00000   0.00935   0.00962   2.92468
   R37        2.90525   0.00414   0.00000   0.01484   0.01483   2.92008
[...]
     54          1           0       -0.911814    4.328673   -2.355632
     55          1           0       -0.727561    2.642835   -2.892117
     56          1           0        1.755046    4.596334   -0.932339
     57          1           0        0.236783    5.085782   -0.156907
     58          1           0        1.342882    3.969221    0.670543
     59          1           0       -0.045861    0.679378    5.040813
     60          1           0        0.290674    2.021958    3.936144
     61          1           0       -1.352190    1.754904    4.510076
     62          6           0        4.500334   -2.957089   -1.313324
     63          1           0        3.850340   -2.635972   -2.134297
     64          1           0        5.354728   -3.485570   -1.752155
     65          1           0        3.933598   -3.668804   -0.703131
 ---------------------------------------------------------------------
 Rotational constants (GHZ):      0.1947411      0.1294348      0.1161696

 **********************************************************************

            Population analysis using the SCF density.

 **********************************************************************

 Orbital symmetries:
       Occupied  (A) (A) (A) (A) (A) (A) (A) (A) (A) (A) (A) (A)
                 (A) (A) (A) (A) (A) (A) (A) (A) (A) (A) (A) (A)
                 (A) (A) (A) (A) (A) (A) (A) (A) (A) (A) (A) (A)
                 (A) (A) (A) (A) (A) (A) (A) (A) (A) (A) (A) (A)
                 (A) (A) (A) (A) (A) (A) (A) (A) (A) (A) (A) (A)
                 (A) (A) (A) (A) (A) (A) (A) (A) (A) (A) (A) (A)
                 (A) (A) (A) (A) (A) (A) (A) (A) (A) (A) (A) (A)
                 (A) (A) (A) (A) (A) (A) (A) (A) (A) (A) (A) (A)
                 (A) (A) (A) (A) (A) (A) (A) (A) (A) (A) (A) (A)
                 (A) (A) (A) (A) (A) (A) (A)
       Virtual   (A) (A) (A) (A) (A) (A) (A) (A) (A) (A) (A) (A)
                 (A) (A) (A) (A) (A) (A) (A) (A) (A) (A) (A) (A)
                 (A) (A) (A) (A) (A) (A) (A) (A) (A) (A) (A) (A)
                 (A) (A) (A) (A) (A) (A) (A) (A) (A) (A) (A) (A)
                 (A) (A) (A) (A) (A) (A) (A) (A) (A) (A) (A) (A)
                 (A) (A) (A) (A) (A) (A) (A) (A) (A) (A) (A) (A)
                 (A) (A) (A) (A) (A) (A) (A) (A) (A) (A) (A) (A)
                 (A) (A) (A) (A) (A) (A) (A) (A) (A) (A) (A) (A)
                 (A) (A) (A) (A) (A) (A) (A) (A) (A) (A) (A) (A)
                 (A) (A) (A) (A) (A) (A) (A) (A) (A) (A) (A) (A)
                 (A) (A) (A) (A) (A) (A) (A) (A) (A) (A) (A) (A)
                 (A) (A) (A) (A) (A) (A) (A) (A) (A) (A) (A) (A)
                 (A) (A) (A) (A) (A) (A) (A) (A) (A) (A) (A) (A)
                 (A) (A) (A) (A) (A) (A) (A) (A) (A) (A) (A) (A)
                 (A) (A) (A) (A) (A) (A) (A) (A) (A) (A) (A) (A)
                 (A) (A) (A) (A) (A) (A) (A) (A) (A) (A) (A) (A)
                 (A) (A) (A) (A) (A) (A) (A) (A) (A) (A) (A) (A)
                 (A) (A) (A) (A) (A) (A) (A) (A) (A) (A) (A) (A)
                 (A) (A) (A) (A) (A) (A) (A) (A) (A) (A) (A) (A)
                 (A) (A) (A) (A) (A) (A) (A) (A) (A) (A) (A) (A)
                 (A) (A) (A) (A) (A) (A) (A) (A) (A) (A) (A) (A)
                 (A) (A) (A) (A) (A) (A) (A) (A) (A) (A) (A) (A)
                 (A) (A) (A) (A) (A) (A) (A) (A) (A) (A) (A) (A)
                 (A) (A) (A) (A) (A) (A) (A) (A) (A) (A) (A) (A)
                 (A) (A) (A) (A) (A) (A) (A) (A) (A) (A) (A) (A)
                 (A) (A) (A) (A) (A) (A) (A) (A) (A) (A) (A) (A)
                 (A) (A) (A) (A) (A) (A) (A) (A) (A) (A) (A) (A)
                 (A) (A) (A) (A) (A) (A) (A) (A) (A) (A) (A) (A)
                 (A) (A) (A) (A) (A) (A) (A) (A) (A) (A) (A) (A)
                 (A) (A) (A) (A) (A) (A) (A) (A) (A) (A) (A) (A)
                 (A) (A) (A) (A) (A) (A) (A) (A) (A) (A) (A) (A)
                 (A) (A) (A) (A) (A) (A) (A) (A) (A) (A) (A) (A)
                 (A) (A) (A) (A) (A) (A) (A) (A) (A) (A) (A) (A)
                 (A) (A) (A) (A) (A) (A) (A) (A) (A) (A) (A) (A)
                 (A) (A) (A) (A) (A) (A) (A) (A) (A) (A)
 The electronic state is 1-A.
 Alpha  occ. eigenvalues --  -19.19768 -19.16776 -19.15831 -19.12716 -19.11967
 Alpha  occ. eigenvalues --  -10.27569 -10.27182 -10.26708 -10.25937 -10.25871
 Alpha  occ. eigenvalues --  -10.25852 -10.25227 -10.21399 -10.20814 -10.20685
 Alpha  occ. eigenvalues --  -10.20583 -10.20133 -10.19715 -10.19515 -10.19147
 Alpha  occ. eigenvalues --  -10.19096 -10.19057 -10.18924 -10.18896 -10.18853
 Alpha  occ. eigenvalues --  -10.18457 -10.18033 -10.17396 -10.16994 -10.16272
 Alpha  occ. eigenvalues --  -10.15095  -1.09457  -1.05991  -1.02933  -1.02511
 Alpha  occ. eigenvalues --   -1.01870  -0.86833  -0.83682  -0.82435  -0.81447
 Alpha  occ. eigenvalues --   -0.80349  -0.78863  -0.76699  -0.74390  -0.73289
 Alpha  occ. eigenvalues --   -0.71879  -0.71089  -0.69977  -0.69524  -0.68001
 Alpha  occ. eigenvalues --   -0.65298  -0.63645  -0.63428  -0.61507  -0.60704
 Alpha  occ. eigenvalues --   -0.59507  -0.58592  -0.56986  -0.54613  -0.53533
 Alpha  occ. eigenvalues --   -0.52769  -0.51870  -0.50863  -0.50419  -0.49318
 Alpha  occ. eigenvalues --   -0.48348  -0.47774  -0.46729  -0.46365  -0.45813
 Alpha  occ. eigenvalues --   -0.45289  -0.44576  -0.43560  -0.43479  -0.43229
 Alpha  occ. eigenvalues --   -0.42537  -0.42029  -0.41848  -0.41576  -0.41261
 Alpha  occ. eigenvalues --   -0.40808  -0.40692  -0.40449  -0.40041  -0.39583
 Alpha  occ. eigenvalues --   -0.39309  -0.39120  -0.38402  -0.38193  -0.37811
 Alpha  occ. eigenvalues --   -0.37670  -0.37448  -0.37232  -0.37002  -0.36785
 Alpha  occ. eigenvalues --   -0.36276  -0.35452  -0.34857  -0.34712  -0.34001
 Alpha  occ. eigenvalues --   -0.33729  -0.33617  -0.32825  -0.32134  -0.32062
 Alpha  occ. eigenvalues --   -0.31431  -0.30921  -0.30475  -0.28116  -0.26690
 Alpha  occ. eigenvalues --   -0.26375  -0.24720  -0.24309  -0.23475  -0.22363
 Alpha virt. eigenvalues --   -0.05057  -0.01378   0.00298   0.01846   0.06146
 Alpha virt. eigenvalues --    0.07649   0.07930   0.08883   0.09332   0.10305
 Alpha virt. eigenvalues --    0.10574   0.10875   0.11526   0.12121   0.12606
 Alpha virt. eigenvalues --    0.12972   0.13148   0.13541   0.13845   0.13966
 Alpha virt. eigenvalues --    0.14404   0.14676   0.15061   0.15385   0.16078
 Alpha virt. eigenvalues --    0.16511   0.16838   0.16891   0.17167   0.17351
 Alpha virt. eigenvalues --    0.17657   0.18314   0.18385   0.18627   0.18892
 Alpha virt. eigenvalues --    0.19455   0.19741   0.19939   0.20093   0.20294
 Alpha virt. eigenvalues --    0.20656   0.20983   0.21339   0.21840   0.22043
 Alpha virt. eigenvalues --    0.22520   0.22958   0.23511   0.24025   0.24542
 Alpha virt. eigenvalues --    0.25057   0.25282   0.26171   0.26397   0.26768
 Alpha virt. eigenvalues --    0.27206   0.27480   0.27857   0.28657   0.29226
 Alpha virt. eigenvalues --    0.30420   0.31592   0.32093   0.32607   0.33543
 Alpha virt. eigenvalues --    0.34099   0.36100   0.37725   0.39347   0.39887
 Alpha virt. eigenvalues --    0.41826   0.45155   0.46236   0.48051   0.48441
 Alpha virt. eigenvalues --    0.49042   0.50380   0.50813   0.51160   0.51466
 Alpha virt. eigenvalues --    0.51946   0.52412   0.52678   0.53231   0.53391
 Alpha virt. eigenvalues --    0.53824   0.54717   0.55226   0.55547   0.56225
 Alpha virt. eigenvalues --    0.57089   0.57474   0.57766   0.58391   0.58963
 Alpha virt. eigenvalues --    0.59262   0.59996   0.60288   0.61443   0.61734
 Alpha virt. eigenvalues --    0.62187   0.62625   0.63284   0.64367   0.65296
 Alpha virt. eigenvalues --    0.65416   0.65890   0.66314   0.66650   0.67522
 Alpha virt. eigenvalues --    0.67561   0.67983   0.68519   0.69282   0.69637
 Alpha virt. eigenvalues --    0.69843   0.70340   0.71849   0.72151   0.73115
 Alpha virt. eigenvalues --    0.74433   0.74733   0.75611   0.75872   0.76001
 Alpha virt. eigenvalues --    0.76646   0.77591   0.77956   0.79508   0.79893
 Alpha virt. eigenvalues --    0.80362   0.80816   0.81246   0.82161   0.82819
 Alpha virt. eigenvalues --    0.82972   0.83512   0.83954   0.84588   0.84860
 Alpha virt. eigenvalues --    0.85669   0.86231   0.86501   0.87066   0.87279
 Alpha virt. eigenvalues --    0.87588   0.88065   0.88174   0.89025   0.89071
 Alpha virt. eigenvalues --    0.89322   0.89726   0.90317   0.90564   0.91077
 Alpha virt. eigenvalues --    0.91182   0.91414   0.91882   0.92417   0.92554
 Alpha virt. eigenvalues --    0.93066   0.93436   0.93831   0.94152   0.94758
 Alpha virt. eigenvalues --    0.95169   0.95326   0.95727   0.96638   0.96888
 Alpha virt. eigenvalues --    0.97398   0.97912   0.98418   0.99057   0.99291
 Alpha virt. eigenvalues --    0.99921   1.00941   1.01970   1.02220   1.03182
 Alpha virt. eigenvalues --    1.05100   1.05509   1.05943   1.07187   1.08603
 Alpha virt. eigenvalues --    1.09670   1.09859   1.11643   1.12006   1.12662
 Alpha virt. eigenvalues --    1.13573   1.14952   1.15405   1.15616   1.16843
 Alpha virt. eigenvalues --    1.17606   1.18616   1.19328   1.19573   1.20537
 Alpha virt. eigenvalues --    1.21385   1.22247   1.23913   1.25329   1.25647
 Alpha virt. eigenvalues --    1.27565   1.29361   1.29617   1.31390   1.32730
 Alpha virt. eigenvalues --    1.35231   1.36123   1.37658   1.38578   1.40204
 Alpha virt. eigenvalues --    1.41010   1.42079   1.43393   1.44556   1.45691
 Alpha virt. eigenvalues --    1.45992   1.48138   1.49707   1.51334   1.53166
 Alpha virt. eigenvalues --    1.53613   1.54641   1.55902   1.56160   1.58082
 Alpha virt. eigenvalues --    1.59421   1.59987   1.61109   1.61861   1.62505
 Alpha virt. eigenvalues --    1.64571   1.65677   1.66600   1.67580   1.68883
 Alpha virt. eigenvalues --    1.69472   1.71638   1.72272   1.73251   1.74092
 Alpha virt. eigenvalues --    1.74829   1.76092   1.76941   1.77532   1.78512
 Alpha virt. eigenvalues --    1.78769   1.79273   1.79974   1.80284   1.80872
 Alpha virt. eigenvalues --    1.82239   1.83093   1.84042   1.84340   1.85574
 Alpha virt. eigenvalues --    1.86038   1.86460   1.86944   1.87134   1.88543
 Alpha virt. eigenvalues --    1.89232   1.89556   1.89744   1.90281   1.90963
 Alpha virt. eigenvalues --    1.91481   1.92344   1.93291   1.93688   1.94944
 Alpha virt. eigenvalues --    1.95226   1.95633   1.96659   1.97738   1.98136
 Alpha virt. eigenvalues --    1.98955   1.99378   1.99682   2.00366   2.01437
 Alpha virt. eigenvalues --    2.01841   2.03499   2.03725   2.04104   2.05083
 Alpha virt. eigenvalues --    2.06331   2.06844   2.08392   2.08651   2.09398
 Alpha virt. eigenvalues --    2.10042   2.10968   2.12016   2.12364   2.13875
 Alpha virt. eigenvalues --    2.14002   2.14838   2.16476   2.16666   2.17817
 Alpha virt. eigenvalues --    2.19008   2.19227   2.19768   2.21144   2.22446
 Alpha virt. eigenvalues --    2.23760   2.24127   2.24394   2.26382   2.26933
 Alpha virt. eigenvalues --    2.28654   2.28970   2.29684   2.30206   2.31134
 Alpha virt. eigenvalues --    2.32676   2.33371   2.34042   2.34173   2.34778
 Alpha virt. eigenvalues --    2.36287   2.36390   2.38116   2.38439   2.38812
 Alpha virt. eigenvalues --    2.40181   2.40371   2.41304   2.41810   2.43444
 Alpha virt. eigenvalues --    2.43882   2.45057   2.45425   2.47538   2.48056
 Alpha virt. eigenvalues --    2.48690   2.50214   2.50723   2.52512   2.53720
 Alpha virt. eigenvalues --    2.55288   2.56481   2.56945   2.58952   2.59753
 Alpha virt. eigenvalues --    2.60809   2.62871   2.63417   2.64818   2.65865
 Alpha virt. eigenvalues --    2.66727   2.67423   2.68066   2.69207   2.70572
 Alpha virt. eigenvalues --    2.72107   2.73157   2.74162   2.76111   2.77159
 Alpha virt. eigenvalues --    2.79002   2.80334   2.81853   2.82536   2.84541
 Alpha virt. eigenvalues --    2.86640   2.88602   2.89569   2.94541   2.95694
 Alpha virt. eigenvalues --    2.96888   3.00588   3.00602   3.01684   3.02634
 Alpha virt. eigenvalues --    3.05757   3.06649   3.11588   3.18109   3.21081
 Alpha virt. eigenvalues --    3.26016   3.29583   4.03033   4.06379   4.08792
 Alpha virt. eigenvalues --    4.12261   4.13858   4.16445   4.18109   4.19245
 Alpha virt. eigenvalues --    4.22432   4.23701   4.24174   4.27599   4.30054
 Alpha virt. eigenvalues --    4.31643   4.33945   4.36866   4.38282   4.43268
 Alpha virt. eigenvalues --    4.45656   4.49116   4.53164   4.55575   4.60988
 Alpha virt. eigenvalues --    4.63647   4.65795   4.69848   4.72635   4.80782
 Alpha virt. eigenvalues --    4.89471   5.01243   5.17419
          Condensed to atoms (all electrons):
 Mulliken atomic charges:
              1
     1  C   -0.191031
     2  C    0.190979
     3  C   -0.187980
     4  C    0.322941
     5  C   -0.051939
     6  C   -0.334161
     7  C    0.198037
     8  C    0.406652
     9  C   -0.085832
    10  C    0.417090
    11  C    0.424650
    12  O   -0.465616
    13  C   -0.150512
    14  C   -0.247514
    15  C   -0.454659
    16  O   -0.514474
    17  C   -0.162104
    18  C    0.298962
    19  O   -0.503350
    20  C   -0.322479
    21  O   -0.653207
    22  C   -0.324421
    23  C    0.094184
    24  O   -0.591358
    25  C    0.182310
    26  C   -0.507653
    27  C   -0.393206
    28  C   -0.467501
    29  C   -0.459741
    30  H    0.145074
    31  H    0.165285
    32  C   -0.519386
    33  H    0.122702
    34  H    0.147685
    35  H    0.182295
    36  H    0.154108
    37  H    0.149458
    38  H    0.120524
    39  H    0.136349
    40  H    0.146131
    41  H    0.159728
    42  H    0.161945
    43  H    0.152043
    44  H    0.414121
    45  H    0.168686
    46  H    0.172886
    47  H    0.138069
    48  H    0.154808
    49  H    0.155922
    50  H    0.170452
    51  H    0.154772
    52  H    0.142822
    53  H    0.163877
    54  H    0.141560
    55  H    0.194879
    56  H    0.169334
    57  H    0.150692
    58  H    0.158928
    59  H    0.158206
    60  H    0.156235
    61  H    0.152100
    62  C   -0.450351
    63  H    0.155214
    64  H    0.131847
    65  H    0.153933
 Sum of Mulliken atomic charges =   0.00000
 Mulliken charges with hydrogens summed into heavy atoms:
              1
     1  C   -0.068329
     2  C    0.190979
     3  C   -0.022695
     4  C    0.322941
     5  C   -0.051939
     6  C   -0.004180
     7  C    0.198037
     8  C    0.406652
     9  C   -0.085832
    10  C    0.417090
    11  C    0.424650
    12  O   -0.465616
    13  C    0.003596
    14  C    0.022468
    15  C   -0.012452
    16  O   -0.514474
    17  C   -0.017030
    18  C    0.298962
    19  O   -0.503350
    20  C   -0.008491
    21  O   -0.239087
    22  C    0.017151
    23  C    0.232253
    24  O   -0.591358
    25  C    0.182310
    26  C   -0.026471
    27  C   -0.095611
    28  C    0.032815
    29  C    0.019213
    32  C   -0.052844
    62  C   -0.009357
 Sum of Mulliken charges with hydrogens summed into heavy atoms =   0.00000
 Electronic spatial extent (au):  <R**2>=          11440.9454
 Charge=              0.0000 electrons
 Dipole moment (field-independent basis, Debye):
    X=             -5.0475    Y=              2.8069    Z=              3.2181  Tot=              6.6115
 Quadrupole moment (field-independent basis, Debye-Ang):
   XX=           -185.5507   YY=           -176.2070   ZZ=           -185.6704
   XY=              3.3491   XZ=              9.8293   YZ=              1.3831
 Traceless Quadrupole moment (field-independent basis, Debye-Ang):
   XX=             -3.0747   YY=              6.2690   ZZ=             -3.1943
   XY=              3.3491   XZ=              9.8293   YZ=              1.3831
 Octapole moment (field-independent basis, Debye-Ang**2):
  XXX=            -56.8347  YYY=             68.1493  ZZZ=              6.1896  XYY=            -19.8681
  XXY=            -11.7982  XXZ=              7.1459  XZZ=            -19.9099  YZZ=             -3.9828
  YYZ=            -11.1927  XYZ=             -2.7757
 Hexadecapole moment (field-independent basis, Debye-Ang**3):
 XXXX=          -7747.6623 YYYY=          -4279.2808 ZZZZ=          -3116.5432 XXXY=              9.2513
 XXXZ=            157.1752 YYYX=             36.6642 YYYZ=            -64.7269 ZZZX=             44.1999
 ZZZY=             -5.7379 XXYY=          -2040.8087 XXZZ=          -1849.8384 YYZZ=          -1205.6910
 XXYZ=             16.4026 YYXZ=             -9.9533 ZZXY=              7.7581
 N-N= 3.512995340487D+03 E-N=-1.025227705799D+04  KE= 1.374463462205D+03
 1\1\GINC-B0606\FOpt\RB3LYP\6-31G(d)\C26H34O5\CAOFEI\24-Mar-2021\0\\# o
 pt rb3lyp/6-31g(d) geom=connectivity\\Title Card Required\\0,1\C,0.230
 6689877,-0.0787209223,0.2014267582\C,1.566669825,-0.0060011856,0.22326
 45351\C,2.2843948291,1.3249609257,0.1312649211\C,1.4101364758,2.544326
 9815,-0.3028498746\C,-0.0759062792,2.3041885991,-0.6776076281\C,-0.679
 7311437,1.1138481687,0.1079469425\C,2.2175375788,3.2145370953,-1.44597
 77277\C,1.8958375592,2.6536670713,-2.8179520835\C,0.675711754,2.180572
 6404,-3.1987830759\C,-0.3839714958,2.0918281262,-2.1859612415\C,0.4351
 585198,1.7543367495,-4.624441893\O,0.9505567402,2.3761257382,-5.539877
 7947\C,-0.3508251006,0.4683825798,-4.9046739006\C,-1.2456058577,0.6197
 375275,-6.147977492\C,0.6840828297,-0.6627227064,-5.0930308728\O,-1.54
 93333002,1.8493592953,-2.4906117589\C,3.6863815047,2.7559621733,-1.326
 3153239\C,4.2091930909,2.9130536263,-2.7736554227\O,2.9888888375,2.630
 3498546,-3.5793188644\C,3.5194922191,1.3101726708,-0.8176511492\O,2.00
 78535571,4.6124054563,-1.4948590058\C,-0.7387504115,3.6329801435,-0.22
 60949929\C,0.0348221404,3.9821816306,1.041134272\O,1.3875262566,3.5003
 028784,0.7878584481\C,0.1184547848,5.430234353,1.4774342073\C,0.988492
 052,5.6778237511,2.6864300116\C,-0.5562862118,6.4107262509,0.869218591
 \C,4.6609841281,4.3388316982,-3.0977778779\C,5.2556956268,1.8987091665
 ,-3.2268891322\H,4.2476389321,3.3758366422,-0.6206911736\H,2.643169100
 9,1.5859727766,1.1370957976\C,2.4265683178,-1.2310185178,0.4161129815\
 H,-0.2470754879,-1.0519828482,0.307216222\H,-0.9408231034,1.4413841943
 ,1.1255763393\H,-1.625429217,0.8499394681,-0.3746567851\H,-0.975357040
 9,0.2322782083,-4.0401328221\H,-0.6126214588,0.891190015,-7.0011869456
 \H,-1.6821400761,-0.3627649803,-6.3738480419\H,1.3134165843,-0.7884085
 358,-4.2035964385\H,0.1745529145,-1.6150285927,-5.2794105596\H,1.33826
 43639,-0.4476670296,-5.9450422709\H,3.3139181377,0.6415711415,-1.66062
 89975\H,4.4170879717,0.9310723069,-0.3208349929\H,1.9191784319,4.87343
 20167,-0.5563840224\H,-1.8116580314,3.5118236175,-0.0564360412\H,-0.59
 09166587,4.4016714907,-0.9893961988\H,-0.3560692183,3.4004122292,1.891
 1077801\H,1.0088579734,6.7381480728,2.9547895223\H,0.6222328617,5.1119
 868646,3.5541818935\H,2.016065368,5.3419382683,2.5063066877\H,-1.19635
 14067,6.239478805,0.0097309805\H,-0.496578241,7.4357129605,1.226468095
 4\H,4.8340797583,4.4360262267,-4.174196499\H,5.6000350172,4.5594661425
 ,-2.5770527717\H,3.9088158788,5.0673812631,-2.7906253671\H,5.490685522
 ,2.0530638107,-4.2845483761\H,6.1770880285,2.0318809862,-2.6491951055\
 H,4.9139402538,0.8684714989,-3.1028178427\H,1.8124267958,-2.1286466958
 ,0.5370758389\H,3.1045849495,-1.4001767352,-0.4302561707\H,3.060075869
 6,-1.1326975682,1.30933886\C,-2.3637692179,1.6547841534,-5.9830369221\
 H,-1.9509059489,2.6581044366,-5.833047401\H,-3.0006911256,1.6866030883
 ,-6.874761582\H,-2.9959262959,1.4257004813,-5.1181892453\\Version=EM64
 L-G09RevB.01\State=1-A\HF=-1387.3206786\RMSD=4.737e-09\RMSF=3.674e-06\
 Dipole=1.3557298,-0.2830569,2.2018119\Quadrupole=3.8573367,3.9228388,-
 7.7801756,-1.5880945,-2.8732293,4.558488\PG=C01 [X(C26H34O5)]\\@


 NATURE REVEALS EVERY SECRET ONCE.
                    - RALPH WALDO EMERSON
 Job cpu time:  0 days  5 hours 35 minutes 47.5 seconds.
 File lengths (MBytes):  RWF=    186 Int=      0 D2E=      0 Chk=     20 Scr=      1
 Normal termination of Gaussian 09 at Wed Mar 24 13:48:55 2021.
