 Entering Gaussian System, Link 0=g09
 Initial command:
 /public/software/g09/g09/l1.exe /tmp/Gau-26226.inp -scrdir=/tmp/
 Entering Link 1 = /public/software/g09/g09/l1.exe PID=     26227.
  
 Copyright (c) 1988,1990,1992,1993,1995,1998,2003,2009,2010,
            Gaussian, Inc.  All Rights Reserved.
  
 This is part of the Gaussian(R) 09 program.  It is based on
 the Gaussian(R) 03 system (copyright 2003, Gaussian, Inc.),
 the Gaussian(R) 98 system (copyright 1998, Gaussian, Inc.),
 the Gaussian(R) 94 system (copyright 1995, Gaussian, Inc.),
 the Gaussian 92(TM) system (copyright 1992, Gaussian, Inc.),
 the Gaussian 90(TM) system (copyright 1990, Gaussian, Inc.),
 the Gaussian 88(TM) system (copyright 1988, Gaussian, Inc.),
 the Gaussian 86(TM) system (copyright 1986, Carnegie Mellon
 University), and the Gaussian 82(TM) system (copyright 1983,
 Carnegie Mellon University). Gaussian is a federally registered
 trademark of Gaussian, Inc.
  
 This software contains proprietary and confidential information,
 including trade secrets, belonging to Gaussian, Inc.
  
 This software is provided under written license and may be
 used, copied, transmitted, or stored only in accord with that
 written license.
  
 The following legend is applicable only to US Government
 contracts under FAR:
  
                    RESTRICTED RIGHTS LEGEND
  
 Use, reproduction and disclosure by the US Government is
 subject to restrictions as set forth in subparagraphs (a)
 and (c) of the Commercial Computer Software - Restricted
 Rights clause in FAR 52.227-19.
  
 Gaussian, Inc.
 340 Quinnipiac St., Bldg. 40, Wallingford CT 06492
  
  
 ---------------------------------------------------------------
 Warning -- This program may not be used in any manner that
 competes with the business of Gaussian, Inc. or will provide
 assistance to any competitor of Gaussian, Inc.  The licensee
 of this program is prohibited from giving any competitor of
 Gaussian, Inc. access to this program.  By using this program,
 the user acknowledges that Gaussian, Inc. is engaged in the
 business of creating and licensing software in the field of
 computational chemistry and represents and warrants to the
 licensee that it is not a competitor of Gaussian, Inc. and that
 it will not use this program in any manner prohibited above.
 ---------------------------------------------------------------
  

 Cite this work as:
 Gaussian 09, Revision B.01,
 M. J. Frisch, G. W. Trucks, H. B. Schlegel, G. E. Scuseria, 
 M. A. Robb, J. R. Cheeseman, G. Scalmani, V. Barone, B. Mennucci, 
 G. A. Petersson, H. Nakatsuji, M. Caricato, X. Li, H. P. Hratchian, 
 A. F. Izmaylov, J. Bloino, G. Zheng, J. L. Sonnenberg, M. Hada, 
 M. Ehara, K. Toyota, R. Fukuda, J. Hasegawa, M. Ishida, T. Nakajima, 
 Y. Honda, O. Kitao, H. Nakai, T. Vreven, J. A. Montgomery, Jr., 
 J. E. Peralta, F. Ogliaro, M. Bearpark, J. J. Heyd, E. Brothers, 
 K. N. Kudin, V. N. Staroverov, T. Keith, R. Kobayashi, J. Normand, 
 K. Raghavachari, A. Rendell, J. C. Burant, S. S. Iyengar, J. Tomasi, 
 M. Cossi, N. Rega, J. M. Millam, M. Klene, J. E. Knox, J. B. Cross, 
 V. Bakken, C. Adamo, J. Jaramillo, R. Gomperts, R. E. Stratmann, 
 O. Yazyev, A. J. Austin, R. Cammi, C. Pomelli, J. W. Ochterski, 
 R. L. Martin, K. Morokuma, V. G. Zakrzewski, G. A. Voth, 
 P. Salvador, J. J. Dannenberg, S. Dapprich, A. D. Daniels, 
 O. Farkas, J. B. Foresman, J. V. Ortiz, J. Cioslowski, 
 and D. J. Fox, Gaussian, Inc., Wallingford CT, 2010.
 
 ******************************************
 Gaussian 09:  EM64L-G09RevB.01 12-Aug-2010
                24-Mar-2021 
 ******************************************
 %mem=600MW
 %nprocshared=10
 Will use up to   10 processors via shared memory.
 ---------------------------------------
 # opt rb3lyp/6-31g(d) geom=connectivity
 ---------------------------------------
 1/14=-1,18=20,19=15,26=3,38=1,57=2/1,3;
 2/9=110,12=2,17=6,18=5,40=1/2;
 3/5=1,6=6,7=1,11=2,16=1,25=1,30=1,71=1,74=-5,116=1/1,2,3;
 4//1;
 5/5=2,38=5/2;
 6/7=2,8=2,9=2,10=2,28=1/1;
 7//1,2,3,16;
 1/14=-1,18=20,19=15/3(2);
 2/9=110/2;
 99//99;
 2/9=110/2;
 3/5=1,6=6,7=1,11=2,16=1,25=1,30=1,71=1,74=-5,116=1/1,2,3;
 4/5=5,16=3/1;
 5/5=2,38=5/2;
 7//1,2,3,16;
 1/14=-1,18=20,19=15/3(-5);
 2/9=110/2;
 6/7=2,8=2,9=2,10=2,19=2,28=1/1;
 99/9=1/99;
 -------------------
 Title Card Required
 -------------------
 Symbolic Z-matrix:
 Charge =  0 Multiplicity = 1
 C                     0.        0.        0. 
 C                     1.34      0.        0. 
 C                     2.1403    1.279     0. 
 C                     1.3488    2.5936   -0.2604 
 C                    -0.1702    2.5053   -0.5263 
 C                    -0.8421    1.2308    0.0326 
 C                     2.1101    3.2875   -1.4058 
 C                     1.6669    2.927    -2.7801 
 C                     0.4073    2.5915   -3.0786 
 C                    -0.6002    2.6506   -1.9963 
 C                     0.0545    2.1951   -4.4646 
 O                     0.5525    1.1815   -4.9569 
 C                    -0.9397    3.0663   -5.2261 
 C                    -0.3109    3.6207   -6.5137 
 C                    -2.1723    2.2252   -5.56 
 O                    -1.79      2.7904   -2.2875 
 C                     3.5135    2.7246   -1.4312 
 C                     3.9391    2.9487   -2.8975 
 O                     2.7237    2.833    -3.6793 
 C                     3.2746    1.2589   -1.042 
 O                     2.0889    4.698    -1.2695 
 C                    -0.6956    3.7306    0.2342 
 C                     0.2279    3.783     1.4377 
 O                     1.5252    3.4488    0.9232 
 C                     0.2539    5.1025    2.1678 
 C                     0.9005    6.286     1.5057 
 C                    -0.2878    5.223     3.3929 
 C                     4.5279    4.3482   -3.1379 
 C                     4.9445    1.9122   -3.4108 
 H                     4.1913    3.2127   -0.7215 
 H                     2.6133    1.3516    0.9904 
 C                     2.1069   -1.2945    0.0853 
 H                    -0.5394   -0.9453    0.0421 
 H                    -1.1605    1.3677    1.0735 
 H                    -1.7659    1.0131   -0.5188 
 H                    -1.252     3.9067   -4.5953 
 H                     0.1111    2.8084   -7.1179 
 H                    -1.0903    4.0973   -7.121 
 H                    -2.9417    2.8379   -6.0412 
 H                    -2.6076    1.7844   -4.6573 
 H                    -1.9222    1.4013   -6.2378 
 H                     4.1877    0.8091   -0.6357 
 H                     2.9765    0.6548   -1.9078 
 H                     2.2806    4.8602   -0.3249 
 H                    -1.7496    3.6504    0.5231 
 H                    -0.5992    4.6316   -0.3844 
 H                    -0.0343    2.9848    2.1437 
 H                     1.9786    6.1274    1.4091 
 H                     0.4766    6.4621    0.5131 
 H                     0.759     7.2061    2.0835 
 H                    -0.7592    4.3833    3.8946 
 H                    -0.2731    6.1662    3.9312 
 H                     3.8094    5.1462   -2.9333 
 H                     4.8071    4.4724   -4.1911 
 H                     5.4191    4.5151   -2.5243 
 H                     5.846     1.8896   -2.7901 
 H                     5.242     2.1389   -4.4415 
 H                     4.5158    0.9061   -3.4499 
 H                     1.4462   -2.1554    0.2339 
 H                     2.6759   -1.4722   -0.8322 
 H                     2.8033   -1.2668    0.9298 
 C                     0.7761    4.6526   -6.246 
 H                     1.6389    4.2042   -5.7474 
 H                     0.3998    5.4692   -5.6219 
 H                     1.1262    5.082    -7.1902 
 

 GradGradGradGradGradGradGradGradGradGradGradGradGradGradGradGradGradGrad
 Berny optimization.
 Initialization pass.
                           ----------------------------
                           !    Initial Parameters    !
                           ! (Angstroms and Degrees)  !
 --------------------------                            --------------------------
 ! Name  Definition              Value          Derivative Info.                !
 --------------------------------------------------------------------------------
 ! R1    R(1,2)                  1.34           estimate D2E/DX2                !
 ! R2    R(1,6)                  1.4917         estimate D2E/DX2                !
 ! R3    R(1,33)                 1.0892         estimate D2E/DX2                !
 ! R4    R(2,3)                  1.5087         estimate D2E/DX2                !
 ! R5    R(2,32)                 1.507          estimate D2E/DX2                !
 ! R6    R(3,4)                  1.5564         estimate D2E/DX2                !
 ! R7    R(3,20)                 1.5404         estimate D2E/DX2                !
 ! R8    R(3,31)                 1.1            estimate D2E/DX2                !
 ! R9    R(4,5)                  1.5446         estimate D2E/DX2                !
 ! R10   R(4,7)                  1.5405         estimate D2E/DX2                !
 ! R11   R(4,24)                 1.4708         estimate D2E/DX2                !
 ! R12   R(5,6)                  1.5454         estimate D2E/DX2                !
 ! R13   R(5,10)                 1.5385         estimate D2E/DX2                !
 ! R14   R(5,22)                 1.5349         estimate D2E/DX2                !
 ! R15   R(6,34)                 1.0971         estimate D2E/DX2                !
 ! R16   R(6,35)                 1.0977         estimate D2E/DX2                !
 ! R17   R(7,8)                  1.4883         estimate D2E/DX2                !
 ! R18   R(7,17)                 1.5123         estimate D2E/DX2                !
 ! R19   R(7,21)                 1.4172         estimate D2E/DX2                !
 ! R20   R(8,9)                  1.3373         estimate D2E/DX2                !
 ! R21   R(8,19)                 1.3908         estimate D2E/DX2                !
 ! R22   R(9,10)                 1.4798         estimate D2E/DX2                !
 ! R23   R(9,11)                 1.4841         estimate D2E/DX2                !
 ! R24   R(10,16)                1.2329         estimate D2E/DX2                !
 ! R25   R(11,12)                1.232          estimate D2E/DX2                !
 ! R26   R(11,13)                1.5256         estimate D2E/DX2                !
 ! R27   R(13,14)                1.5364         estimate D2E/DX2                !
 ! R28   R(13,15)                1.5291         estimate D2E/DX2                !
 ! R29   R(13,36)                1.0962         estimate D2E/DX2                !
 ! R30   R(14,37)                1.0968         estimate D2E/DX2                !
 ! R31   R(14,38)                1.097          estimate D2E/DX2                !
 ! R32   R(14,62)                1.5225         estimate D2E/DX2                !
 ! R33   R(15,39)                1.095          estimate D2E/DX2                !
 ! R34   R(15,40)                1.0948         estimate D2E/DX2                !
 ! R35   R(15,41)                1.0958         estimate D2E/DX2                !
 ! R36   R(17,18)                1.5432         estimate D2E/DX2                !
 ! R37   R(17,20)                1.5352         estimate D2E/DX2                !
 ! R38   R(17,30)                1.0961         estimate D2E/DX2                !
 ! R39   R(18,19)                1.4498         estimate D2E/DX2                !
 ! R40   R(18,28)                1.5372         estimate D2E/DX2                !
 ! R41   R(18,29)                1.5325         estimate D2E/DX2                !
 ! R42   R(20,42)                1.096          estimate D2E/DX2                !
 ! R43   R(20,43)                1.097          estimate D2E/DX2                !
 ! R44   R(21,44)                0.9774         estimate D2E/DX2                !
 ! R45   R(22,23)                1.5179         estimate D2E/DX2                !
 ! R46   R(22,45)                1.0958         estimate D2E/DX2                !
 ! R47   R(22,46)                1.0972         estimate D2E/DX2                !
 ! R48   R(23,24)                1.4351         estimate D2E/DX2                !
 ! R49   R(23,25)                1.5082         estimate D2E/DX2                !
 ! R50   R(23,47)                1.0974         estimate D2E/DX2                !
 ! R51   R(25,26)                1.5024         estimate D2E/DX2                !
 ! R52   R(25,27)                1.3449         estimate D2E/DX2                !
 ! R53   R(26,48)                1.094          estimate D2E/DX2                !
 ! R54   R(26,49)                1.0936         estimate D2E/DX2                !
 ! R55   R(26,50)                1.0957         estimate D2E/DX2                !
 ! R56   R(27,51)                1.0858         estimate D2E/DX2                !
 ! R57   R(27,52)                1.0861         estimate D2E/DX2                !
 ! R58   R(28,53)                1.0931         estimate D2E/DX2                !
 ! R59   R(28,54)                1.0966         estimate D2E/DX2                !
 ! R60   R(28,55)                1.0948         estimate D2E/DX2                !
 ! R61   R(29,56)                1.0948         estimate D2E/DX2                !
 ! R62   R(29,57)                1.0965         estimate D2E/DX2                !
 ! R63   R(29,58)                1.0943         estimate D2E/DX2                !
 ! R64   R(32,59)                1.0953         estimate D2E/DX2                !
 ! R65   R(32,60)                1.0941         estimate D2E/DX2                !
 ! R66   R(32,61)                1.095          estimate D2E/DX2                !
 ! R67   R(62,63)                1.0927         estimate D2E/DX2                !
 ! R68   R(62,64)                1.0945         estimate D2E/DX2                !
 ! R69   R(62,65)                1.0947         estimate D2E/DX2                !
 ! A1    A(2,1,6)              124.3701         estimate D2E/DX2                !
 ! A2    A(2,1,33)             119.6852         estimate D2E/DX2                !
 ! A3    A(6,1,33)             115.8296         estimate D2E/DX2                !
 ! A4    A(1,2,3)              122.0352         estimate D2E/DX2                !
 ! A5    A(1,2,32)             120.5894         estimate D2E/DX2                !
 ! A6    A(3,2,32)             117.2736         estimate D2E/DX2                !
 ! A7    A(2,3,4)              116.5041         estimate D2E/DX2                !
 ! A8    A(2,3,20)             112.3051         estimate D2E/DX2                !
 ! A9    A(2,3,31)             106.5022         estimate D2E/DX2                !
 ! A10   A(4,3,20)             105.8023         estimate D2E/DX2                !
 ! A11   A(4,3,31)             108.2749         estimate D2E/DX2                !
 ! A12   A(20,3,31)            107.0548         estimate D2E/DX2                !
 ! A13   A(3,4,5)              118.7258         estimate D2E/DX2                !
 ! A14   A(3,4,7)              104.6872         estimate D2E/DX2                !
 ! A15   A(3,4,24)             107.1859         estimate D2E/DX2                !
 ! A16   A(5,4,7)              112.5666         estimate D2E/DX2                !
 ! A17   A(5,4,24)             106.8404         estimate D2E/DX2                !
 ! A18   A(7,4,24)             106.0906         estimate D2E/DX2                !
 ! A19   A(4,5,6)              114.3593         estimate D2E/DX2                !
 ! A20   A(4,5,10)             115.7182         estimate D2E/DX2                !
 ! A21   A(4,5,22)             101.8706         estimate D2E/DX2                !
 ! A22   A(6,5,10)             107.5737         estimate D2E/DX2                !
 ! A23   A(6,5,22)             109.2906         estimate D2E/DX2                !
 ! A24   A(10,5,22)            107.5995         estimate D2E/DX2                !
 ! A25   A(1,6,5)              115.2861         estimate D2E/DX2                !
 ! A26   A(1,6,34)             106.7108         estimate D2E/DX2                !
 ! A27   A(1,6,35)             107.4874         estimate D2E/DX2                !
 ! A28   A(5,6,34)             111.4944         estimate D2E/DX2                !
 ! A29   A(5,6,35)             110.3534         estimate D2E/DX2                !
 ! A30   A(34,6,35)            104.8987         estimate D2E/DX2                !
 ! A31   A(4,7,8)              115.4871         estimate D2E/DX2                !
 ! A32   A(4,7,17)             107.6644         estimate D2E/DX2                !
 ! A33   A(4,7,21)             111.6792         estimate D2E/DX2                !
 ! A34   A(8,7,17)              99.8272         estimate D2E/DX2                !
 ! A35   A(8,7,21)             108.9911         estimate D2E/DX2                !
 ! A36   A(17,7,21)            112.7025         estimate D2E/DX2                !
 ! A37   A(7,8,9)              123.1875         estimate D2E/DX2                !
 ! A38   A(7,8,19)             112.775          estimate D2E/DX2                !
 ! A39   A(9,8,19)             123.6738         estimate D2E/DX2                !
 ! A40   A(8,9,10)             117.9051         estimate D2E/DX2                !
 ! A41   A(8,9,11)             119.9593         estimate D2E/DX2                !
 ! A42   A(10,9,11)            122.1297         estimate D2E/DX2                !
 ! A43   A(5,10,9)             120.3149         estimate D2E/DX2                !
 ! A44   A(5,10,16)            120.4062         estimate D2E/DX2                !
 ! A45   A(9,10,16)            119.2628         estimate D2E/DX2                !
 ! A46   A(9,11,12)            119.7915         estimate D2E/DX2                !
 ! A47   A(9,11,13)            117.9405         estimate D2E/DX2                !
 ! A48   A(12,11,13)           122.2638         estimate D2E/DX2                !
 ! A49   A(11,13,14)           110.9571         estimate D2E/DX2                !
 ! A50   A(11,13,15)           108.675          estimate D2E/DX2                !
 ! A51   A(11,13,36)           109.6472         estimate D2E/DX2                !
 ! A52   A(14,13,15)           110.2048         estimate D2E/DX2                !
 ! A53   A(14,13,36)           108.7959         estimate D2E/DX2                !
 ! A54   A(15,13,36)           108.5236         estimate D2E/DX2                !
 ! A55   A(13,14,37)           110.6025         estimate D2E/DX2                !
 ! A56   A(13,14,38)           109.2647         estimate D2E/DX2                !
 ! A57   A(13,14,62)           112.917          estimate D2E/DX2                !
 ! A58   A(37,14,38)           106.8674         estimate D2E/DX2                !
 ! A59   A(37,14,62)           108.9121         estimate D2E/DX2                !
 ! A60   A(38,14,62)           108.0669         estimate D2E/DX2                !
 ! A61   A(13,15,39)           110.768          estimate D2E/DX2                !
 ! A62   A(13,15,40)           111.2178         estimate D2E/DX2                !
 ! A63   A(13,15,41)           111.3865         estimate D2E/DX2                !
 ! A64   A(39,15,40)           107.9543         estimate D2E/DX2                !
 ! A65   A(39,15,41)           108.015          estimate D2E/DX2                !
 ! A66   A(40,15,41)           107.3389         estimate D2E/DX2                !
 ! A67   A(7,17,18)            102.5823         estimate D2E/DX2                !
 ! A68   A(7,17,20)            101.9289         estimate D2E/DX2                !
 ! A69   A(7,17,30)            113.4058         estimate D2E/DX2                !
 ! A70   A(18,17,20)           114.9895         estimate D2E/DX2                !
 ! A71   A(18,17,30)           112.3354         estimate D2E/DX2                !
 ! A72   A(20,17,30)           110.9311         estimate D2E/DX2                !
 ! A73   A(17,18,19)           105.6403         estimate D2E/DX2                !
 ! A74   A(17,18,28)           112.7332         estimate D2E/DX2                !
 ! A75   A(17,18,29)           113.6386         estimate D2E/DX2                !
 ! A76   A(19,18,28)           108.025          estimate D2E/DX2                !
 ! A77   A(19,18,29)           108.3847         estimate D2E/DX2                !
 ! A78   A(28,18,29)           108.1844         estimate D2E/DX2                !
 ! A79   A(8,19,18)            106.4382         estimate D2E/DX2                !
 ! A80   A(3,20,17)            105.8801         estimate D2E/DX2                !
 ! A81   A(3,20,42)            111.5974         estimate D2E/DX2                !
 ! A82   A(3,20,43)            109.9359         estimate D2E/DX2                !
 ! A83   A(17,20,42)           110.8651         estimate D2E/DX2                !
 ! A84   A(17,20,43)           111.5895         estimate D2E/DX2                !
 ! A85   A(42,20,43)           107.0365         estimate D2E/DX2                !
 ! A86   A(7,21,44)            104.7838         estimate D2E/DX2                !
 ! A87   A(5,22,23)            102.2485         estimate D2E/DX2                !
 ! A88   A(5,22,45)            113.6691         estimate D2E/DX2                !
 ! A89   A(5,22,46)            110.2518         estimate D2E/DX2                !
 ! A90   A(23,22,45)           112.2523         estimate D2E/DX2                !
 ! A91   A(23,22,46)           111.4218         estimate D2E/DX2                !
 ! A92   A(45,22,46)           107.0531         estimate D2E/DX2                !
 ! A93   A(22,23,24)           104.9337         estimate D2E/DX2                !
 ! A94   A(22,23,25)           115.1189         estimate D2E/DX2                !
 ! A95   A(22,23,47)           109.853          estimate D2E/DX2                !
 ! A96   A(24,23,25)           111.205          estimate D2E/DX2                !
 ! A97   A(24,23,47)           106.0963         estimate D2E/DX2                !
 ! A98   A(25,23,47)           109.2097         estimate D2E/DX2                !
 ! A99   A(4,24,23)            108.3906         estimate D2E/DX2                !
 ! A100  A(23,25,26)           118.8984         estimate D2E/DX2                !
 ! A101  A(23,25,27)           120.8228         estimate D2E/DX2                !
 ! A102  A(26,25,27)           120.2786         estimate D2E/DX2                !
 ! A103  A(25,26,48)           110.4169         estimate D2E/DX2                !
 ! A104  A(25,26,49)           111.1018         estimate D2E/DX2                !
 ! A105  A(25,26,50)           111.9342         estimate D2E/DX2                !
 ! A106  A(48,26,49)           108.9772         estimate D2E/DX2                !
 ! A107  A(48,26,50)           107.1926         estimate D2E/DX2                !
 ! A108  A(49,26,50)           107.0596         estimate D2E/DX2                !
 ! A109  A(25,27,51)           121.766          estimate D2E/DX2                !
 ! A110  A(25,27,52)           121.5892         estimate D2E/DX2                !
 ! A111  A(51,27,52)           116.6446         estimate D2E/DX2                !
 ! A112  A(18,28,53)           112.5558         estimate D2E/DX2                !
 ! A113  A(18,28,54)           110.5373         estimate D2E/DX2                !
 ! A114  A(18,28,55)           111.2805         estimate D2E/DX2                !
 ! A115  A(53,28,54)           105.3327         estimate D2E/DX2                !
 ! A116  A(53,28,55)           108.5941         estimate D2E/DX2                !
 ! A117  A(54,28,55)           108.2855         estimate D2E/DX2                !
 ! A118  A(18,29,56)           111.3641         estimate D2E/DX2                !
 ! A119  A(18,29,57)           110.6717         estimate D2E/DX2                !
 ! A120  A(18,29,58)           112.1339         estimate D2E/DX2                !
 ! A121  A(56,29,57)           108.2889         estimate D2E/DX2                !
 ! A122  A(56,29,58)           108.8973         estimate D2E/DX2                !
 ! A123  A(57,29,58)           105.2357         estimate D2E/DX2                !
 ! A124  A(2,32,59)            112.077          estimate D2E/DX2                !
 ! A125  A(2,32,60)            110.8966         estimate D2E/DX2                !
 ! A126  A(2,32,61)            110.2171         estimate D2E/DX2                !
 ! A127  A(59,32,60)           107.4457         estimate D2E/DX2                !
 ! A128  A(59,32,61)           107.3907         estimate D2E/DX2                !
 ! A129  A(60,32,61)           108.6694         estimate D2E/DX2                !
 ! A130  A(14,62,63)           111.4586         estimate D2E/DX2                !
 ! A131  A(14,62,64)           111.1289         estimate D2E/DX2                !
 ! A132  A(14,62,65)           110.0302         estimate D2E/DX2                !
 ! A133  A(63,62,64)           108.508          estimate D2E/DX2                !
 ! A134  A(63,62,65)           107.5767         estimate D2E/DX2                !
 ! A135  A(64,62,65)           108.0053         estimate D2E/DX2                !
 ! D1    D(6,1,2,3)             -1.5172         estimate D2E/DX2                !
 ! D2    D(6,1,2,32)           174.7128         estimate D2E/DX2                !
 ! D3    D(33,1,2,3)          -177.45           estimate D2E/DX2                !
 ! D4    D(33,1,2,32)           -1.22           estimate D2E/DX2                !
 ! D5    D(2,1,6,5)             25.0871         estimate D2E/DX2                !
 ! D6    D(2,1,6,34)           -99.3103         estimate D2E/DX2                !
 ! D7    D(2,1,6,35)           148.6009         estimate D2E/DX2                !
 ! D8    D(33,1,6,5)          -158.8384         estimate D2E/DX2                !
 ! D9    D(33,1,6,34)           76.7642         estimate D2E/DX2                !
 ! D10   D(33,1,6,35)          -35.3245         estimate D2E/DX2                !
 ! D11   D(1,2,3,4)            -10.7751         estimate D2E/DX2                !
 ! D12   D(1,2,3,20)          -133.0163         estimate D2E/DX2                !
 ! D13   D(1,2,3,31)           110.1014         estimate D2E/DX2                !
 ! D14   D(32,2,3,4)           172.876          estimate D2E/DX2                !
 ! D15   D(32,2,3,20)           50.6349         estimate D2E/DX2                !
 ! D16   D(32,2,3,31)          -66.2475         estimate D2E/DX2                !
 ! D17   D(1,2,32,59)           -5.1818         estimate D2E/DX2                !
 ! D18   D(1,2,32,60)          114.8945         estimate D2E/DX2                !
 ! D19   D(1,2,32,61)         -124.7248         estimate D2E/DX2                !
 ! D20   D(3,2,32,59)          171.2228         estimate D2E/DX2                !
 ! D21   D(3,2,32,60)          -68.7009         estimate D2E/DX2                !
 ! D22   D(3,2,32,61)           51.6798         estimate D2E/DX2                !
 ! D23   D(2,3,4,5)             -1.2364         estimate D2E/DX2                !
 ! D24   D(2,3,4,7)           -127.8239         estimate D2E/DX2                !
 ! D25   D(2,3,4,24)           119.7819         estimate D2E/DX2                !
 ! D26   D(20,3,4,5)           124.348          estimate D2E/DX2                !
 ! D27   D(20,3,4,7)            -2.2395         estimate D2E/DX2                !
 ! D28   D(20,3,4,24)         -114.6336         estimate D2E/DX2                !
 ! D29   D(31,3,4,5)          -121.1668         estimate D2E/DX2                !
 ! D30   D(31,3,4,7)           112.2456         estimate D2E/DX2                !
 ! D31   D(31,3,4,24)           -0.1485         estimate D2E/DX2                !
 ! D32   D(2,3,20,17)          152.3218         estimate D2E/DX2                !
 ! D33   D(2,3,20,42)          -86.9556         estimate D2E/DX2                !
 ! D34   D(2,3,20,43)           31.6498         estimate D2E/DX2                !
 ! D35   D(4,3,20,17)           24.1951         estimate D2E/DX2                !
 ! D36   D(4,3,20,42)          144.9177         estimate D2E/DX2                !
 ! D37   D(4,3,20,43)          -96.4769         estimate D2E/DX2                !
 ! D38   D(31,3,20,17)         -91.1269         estimate D2E/DX2                !
 ! D39   D(31,3,20,42)          29.5956         estimate D2E/DX2                !
 ! D40   D(31,3,20,43)         148.201          estimate D2E/DX2                !
 ! D41   D(3,4,5,6)             23.2071         estimate D2E/DX2                !
 ! D42   D(3,4,5,10)          -102.6636         estimate D2E/DX2                !
 ! D43   D(3,4,5,22)           140.9652         estimate D2E/DX2                !
 ! D44   D(7,4,5,6)            145.9495         estimate D2E/DX2                !
 ! D45   D(7,4,5,10)            20.0787         estimate D2E/DX2                !
 ! D46   D(7,4,5,22)           -96.2925         estimate D2E/DX2                !
 ! D47   D(24,4,5,6)           -97.9864         estimate D2E/DX2                !
 ! D48   D(24,4,5,10)          136.1428         estimate D2E/DX2                !
 ! D49   D(24,4,5,22)           19.7716         estimate D2E/DX2                !
 ! D50   D(3,4,7,8)             89.4907         estimate D2E/DX2                !
 ! D51   D(3,4,7,17)           -21.0114         estimate D2E/DX2                !
 ! D52   D(3,4,7,21)          -145.2382         estimate D2E/DX2                !
 ! D53   D(5,4,7,8)            -40.8233         estimate D2E/DX2                !
 ! D54   D(5,4,7,17)          -151.3254         estimate D2E/DX2                !
 ! D55   D(5,4,7,21)            84.4479         estimate D2E/DX2                !
 ! D56   D(24,4,7,8)          -157.3359         estimate D2E/DX2                !
 ! D57   D(24,4,7,17)           92.162          estimate D2E/DX2                !
 ! D58   D(24,4,7,21)          -32.0647         estimate D2E/DX2                !
 ! D59   D(3,4,24,23)         -123.7166         estimate D2E/DX2                !
 ! D60   D(5,4,24,23)            4.5439         estimate D2E/DX2                !
 ! D61   D(7,4,24,23)          124.8495         estimate D2E/DX2                !
 ! D62   D(4,5,6,1)            -34.3041         estimate D2E/DX2                !
 ! D63   D(4,5,6,34)            87.5535         estimate D2E/DX2                !
 ! D64   D(4,5,6,35)          -156.2905         estimate D2E/DX2                !
 ! D65   D(10,5,6,1)            95.7169         estimate D2E/DX2                !
 ! D66   D(10,5,6,34)         -142.4255         estimate D2E/DX2                !
 ! D67   D(10,5,6,35)          -26.2694         estimate D2E/DX2                !
 ! D68   D(22,5,6,1)          -147.7392         estimate D2E/DX2                !
 ! D69   D(22,5,6,34)          -25.8816         estimate D2E/DX2                !
 ! D70   D(22,5,6,35)           90.2745         estimate D2E/DX2                !
 ! D71   D(4,5,10,9)            12.1334         estimate D2E/DX2                !
 ! D72   D(4,5,10,16)         -169.3361         estimate D2E/DX2                !
 ! D73   D(6,5,10,9)          -117.1214         estimate D2E/DX2                !
 ! D74   D(6,5,10,16)           61.4092         estimate D2E/DX2                !
 ! D75   D(22,5,10,9)          125.2322         estimate D2E/DX2                !
 ! D76   D(22,5,10,16)         -56.2373         estimate D2E/DX2                !
 ! D77   D(4,5,22,23)          -35.3088         estimate D2E/DX2                !
 ! D78   D(4,5,22,45)         -156.5241         estimate D2E/DX2                !
 ! D79   D(4,5,22,46)           83.2763         estimate D2E/DX2                !
 ! D80   D(6,5,22,23)           86.0311         estimate D2E/DX2                !
 ! D81   D(6,5,22,45)          -35.1843         estimate D2E/DX2                !
 ! D82   D(6,5,22,46)         -155.3838         estimate D2E/DX2                !
 ! D83   D(10,5,22,23)        -157.4413         estimate D2E/DX2                !
 ! D84   D(10,5,22,45)          81.3433         estimate D2E/DX2                !
 ! D85   D(10,5,22,46)         -38.8562         estimate D2E/DX2                !
 ! D86   D(4,7,8,9)             30.9193         estimate D2E/DX2                !
 ! D87   D(4,7,8,19)          -142.38           estimate D2E/DX2                !
 ! D88   D(17,7,8,9)           145.9898         estimate D2E/DX2                !
 ! D89   D(17,7,8,19)          -27.3094         estimate D2E/DX2                !
 ! D90   D(21,7,8,9)           -95.7254         estimate D2E/DX2                !
 ! D91   D(21,7,8,19)           90.9754         estimate D2E/DX2                !
 ! D92   D(4,7,17,18)          154.895          estimate D2E/DX2                !
 ! D93   D(4,7,17,20)           35.5836         estimate D2E/DX2                !
 ! D94   D(4,7,17,30)          -83.7119         estimate D2E/DX2                !
 ! D95   D(8,7,17,18)           33.9985         estimate D2E/DX2                !
 ! D96   D(8,7,17,20)          -85.3129         estimate D2E/DX2                !
 ! D97   D(8,7,17,30)          155.3916         estimate D2E/DX2                !
 ! D98   D(21,7,17,18)         -81.499          estimate D2E/DX2                !
 ! D99   D(21,7,17,20)         159.1896         estimate D2E/DX2                !
 ! D100  D(21,7,17,30)          39.894          estimate D2E/DX2                !
 ! D101  D(4,7,21,44)           44.4717         estimate D2E/DX2                !
 ! D102  D(8,7,21,44)          173.2662         estimate D2E/DX2                !
 ! D103  D(17,7,21,44)         -76.8788         estimate D2E/DX2                !
 ! D104  D(7,8,9,10)             3.1602         estimate D2E/DX2                !
 ! D105  D(7,8,9,11)          -177.7046         estimate D2E/DX2                !
 ! D106  D(19,8,9,10)          175.7323         estimate D2E/DX2                !
 ! D107  D(19,8,9,11)           -5.1325         estimate D2E/DX2                !
 ! D108  D(7,8,19,18)            7.6494         estimate D2E/DX2                !
 ! D109  D(9,8,19,18)         -165.6121         estimate D2E/DX2                !
 ! D110  D(8,9,10,5)           -25.4106         estimate D2E/DX2                !
 ! D111  D(8,9,10,16)          156.0422         estimate D2E/DX2                !
 ! D112  D(11,9,10,5)          155.4742         estimate D2E/DX2                !
 ! D113  D(11,9,10,16)         -23.0731         estimate D2E/DX2                !
 ! D114  D(8,9,11,12)           63.6896         estimate D2E/DX2                !
 ! D115  D(8,9,11,13)         -117.0448         estimate D2E/DX2                !
 ! D116  D(10,9,11,12)        -117.2129         estimate D2E/DX2                !
 ! D117  D(10,9,11,13)          62.0527         estimate D2E/DX2                !
 ! D118  D(9,11,13,14)         120.7153         estimate D2E/DX2                !
 ! D119  D(9,11,13,15)        -117.9626         estimate D2E/DX2                !
 ! D120  D(9,11,13,36)           0.5108         estimate D2E/DX2                !
 ! D121  D(12,11,13,14)        -60.0384         estimate D2E/DX2                !
 ! D122  D(12,11,13,15)         61.2837         estimate D2E/DX2                !
 ! D123  D(12,11,13,36)        179.7571         estimate D2E/DX2                !
 ! D124  D(11,13,14,37)         53.1226         estimate D2E/DX2                !
 ! D125  D(11,13,14,38)        170.4941         estimate D2E/DX2                !
 ! D126  D(11,13,14,62)        -69.2121         estimate D2E/DX2                !
 ! D127  D(15,13,14,37)        -67.2963         estimate D2E/DX2                !
 ! D128  D(15,13,14,38)         50.0752         estimate D2E/DX2                !
 ! D129  D(15,13,14,62)        170.369          estimate D2E/DX2                !
 ! D130  D(36,13,14,37)        173.8319         estimate D2E/DX2                !
 ! D131  D(36,13,14,38)        -68.7966         estimate D2E/DX2                !
 ! D132  D(36,13,14,62)         51.4972         estimate D2E/DX2                !
 ! D133  D(11,13,15,39)        175.7115         estimate D2E/DX2                !
 ! D134  D(11,13,15,40)         55.6533         estimate D2E/DX2                !
 ! D135  D(11,13,15,41)        -64.0414         estimate D2E/DX2                !
 ! D136  D(14,13,15,39)        -62.5063         estimate D2E/DX2                !
 ! D137  D(14,13,15,40)        177.4354         estimate D2E/DX2                !
 ! D138  D(14,13,15,41)         57.7408         estimate D2E/DX2                !
 ! D139  D(36,13,15,39)         56.5317         estimate D2E/DX2                !
 ! D140  D(36,13,15,40)        -63.5266         estimate D2E/DX2                !
 ! D141  D(36,13,15,41)        176.7788         estimate D2E/DX2                !
 ! D142  D(13,14,62,63)         65.9196         estimate D2E/DX2                !
 ! D143  D(13,14,62,64)        -55.2496         estimate D2E/DX2                !
 ! D144  D(13,14,62,65)       -174.8273         estimate D2E/DX2                !
 ! D145  D(37,14,62,63)        -57.357          estimate D2E/DX2                !
 ! D146  D(37,14,62,64)       -178.5262         estimate D2E/DX2                !
 ! D147  D(37,14,62,65)         61.8961         estimate D2E/DX2                !
 ! D148  D(38,14,62,63)       -173.1033         estimate D2E/DX2                !
 ! D149  D(38,14,62,64)         65.7275         estimate D2E/DX2                !
 ! D150  D(38,14,62,65)        -53.8503         estimate D2E/DX2                !
 ! D151  D(7,17,18,19)         -31.8948         estimate D2E/DX2                !
 ! D152  D(7,17,18,28)          85.8606         estimate D2E/DX2                !
 ! D153  D(7,17,18,29)        -150.584          estimate D2E/DX2                !
 ! D154  D(20,17,18,19)         77.8414         estimate D2E/DX2                !
 ! D155  D(20,17,18,28)       -164.4032         estimate D2E/DX2                !
 ! D156  D(20,17,18,29)        -40.8478         estimate D2E/DX2                !
 ! D157  D(30,17,18,19)       -154.0173         estimate D2E/DX2                !
 ! D158  D(30,17,18,28)        -36.2619         estimate D2E/DX2                !
 ! D159  D(30,17,18,29)         87.2935         estimate D2E/DX2                !
 ! D160  D(7,17,20,3)          -36.5365         estimate D2E/DX2                !
 ! D161  D(7,17,20,42)        -157.7333         estimate D2E/DX2                !
 ! D162  D(7,17,20,43)          83.0553         estimate D2E/DX2                !
 ! D163  D(18,17,20,3)        -146.6641         estimate D2E/DX2                !
 ! D164  D(18,17,20,42)         92.1391         estimate D2E/DX2                !
 ! D165  D(18,17,20,43)        -27.0723         estimate D2E/DX2                !
 ! D166  D(30,17,20,3)          84.4942         estimate D2E/DX2                !
 ! D167  D(30,17,20,42)        -36.7026         estimate D2E/DX2                !
 ! D168  D(30,17,20,43)       -155.914          estimate D2E/DX2                !
 ! D169  D(17,18,19,8)          15.415          estimate D2E/DX2                !
 ! D170  D(28,18,19,8)        -105.4563         estimate D2E/DX2                !
 ! D171  D(29,18,19,8)         137.544          estimate D2E/DX2                !
 ! D172  D(17,18,28,53)        -61.8884         estimate D2E/DX2                !
 ! D173  D(17,18,28,54)       -179.3634         estimate D2E/DX2                !
 ! D174  D(17,18,28,55)         60.2736         estimate D2E/DX2                !
 ! D175  D(19,18,28,53)         54.4538         estimate D2E/DX2                !
 ! D176  D(19,18,28,54)        -63.0211         estimate D2E/DX2                !
 ! D177  D(19,18,28,55)        176.6158         estimate D2E/DX2                !
 ! D178  D(29,18,28,53)        171.583          estimate D2E/DX2                !
 ! D179  D(29,18,28,54)         54.108          estimate D2E/DX2                !
 ! D180  D(29,18,28,55)        -66.255          estimate D2E/DX2                !
 ! D181  D(17,18,29,56)        -57.3169         estimate D2E/DX2                !
 ! D182  D(17,18,29,57)       -177.8303         estimate D2E/DX2                !
 ! D183  D(17,18,29,58)         64.9962         estimate D2E/DX2                !
 ! D184  D(19,18,29,56)       -174.4198         estimate D2E/DX2                !
 ! D185  D(19,18,29,57)         65.0668         estimate D2E/DX2                !
 ! D186  D(19,18,29,58)        -52.1067         estimate D2E/DX2                !
 ! D187  D(28,18,29,56)         68.6831         estimate D2E/DX2                !
 ! D188  D(28,18,29,57)        -51.8304         estimate D2E/DX2                !
 ! D189  D(28,18,29,58)       -169.0038         estimate D2E/DX2                !
 ! D190  D(5,22,23,24)          39.5865         estimate D2E/DX2                !
 ! D191  D(5,22,23,25)         162.1676         estimate D2E/DX2                !
 ! D192  D(5,22,23,47)         -74.0778         estimate D2E/DX2                !
 ! D193  D(45,22,23,24)        161.7737         estimate D2E/DX2                !
 ! D194  D(45,22,23,25)        -75.6451         estimate D2E/DX2                !
 ! D195  D(45,22,23,47)         48.1094         estimate D2E/DX2                !
 ! D196  D(46,22,23,24)        -78.167          estimate D2E/DX2                !
 ! D197  D(46,22,23,25)         44.4142         estimate D2E/DX2                !
 ! D198  D(46,22,23,47)        168.1687         estimate D2E/DX2                !
 ! D199  D(22,23,24,4)         -27.6227         estimate D2E/DX2                !
 ! D200  D(25,23,24,4)        -152.7027         estimate D2E/DX2                !
 ! D201  D(47,23,24,4)          88.659          estimate D2E/DX2                !
 ! D202  D(22,23,25,26)        -70.4298         estimate D2E/DX2                !
 ! D203  D(22,23,25,27)        109.7519         estimate D2E/DX2                !
 ! D204  D(24,23,25,26)         48.726          estimate D2E/DX2                !
 ! D205  D(24,23,25,27)       -131.0923         estimate D2E/DX2                !
 ! D206  D(47,23,25,26)        165.4764         estimate D2E/DX2                !
 ! D207  D(47,23,25,27)        -14.3419         estimate D2E/DX2                !
 ! D208  D(23,25,26,48)        -66.9555         estimate D2E/DX2                !
 ! D209  D(23,25,26,49)         54.0805         estimate D2E/DX2                !
 ! D210  D(23,25,26,50)        173.7101         estimate D2E/DX2                !
 ! D211  D(27,25,26,48)        112.8638         estimate D2E/DX2                !
 ! D212  D(27,25,26,49)       -126.1001         estimate D2E/DX2                !
 ! D213  D(27,25,26,50)         -6.4706         estimate D2E/DX2                !
 ! D214  D(23,25,27,51)         -0.0548         estimate D2E/DX2                !
 ! D215  D(23,25,27,52)        179.7922         estimate D2E/DX2                !
 ! D216  D(26,25,27,51)       -179.8706         estimate D2E/DX2                !
 ! D217  D(26,25,27,52)         -0.0236         estimate D2E/DX2                !
 --------------------------------------------------------------------------------
 Trust Radius=3.00D-01 FncErr=1.00D-07 GrdErr=1.00D-06
 Number of steps in this run=    390 maximum allowed number of steps=    390.
 GradGradGradGradGradGradGradGradGradGradGradGradGradGradGradGradGradGrad

 Stoichiometry    C26H34O5
 Framework group  C1[X(C26H34O5)]
 Deg. of freedom   189
 Full point group                 C1      NOp   1
 Largest Abelian subgroup         C1      NOp   1
 Largest concise Abelian subgroup C1      NOp   1
                         Standard orientation:                         
 ---------------------------------------------------------------------
 Center     Atomic      Atomic             Coordinates (Angstroms)
 Number     Number       Type             X           Y           Z
 ---------------------------------------------------------------------
      1          6           0       -1.459099   -0.211250    3.139205
      2          6           0       -1.479419    1.072314    2.754951
      3          6           0       -1.606817    1.471922    1.305673
      4          6           0       -1.453974    0.333592    0.255293
      5          6           0       -1.158195   -1.099122    0.750979
      6          6           0       -1.589712   -1.370668    2.209823
      7          6           0       -0.387445    0.850691   -0.728648
      8          6           0        1.020313    0.513957   -0.382361
      9          6           0        1.366899   -0.599724    0.271739
     10          6           0        0.299080   -1.569432    0.602420
     11          6           0        2.788173   -0.839698    0.625280
     12          8           0        3.362205   -0.077441    1.404509
     13          6           0        3.483051   -2.050668    0.010460
     14          6           0        4.705766   -1.622079   -0.815338
     15          6           0        3.910044   -2.993816    1.135800
     16          8           0        0.594505   -2.752549    0.783872
     17          6           0       -0.332705    2.356210   -0.596547
     18          6           0        1.100810    2.682897   -1.065272
     19          8           0        1.908196    1.542986   -0.677293
     20          6           0       -0.584566    2.552358    0.905091
     21          8           0       -0.649966    0.427217   -2.055407
     22          6           0       -2.017969   -1.945318   -0.197973
     23          6           0       -3.235159   -1.062051   -0.403641
     24          8           0       -2.712366    0.270648   -0.503575
     25          6           0       -4.081510   -1.407445   -1.603306
     26          6           0       -3.538641   -1.135197   -2.977465
     27          6           0       -5.304128   -1.946964   -1.451805
     28          6           0        1.205155    2.842601   -2.590619
     29          6           0        1.690125    3.937516   -0.411608
     30          1           0       -1.093700    2.873488   -1.192062
     31          1           0       -2.606788    1.915440    1.190602
     32          6           0       -1.459333    2.179319    3.777339
     33          1           0       -1.407655   -0.456216    4.199235
     34          1           0       -2.633765   -1.703094    2.264947
     35          1           0       -1.006992   -2.199371    2.632352
     36          1           0        2.783890   -2.583774   -0.644280
     37          1           0        5.374242   -0.991653   -0.216442
     38          1           0        5.279393   -2.512316   -1.101440
     39          1           0        4.345681   -3.912091    0.728465
     40          1           0        3.057446   -3.274029    1.762869
     41          1           0        4.655464   -2.525559    1.788378
     42          1           0       -0.962477    3.560687    1.109070
     43          1           0        0.336572    2.430295    1.488199
     44          1           0       -1.608137    0.575053   -2.179418
     45          1           0       -2.282449   -2.928627    0.206952
     46          1           0       -1.484616   -2.118544   -1.140993
     47          1           0       -3.862296   -1.076145    0.496808
     48          1           0       -3.444501   -0.058095   -3.144120
     49          1           0       -2.559636   -1.603069   -3.113859
     50          1           0       -4.194796   -1.528168   -3.761999
     51          1           0       -5.720908   -2.151863   -0.470312
     52          1           0       -5.925399   -2.197391   -2.306743
     53          1           0        0.940391    1.927718   -3.127087
     54          1           0        2.238521    3.062419   -2.884630
     55          1           0        0.565567    3.655360   -2.949712
     56          1           0        1.060388    4.814597   -0.592284
     57          1           0        2.691571    4.145709   -0.806581
     58          1           0        1.826230    3.815109    0.667300
     59          1           0       -1.519709    1.795157    4.801316
     60          1           0       -0.538286    2.764901    3.700453
     61          1           0       -2.313355    2.848052    3.627798
     62          6           0        4.329709   -0.873899   -2.086895
     63          1           0        3.860521    0.086897   -1.861459
     64          1           0        3.640336   -1.461557   -2.701192
     65          1           0        5.225952   -0.672498   -2.682423
 ---------------------------------------------------------------------
 Rotational constants (GHZ):      0.1964741      0.1287920      0.1200742
 Standard basis: 6-31G(d) (6D, 7F)
 There are   533 symmetry adapted basis functions of A   symmetry.
 Integral buffers will be    131072 words long.
 Raffenetti 2 integral format.
 Two-electron integral symmetry is turned on.
   533 basis functions,  1004 primitive gaussians,   533 cartesian basis functions
   115 alpha electrons      115 beta electrons
       nuclear repulsion energy      3528.9997666751 Hartrees.
 NAtoms=   65 NActive=   65 NUniq=   65 SFac= 1.00D+00 NAtFMM=   50 NAOKFM=T Big=T
 One-electron integrals computed using PRISM.
 NBasis=   533 RedAO= T  NBF=   533
 NBsUse=   533 1.00D-06 NBFU=   533
 Harris functional with IExCor=  402 diagonalized for initial guess.
 ExpMin= 1.61D-01 ExpMax= 5.48D+03 ExpMxC= 8.25D+02 IAcc=1 IRadAn=         1 AccDes= 0.00D+00
 HarFok:  IExCor=  402 AccDes= 0.00D+00 IRadAn=         1 IDoV= 1
 ScaDFX=  1.000000  1.000000  1.000000  1.000000
 FoFCou: FMM=F IPFlag=           0 FMFlag=      100000 FMFlg1=        2001
         NFxFlg=           0 DoJE=T BraDBF=F KetDBF=T FulRan=T
         Omega=  0.000000  0.000000  1.000000  0.000000  0.000000 ICntrl=     500 IOpCl=  0
         NMat0=    1 NMatS0=    1 NMatT0=    0 NMatD0=    1 NMtDS0=    0 NMtDT0=    0
         I1Cent=           4 NGrid=           0.
 Petite list used in FoFCou.
 Initial guess orbital symmetries:
       Occupied  (A) (A) (A) (A) (A) (A) (A) (A) (A) (A) (A) (A)
                 (A) (A) (A) (A) (A) (A) (A) (A) (A) (A) (A) (A)
                 (A) (A) (A) (A) (A) (A) (A) (A) (A) (A) (A) (A)
                 (A) (A) (A) (A) (A) (A) (A) (A) (A) (A) (A) (A)
                 (A) (A) (A) (A) (A) (A) (A) (A) (A) (A) (A) (A)
                 (A) (A) (A) (A) (A) (A) (A) (A) (A) (A) (A) (A)
                 (A) (A) (A) (A) (A) (A) (A) (A) (A) (A) (A) (A)
                 (A) (A) (A) (A) (A) (A) (A) (A) (A) (A) (A) (A)
                 (A) (A) (A) (A) (A) (A) (A) (A) (A) (A) (A) (A)
                 (A) (A) (A) (A) (A) (A) (A)
       Virtual   (A) (A) (A) (A) (A) (A) (A) (A) (A) (A) (A) (A)
                 (A) (A) (A) (A) (A) (A) (A) (A) (A) (A) (A) (A)
                 (A) (A) (A) (A) (A) (A) (A) (A) (A) (A) (A) (A)
                 (A) (A) (A) (A) (A) (A) (A) (A) (A) (A) (A) (A)
                 (A) (A) (A) (A) (A) (A) (A) (A) (A) (A) (A) (A)
                 (A) (A) (A) (A) (A) (A) (A) (A) (A) (A) (A) (A)
                 (A) (A) (A) (A) (A) (A) (A) (A) (A) (A) (A) (A)
                 (A) (A) (A) (A) (A) (A) (A) (A) (A) (A) (A) (A)
                 (A) (A) (A) (A) (A) (A) (A) (A) (A) (A) (A) (A)
                 (A) (A) (A) (A) (A) (A) (A) (A) (A) (A) (A) (A)
                 (A) (A) (A) (A) (A) (A) (A) (A) (A) (A) (A) (A)
                 (A) (A) (A) (A) (A) (A) (A) (A) (A) (A) (A) (A)
                 (A) (A) (A) (A) (A) (A) (A) (A) (A) (A) (A) (A)
                 (A) (A) (A) (A) (A) (A) (A) (A) (A) (A) (A) (A)
                 (A) (A) (A) (A) (A) (A) (A) (A) (A) (A) (A) (A)
                 (A) (A) (A) (A) (A) (A) (A) (A) (A) (A) (A) (A)
                 (A) (A) (A) (A) (A) (A) (A) (A) (A) (A) (A) (A)
                 (A) (A) (A) (A) (A) (A) (A) (A) (A) (A) (A) (A)
                 (A) (A) (A) (A) (A) (A) (A) (A) (A) (A) (A) (A)
                 (A) (A) (A) (A) (A) (A) (A) (A) (A) (A) (A) (A)
                 (A) (A) (A) (A) (A) (A) (A) (A) (A) (A) (A) (A)
                 (A) (A) (A) (A) (A) (A) (A) (A) (A) (A) (A) (A)
                 (A) (A) (A) (A) (A) (A) (A) (A) (A) (A) (A) (A)
                 (A) (A) (A) (A) (A) (A) (A) (A) (A) (A) (A) (A)
                 (A) (A) (A) (A) (A) (A) (A) (A) (A) (A) (A) (A)
                 (A) (A) (A) (A) (A) (A) (A) (A) (A) (A) (A) (A)
                 (A) (A) (A) (A) (A) (A) (A) (A) (A) (A) (A) (A)
                 (A) (A) (A) (A) (A) (A) (A) (A) (A) (A) (A) (A)
                 (A) (A) (A) (A) (A) (A) (A) (A) (A) (A) (A) (A)
                 (A) (A) (A) (A) (A) (A) (A) (A) (A) (A) (A) (A)
                 (A) (A) (A) (A) (A) (A) (A) (A) (A) (A) (A) (A)
                 (A) (A) (A) (A) (A) (A) (A) (A) (A) (A) (A) (A)
                 (A) (A) (A) (A) (A) (A) (A) (A) (A) (A) (A) (A)
                 (A) (A) (A) (A) (A) (A) (A) (A) (A) (A) (A) (A)
                 (A) (A) (A) (A) (A) (A) (A) (A) (A) (A)
 The electronic state of the initial guess is 1-A.
 Requested convergence on RMS density matrix=1.00D-08 within 128 cycles.
 Requested convergence on MAX density matrix=1.00D-06.
 Requested convergence on             energy=1.00D-06.
 No special actions if energy rises.
 Integral accuracy reduced to 1.0D-05 until final iterations.
 Initial convergence to 1.0D-05 achieved.  Increase integral accuracy.
 SCF Done:  E(RB3LYP) =  -1387.30335900     A.U. after   16 cycles
             Convg  =    0.4591D-08             -V/T =  2.0091

 **********************************************************************

            Population analysis using the SCF density.

 **********************************************************************

 Orbital symmetries:
       Occupied  (A) (A) (A) (A) (A) (A) (A) (A) (A) (A) (A) (A)
                 (A) (A) (A) (A) (A) (A) (A) (A) (A) (A) (A) (A)
                 (A) (A) (A) (A) (A) (A) (A) (A) (A) (A) (A) (A)
                 (A) (A) (A) (A) (A) (A) (A) (A) (A) (A) (A) (A)
                 (A) (A) (A) (A) (A) (A) (A) (A) (A) (A) (A) (A)
                 (A) (A) (A) (A) (A) (A) (A) (A) (A) (A) (A) (A)
                 (A) (A) (A) (A) (A) (A) (A) (A) (A) (A) (A) (A)
                 (A) (A) (A) (A) (A) (A) (A) (A) (A) (A) (A) (A)
                 (A) (A) (A) (A) (A) (A) (A) (A) (A) (A) (A) (A)
                 (A) (A) (A) (A) (A) (A) (A)
       Virtual   (A) (A) (A) (A) (A) (A) (A) (A) (A) (A) (A) (A)
                 (A) (A) (A) (A) (A) (A) (A) (A) (A) (A) (A) (A)
                 (A) (A) (A) (A) (A) (A) (A) (A) (A) (A) (A) (A)
                 (A) (A) (A) (A) (A) (A) (A) (A) (A) (A) (A) (A)
                 (A) (A) (A) (A) (A) (A) (A) (A) (A) (A) (A) (A)
                 (A) (A) (A) (A) (A) (A) (A) (A) (A) (A) (A) (A)
                 (A) (A) (A) (A) (A) (A) (A) (A) (A) (A) (A) (A)
                 (A) (A) (A) (A) (A) (A) (A) (A) (A) (A) (A) (A)
                 (A) (A) (A) (A) (A) (A) (A) (A) (A) (A) (A) (A)
                 (A) (A) (A) (A) (A) (A) (A) (A) (A) (A) (A) (A)
                 (A) (A) (A) (A) (A) (A) (A) (A) (A) (A) (A) (A)
                 (A) (A) (A) (A) (A) (A) (A) (A) (A) (A) (A) (A)
                 (A) (A) (A) (A) (A) (A) (A) (A) (A) (A) (A) (A)
                 (A) (A) (A) (A) (A) (A) (A) (A) (A) (A) (A) (A)
                 (A) (A) (A) (A) (A) (A) (A) (A) (A) (A) (A) (A)
                 (A) (A) (A) (A) (A) (A) (A) (A) (A) (A) (A) (A)
                 (A) (A) (A) (A) (A) (A) (A) (A) (A) (A) (A) (A)
                 (A) (A) (A) (A) (A) (A) (A) (A) (A) (A) (A) (A)
                 (A) (A) (A) (A) (A) (A) (A) (A) (A) (A) (A) (A)
                 (A) (A) (A) (A) (A) (A) (A) (A) (A) (A) (A) (A)
                 (A) (A) (A) (A) (A) (A) (A) (A) (A) (A) (A) (A)
                 (A) (A) (A) (A) (A) (A) (A) (A) (A) (A) (A) (A)
                 (A) (A) (A) (A) (A) (A) (A) (A) (A) (A) (A) (A)
                 (A) (A) (A) (A) (A) (A) (A) (A) (A) (A) (A) (A)
                 (A) (A) (A) (A) (A) (A) (A) (A) (A) (A) (A) (A)
                 (A) (A) (A) (A) (A) (A) (A) (A) (A) (A) (A) (A)
                 (A) (A) (A) (A) (A) (A) (A) (A) (A) (A) (A) (A)
                 (A) (A) (A) (A) (A) (A) (A) (A) (A) (A) (A) (A)
                 (A) (A) (A) (A) (A) (A) (A) (A) (A) (A) (A) (A)
                 (A) (A) (A) (A) (A) (A) (A) (A) (A) (A) (A) (A)
                 (A) (A) (A) (A) (A) (A) (A) (A) (A) (A) (A) (A)
                 (A) (A) (A) (A) (A) (A) (A) (A) (A) (A) (A) (A)
                 (A) (A) (A) (A) (A) (A) (A) (A) (A) (A) (A) (A)
                 (A) (A) (A) (A) (A) (A) (A) (A) (A) (A) (A) (A)
                 (A) (A) (A) (A) (A) (A) (A) (A) (A) (A)
 The electronic state is 1-A.
 Alpha  occ. eigenvalues --  -19.19514 -19.16690 -19.15513 -19.13634 -19.13120
 Alpha  occ. eigenvalues --  -10.28143 -10.27033 -10.26830 -10.26002 -10.25977
 Alpha  occ. eigenvalues --  -10.25591 -10.24795 -10.21816 -10.20537 -10.20218
 Alpha  occ. eigenvalues --  -10.20136 -10.19636 -10.19455 -10.19409 -10.19405
 Alpha  occ. eigenvalues --  -10.19312 -10.18966 -10.18570 -10.18428 -10.18398
 Alpha  occ. eigenvalues --  -10.18139 -10.17941 -10.17647 -10.17100 -10.16078
 Alpha  occ. eigenvalues --  -10.16042  -1.08450  -1.05909  -1.03480  -1.02509
 Alpha  occ. eigenvalues --   -1.02203  -0.87389  -0.83980  -0.82688  -0.81736
 Alpha  occ. eigenvalues --   -0.80398  -0.79678  -0.76978  -0.74389  -0.73710
 Alpha  occ. eigenvalues --   -0.72231  -0.71649  -0.69695  -0.69391  -0.67977
 Alpha  occ. eigenvalues --   -0.65296  -0.64168  -0.63027  -0.61726  -0.60870
 Alpha  occ. eigenvalues --   -0.59449  -0.59116  -0.57422  -0.54825  -0.53852
 Alpha  occ. eigenvalues --   -0.53175  -0.52114  -0.50922  -0.50514  -0.49353
 Alpha  occ. eigenvalues --   -0.48628  -0.47776  -0.46776  -0.46135  -0.45607
 Alpha  occ. eigenvalues --   -0.45133  -0.44639  -0.44171  -0.43672  -0.43366
 Alpha  occ. eigenvalues --   -0.42751  -0.42265  -0.42104  -0.41628  -0.41330
 Alpha  occ. eigenvalues --   -0.40965  -0.40692  -0.40484  -0.40195  -0.39834
 Alpha  occ. eigenvalues --   -0.39304  -0.38842  -0.38533  -0.38410  -0.38197
 Alpha  occ. eigenvalues --   -0.37517  -0.37423  -0.36978  -0.36776  -0.36434
 Alpha  occ. eigenvalues --   -0.36127  -0.35196  -0.34821  -0.34628  -0.34191
 Alpha  occ. eigenvalues --   -0.33852  -0.33471  -0.32904  -0.32663  -0.32054
 Alpha  occ. eigenvalues --   -0.31940  -0.31491  -0.30717  -0.28041  -0.26990
 Alpha  occ. eigenvalues --   -0.25613  -0.25200  -0.24444  -0.23412  -0.23369
 Alpha virt. eigenvalues --   -0.05345  -0.01872   0.00707   0.02200   0.03843
 Alpha virt. eigenvalues --    0.06943   0.07999   0.08729   0.09370   0.09860
 Alpha virt. eigenvalues --    0.10499   0.10808   0.11666   0.11864   0.12683
 Alpha virt. eigenvalues --    0.12763   0.13203   0.13517   0.14020   0.14256
 Alpha virt. eigenvalues --    0.14324   0.14567   0.14917   0.15424   0.16079
 Alpha virt. eigenvalues --    0.16527   0.16652   0.17055   0.17306   0.17784
 Alpha virt. eigenvalues --    0.18146   0.18357   0.18396   0.18820   0.19388
 Alpha virt. eigenvalues --    0.19590   0.19659   0.19821   0.20063   0.20417
 Alpha virt. eigenvalues --    0.21063   0.21167   0.21894   0.22045   0.22443
 Alpha virt. eigenvalues --    0.22937   0.23351   0.23814   0.24441   0.24584
 Alpha virt. eigenvalues --    0.24865   0.26061   0.26359   0.26516   0.26634
 Alpha virt. eigenvalues --    0.27267   0.27995   0.28438   0.28772   0.29451
 Alpha virt. eigenvalues --    0.30886   0.32017   0.32952   0.33632   0.34770
 Alpha virt. eigenvalues --    0.35111   0.36446   0.37291   0.37672   0.39811
 Alpha virt. eigenvalues --    0.42748   0.45375   0.46167   0.47809   0.48129
 Alpha virt. eigenvalues --    0.50115   0.50350   0.51203   0.51346   0.51488
 Alpha virt. eigenvalues --    0.52128   0.52449   0.52831   0.53487   0.53931
 Alpha virt. eigenvalues --    0.54281   0.54743   0.55256   0.55817   0.56538
 Alpha virt. eigenvalues --    0.57251   0.57608   0.57882   0.58293   0.59107
 Alpha virt. eigenvalues --    0.59960   0.60543   0.60744   0.61753   0.62152
 Alpha virt. eigenvalues --    0.62966   0.63193   0.63324   0.64251   0.64720
 Alpha virt. eigenvalues --    0.65362   0.65949   0.66258   0.66880   0.67514
 Alpha virt. eigenvalues --    0.67668   0.67988   0.68166   0.68589   0.69586
 Alpha virt. eigenvalues --    0.69630   0.70950   0.71617   0.72699   0.73526
 Alpha virt. eigenvalues --    0.74117   0.75099   0.75796   0.76095   0.76866
 Alpha virt. eigenvalues --    0.77731   0.77828   0.78297   0.79204   0.79362
 Alpha virt. eigenvalues --    0.79948   0.80670   0.81109   0.81421   0.82432
 Alpha virt. eigenvalues --    0.82754   0.83487   0.84111   0.84382   0.84935
 Alpha virt. eigenvalues --    0.85304   0.85883   0.86254   0.86897   0.87292
 Alpha virt. eigenvalues --    0.87343   0.88081   0.88724   0.88953   0.89099
 Alpha virt. eigenvalues --    0.89478   0.90026   0.90084   0.90690   0.90869
 Alpha virt. eigenvalues --    0.91238   0.91585   0.91683   0.92237   0.92410
 Alpha virt. eigenvalues --    0.92732   0.93415   0.94074   0.94989   0.95174
 Alpha virt. eigenvalues --    0.95334   0.96047   0.96569   0.96913   0.97050
 Alpha virt. eigenvalues --    0.97350   0.98108   0.99230   0.99576   1.00281
 Alpha virt. eigenvalues --    1.00478   1.00711   1.01413   1.03336   1.03743
 Alpha virt. eigenvalues --    1.05071   1.05449   1.06177   1.07116   1.07755
 Alpha virt. eigenvalues --    1.08616   1.09286   1.10545   1.11715   1.12664
 Alpha virt. eigenvalues --    1.13057   1.13464   1.15622   1.16635   1.17171
 Alpha virt. eigenvalues --    1.18288   1.18429   1.19440   1.19514   1.21718
 Alpha virt. eigenvalues --    1.22758   1.23485   1.24698   1.25510   1.26938
 Alpha virt. eigenvalues --    1.27823   1.29685   1.30164   1.30960   1.32216
 Alpha virt. eigenvalues --    1.34724   1.35487   1.38128   1.39048   1.40203
 Alpha virt. eigenvalues --    1.41964   1.42336   1.43180   1.46533   1.47443
 Alpha virt. eigenvalues --    1.48664   1.49327   1.50161   1.51014   1.51290
 Alpha virt. eigenvalues --    1.53605   1.54335   1.55868   1.56776   1.57476
 Alpha virt. eigenvalues --    1.58837   1.60086   1.60651   1.61850   1.63124
 Alpha virt. eigenvalues --    1.65096   1.66228   1.67676   1.68441   1.68699
 Alpha virt. eigenvalues --    1.69687   1.70412   1.72756   1.73449   1.74528
 Alpha virt. eigenvalues --    1.75030   1.75585   1.76757   1.77293   1.77892
 Alpha virt. eigenvalues --    1.78983   1.80441   1.80979   1.81184   1.82503
 Alpha virt. eigenvalues --    1.82800   1.83287   1.83864   1.84736   1.84987
 Alpha virt. eigenvalues --    1.85720   1.87205   1.87889   1.88148   1.89267
 Alpha virt. eigenvalues --    1.89345   1.90005   1.90676   1.91709   1.92270
 Alpha virt. eigenvalues --    1.92283   1.93127   1.93514   1.93824   1.95238
 Alpha virt. eigenvalues --    1.95477   1.96453   1.97296   1.97562   1.97918
 Alpha virt. eigenvalues --    1.98773   1.99959   2.00621   2.01142   2.02371
 Alpha virt. eigenvalues --    2.02929   2.04108   2.04514   2.05431   2.06051
 Alpha virt. eigenvalues --    2.06683   2.07129   2.08106   2.09284   2.09560
 Alpha virt. eigenvalues --    2.10782   2.12131   2.12381   2.13344   2.14900
 Alpha virt. eigenvalues --    2.15240   2.15617   2.16975   2.18987   2.19184
 Alpha virt. eigenvalues --    2.20276   2.20585   2.21560   2.22463   2.22918
 Alpha virt. eigenvalues --    2.23176   2.24116   2.25048   2.25642   2.27040
 Alpha virt. eigenvalues --    2.27678   2.28956   2.29415   2.30254   2.31191
 Alpha virt. eigenvalues --    2.32392   2.33418   2.33880   2.33957   2.35386
 Alpha virt. eigenvalues --    2.36930   2.37614   2.38145   2.38825   2.39334
 Alpha virt. eigenvalues --    2.40134   2.41656   2.41909   2.43007   2.43817
 Alpha virt. eigenvalues --    2.44563   2.44934   2.45808   2.47749   2.48808
 Alpha virt. eigenvalues --    2.50101   2.50668   2.52298   2.52657   2.54721
 Alpha virt. eigenvalues --    2.55881   2.57053   2.58067   2.59300   2.59869
 Alpha virt. eigenvalues --    2.61145   2.62415   2.63522   2.65365   2.66009
 Alpha virt. eigenvalues --    2.67235   2.68428   2.70093   2.71018   2.72679
 Alpha virt. eigenvalues --    2.72946   2.74245   2.75041   2.77569   2.78742
 Alpha virt. eigenvalues --    2.80099   2.80472   2.81497   2.83573   2.85540
 Alpha virt. eigenvalues --    2.88670   2.90148   2.92791   2.94532   2.95850
 Alpha virt. eigenvalues --    2.97160   2.99337   3.01219   3.02388   3.02509
 Alpha virt. eigenvalues --    3.05490   3.07632   3.13420   3.16998   3.19434
 Alpha virt. eigenvalues --    3.23024   3.29847   4.02010   4.07423   4.10363
 Alpha virt. eigenvalues --    4.12554   4.14743   4.16669   4.17370   4.19459
 Alpha virt. eigenvalues --    4.22276   4.23802   4.27475   4.30135   4.30788
 Alpha virt. eigenvalues --    4.32668   4.36272   4.37275   4.42373   4.44691
 Alpha virt. eigenvalues --    4.48785   4.49961   4.52415   4.56277   4.60403
 Alpha virt. eigenvalues --    4.62673   4.67101   4.71026   4.72255   4.80500
 Alpha virt. eigenvalues --    4.93195   5.00766   5.21092
          Condensed to atoms (all electrons):
 Mulliken atomic charges:
              1
     1  C   -0.192206
     2  C    0.192744
     3  C   -0.188460
     4  C    0.327552
     5  C   -0.034644
     6  C   -0.335993
     7  C    0.196555
     8  C    0.403162
     9  C   -0.086080
    10  C    0.407763
    11  C    0.416323
    12  O   -0.463561
    13  C   -0.130025
    14  C   -0.251753
    15  C   -0.455812
    16  O   -0.499940
    17  C   -0.163921
    18  C    0.311679
    19  O   -0.528703
    20  C   -0.320663
    21  O   -0.664683
    22  C   -0.311130
    23  C    0.087703
    24  O   -0.590435
    25  C    0.226428
    26  C   -0.531762
    27  C   -0.401454
    28  C   -0.463236
    29  C   -0.462951
    30  H    0.142877
    31  H    0.163563
    32  C   -0.517696
    33  H    0.122813
    34  H    0.153637
    35  H    0.178291
    36  H    0.143031
    37  H    0.152555
    38  H    0.130657
    39  H    0.139628
    40  H    0.164119
    41  H    0.156216
    42  H    0.148219
    43  H    0.174379
    44  H    0.422219
    45  H    0.169099
    46  H    0.168283
    47  H    0.133115
    48  H    0.159363
    49  H    0.172985
    50  H    0.158584
    51  H    0.138857
    52  H    0.141855
    53  H    0.183325
    54  H    0.151138
    55  H    0.138676
    56  H    0.147991
    57  H    0.159442
    58  H    0.164399
    59  H    0.157868
    60  H    0.161867
    61  H    0.149191
    62  C   -0.464594
    63  H    0.163636
    64  H    0.139620
    65  H    0.138296
 Sum of Mulliken atomic charges =   0.00000
 Mulliken charges with hydrogens summed into heavy atoms:
              1
     1  C   -0.069394
     2  C    0.192744
     3  C   -0.024897
     4  C    0.327552
     5  C   -0.034644
     6  C   -0.004065
     7  C    0.196555
     8  C    0.403162
     9  C   -0.086080
    10  C    0.407763
    11  C    0.416323
    12  O   -0.463561
    13  C    0.013006
    14  C    0.031459
    15  C    0.004151
    16  O   -0.499940
    17  C   -0.021044
    18  C    0.311679
    19  O   -0.528703
    20  C    0.001934
    21  O   -0.242464
    22  C    0.026252
    23  C    0.220817
    24  O   -0.590435
    25  C    0.226428
    26  C   -0.040830
    27  C   -0.120741
    28  C    0.009903
    29  C    0.008881
    32  C   -0.048770
    62  C   -0.023041
 Sum of Mulliken charges with hydrogens summed into heavy atoms =   0.00000
 Electronic spatial extent (au):  <R**2>=          11287.3755
 Charge=              0.0000 electrons
 Dipole moment (field-independent basis, Debye):
    X=             -4.0760    Y=              2.4311    Z=             -1.0905  Tot=              4.8696
 Quadrupole moment (field-independent basis, Debye-Ang):
   XX=           -187.1968   YY=           -179.1430   ZZ=           -181.4543
   XY=              1.6709   XZ=             -5.4251   YZ=              0.5292
 Traceless Quadrupole moment (field-independent basis, Debye-Ang):
   XX=             -4.5987   YY=              3.4550   ZZ=              1.1437
   XY=              1.6709   XZ=             -5.4251   YZ=              0.5292
 Octapole moment (field-independent basis, Debye-Ang**2):
  XXX=            -23.2488  YYY=             60.8623  ZZZ=              1.4816  XYY=             -0.0432
  XXY=            -31.5333  XXZ=            -34.3574  XZZ=            -28.2469  YZZ=             -0.8884
  YYZ=            -12.1482  XYZ=             -3.3719
 Hexadecapole moment (field-independent basis, Debye-Ang**3):
 XXXX=          -7687.3905 YYYY=          -4127.8549 ZZZZ=          -3290.4246 XXXY=             51.6280
 XXXZ=            -15.8351 YYYX=              0.6612 YYYZ=            -17.6026 ZZZX=             54.8043
 ZZZY=            -13.0447 XXYY=          -1902.7419 XXZZ=          -1813.5911 YYZZ=          -1220.9486
 XXYZ=             10.0830 YYXZ=            -10.4933 ZZXY=             22.1474
 N-N= 3.528999766675D+03 E-N=-1.028436177308D+04  KE= 1.374813019785D+03
 Calling FoFJK, ICntrl=      2127 FMM=T ISym2X=0 I1Cent= 0 IOpClX= 0 NMat=1 NMatS=1 NMatT=0.
 ***** Axes restored to original set *****
 -------------------------------------------------------------------
 Center     Atomic                   Forces (Hartrees/Bohr)
 Number     Number              X              Y              Z
 -------------------------------------------------------------------
      1        6           0.009880381   -0.000740512    0.000287249
      2        6          -0.011807292   -0.005677882    0.002704938
      3        6          -0.001232163   -0.008555813   -0.000878551
      4        6           0.004233409   -0.004568094    0.010865662
      5        6          -0.011307398    0.001311277    0.000023185
      6        6          -0.004793478   -0.011568932   -0.001802916
      7        6           0.011423694    0.020686161    0.009537005
      8        6           0.013100552   -0.015467837   -0.018595168
      9        6           0.000426811    0.002572528    0.009382149
     10        6          -0.007473357    0.003478017   -0.020727227
     11        6          -0.001428264   -0.017627691   -0.014947976
     12        8          -0.007605941    0.018267684    0.005802030
     13        6          -0.003213882   -0.002526677   -0.006662432
     14        6           0.003964569    0.003839434   -0.001980143
     15        6          -0.007816943   -0.007447490    0.000921754
     16        8           0.007242665   -0.005079647    0.010284071
     17        6           0.007044332   -0.010986965   -0.006620460
     18        6           0.032014064    0.007194489   -0.001862292
     19        8          -0.026978362    0.002805706    0.028493319
     20        6           0.011687145   -0.005291566   -0.000482808
     21        8          -0.004848516    0.007869651   -0.001914511
     22        6          -0.007659082    0.008811136    0.000391829
     23        6          -0.001739587    0.003565328    0.007955575
     24        8          -0.000904219   -0.004481379   -0.013565275
     25        6          -0.002353991    0.005003922    0.017102499
     26        6          -0.000730671    0.002183447   -0.001261284
     27        6           0.002941848   -0.004743451   -0.008516043
     28        6          -0.002999457    0.007867861   -0.004657048
     29        6          -0.004151225   -0.006339676   -0.008829441
     30        1          -0.001884781    0.001244732   -0.001453773
     31        1          -0.003027519    0.005885758    0.000037667
     32        6          -0.001209601    0.001073288   -0.001087268
     33        1           0.001133793   -0.000554866   -0.000111871
     34        1          -0.000869129    0.005437815    0.001900676
     35        1          -0.000246859    0.007433950   -0.000124271
     36        1           0.001476359   -0.001526034    0.001065949
     37        1          -0.002535273   -0.002565284    0.001764563
     38        1          -0.002992168   -0.002009231    0.000801901
     39        1           0.000051178    0.001119240   -0.000098008
     40        1          -0.000719396    0.001541794    0.000285847
     41        1           0.002082585    0.001022915   -0.000100952
     42        1          -0.001418403   -0.001879739   -0.001396108
     43        1          -0.000103933    0.002935095   -0.000029324
     44        1          -0.003134687   -0.002096435   -0.002236335
     45        1           0.001653213   -0.002334202   -0.001483704
     46        1           0.001751123   -0.000615661    0.002545246
     47        1          -0.004404857    0.001678104    0.002601780
     48        1           0.002283179    0.000904142   -0.002731567
     49        1           0.002944994    0.000280037   -0.003376201
     50        1          -0.000425632   -0.002307707    0.001150872
     51        1           0.000498649   -0.001222917    0.001304020
     52        1          -0.001717380    0.000568482   -0.000803415
     53        1          -0.000977523   -0.002696259    0.005468106
     54        1           0.002014856   -0.003903907    0.000333060
     55        1           0.000566904   -0.000860576    0.000140866
     56        1          -0.000746965    0.001340341    0.000771158
     57        1           0.000570581    0.002766210    0.001496770
     58        1          -0.000141311    0.000121330    0.003554874
     59        1          -0.001165707    0.001766258   -0.000629717
     60        1           0.004227902   -0.001652903    0.000282986
     61        1           0.004043118   -0.001087480    0.000092813
     62        6           0.003780756    0.002126780   -0.002951441
     63        1           0.001773759    0.000405190    0.001773110
     64        1           0.000488586    0.001618270    0.000935086
     65        1           0.001463947    0.001690444   -0.000141082
 -------------------------------------------------------------------
 Cartesian Forces:  Max     0.032014064 RMS     0.006728169

 GradGradGradGradGradGradGradGradGradGradGradGradGradGradGradGradGradGrad
 Berny optimization.
 Internal  Forces:  Max     0.021389536 RMS     0.003459364
 Search for a local minimum.
 Step number   1 out of a maximum of  390
 All quantities printed in internal units (Hartrees-Bohrs-Radians)
 Mixed Optimization -- RFO/linear search
 Second derivative matrix not updated -- first step.
 ITU=  0
     Eigenvalues ---    0.00273   0.00284   0.00336   0.00381   0.00428
     Eigenvalues ---    0.00430   0.00468   0.00512   0.00569   0.00641
     Eigenvalues ---    0.00657   0.00673   0.00712   0.00734   0.00820
     Eigenvalues ---    0.00976   0.01089   0.01239   0.01262   0.01417
     Eigenvalues ---    0.01464   0.01621   0.01712   0.01812   0.01929
     Eigenvalues ---    0.02536   0.02817   0.02817   0.03007   0.03138
     Eigenvalues ---    0.03522   0.03587   0.03850   0.04045   0.04097
     Eigenvalues ---    0.04195   0.04284   0.04368   0.04612   0.04734
     Eigenvalues ---    0.04802   0.04839   0.04934   0.05097   0.05245
     Eigenvalues ---    0.05305   0.05367   0.05460   0.05491   0.05493
     Eigenvalues ---    0.05502   0.05523   0.05527   0.05550   0.05594
     Eigenvalues ---    0.05642   0.05704   0.05946   0.06247   0.06535
     Eigenvalues ---    0.06719   0.06743   0.07099   0.07148   0.07200
     Eigenvalues ---    0.07228   0.07240   0.07335   0.07742   0.08379
     Eigenvalues ---    0.08381   0.08613   0.08980   0.09194   0.10010
     Eigenvalues ---    0.10114   0.10606   0.11097   0.11628   0.12233
     Eigenvalues ---    0.13178   0.14680   0.15239   0.15965   0.16000
     Eigenvalues ---    0.16000   0.16000   0.16000   0.16000   0.16000
     Eigenvalues ---    0.16000   0.16000   0.16000   0.16000   0.16000
     Eigenvalues ---    0.16000   0.16000   0.16000   0.16000   0.16000
     Eigenvalues ---    0.16000   0.16000   0.16000   0.16000   0.16000
     Eigenvalues ---    0.16066   0.16317   0.17143   0.17652   0.18395
     Eigenvalues ---    0.19858   0.21495   0.21926   0.22725   0.23411
     Eigenvalues ---    0.24429   0.24943   0.24990   0.24997   0.24998
     Eigenvalues ---    0.25000   0.25000   0.25000   0.25956   0.27220
     Eigenvalues ---    0.27374   0.27666   0.27723   0.27868   0.28274
     Eigenvalues ---    0.28766   0.28796   0.28836   0.29191   0.29504
     Eigenvalues ---    0.29838   0.30126   0.30564   0.30663   0.31528
     Eigenvalues ---    0.31651   0.32043   0.32129   0.33218   0.33688
     Eigenvalues ---    0.33943   0.33970   0.33998   0.34007   0.34015
     Eigenvalues ---    0.34016   0.34038   0.34057   0.34076   0.34103
     Eigenvalues ---    0.34103   0.34123   0.34132   0.34149   0.34151
     Eigenvalues ---    0.34167   0.34203   0.34246   0.34247   0.34260
     Eigenvalues ---    0.34263   0.34269   0.34270   0.34297   0.34306
     Eigenvalues ---    0.34317   0.34338   0.34357   0.34400   0.34455
     Eigenvalues ---    0.34498   0.34907   0.35267   0.35300   0.36487
     Eigenvalues ---    0.37581   0.42880   0.43797   0.51891   0.53584
     Eigenvalues ---    0.54428   0.56115   0.89901   0.90271
 RFO step:  Lambda=-2.21401460D-02 EMin= 2.73458265D-03
 Linear search not attempted -- first point.
 Iteration  1 RMS(Cart)=  0.04210765 RMS(Int)=  0.00064270
 Iteration  2 RMS(Cart)=  0.00100790 RMS(Int)=  0.00024520
 Iteration  3 RMS(Cart)=  0.00000058 RMS(Int)=  0.00024520
 Variable       Old X    -DE/DX   Delta X   Delta X   Delta X     New X
                                 (Linear)    (Quad)   (Total)
    R1        2.53223  -0.00205   0.00000  -0.00430  -0.00436   2.52788
    R2        2.81884   0.00889   0.00000   0.02610   0.02600   2.84484
    R3        2.05826  -0.00008   0.00000  -0.00023  -0.00023   2.05803
    R4        2.85112   0.00393   0.00000   0.00890   0.00894   2.86006
    R5        2.84788   0.00284   0.00000   0.00838   0.00838   2.85626
    R6        2.94121   0.00559   0.00000   0.01346   0.01342   2.95464
    R7        2.91092   0.01105   0.00000   0.03720   0.03708   2.94800
    R8        2.07861  -0.00088   0.00000  -0.00245  -0.00245   2.07616
    R9        2.91891   0.00884   0.00000   0.02755   0.02731   2.94622
   R10        2.91105   0.00784   0.00000   0.02613   0.02633   2.93738
   R11        2.77950  -0.00552   0.00000  -0.01506  -0.01505   2.76445
   R12        2.92033   0.00135   0.00000   0.00730   0.00723   2.92755
   R13        2.90730   0.00619   0.00000   0.01430   0.01419   2.92149
   R14        2.90045   0.01057   0.00000   0.03585   0.03580   2.93624
   R15        2.07319   0.00273   0.00000   0.00755   0.00755   2.08074
   R16        2.07426  -0.00121   0.00000  -0.00333  -0.00333   2.07093
   R17        2.81251   0.00984   0.00000   0.02196   0.02163   2.83414
   R18        2.85782   0.01537   0.00000   0.05545   0.05504   2.91286
   R19        2.67817   0.00547   0.00000   0.01212   0.01212   2.69030
   R20        2.52705   0.01337   0.00000   0.02341   0.02347   2.55052
   R21        2.62816  -0.02139   0.00000  -0.04988  -0.04967   2.57849
   R22        2.79649  -0.00075   0.00000  -0.00538  -0.00521   2.79128
   R23        2.80457   0.01587   0.00000   0.04369   0.04369   2.84826
   R24        2.32978  -0.00999   0.00000  -0.01085  -0.01085   2.31893
   R25        2.32808  -0.02042   0.00000  -0.02208  -0.02208   2.30600
   R26        2.88287   0.00207   0.00000   0.00645   0.00645   2.88932
   R27        2.90346   0.00410   0.00000   0.01321   0.01321   2.91667
   R28        2.88964   0.00702   0.00000   0.02212   0.02212   2.91176
   R29        2.07157  -0.00098   0.00000  -0.00269  -0.00269   2.06888
   R30        2.07265  -0.00005   0.00000  -0.00013  -0.00013   2.07253
   R31        2.07304   0.00081   0.00000   0.00223   0.00223   2.07528
   R32        2.87714   0.00924   0.00000   0.02858   0.02858   2.90572
   R33        2.06917   0.00063   0.00000   0.00174   0.00174   2.07090
   R34        2.06893  -0.00010   0.00000  -0.00027  -0.00027   2.06867
   R35        2.07076  -0.00023   0.00000  -0.00064  -0.00064   2.07012
   R36        2.91618  -0.00066   0.00000   0.00933   0.00955   2.92573
   R37        2.90110   0.00476   0.00000   0.01669   0.01671   2.91781
   R38        2.07124  -0.00155   0.00000  -0.00427  -0.00427   2.06696
[...]
     55          1           0        0.436752    3.669691   -3.200316
     56          1           0        0.898124    4.921372   -0.968002
     57          1           0        2.514029    4.193426   -1.053939
     58          1           0        1.542874    4.004672    0.411977
     59          1           0       -1.725862    2.138861    4.645927
     60          1           0       -0.882354    3.130454    3.446384
     61          1           0       -2.640691    3.030750    3.415633
     62          6           0        4.175444   -1.361052   -2.121766
     63          1           0        3.736365   -0.358186   -2.064024
     64          1           0        3.415403   -2.036558   -2.533897
     65          1           0        5.004005   -1.316390   -2.837993
 ---------------------------------------------------------------------
 Rotational constants (GHZ):      0.1871938      0.1298290      0.1197196

 **********************************************************************

            Population analysis using the SCF density.

 **********************************************************************

 Orbital symmetries:
       Occupied  (A) (A) (A) (A) (A) (A) (A) (A) (A) (A) (A) (A)
                 (A) (A) (A) (A) (A) (A) (A) (A) (A) (A) (A) (A)
                 (A) (A) (A) (A) (A) (A) (A) (A) (A) (A) (A) (A)
                 (A) (A) (A) (A) (A) (A) (A) (A) (A) (A) (A) (A)
                 (A) (A) (A) (A) (A) (A) (A) (A) (A) (A) (A) (A)
                 (A) (A) (A) (A) (A) (A) (A) (A) (A) (A) (A) (A)
                 (A) (A) (A) (A) (A) (A) (A) (A) (A) (A) (A) (A)
                 (A) (A) (A) (A) (A) (A) (A) (A) (A) (A) (A) (A)
                 (A) (A) (A) (A) (A) (A) (A) (A) (A) (A) (A) (A)
                 (A) (A) (A) (A) (A) (A) (A)
       Virtual   (A) (A) (A) (A) (A) (A) (A) (A) (A) (A) (A) (A)
                 (A) (A) (A) (A) (A) (A) (A) (A) (A) (A) (A) (A)
                 (A) (A) (A) (A) (A) (A) (A) (A) (A) (A) (A) (A)
                 (A) (A) (A) (A) (A) (A) (A) (A) (A) (A) (A) (A)
                 (A) (A) (A) (A) (A) (A) (A) (A) (A) (A) (A) (A)
                 (A) (A) (A) (A) (A) (A) (A) (A) (A) (A) (A) (A)
                 (A) (A) (A) (A) (A) (A) (A) (A) (A) (A) (A) (A)
                 (A) (A) (A) (A) (A) (A) (A) (A) (A) (A) (A) (A)
                 (A) (A) (A) (A) (A) (A) (A) (A) (A) (A) (A) (A)
                 (A) (A) (A) (A) (A) (A) (A) (A) (A) (A) (A) (A)
                 (A) (A) (A) (A) (A) (A) (A) (A) (A) (A) (A) (A)
                 (A) (A) (A) (A) (A) (A) (A) (A) (A) (A) (A) (A)
                 (A) (A) (A) (A) (A) (A) (A) (A) (A) (A) (A) (A)
                 (A) (A) (A) (A) (A) (A) (A) (A) (A) (A) (A) (A)
                 (A) (A) (A) (A) (A) (A) (A) (A) (A) (A) (A) (A)
                 (A) (A) (A) (A) (A) (A) (A) (A) (A) (A) (A) (A)
                 (A) (A) (A) (A) (A) (A) (A) (A) (A) (A) (A) (A)
                 (A) (A) (A) (A) (A) (A) (A) (A) (A) (A) (A) (A)
                 (A) (A) (A) (A) (A) (A) (A) (A) (A) (A) (A) (A)
                 (A) (A) (A) (A) (A) (A) (A) (A) (A) (A) (A) (A)
                 (A) (A) (A) (A) (A) (A) (A) (A) (A) (A) (A) (A)
                 (A) (A) (A) (A) (A) (A) (A) (A) (A) (A) (A) (A)
                 (A) (A) (A) (A) (A) (A) (A) (A) (A) (A) (A) (A)
                 (A) (A) (A) (A) (A) (A) (A) (A) (A) (A) (A) (A)
                 (A) (A) (A) (A) (A) (A) (A) (A) (A) (A) (A) (A)
                 (A) (A) (A) (A) (A) (A) (A) (A) (A) (A) (A) (A)
                 (A) (A) (A) (A) (A) (A) (A) (A) (A) (A) (A) (A)
                 (A) (A) (A) (A) (A) (A) (A) (A) (A) (A) (A) (A)
                 (A) (A) (A) (A) (A) (A) (A) (A) (A) (A) (A) (A)
                 (A) (A) (A) (A) (A) (A) (A) (A) (A) (A) (A) (A)
                 (A) (A) (A) (A) (A) (A) (A) (A) (A) (A) (A) (A)
                 (A) (A) (A) (A) (A) (A) (A) (A) (A) (A) (A) (A)
                 (A) (A) (A) (A) (A) (A) (A) (A) (A) (A) (A) (A)
                 (A) (A) (A) (A) (A) (A) (A) (A) (A) (A) (A) (A)
                 (A) (A) (A) (A) (A) (A) (A) (A) (A) (A)
 The electronic state is 1-A.
 Alpha  occ. eigenvalues --  -19.19786 -19.16823 -19.15957 -19.12705 -19.12250
 Alpha  occ. eigenvalues --  -10.27489 -10.27245 -10.26740 -10.26128 -10.25934
 Alpha  occ. eigenvalues --  -10.25915 -10.25102 -10.21489 -10.20833 -10.20666
 Alpha  occ. eigenvalues --  -10.20414 -10.19915 -10.19655 -10.19424 -10.19416
 Alpha  occ. eigenvalues --  -10.19220 -10.18898 -10.18859 -10.18801 -10.18548
 Alpha  occ. eigenvalues --  -10.18254 -10.18201 -10.17447 -10.16857 -10.16177
 Alpha  occ. eigenvalues --  -10.15718  -1.09442  -1.06040  -1.02983  -1.02659
 Alpha  occ. eigenvalues --   -1.02097  -0.86715  -0.83645  -0.82493  -0.81402
 Alpha  occ. eigenvalues --   -0.80278  -0.78908  -0.76737  -0.74301  -0.73203
 Alpha  occ. eigenvalues --   -0.71733  -0.71222  -0.70128  -0.69968  -0.67840
 Alpha  occ. eigenvalues --   -0.65224  -0.63598  -0.63043  -0.61519  -0.60637
 Alpha  occ. eigenvalues --   -0.59405  -0.58794  -0.57033  -0.54697  -0.53864
 Alpha  occ. eigenvalues --   -0.52695  -0.52091  -0.50647  -0.50486  -0.49471
 Alpha  occ. eigenvalues --   -0.48058  -0.47512  -0.46977  -0.46253  -0.45649
 Alpha  occ. eigenvalues --   -0.45034  -0.44433  -0.43930  -0.43718  -0.43470
 Alpha  occ. eigenvalues --   -0.42378  -0.42066  -0.41601  -0.41491  -0.41384
 Alpha  occ. eigenvalues --   -0.40913  -0.40700  -0.40272  -0.40205  -0.39738
 Alpha  occ. eigenvalues --   -0.39231  -0.39170  -0.38452  -0.38301  -0.37920
 Alpha  occ. eigenvalues --   -0.37705  -0.37413  -0.37203  -0.36804  -0.36580
 Alpha  occ. eigenvalues --   -0.36351  -0.35179  -0.34952  -0.34569  -0.34308
 Alpha  occ. eigenvalues --   -0.33840  -0.33554  -0.32931  -0.32639  -0.32140
 Alpha  occ. eigenvalues --   -0.31401  -0.31183  -0.30422  -0.28408  -0.27167
 Alpha  occ. eigenvalues --   -0.25748  -0.24650  -0.24131  -0.23444  -0.22534
 Alpha virt. eigenvalues --   -0.04935  -0.01221   0.00611   0.02162   0.05650
 Alpha virt. eigenvalues --    0.07128   0.08182   0.08807   0.09342   0.10034
 Alpha virt. eigenvalues --    0.10420   0.11223   0.11406   0.12231   0.12435
 Alpha virt. eigenvalues --    0.12633   0.13148   0.13859   0.13938   0.14263
 Alpha virt. eigenvalues --    0.14458   0.14865   0.15076   0.15511   0.16238
 Alpha virt. eigenvalues --    0.16520   0.16928   0.16969   0.17254   0.17548
 Alpha virt. eigenvalues --    0.17845   0.17983   0.18321   0.18569   0.18785
 Alpha virt. eigenvalues --    0.19321   0.19809   0.19983   0.20094   0.20275
 Alpha virt. eigenvalues --    0.20938   0.21371   0.21636   0.21995   0.22094
 Alpha virt. eigenvalues --    0.22672   0.23014   0.23673   0.24118   0.24221
 Alpha virt. eigenvalues --    0.24952   0.25458   0.25978   0.26535   0.26888
 Alpha virt. eigenvalues --    0.27393   0.28000   0.28285   0.28615   0.29147
 Alpha virt. eigenvalues --    0.30379   0.31622   0.32569   0.33103   0.34047
 Alpha virt. eigenvalues --    0.34486   0.36548   0.37277   0.38050   0.39345
 Alpha virt. eigenvalues --    0.42104   0.45436   0.46267   0.48032   0.48466
 Alpha virt. eigenvalues --    0.49292   0.50514   0.50564   0.51036   0.51265
 Alpha virt. eigenvalues --    0.51610   0.51856   0.52673   0.53249   0.54016
 Alpha virt. eigenvalues --    0.54130   0.54525   0.55014   0.55792   0.56546
 Alpha virt. eigenvalues --    0.56936   0.57637   0.57746   0.58275   0.58870
 Alpha virt. eigenvalues --    0.59822   0.60052   0.60550   0.61082   0.61921
 Alpha virt. eigenvalues --    0.62977   0.63321   0.63414   0.64203   0.65013
 Alpha virt. eigenvalues --    0.65546   0.65888   0.66579   0.66728   0.66805
 Alpha virt. eigenvalues --    0.67594   0.68044   0.68469   0.68873   0.69300
 Alpha virt. eigenvalues --    0.69895   0.70370   0.71780   0.72011   0.73295
 Alpha virt. eigenvalues --    0.73994   0.74582   0.75616   0.75896   0.76465
 Alpha virt. eigenvalues --    0.77423   0.78046   0.78505   0.78836   0.79511
 Alpha virt. eigenvalues --    0.80185   0.80827   0.81044   0.81810   0.82567
 Alpha virt. eigenvalues --    0.82700   0.83368   0.84061   0.84880   0.84961
 Alpha virt. eigenvalues --    0.85588   0.86095   0.86344   0.86703   0.87037
 Alpha virt. eigenvalues --    0.87418   0.87973   0.88796   0.88881   0.89047
 Alpha virt. eigenvalues --    0.89328   0.90041   0.90368   0.90453   0.90815
 Alpha virt. eigenvalues --    0.91289   0.91572   0.91755   0.92272   0.92550
 Alpha virt. eigenvalues --    0.93197   0.93741   0.94245   0.94788   0.95054
 Alpha virt. eigenvalues --    0.95491   0.96250   0.96637   0.96741   0.97113
 Alpha virt. eigenvalues --    0.98186   0.98267   0.98984   0.99371   1.00146
 Alpha virt. eigenvalues --    1.00574   1.01130   1.02083   1.03353   1.04806
 Alpha virt. eigenvalues --    1.05222   1.05830   1.06531   1.06754   1.07583
 Alpha virt. eigenvalues --    1.09362   1.10051   1.10805   1.12140   1.13626
 Alpha virt. eigenvalues --    1.14821   1.15169   1.15282   1.16039   1.17249
 Alpha virt. eigenvalues --    1.18492   1.18891   1.19523   1.20047   1.21384
 Alpha virt. eigenvalues --    1.22564   1.23558   1.24865   1.25826   1.26619
 Alpha virt. eigenvalues --    1.27323   1.29469   1.29770   1.30724   1.33024
 Alpha virt. eigenvalues --    1.33944   1.36518   1.37785   1.39488   1.40436
 Alpha virt. eigenvalues --    1.41642   1.42034   1.45445   1.46024   1.47060
 Alpha virt. eigenvalues --    1.47894   1.49578   1.50780   1.51100   1.51982
 Alpha virt. eigenvalues --    1.52564   1.54403   1.54946   1.56840   1.57302
 Alpha virt. eigenvalues --    1.59314   1.59818   1.60821   1.61584   1.62302
 Alpha virt. eigenvalues --    1.63792   1.65722   1.66180   1.67818   1.67975
 Alpha virt. eigenvalues --    1.69154   1.70525   1.72369   1.72721   1.73767
 Alpha virt. eigenvalues --    1.74524   1.75087   1.75746   1.76244   1.77496
 Alpha virt. eigenvalues --    1.79051   1.79397   1.80272   1.80847   1.81125
 Alpha virt. eigenvalues --    1.81705   1.82406   1.82694   1.85187   1.85596
 Alpha virt. eigenvalues --    1.85854   1.86174   1.87410   1.87603   1.88164
 Alpha virt. eigenvalues --    1.88721   1.89458   1.89722   1.90713   1.91597
 Alpha virt. eigenvalues --    1.91893   1.92575   1.93431   1.94039   1.95034
 Alpha virt. eigenvalues --    1.95520   1.96699   1.96888   1.97541   1.97913
 Alpha virt. eigenvalues --    1.98755   1.99261   1.99948   2.00613   2.01374
 Alpha virt. eigenvalues --    2.02675   2.03260   2.03688   2.04906   2.05244
 Alpha virt. eigenvalues --    2.05502   2.05953   2.07564   2.08954   2.09503
 Alpha virt. eigenvalues --    2.10260   2.11398   2.11893   2.12770   2.13722
 Alpha virt. eigenvalues --    2.15005   2.15515   2.17052   2.18201   2.18576
 Alpha virt. eigenvalues --    2.18980   2.19228   2.21072   2.21413   2.22233
 Alpha virt. eigenvalues --    2.23120   2.23848   2.25248   2.25993   2.26276
 Alpha virt. eigenvalues --    2.27123   2.28460   2.28688   2.30312   2.31078
 Alpha virt. eigenvalues --    2.32125   2.32751   2.33892   2.34193   2.34974
 Alpha virt. eigenvalues --    2.35907   2.37567   2.37980   2.38321   2.38818
 Alpha virt. eigenvalues --    2.39795   2.40490   2.41245   2.42280   2.42679
 Alpha virt. eigenvalues --    2.45031   2.45521   2.46627   2.47054   2.48745
 Alpha virt. eigenvalues --    2.48857   2.49605   2.50952   2.52425   2.53570
 Alpha virt. eigenvalues --    2.55305   2.55838   2.57106   2.59142   2.60018
 Alpha virt. eigenvalues --    2.60328   2.61219   2.63595   2.64305   2.65261
 Alpha virt. eigenvalues --    2.66747   2.67268   2.69632   2.70411   2.71611
 Alpha virt. eigenvalues --    2.71940   2.73348   2.74072   2.75856   2.77293
 Alpha virt. eigenvalues --    2.79068   2.79747   2.80399   2.82482   2.83374
 Alpha virt. eigenvalues --    2.87059   2.89358   2.92400   2.93812   2.95575
 Alpha virt. eigenvalues --    2.98169   2.98956   3.00824   3.01900   3.02395
 Alpha virt. eigenvalues --    3.04254   3.07437   3.12125   3.17223   3.21066
 Alpha virt. eigenvalues --    3.25726   3.29136   4.05802   4.06489   4.08892
 Alpha virt. eigenvalues --    4.11971   4.13319   4.15470   4.16483   4.18555
 Alpha virt. eigenvalues --    4.22313   4.23603   4.26919   4.28141   4.30298
 Alpha virt. eigenvalues --    4.32035   4.35183   4.36446   4.39352   4.44007
 Alpha virt. eigenvalues --    4.48733   4.49909   4.52301   4.55594   4.58895
 Alpha virt. eigenvalues --    4.65439   4.67248   4.69504   4.73006   4.80246
 Alpha virt. eigenvalues --    4.90272   5.01692   5.18867
          Condensed to atoms (all electrons):
 Mulliken atomic charges:
              1
     1  C   -0.187870
     2  C    0.194545
     3  C   -0.190287
     4  C    0.329286
     5  C   -0.047397
     6  C   -0.338586
     7  C    0.185635
     8  C    0.406415
     9  C   -0.090879
    10  C    0.416502
    11  C    0.418824
    12  O   -0.464334
    13  C   -0.128752
    14  C   -0.250056
    15  C   -0.459044
    16  O   -0.512588
    17  C   -0.163220
    18  C    0.300793
    19  O   -0.512290
    20  C   -0.323709
    21  O   -0.670362
    22  C   -0.311196
    23  C    0.076924
    24  O   -0.597650
    25  C    0.240084
    26  C   -0.548044
    27  C   -0.403780
    28  C   -0.469379
    29  C   -0.457395
    30  H    0.143856
    31  H    0.164620
    32  C   -0.519751
    33  H    0.122340
    34  H    0.146085
    35  H    0.186192
    36  H    0.137218
    37  H    0.152005
    38  H    0.127380
    39  H    0.136327
    40  H    0.168402
    41  H    0.155190
    42  H    0.152148
    43  H    0.171101
    44  H    0.433656
    45  H    0.169096
    46  H    0.164201
    47  H    0.136916
    48  H    0.166645
    49  H    0.175074
    50  H    0.161901
    51  H    0.142113
    52  H    0.142237
    53  H    0.190978
    54  H    0.160003
    55  H    0.143756
    56  H    0.148685
    57  H    0.167892
    58  H    0.166894
    59  H    0.158095
    60  H    0.158729
    61  H    0.150564
    62  C   -0.459575
    63  H    0.157726
    64  H    0.139136
    65  H    0.139977
 Sum of Mulliken atomic charges =   0.00000
 Mulliken charges with hydrogens summed into heavy atoms:
              1
     1  C   -0.065530
     2  C    0.194545
     3  C   -0.025667
     4  C    0.329286
     5  C   -0.047397
     6  C   -0.006309
     7  C    0.185635
     8  C    0.406415
     9  C   -0.090879
    10  C    0.416502
    11  C    0.418824
    12  O   -0.464334
    13  C    0.008466
    14  C    0.029329
    15  C    0.000874
    16  O   -0.512588
    17  C   -0.019363
    18  C    0.300793
    19  O   -0.512290
    20  C   -0.000461
    21  O   -0.236706
    22  C    0.022101
    23  C    0.213840
    24  O   -0.597650
    25  C    0.240084
    26  C   -0.044423
    27  C   -0.119431
    28  C    0.025359
    29  C    0.026076
    32  C   -0.052362
    62  C   -0.022736
 Sum of Mulliken charges with hydrogens summed into heavy atoms =   0.00000
 Electronic spatial extent (au):  <R**2>=          11389.4433
 Charge=              0.0000 electrons
 Dipole moment (field-independent basis, Debye):
    X=             -4.7198    Y=              2.3876    Z=             -1.7199  Tot=              5.5619
 Quadrupole moment (field-independent basis, Debye-Ang):
   XX=           -190.6834   YY=           -175.1579   ZZ=           -181.1170
   XY=              2.0142   XZ=             -4.4292   YZ=              1.5808
 Traceless Quadrupole moment (field-independent basis, Debye-Ang):
   XX=             -8.3639   YY=              7.1615   ZZ=              1.2024
   XY=              2.0142   XZ=             -4.4292   YZ=              1.5808
 Octapole moment (field-independent basis, Debye-Ang**2):
  XXX=            -34.2629  YYY=             59.8598  ZZZ=             -3.3743  XYY=             -8.8635
  XXY=            -36.4305  XXZ=            -28.1885  XZZ=            -21.5251  YZZ=              7.9709
  YYZ=            -23.1737  XYZ=             -8.2538
 Hexadecapole moment (field-independent basis, Debye-Ang**3):
 XXXX=          -7582.9828 YYYY=          -4306.6666 ZZZZ=          -3398.9312 XXXY=             49.5366
 XXXZ=            -15.7479 YYYX=             34.9555 YYYZ=            -23.7738 ZZZX=             52.2394
 ZZZY=             -1.3257 XXYY=          -1887.9659 XXZZ=          -1783.3261 YYZZ=          -1281.6994
 XXYZ=              7.5406 YYXZ=            -11.1259 ZZXY=             44.1268
 N-N= 3.512554801256D+03 E-N=-1.025136104941D+04  KE= 1.374464300067D+03
 1\1\GINC-B0600\FOpt\RB3LYP\6-31G(d)\C26H34O5\CAOFEI\24-Mar-2021\0\\# o
 pt rb3lyp/6-31g(d) geom=connectivity\\Title Card Required\\0,1\C,0.004
 553327,-0.0254082887,0.0701786273\C,1.3413060876,-0.0550190217,0.07830
 37984\C,2.1615695297,1.2167059025,0.044843185\C,1.3823907043,2.5388261
 089,-0.2539821846\C,-0.1382346831,2.4581384637,-0.5860448759\C,-0.8221
 464612,1.2280493828,0.0669726641\C,2.2103400854,3.2251854413,-1.373493
 9699\C,1.7826411863,2.8269920569,-2.7700508124\C,0.4971279381,2.586128
 558,-3.1392104576\C,-0.5243155194,2.4734151783,-2.0940817215\C,0.14083
 19148,2.3305180473,-4.58275157\O,0.8351676455,1.593810252,-5.263546412
 3\C,-1.0601435212,3.0575592325,-5.1990546388\C,-0.5771235006,3.8987908
 469,-6.4013561817\C,-2.1187576376,2.0265219816,-5.6294190332\O,-1.7138
 690495,2.3351114824,-2.3706866399\C,3.6298200751,2.6217132524,-1.36618
 61703\C,4.1099735233,2.8592758016,-2.8185223855\O,2.8358604005,2.78312
 89306,-3.5868770498\C,3.3411894429,1.1611033902,-0.9713205182\O,2.1454
 510954,4.6365017927,-1.287874518\C,-0.6781414621,3.7549463025,0.074429
 4994\C,0.1741491637,3.8478321983,1.3432605942\O,1.4857291957,3.4131853
 727,0.9070024195\C,0.2361782788,5.2033023677,2.0144592463\C,1.00596935
 72,6.3161507376,1.3471403169\C,-0.4149076516,5.3882160896,3.1673659651
 \C,4.701995593,4.2540877914,-3.0316046902\C,5.0199055602,1.7863106293,
 -3.4099788821\H,4.27788566,3.1197878459,-0.6383998303\H,2.5937545111,1
 .3714311541,1.0437775664\C,2.1067868969,-1.3515713294,0.181289096\H,-0
 .5434651935,-0.9654889136,0.122799657\H,-1.0949658886,1.4678156051,1.1
 056279835\H,-1.7698688092,1.0702058034,-0.456176008\H,-1.5005074514,3.
 720130982,-4.44744279\H,-0.1180923128,3.2223895973,-7.1323502802\H,-1.
 4613469219,4.3370014427,-6.883429526\H,-2.9588457474,2.5289462923,-6.1
 228864108\H,-2.5049508919,1.4850203754,-4.7614377569\H,-1.6842981848,1
 .3067675346,-6.3314154336\H,4.2178888381,0.6554143392,-0.5570678207\H,
 3.0278123429,0.5911883482,-1.852958534\H,2.1368542445,4.8014142374,-0.
 3250475024\H,-1.7487013836,3.6913718126,0.2845920916\H,-0.502265491,4.
 6207287409,-0.5714283577\H,-0.1925613723,3.1251548127,2.0840877196\H,2
 .0856654799,6.1167582784,1.3745853918\H,0.7235477002,6.4483989122,0.29
 58010496\H,0.8395334804,7.2671917056,1.861081262\H,-0.9446319921,4.578
 5030748,3.6633541846\H,-0.4494698056,6.3589170742,3.6548665204\H,4.046
 5806413,5.0244583521,-2.6214220224\H,4.8455514292,4.4371405412,-4.1014
 025335\H,5.6788855242,4.3232587681,-2.5392563112\H,5.9682155967,1.7590
 611732,-2.8617061874\H,5.2366333114,2.0166036852,-4.4576067877\H,4.564
 0528027,0.7946789787,-3.3703099464\H,1.4267158689,-2.2042031366,0.2705
 742959\H,2.7482287244,-1.5255558983,-0.6920806692\H,2.7667097373,-1.35
 20668913,1.060686622\C,0.4108341149,5.0125093985,-6.0352574974\H,1.340
 9021255,4.6047194285,-5.6222874031\H,-0.0154111063,5.6960172537,-5.290
 3053266\H,0.6755329036,5.6060203396,-6.9179621091\\Version=EM64L-G09Re
 vB.01\State=1-A\HF=-1387.3203642\RMSD=4.241e-09\RMSF=2.402e-06\Dipole=
 1.2281822,0.3805684,1.770629\Quadrupole=3.5424198,2.0314656,-5.5738854
 ,-2.7150558,-3.0209837,-2.82957\PG=C01 [X(C26H34O5)]\\@


 LAW OF COMPENSATION:
      NO CALCULATION IS EVER A COMPLETE FAILURE; IT 
      CAN ALWAYS SERVE AS A BAD EXAMPLE.

                                           -- ANON
 Job cpu time:  0 days  4 hours 33 minutes 16.6 seconds.
 File lengths (MBytes):  RWF=    186 Int=      0 D2E=      0 Chk=     20 Scr=      1
 Normal termination of Gaussian 09 at Wed Mar 24 15:05:20 2021.
