 Entering Gaussian System, Link 0=g09
 Initial command:
 /public/software/g09/g09/l1.exe /tmp/Gau-11312.inp -scrdir=/tmp/
 Entering Link 1 = /public/software/g09/g09/l1.exe PID=     11313.
  
 Copyright (c) 1988,1990,1992,1993,1995,1998,2003,2009,2010,
            Gaussian, Inc.  All Rights Reserved.
  
 This is part of the Gaussian(R) 09 program.  It is based on
 the Gaussian(R) 03 system (copyright 2003, Gaussian, Inc.),
 the Gaussian(R) 98 system (copyright 1998, Gaussian, Inc.),
 the Gaussian(R) 94 system (copyright 1995, Gaussian, Inc.),
 the Gaussian 92(TM) system (copyright 1992, Gaussian, Inc.),
 the Gaussian 90(TM) system (copyright 1990, Gaussian, Inc.),
 the Gaussian 88(TM) system (copyright 1988, Gaussian, Inc.),
 the Gaussian 86(TM) system (copyright 1986, Carnegie Mellon
 University), and the Gaussian 82(TM) system (copyright 1983,
 Carnegie Mellon University). Gaussian is a federally registered
 trademark of Gaussian, Inc.
  
 This software contains proprietary and confidential information,
 including trade secrets, belonging to Gaussian, Inc.
  
 This software is provided under written license and may be
 used, copied, transmitted, or stored only in accord with that
 written license.
  
 The following legend is applicable only to US Government
 contracts under FAR:
  
                    RESTRICTED RIGHTS LEGEND
  
 Use, reproduction and disclosure by the US Government is
 subject to restrictions as set forth in subparagraphs (a)
 and (c) of the Commercial Computer Software - Restricted
 Rights clause in FAR 52.227-19.
  
 Gaussian, Inc.
 340 Quinnipiac St., Bldg. 40, Wallingford CT 06492
  
  
 ---------------------------------------------------------------
 Warning -- This program may not be used in any manner that
 competes with the business of Gaussian, Inc. or will provide
 assistance to any competitor of Gaussian, Inc.  The licensee
 of this program is prohibited from giving any competitor of
 Gaussian, Inc. access to this program.  By using this program,
 the user acknowledges that Gaussian, Inc. is engaged in the
 business of creating and licensing software in the field of
 computational chemistry and represents and warrants to the
 licensee that it is not a competitor of Gaussian, Inc. and that
 it will not use this program in any manner prohibited above.
 ---------------------------------------------------------------
  

 Cite this work as:
 Gaussian 09, Revision B.01,
 M. J. Frisch, G. W. Trucks, H. B. Schlegel, G. E. Scuseria, 
 M. A. Robb, J. R. Cheeseman, G. Scalmani, V. Barone, B. Mennucci, 
 G. A. Petersson, H. Nakatsuji, M. Caricato, X. Li, H. P. Hratchian, 
 A. F. Izmaylov, J. Bloino, G. Zheng, J. L. Sonnenberg, M. Hada, 
 M. Ehara, K. Toyota, R. Fukuda, J. Hasegawa, M. Ishida, T. Nakajima, 
 Y. Honda, O. Kitao, H. Nakai, T. Vreven, J. A. Montgomery, Jr., 
 J. E. Peralta, F. Ogliaro, M. Bearpark, J. J. Heyd, E. Brothers, 
 K. N. Kudin, V. N. Staroverov, T. Keith, R. Kobayashi, J. Normand, 
 K. Raghavachari, A. Rendell, J. C. Burant, S. S. Iyengar, J. Tomasi, 
 M. Cossi, N. Rega, J. M. Millam, M. Klene, J. E. Knox, J. B. Cross, 
 V. Bakken, C. Adamo, J. Jaramillo, R. Gomperts, R. E. Stratmann, 
 O. Yazyev, A. J. Austin, R. Cammi, C. Pomelli, J. W. Ochterski, 
 R. L. Martin, K. Morokuma, V. G. Zakrzewski, G. A. Voth, 
 P. Salvador, J. J. Dannenberg, S. Dapprich, A. D. Daniels, 
 O. Farkas, J. B. Foresman, J. V. Ortiz, J. Cioslowski, 
 and D. J. Fox, Gaussian, Inc., Wallingford CT, 2010.
 
 ******************************************
 Gaussian 09:  EM64L-G09RevB.01 12-Aug-2010
                24-Mar-2021 
 ******************************************
 %mem=600MW
 %nprocshared=10
 Will use up to   10 processors via shared memory.
 ---------------------------------------
 # opt rb3lyp/6-31g(d) geom=connectivity
 ---------------------------------------
 1/14=-1,18=20,19=15,26=3,38=1,57=2/1,3;
 2/9=110,12=2,17=6,18=5,40=1/2;
 3/5=1,6=6,7=1,11=2,16=1,25=1,30=1,71=1,74=-5,116=1/1,2,3;
 4//1;
 5/5=2,38=5/2;
 6/7=2,8=2,9=2,10=2,28=1/1;
 7//1,2,3,16;
 1/14=-1,18=20,19=15/3(2);
 2/9=110/2;
 99//99;
 2/9=110/2;
 3/5=1,6=6,7=1,11=2,16=1,25=1,30=1,71=1,74=-5,116=1/1,2,3;
 4/5=5,16=3/1;
 5/5=2,38=5/2;
 7//1,2,3,16;
 1/14=-1,18=20,19=15/3(-5);
 2/9=110/2;
 6/7=2,8=2,9=2,10=2,19=2,28=1/1;
 99/9=1/99;
 -------------------
 Title Card Required
 -------------------
 Symbolic Z-matrix:
 Charge =  0 Multiplicity = 1
 C                     0.        0.        0. 
 C                     1.3412    0.        0. 
 C                     2.1358    1.2846    0. 
 C                     1.3377    2.583    -0.3138 
 C                    -0.1611    2.4634   -0.6379 
 C                    -0.8321    1.2401    0.0207 
 C                     2.1338    3.2731   -1.439 
 C                     1.7599    2.8689   -2.8224 
 C                     0.5314    2.465    -3.1597 
 C                    -0.5279    2.4656   -2.1305 
 C                     0.2825    1.9864   -4.5376 
 O                     0.5449    0.8108   -4.8045 
 C                    -0.3067    2.9355   -5.5858 
 C                    -1.7833    2.6225   -5.879 
 C                    -0.1501    4.4165   -5.23 
 O                    -1.708     2.4819   -2.4863 
 C                     3.5455    2.7317   -1.3952 
 C                     4.0315    2.9396   -2.8459 
 O                     2.8534    2.7915   -3.6801 
 C                     3.3115    1.2659   -0.9945 
 O                     2.0783    4.686    -1.348 
 C                    -0.7157    3.7523   -0.0258 
 C                     0.1368    3.9366    1.22 
 O                     1.4415    3.4474    0.8629 
 C                     0.1978    5.3579    1.7368 
 C                    -1.1308    6.0037    2.0313 
 C                     1.3404    6.024     1.98 
 C                     4.6096    4.344    -3.0834 
 C                     5.0744    1.9109   -3.2967 
 H                     4.1839    3.2412   -0.6644 
 H                     2.5702    1.3799    1.0062 
 C                     2.1101   -1.2919    0.0923 
 H                    -0.543    -0.9426    0.0469 
 H                    -1.0897    1.4361    1.0686 
 H                    -1.7859    1.0142   -0.4726 
 H                     0.282     2.7727   -6.4989 
 H                    -2.3792    2.6806   -4.9621 
 H                    -2.1822    3.3843   -6.5607 
 H                    -0.4915    5.0492   -6.0566 
 H                     0.8978    4.6691   -5.0377 
 H                    -0.7337    4.6859   -4.3432 
 H                     3.0577    0.6448   -1.8621 
 H                     4.2135    0.8357   -0.5445 
 H                     2.1498    4.8931   -0.3952 
 H                    -0.5848    4.5964   -0.7163 
 H                    -1.7849    3.6951    0.2086 
 H                    -0.2289    3.2961    2.0317 
 H                    -1.7161    5.3744    2.7098 
 H                    -1.0174    6.9836    2.5074 
 H                    -1.7022    6.1498    1.1093 
 H                     1.3341    7.0385    2.3678 
 H                     2.3153    5.5748    1.8211 
 H                     4.9356    4.4549   -4.1245 
 H                     5.4688    4.5352   -2.4324 
 H                     3.8706    5.1339   -2.9263 
 H                     4.6631    0.8976   -3.3375 
 H                     5.414     2.1254   -4.317 
 H                     5.9477    1.9127   -2.6365 
 H                     1.4505   -2.1532    0.2436 
 H                     2.6805   -1.4725   -0.8237 
 H                     2.8052   -1.2591    0.9376 
 C                    -2.007     1.2623   -6.526 
 H                    -3.0552    1.1588   -6.825 
 H                    -1.3875    1.1438   -7.4204 
 H                    -1.7827    0.4455   -5.8344 
 

 GradGradGradGradGradGradGradGradGradGradGradGradGradGradGradGradGradGrad
 Berny optimization.
 Initialization pass.
                           ----------------------------
                           !    Initial Parameters    !
                           ! (Angstroms and Degrees)  !
 --------------------------                            --------------------------
 ! Name  Definition              Value          Derivative Info.                !
 --------------------------------------------------------------------------------
 ! R1    R(1,2)                  1.3412         estimate D2E/DX2                !
 ! R2    R(1,6)                  1.4935         estimate D2E/DX2                !
 ! R3    R(1,33)                 1.0888         estimate D2E/DX2                !
 ! R4    R(2,3)                  1.5105         estimate D2E/DX2                !
 ! R5    R(2,32)                 1.5062         estimate D2E/DX2                !
 ! R6    R(3,4)                  1.556          estimate D2E/DX2                !
 ! R7    R(3,20)                 1.54           estimate D2E/DX2                !
 ! R8    R(3,31)                 1.1001         estimate D2E/DX2                !
 ! R9    R(4,5)                  1.5381         estimate D2E/DX2                !
 ! R10   R(4,7)                  1.5415         estimate D2E/DX2                !
 ! R11   R(4,24)                 1.4638         estimate D2E/DX2                !
 ! R12   R(5,6)                  1.5429         estimate D2E/DX2                !
 ! R13   R(5,10)                 1.537          estimate D2E/DX2                !
 ! R14   R(5,22)                 1.5309         estimate D2E/DX2                !
 ! R15   R(6,34)                 1.0968         estimate D2E/DX2                !
 ! R16   R(6,35)                 1.0973         estimate D2E/DX2                !
 ! R17   R(7,8)                  1.489          estimate D2E/DX2                !
 ! R18   R(7,17)                 1.5126         estimate D2E/DX2                !
 ! R19   R(7,21)                 1.4169         estimate D2E/DX2                !
 ! R20   R(8,9)                  1.3365         estimate D2E/DX2                !
 ! R21   R(8,19)                 1.3919         estimate D2E/DX2                !
 ! R22   R(9,10)                 1.4769         estimate D2E/DX2                !
 ! R23   R(9,11)                 1.4797         estimate D2E/DX2                !
 ! R24   R(10,16)                1.2327         estimate D2E/DX2                !
 ! R25   R(11,12)                1.2337         estimate D2E/DX2                !
 ! R26   R(11,13)                1.5319         estimate D2E/DX2                !
 ! R27   R(13,14)                1.5376         estimate D2E/DX2                !
 ! R28   R(13,15)                1.5312         estimate D2E/DX2                !
 ! R29   R(13,36)                1.0986         estimate D2E/DX2                !
 ! R30   R(14,37)                1.0951         estimate D2E/DX2                !
 ! R31   R(14,38)                1.0973         estimate D2E/DX2                !
 ! R32   R(14,62)                1.5228         estimate D2E/DX2                !
 ! R33   R(15,39)                1.0955         estimate D2E/DX2                !
 ! R34   R(15,40)                1.0949         estimate D2E/DX2                !
 ! R35   R(15,41)                1.0953         estimate D2E/DX2                !
 ! R36   R(17,18)                1.544          estimate D2E/DX2                !
 ! R37   R(17,20)                1.5375         estimate D2E/DX2                !
 ! R38   R(17,30)                1.096          estimate D2E/DX2                !
 ! R39   R(18,19)                1.4511         estimate D2E/DX2                !
 ! R40   R(18,28)                1.5372         estimate D2E/DX2                !
 ! R41   R(18,29)                1.5327         estimate D2E/DX2                !
 ! R42   R(20,42)                1.0968         estimate D2E/DX2                !
 ! R43   R(20,43)                1.096          estimate D2E/DX2                !
 ! R44   R(21,44)                0.9777         estimate D2E/DX2                !
 ! R45   R(22,23)                1.5208         estimate D2E/DX2                !
 ! R46   R(22,45)                1.0984         estimate D2E/DX2                !
 ! R47   R(22,46)                1.0961         estimate D2E/DX2                !
 ! R48   R(23,24)                1.4384         estimate D2E/DX2                !
 ! R49   R(23,25)                1.5136         estimate D2E/DX2                !
 ! R50   R(23,47)                1.0967         estimate D2E/DX2                !
 ! R51   R(25,26)                1.5063         estimate D2E/DX2                !
 ! R52   R(25,27)                1.3448         estimate D2E/DX2                !
 ! R53   R(26,48)                1.095          estimate D2E/DX2                !
 ! R54   R(26,49)                1.0953         estimate D2E/DX2                !
 ! R55   R(26,50)                1.0945         estimate D2E/DX2                !
 ! R56   R(27,51)                1.0861         estimate D2E/DX2                !
 ! R57   R(27,52)                1.0851         estimate D2E/DX2                !
 ! R58   R(28,53)                1.0966         estimate D2E/DX2                !
 ! R59   R(28,54)                1.0948         estimate D2E/DX2                !
 ! R60   R(28,55)                1.093          estimate D2E/DX2                !
 ! R61   R(29,56)                1.0944         estimate D2E/DX2                !
 ! R62   R(29,57)                1.0965         estimate D2E/DX2                !
 ! R63   R(29,58)                1.0948         estimate D2E/DX2                !
 ! R64   R(32,59)                1.0954         estimate D2E/DX2                !
 ! R65   R(32,60)                1.0941         estimate D2E/DX2                !
 ! R66   R(32,61)                1.0949         estimate D2E/DX2                !
 ! R67   R(62,63)                1.0949         estimate D2E/DX2                !
 ! R68   R(62,64)                1.0944         estimate D2E/DX2                !
 ! R69   R(62,65)                1.0935         estimate D2E/DX2                !
 ! A1    A(2,1,6)              123.8577         estimate D2E/DX2                !
 ! A2    A(2,1,33)             119.9142         estimate D2E/DX2                !
 ! A3    A(6,1,33)             116.1269         estimate D2E/DX2                !
 ! A4    A(1,2,3)              121.7392         estimate D2E/DX2                !
 ! A5    A(1,2,32)             120.6958         estimate D2E/DX2                !
 ! A6    A(3,2,32)             117.4449         estimate D2E/DX2                !
 ! A7    A(2,3,4)              116.0925         estimate D2E/DX2                !
 ! A8    A(2,3,20)             113.0342         estimate D2E/DX2                !
 ! A9    A(2,3,31)             106.3436         estimate D2E/DX2                !
 ! A10   A(4,3,20)             105.7517         estimate D2E/DX2                !
 ! A11   A(4,3,31)             108.3426         estimate D2E/DX2                !
 ! A12   A(20,3,31)            106.8726         estimate D2E/DX2                !
 ! A13   A(3,4,5)              118.5163         estimate D2E/DX2                !
 ! A14   A(3,4,7)              104.8257         estimate D2E/DX2                !
 ! A15   A(3,4,24)             107.1136         estimate D2E/DX2                !
 ! A16   A(5,4,7)              112.598          estimate D2E/DX2                !
 ! A17   A(5,4,24)             106.5237         estimate D2E/DX2                !
 ! A18   A(7,4,24)             106.6069         estimate D2E/DX2                !
 ! A19   A(4,5,6)              113.2969         estimate D2E/DX2                !
 ! A20   A(4,5,10)             115.9166         estimate D2E/DX2                !
 ! A21   A(4,5,22)             101.7302         estimate D2E/DX2                !
 ! A22   A(6,5,10)             108.1725         estimate D2E/DX2                !
 ! A23   A(6,5,22)             109.8355         estimate D2E/DX2                !
 ! A24   A(10,5,22)            107.4953         estimate D2E/DX2                !
 ! A25   A(1,6,5)              114.2119         estimate D2E/DX2                !
 ! A26   A(1,6,34)             107.0066         estimate D2E/DX2                !
 ! A27   A(1,6,35)             107.8847         estimate D2E/DX2                !
 ! A28   A(5,6,34)             111.6112         estimate D2E/DX2                !
 ! A29   A(5,6,35)             110.4475         estimate D2E/DX2                !
 ! A30   A(34,6,35)            105.1983         estimate D2E/DX2                !
 ! A31   A(4,7,8)              115.2765         estimate D2E/DX2                !
 ! A32   A(4,7,17)             107.4955         estimate D2E/DX2                !
 ! A33   A(4,7,21)             112.2912         estimate D2E/DX2                !
 ! A34   A(8,7,17)              99.4453         estimate D2E/DX2                !
 ! A35   A(8,7,21)             108.6951         estimate D2E/DX2                !
 ! A36   A(17,7,21)            113.0548         estimate D2E/DX2                !
 ! A37   A(7,8,9)              123.1865         estimate D2E/DX2                !
 ! A38   A(7,8,19)             112.9757         estimate D2E/DX2                !
 ! A39   A(9,8,19)             123.3553         estimate D2E/DX2                !
 ! A40   A(8,9,10)             118.9006         estimate D2E/DX2                !
 ! A41   A(8,9,11)             119.1686         estimate D2E/DX2                !
 ! A42   A(10,9,11)            121.8958         estimate D2E/DX2                !
 ! A43   A(5,10,9)             120.3676         estimate D2E/DX2                !
 ! A44   A(5,10,16)            120.5829         estimate D2E/DX2                !
 ! A45   A(9,10,16)            119.0452         estimate D2E/DX2                !
 ! A46   A(9,11,12)            118.2854         estimate D2E/DX2                !
 ! A47   A(9,11,13)            120.0974         estimate D2E/DX2                !
 ! A48   A(12,11,13)           121.6105         estimate D2E/DX2                !
 ! A49   A(11,13,14)           111.9451         estimate D2E/DX2                !
 ! A50   A(11,13,15)           113.636          estimate D2E/DX2                !
 ! A51   A(11,13,36)           105.7125         estimate D2E/DX2                !
 ! A52   A(14,13,15)           109.8413         estimate D2E/DX2                !
 ! A53   A(14,13,36)           109.0237         estimate D2E/DX2                !
 ! A54   A(15,13,36)           106.3602         estimate D2E/DX2                !
 ! A55   A(13,14,37)           110.6165         estimate D2E/DX2                !
 ! A56   A(13,14,38)           109.04           estimate D2E/DX2                !
 ! A57   A(13,14,62)           113.8237         estimate D2E/DX2                !
 ! A58   A(37,14,38)           106.5891         estimate D2E/DX2                !
 ! A59   A(37,14,62)           108.8571         estimate D2E/DX2                !
 ! A60   A(38,14,62)           107.6233         estimate D2E/DX2                !
 ! A61   A(13,15,39)           110.5738         estimate D2E/DX2                !
 ! A62   A(13,15,40)           111.2128         estimate D2E/DX2                !
 ! A63   A(13,15,41)           111.8119         estimate D2E/DX2                !
 ! A64   A(39,15,40)           107.3093         estimate D2E/DX2                !
 ! A65   A(39,15,41)           107.627          estimate D2E/DX2                !
 ! A66   A(40,15,41)           108.1201         estimate D2E/DX2                !
 ! A67   A(7,17,18)            102.6132         estimate D2E/DX2                !
 ! A68   A(7,17,20)            101.9314         estimate D2E/DX2                !
 ! A69   A(7,17,30)            113.3625         estimate D2E/DX2                !
 ! A70   A(18,17,20)           114.907          estimate D2E/DX2                !
 ! A71   A(18,17,30)           112.368          estimate D2E/DX2                !
 ! A72   A(20,17,30)           110.9817         estimate D2E/DX2                !
 ! A73   A(17,18,19)           105.7143         estimate D2E/DX2                !
 ! A74   A(17,18,28)           112.7407         estimate D2E/DX2                !
 ! A75   A(17,18,29)           113.5881         estimate D2E/DX2                !
 ! A76   A(19,18,28)           108.0438         estimate D2E/DX2                !
 ! A77   A(19,18,29)           108.3512         estimate D2E/DX2                !
 ! A78   A(28,18,29)           108.1713         estimate D2E/DX2                !
 ! A79   A(8,19,18)            106.1346         estimate D2E/DX2                !
 ! A80   A(3,20,17)            105.8378         estimate D2E/DX2                !
 ! A81   A(3,20,42)            109.9409         estimate D2E/DX2                !
 ! A82   A(3,20,43)            111.5879         estimate D2E/DX2                !
 ! A83   A(17,20,42)           111.6508         estimate D2E/DX2                !
 ! A84   A(17,20,43)           110.853          estimate D2E/DX2                !
 ! A85   A(42,20,43)           107.0353         estimate D2E/DX2                !
 ! A86   A(7,21,44)            105.7212         estimate D2E/DX2                !
 ! A87   A(5,22,23)            103.0909         estimate D2E/DX2                !
 ! A88   A(5,22,45)            110.6402         estimate D2E/DX2                !
 ! A89   A(5,22,46)            113.2638         estimate D2E/DX2                !
 ! A90   A(23,22,45)           110.7964         estimate D2E/DX2                !
 ! A91   A(23,22,46)           112.2074         estimate D2E/DX2                !
 ! A92   A(45,22,46)           106.9056         estimate D2E/DX2                !
 ! A93   A(22,23,24)           105.2999         estimate D2E/DX2                !
 ! A94   A(22,23,25)           114.5887         estimate D2E/DX2                !
 ! A95   A(22,23,47)           110.4013         estimate D2E/DX2                !
 ! A96   A(24,23,25)           111.5659         estimate D2E/DX2                !
 ! A97   A(24,23,47)           106.7121         estimate D2E/DX2                !
 ! A98   A(25,23,47)           108.0072         estimate D2E/DX2                !
 ! A99   A(4,24,23)            109.6387         estimate D2E/DX2                !
 ! A100  A(23,25,26)           115.7091         estimate D2E/DX2                !
 ! A101  A(23,25,27)           124.1339         estimate D2E/DX2                !
 ! A102  A(26,25,27)           120.1131         estimate D2E/DX2                !
 ! A103  A(25,26,48)           110.2564         estimate D2E/DX2                !
 ! A104  A(25,26,49)           112.1614         estimate D2E/DX2                !
 ! A105  A(25,26,50)           110.6713         estimate D2E/DX2                !
 ! A106  A(48,26,49)           107.4669         estimate D2E/DX2                !
 ! A107  A(48,26,50)           108.6415         estimate D2E/DX2                !
 ! A108  A(49,26,50)           107.5051         estimate D2E/DX2                !
 ! A109  A(25,27,51)           121.4878         estimate D2E/DX2                !
 ! A110  A(25,27,52)           122.1299         estimate D2E/DX2                !
 ! A111  A(51,27,52)           116.3703         estimate D2E/DX2                !
 ! A112  A(18,28,53)           110.5417         estimate D2E/DX2                !
 ! A113  A(18,28,54)           111.2742         estimate D2E/DX2                !
 ! A114  A(18,28,55)           112.5672         estimate D2E/DX2                !
 ! A115  A(53,28,54)           108.2748         estimate D2E/DX2                !
 ! A116  A(53,28,55)           105.3294         estimate D2E/DX2                !
 ! A117  A(54,28,55)           108.5981         estimate D2E/DX2                !
 ! A118  A(18,29,56)           112.1293         estimate D2E/DX2                !
 ! A119  A(18,29,57)           110.6786         estimate D2E/DX2                !
 ! A120  A(18,29,58)           111.3655         estimate D2E/DX2                !
 ! A121  A(56,29,57)           105.2386         estimate D2E/DX2                !
 ! A122  A(56,29,58)           108.8937         estimate D2E/DX2                !
 ! A123  A(57,29,58)           108.2857         estimate D2E/DX2                !
 ! A124  A(2,32,59)            112.0549         estimate D2E/DX2                !
 ! A125  A(2,32,60)            110.8801         estimate D2E/DX2                !
 ! A126  A(2,32,61)            110.2245         estimate D2E/DX2                !
 ! A127  A(59,32,60)           107.4452         estimate D2E/DX2                !
 ! A128  A(59,32,61)           107.4105         estimate D2E/DX2                !
 ! A129  A(60,32,61)           108.6834         estimate D2E/DX2                !
 ! A130  A(14,62,63)           109.944          estimate D2E/DX2                !
 ! A131  A(14,62,64)           111.1488         estimate D2E/DX2                !
 ! A132  A(14,62,65)           111.6141         estimate D2E/DX2                !
 ! A133  A(63,62,64)           107.9685         estimate D2E/DX2                !
 ! A134  A(63,62,65)           107.3657         estimate D2E/DX2                !
 ! A135  A(64,62,65)           108.6555         estimate D2E/DX2                !
 ! D1    D(6,1,2,3)             -0.9563         estimate D2E/DX2                !
 ! D2    D(6,1,2,32)           174.9571         estimate D2E/DX2                !
 ! D3    D(33,1,2,3)          -177.1515         estimate D2E/DX2                !
 ! D4    D(33,1,2,32)           -1.2381         estimate D2E/DX2                !
 ! D5    D(2,1,6,5)             28.8476         estimate D2E/DX2                !
 ! D6    D(2,1,6,34)           -95.1965         estimate D2E/DX2                !
 ! D7    D(2,1,6,35)           152.05           estimate D2E/DX2                !
 ! D8    D(33,1,6,5)          -154.8254         estimate D2E/DX2                !
 ! D9    D(33,1,6,34)           81.1305         estimate D2E/DX2                !
 ! D10   D(33,1,6,35)          -31.623          estimate D2E/DX2                !
 ! D11   D(1,2,3,4)            -12.9764         estimate D2E/DX2                !
 ! D12   D(1,2,3,20)          -135.4349         estimate D2E/DX2                !
 ! D13   D(1,2,3,31)           107.6061         estimate D2E/DX2                !
 ! D14   D(32,2,3,4)           170.983          estimate D2E/DX2                !
 ! D15   D(32,2,3,20)           48.5245         estimate D2E/DX2                !
 ! D16   D(32,2,3,31)          -68.4345         estimate D2E/DX2                !
 ! D17   D(1,2,32,59)           -5.0598         estimate D2E/DX2                !
 ! D18   D(1,2,32,60)          114.9895         estimate D2E/DX2                !
 ! D19   D(1,2,32,61)         -124.6182         estimate D2E/DX2                !
 ! D20   D(3,2,32,59)          171.0243         estimate D2E/DX2                !
 ! D21   D(3,2,32,60)          -68.9264         estimate D2E/DX2                !
 ! D22   D(3,2,32,61)           51.4659         estimate D2E/DX2                !
 ! D23   D(2,3,4,5)             -1.8541         estimate D2E/DX2                !
 ! D24   D(2,3,4,7)           -128.4517         estimate D2E/DX2                !
 ! D25   D(2,3,4,24)           118.5414         estimate D2E/DX2                !
 ! D26   D(20,3,4,5)           124.3609         estimate D2E/DX2                !
 ! D27   D(20,3,4,7)            -2.2366         estimate D2E/DX2                !
 ! D28   D(20,3,4,24)         -115.2436         estimate D2E/DX2                !
 ! D29   D(31,3,4,5)          -121.3571         estimate D2E/DX2                !
 ! D30   D(31,3,4,7)           112.0453         estimate D2E/DX2                !
 ! D31   D(31,3,4,24)           -0.9616         estimate D2E/DX2                !
 ! D32   D(2,3,20,17)          152.3279         estimate D2E/DX2                !
 ! D33   D(2,3,20,42)           31.6049         estimate D2E/DX2                !
 ! D34   D(2,3,20,43)          -86.9962         estimate D2E/DX2                !
 ! D35   D(4,3,20,17)           24.2669         estimate D2E/DX2                !
 ! D36   D(4,3,20,42)          -96.4561         estimate D2E/DX2                !
 ! D37   D(4,3,20,43)          144.9427         estimate D2E/DX2                !
 ! D38   D(31,3,20,17)         -91.0254         estimate D2E/DX2                !
 ! D39   D(31,3,20,42)         148.2517         estimate D2E/DX2                !
 ! D40   D(31,3,20,43)          29.6505         estimate D2E/DX2                !
 ! D41   D(3,4,5,6)             27.8711         estimate D2E/DX2                !
 ! D42   D(3,4,5,10)           -98.0576         estimate D2E/DX2                !
 ! D43   D(3,4,5,22)           145.6936         estimate D2E/DX2                !
 ! D44   D(7,4,5,6)            150.6615         estimate D2E/DX2                !
 ! D45   D(7,4,5,10)            24.7328         estimate D2E/DX2                !
 ! D46   D(7,4,5,22)           -91.516          estimate D2E/DX2                !
 ! D47   D(24,4,5,6)           -92.8265         estimate D2E/DX2                !
 ! D48   D(24,4,5,10)          141.2448         estimate D2E/DX2                !
 ! D49   D(24,4,5,22)           24.9959         estimate D2E/DX2                !
 ! D50   D(3,4,7,8)             88.7147         estimate D2E/DX2                !
 ! D51   D(3,4,7,17)           -21.1089         estimate D2E/DX2                !
 ! D52   D(3,4,7,21)          -146.0681         estimate D2E/DX2                !
 ! D53   D(5,4,7,8)            -41.4575         estimate D2E/DX2                !
 ! D54   D(5,4,7,17)          -151.2812         estimate D2E/DX2                !
 ! D55   D(5,4,7,21)            83.7596         estimate D2E/DX2                !
 ! D56   D(24,4,7,8)          -157.9198         estimate D2E/DX2                !
 ! D57   D(24,4,7,17)           92.2565         estimate D2E/DX2                !
 ! D58   D(24,4,7,21)          -32.7026         estimate D2E/DX2                !
 ! D59   D(3,4,24,23)         -131.806          estimate D2E/DX2                !
 ! D60   D(5,4,24,23)           -4.0437         estimate D2E/DX2                !
 ! D61   D(7,4,24,23)          116.4033         estimate D2E/DX2                !
 ! D62   D(4,5,6,1)            -40.4326         estimate D2E/DX2                !
 ! D63   D(4,5,6,34)            81.1063         estimate D2E/DX2                !
 ! D64   D(4,5,6,35)          -162.2369         estimate D2E/DX2                !
 ! D65   D(10,5,6,1)            89.5226         estimate D2E/DX2                !
 ! D66   D(10,5,6,34)         -148.9384         estimate D2E/DX2                !
 ! D67   D(10,5,6,35)          -32.2816         estimate D2E/DX2                !
 ! D68   D(22,5,6,1)          -153.427          estimate D2E/DX2                !
 ! D69   D(22,5,6,34)          -31.8881         estimate D2E/DX2                !
 ! D70   D(22,5,6,35)           84.7687         estimate D2E/DX2                !
 ! D71   D(4,5,10,9)             5.0746         estimate D2E/DX2                !
 ! D72   D(4,5,10,16)         -174.1688         estimate D2E/DX2                !
 ! D73   D(6,5,10,9)          -123.4105         estimate D2E/DX2                !
 ! D74   D(6,5,10,16)           57.3461         estimate D2E/DX2                !
 ! D75   D(22,5,10,9)          118.0397         estimate D2E/DX2                !
 ! D76   D(22,5,10,16)         -61.2037         estimate D2E/DX2                !
 ! D77   D(4,5,22,23)          -35.7128         estimate D2E/DX2                !
 ! D78   D(4,5,22,45)           82.7845         estimate D2E/DX2                !
 ! D79   D(4,5,22,46)         -157.2035         estimate D2E/DX2                !
 ! D80   D(6,5,22,23)           84.5727         estimate D2E/DX2                !
 ! D81   D(6,5,22,45)         -156.93           estimate D2E/DX2                !
 ! D82   D(6,5,22,46)          -36.9179         estimate D2E/DX2                !
 ! D83   D(10,5,22,23)        -157.9541         estimate D2E/DX2                !
 ! D84   D(10,5,22,45)         -39.4568         estimate D2E/DX2                !
 ! D85   D(10,5,22,46)          80.5553         estimate D2E/DX2                !
 ! D86   D(4,7,8,9)             29.3655         estimate D2E/DX2                !
 ! D87   D(4,7,8,19)          -142.897          estimate D2E/DX2                !
 ! D88   D(17,7,8,9)           143.9218         estimate D2E/DX2                !
 ! D89   D(17,7,8,19)          -28.3408         estimate D2E/DX2                !
 ! D90   D(21,7,8,9)           -97.6927         estimate D2E/DX2                !
 ! D91   D(21,7,8,19)           90.0447         estimate D2E/DX2                !
 ! D92   D(4,7,17,18)          154.9306         estimate D2E/DX2                !
 ! D93   D(4,7,17,20)           35.6968         estimate D2E/DX2                !
 ! D94   D(4,7,17,30)          -83.6396         estimate D2E/DX2                !
 ! D95   D(8,7,17,18)           34.5136         estimate D2E/DX2                !
 ! D96   D(8,7,17,20)          -84.7202         estimate D2E/DX2                !
 ! D97   D(8,7,17,30)          155.9433         estimate D2E/DX2                !
 ! D98   D(21,7,17,18)         -80.5704         estimate D2E/DX2                !
 ! D99   D(21,7,17,20)         160.1957         estimate D2E/DX2                !
 ! D100  D(21,7,17,30)          40.8593         estimate D2E/DX2                !
 ! D101  D(4,7,21,44)           40.0716         estimate D2E/DX2                !
 ! D102  D(8,7,21,44)          168.8199         estimate D2E/DX2                !
 ! D103  D(17,7,21,44)         -81.7714         estimate D2E/DX2                !
 ! D104  D(7,8,9,10)             2.4695         estimate D2E/DX2                !
 ! D105  D(7,8,9,11)          -175.4216         estimate D2E/DX2                !
 ! D106  D(19,8,9,10)          173.9354         estimate D2E/DX2                !
 ! D107  D(19,8,9,11)           -3.9557         estimate D2E/DX2                !
 ! D108  D(7,8,19,18)            8.728          estimate D2E/DX2                !
 ! D109  D(9,8,19,18)         -163.5195         estimate D2E/DX2                !
 ! D110  D(8,9,10,5)           -20.317          estimate D2E/DX2                !
 ! D111  D(8,9,10,16)          158.938          estimate D2E/DX2                !
 ! D112  D(11,9,10,5)          157.514          estimate D2E/DX2                !
 ! D113  D(11,9,10,16)         -23.231          estimate D2E/DX2                !
 ! D114  D(8,9,11,12)           83.737          estimate D2E/DX2                !
 ! D115  D(8,9,11,13)          -97.1935         estimate D2E/DX2                !
 ! D116  D(10,9,11,12)         -94.0883         estimate D2E/DX2                !
 ! D117  D(10,9,11,13)          84.9811         estimate D2E/DX2                !
 ! D118  D(9,11,13,14)        -105.7273         estimate D2E/DX2                !
 ! D119  D(9,11,13,15)          19.4262         estimate D2E/DX2                !
 ! D120  D(9,11,13,36)         135.691          estimate D2E/DX2                !
 ! D121  D(12,11,13,14)         73.3105         estimate D2E/DX2                !
 ! D122  D(12,11,13,15)       -161.536          estimate D2E/DX2                !
 ! D123  D(12,11,13,36)        -45.2712         estimate D2E/DX2                !
 ! D124  D(11,13,14,37)         57.8209         estimate D2E/DX2                !
 ! D125  D(11,13,14,38)        174.7268         estimate D2E/DX2                !
 ! D126  D(11,13,14,62)        -65.1082         estimate D2E/DX2                !
 ! D127  D(15,13,14,37)        -69.4014         estimate D2E/DX2                !
 ! D128  D(15,13,14,38)         47.5045         estimate D2E/DX2                !
 ! D129  D(15,13,14,62)        167.6695         estimate D2E/DX2                !
 ! D130  D(36,13,14,37)        174.4204         estimate D2E/DX2                !
 ! D131  D(36,13,14,38)        -68.6737         estimate D2E/DX2                !
 ! D132  D(36,13,14,62)         51.4914         estimate D2E/DX2                !
 ! D133  D(11,13,15,39)        174.0708         estimate D2E/DX2                !
 ! D134  D(11,13,15,40)         54.9546         estimate D2E/DX2                !
 ! D135  D(11,13,15,41)        -66.0211         estimate D2E/DX2                !
 ! D136  D(14,13,15,39)        -59.6586         estimate D2E/DX2                !
 ! D137  D(14,13,15,40)       -178.7748         estimate D2E/DX2                !
 ! D138  D(14,13,15,41)         60.2495         estimate D2E/DX2                !
 ! D139  D(36,13,15,39)         58.1864         estimate D2E/DX2                !
 ! D140  D(36,13,15,40)        -60.9298         estimate D2E/DX2                !
 ! D141  D(36,13,15,41)        178.0945         estimate D2E/DX2                !
 ! D142  D(13,14,62,63)       -172.6575         estimate D2E/DX2                !
 ! D143  D(13,14,62,64)        -53.169          estimate D2E/DX2                !
 ! D144  D(13,14,62,65)         68.3105         estimate D2E/DX2                !
 ! D145  D(37,14,62,63)         63.4564         estimate D2E/DX2                !
 ! D146  D(37,14,62,64)       -177.0551         estimate D2E/DX2                !
 ! D147  D(37,14,62,65)        -55.5756         estimate D2E/DX2                !
 ! D148  D(38,14,62,63)        -51.6975         estimate D2E/DX2                !
 ! D149  D(38,14,62,64)         67.791          estimate D2E/DX2                !
 ! D150  D(38,14,62,65)       -170.7296         estimate D2E/DX2                !
 ! D151  D(7,17,18,19)         -31.9637         estimate D2E/DX2                !
 ! D152  D(7,17,18,28)          85.8645         estimate D2E/DX2                !
 ! D153  D(7,17,18,29)        -150.6319         estimate D2E/DX2                !
 ! D154  D(20,17,18,19)         77.7599         estimate D2E/DX2                !
 ! D155  D(20,17,18,28)       -164.412          estimate D2E/DX2                !
 ! D156  D(20,17,18,29)        -40.9083         estimate D2E/DX2                !
 ! D157  D(30,17,18,19)       -154.0706         estimate D2E/DX2                !
 ! D158  D(30,17,18,28)        -36.2425         estimate D2E/DX2                !
 ! D159  D(30,17,18,29)         87.2612         estimate D2E/DX2                !
 ! D160  D(7,17,20,3)          -36.7094         estimate D2E/DX2                !
 ! D161  D(7,17,20,42)          82.8961         estimate D2E/DX2                !
 ! D162  D(7,17,20,43)        -157.8619         estimate D2E/DX2                !
 ! D163  D(18,17,20,3)        -146.8421         estimate D2E/DX2                !
 ! D164  D(18,17,20,42)        -27.2365         estimate D2E/DX2                !
 ! D165  D(18,17,20,43)         92.0055         estimate D2E/DX2                !
 ! D166  D(30,17,20,3)          84.2961         estimate D2E/DX2                !
 ! D167  D(30,17,20,42)       -156.0983         estimate D2E/DX2                !
 ! D168  D(30,17,20,43)        -36.8563         estimate D2E/DX2                !
 ! D169  D(17,18,19,8)          14.7986         estimate D2E/DX2                !
 ! D170  D(28,18,19,8)        -106.1318         estimate D2E/DX2                !
 ! D171  D(29,18,19,8)         136.8918         estimate D2E/DX2                !
 ! D172  D(17,18,28,53)       -179.5517         estimate D2E/DX2                !
 ! D173  D(17,18,28,54)         60.1            estimate D2E/DX2                !
 ! D174  D(17,18,28,55)        -62.0707         estimate D2E/DX2                !
 ! D175  D(19,18,28,53)        -63.1027         estimate D2E/DX2                !
 ! D176  D(19,18,28,54)        176.5491         estimate D2E/DX2                !
 ! D177  D(19,18,28,55)         54.3784         estimate D2E/DX2                !
 ! D178  D(29,18,28,53)         53.99           estimate D2E/DX2                !
 ! D179  D(29,18,28,54)        -66.3583         estimate D2E/DX2                !
 ! D180  D(29,18,28,55)        171.471          estimate D2E/DX2                !
 ! D181  D(17,18,29,56)         65.0066         estimate D2E/DX2                !
 ! D182  D(17,18,29,57)       -177.8147         estimate D2E/DX2                !
 ! D183  D(17,18,29,58)        -57.2996         estimate D2E/DX2                !
 ! D184  D(19,18,29,56)        -52.1361         estimate D2E/DX2                !
 ! D185  D(19,18,29,57)         65.0427         estimate D2E/DX2                !
 ! D186  D(19,18,29,58)       -174.4422         estimate D2E/DX2                !
 ! D187  D(28,18,29,56)       -169.0304         estimate D2E/DX2                !
 ! D188  D(28,18,29,57)        -51.8517         estimate D2E/DX2                !
 ! D189  D(28,18,29,58)         68.6635         estimate D2E/DX2                !
 ! D190  D(5,22,23,24)          34.531          estimate D2E/DX2                !
 ! D191  D(5,22,23,25)         157.5053         estimate D2E/DX2                !
 ! D192  D(5,22,23,47)         -80.2927         estimate D2E/DX2                !
 ! D193  D(45,22,23,24)        -83.8572         estimate D2E/DX2                !
 ! D194  D(45,22,23,25)         39.1171         estimate D2E/DX2                !
 ! D195  D(45,22,23,47)        161.3192         estimate D2E/DX2                !
 ! D196  D(46,22,23,24)        156.7343         estimate D2E/DX2                !
 ! D197  D(46,22,23,25)        -80.2914         estimate D2E/DX2                !
 ! D198  D(46,22,23,47)         41.9107         estimate D2E/DX2                !
 ! D199  D(22,23,24,4)         -19.0804         estimate D2E/DX2                !
 ! D200  D(25,23,24,4)        -143.9693         estimate D2E/DX2                !
 ! D201  D(47,23,24,4)          98.2729         estimate D2E/DX2                !
 ! D202  D(22,23,25,26)         55.6046         estimate D2E/DX2                !
 ! D203  D(22,23,25,27)       -126.8122         estimate D2E/DX2                !
 ! D204  D(24,23,25,26)        175.1352         estimate D2E/DX2                !
 ! D205  D(24,23,25,27)         -7.2816         estimate D2E/DX2                !
 ! D206  D(47,23,25,26)        -67.8891         estimate D2E/DX2                !
 ! D207  D(47,23,25,27)        109.6941         estimate D2E/DX2                !
 ! D208  D(23,25,26,48)         53.7485         estimate D2E/DX2                !
 ! D209  D(23,25,26,49)        173.4697         estimate D2E/DX2                !
 ! D210  D(23,25,26,50)        -66.4769         estimate D2E/DX2                !
 ! D211  D(27,25,26,48)       -123.939          estimate D2E/DX2                !
 ! D212  D(27,25,26,49)         -4.2178         estimate D2E/DX2                !
 ! D213  D(27,25,26,50)        115.8356         estimate D2E/DX2                !
 ! D214  D(23,25,27,51)       -178.8975         estimate D2E/DX2                !
 ! D215  D(23,25,27,52)         -0.2076         estimate D2E/DX2                !
 ! D216  D(26,25,27,51)         -1.4149         estimate D2E/DX2                !
 ! D217  D(26,25,27,52)        177.2751         estimate D2E/DX2                !
 --------------------------------------------------------------------------------
 Trust Radius=3.00D-01 FncErr=1.00D-07 GrdErr=1.00D-06
 Number of steps in this run=    390 maximum allowed number of steps=    390.
 GradGradGradGradGradGradGradGradGradGradGradGradGradGradGradGradGradGrad

 Stoichiometry    C26H34O5
 Framework group  C1[X(C26H34O5)]
 Deg. of freedom   189
 Full point group                 C1      NOp   1
 Largest Abelian subgroup         C1      NOp   1
 Largest concise Abelian subgroup C1      NOp   1
                         Standard orientation:                         
 ---------------------------------------------------------------------
 Center     Atomic      Atomic             Coordinates (Angstroms)
 Number     Number       Type             X           Y           Z
 ---------------------------------------------------------------------
      1          6           0       -0.874656   -0.320651    3.269868
      2          6           0       -1.054030    0.963965    2.928689
      3          6           0       -1.492495    1.363394    1.539519
      4          6           0       -1.421311    0.251570    0.453215
      5          6           0       -0.879871   -1.131593    0.852523
      6          6           0       -1.103860   -1.467962    2.341530
      7          6           0       -0.629781    0.884841   -0.708050
      8          6           0        0.848224    0.720470   -0.634172
      9          6           0        1.439661   -0.322996   -0.044683
     10          6           0        0.596561   -1.397264    0.517901
     11          6           0        2.914926   -0.347013    0.067716
     12          8           0        3.439177    0.250705    1.011124
     13          6           0        3.751087   -1.117964   -0.958510
     14          6           0        4.310009   -2.427204   -0.377321
     15          6           0        3.006773   -1.405476   -2.265343
     16          8           0        1.090561   -2.511600    0.701514
     17          6           0       -0.720482    2.386869   -0.554384
     18          6           0        0.548616    2.877689   -1.284065
     19          8           0        1.542539    1.839203   -1.085554
     20          6           0       -0.693478    2.552241    0.973951
     21          8           0       -1.074788    0.428655   -1.973559
     22          6           0       -1.724588   -2.061034   -0.022750
     23          6           0       -3.078097   -1.368393   -0.054440
     24          8           0       -2.784453    0.039626   -0.036182
     25          6           0       -3.948212   -1.739971   -1.235848
     26          6           0       -4.219268   -3.211351   -1.410595
     27          6           0       -4.505942   -0.847157   -2.072623
     28          6           0        0.335339    3.049753   -2.796630
     29          6           0        1.106428    4.192252   -0.727421
     30          1           0       -1.636761    2.812658   -0.979061
     31          1           0       -2.537850    1.694479    1.628061
     32          6           0       -0.911085    2.058794    3.953212
     33          1           0       -0.603150   -0.578088    4.292391
     34          1           0       -2.122600   -1.830443    2.524952
     35          1           0       -0.445949   -2.289413    2.652147
     36          1           0        4.587999   -0.455490   -1.218373
     37          1           0        3.497499   -3.067318   -0.017795
     38          1           0        4.818530   -2.984338   -1.174305
     39          1           0        3.679612   -1.862816   -2.999005
     40          1           0        2.617334   -0.484014   -2.710456
     41          1           0        2.166773   -2.091556   -2.112787
     42          1           0        0.331097    2.534152    1.364882
     43          1           0       -1.133372    3.511288    1.270427
     44          1           0       -2.049433    0.383762   -1.911247
     45          1           0       -1.299788   -2.133380   -1.033067
     46          1           0       -1.791047   -3.082571    0.368976
     47          1           0       -3.640096   -1.585265    0.862052
     48          1           0       -4.627363   -3.634012   -0.486597
     49          1           0       -4.943310   -3.406121   -2.209070
     50          1           0       -3.298569   -3.746482   -1.663326
     51          1           0       -5.138447   -1.161214   -2.897816
     52          1           0       -4.368148    0.222259   -1.950878
     53          1           0        1.259062    3.390955   -3.279102
     54          1           0       -0.451816    3.781248   -3.006119
     55          1           0        0.079613    2.110473   -3.293722
     56          1           0        1.462505    4.085933    0.301907
     57          1           0        1.981643    4.516112   -1.303149
     58          1           0        0.357565    4.990042   -0.762856
     59          1           0       -0.744885    1.660755    4.960061
     60          1           0       -0.064347    2.708919    3.713625
     61          1           0       -1.821214    2.666475    3.987278
     62          6           0        5.310644   -2.221138    0.751865
     63          1           0        5.763644   -3.178695    1.028833
     64          1           0        6.114091   -1.542715    0.448568
     65          1           0        4.830226   -1.816326    1.646912
 ---------------------------------------------------------------------
 Rotational constants (GHZ):      0.1877927      0.1340864      0.1205673
 Standard basis: 6-31G(d) (6D, 7F)
 There are   533 symmetry adapted basis functions of A   symmetry.
 Integral buffers will be    131072 words long.
 Raffenetti 2 integral format.
 Two-electron integral symmetry is turned on.
   533 basis functions,  1004 primitive gaussians,   533 cartesian basis functions
   115 alpha electrons      115 beta electrons
       nuclear repulsion energy      3533.0322026978 Hartrees.
 NAtoms=   65 NActive=   65 NUniq=   65 SFac= 1.00D+00 NAtFMM=   50 NAOKFM=T Big=T
 One-electron integrals computed using PRISM.
 NBasis=   533 RedAO= T  NBF=   533
 NBsUse=   533 1.00D-06 NBFU=   533
 Harris functional with IExCor=  402 diagonalized for initial guess.
 ExpMin= 1.61D-01 ExpMax= 5.48D+03 ExpMxC= 8.25D+02 IAcc=1 IRadAn=         1 AccDes= 0.00D+00
 HarFok:  IExCor=  402 AccDes= 0.00D+00 IRadAn=         1 IDoV= 1
 ScaDFX=  1.000000  1.000000  1.000000  1.000000
 FoFCou: FMM=F IPFlag=           0 FMFlag=      100000 FMFlg1=        2001
         NFxFlg=           0 DoJE=T BraDBF=F KetDBF=T FulRan=T
         Omega=  0.000000  0.000000  1.000000  0.000000  0.000000 ICntrl=     500 IOpCl=  0
         NMat0=    1 NMatS0=    1 NMatT0=    0 NMatD0=    1 NMtDS0=    0 NMtDT0=    0
         I1Cent=           4 NGrid=           0.
 Petite list used in FoFCou.
 Initial guess orbital symmetries:
       Occupied  (A) (A) (A) (A) (A) (A) (A) (A) (A) (A) (A) (A)
                 (A) (A) (A) (A) (A) (A) (A) (A) (A) (A) (A) (A)
                 (A) (A) (A) (A) (A) (A) (A) (A) (A) (A) (A) (A)
                 (A) (A) (A) (A) (A) (A) (A) (A) (A) (A) (A) (A)
                 (A) (A) (A) (A) (A) (A) (A) (A) (A) (A) (A) (A)
                 (A) (A) (A) (A) (A) (A) (A) (A) (A) (A) (A) (A)
                 (A) (A) (A) (A) (A) (A) (A) (A) (A) (A) (A) (A)
                 (A) (A) (A) (A) (A) (A) (A) (A) (A) (A) (A) (A)
                 (A) (A) (A) (A) (A) (A) (A) (A) (A) (A) (A) (A)
                 (A) (A) (A) (A) (A) (A) (A)
       Virtual   (A) (A) (A) (A) (A) (A) (A) (A) (A) (A) (A) (A)
                 (A) (A) (A) (A) (A) (A) (A) (A) (A) (A) (A) (A)
                 (A) (A) (A) (A) (A) (A) (A) (A) (A) (A) (A) (A)
                 (A) (A) (A) (A) (A) (A) (A) (A) (A) (A) (A) (A)
                 (A) (A) (A) (A) (A) (A) (A) (A) (A) (A) (A) (A)
                 (A) (A) (A) (A) (A) (A) (A) (A) (A) (A) (A) (A)
                 (A) (A) (A) (A) (A) (A) (A) (A) (A) (A) (A) (A)
                 (A) (A) (A) (A) (A) (A) (A) (A) (A) (A) (A) (A)
                 (A) (A) (A) (A) (A) (A) (A) (A) (A) (A) (A) (A)
                 (A) (A) (A) (A) (A) (A) (A) (A) (A) (A) (A) (A)
                 (A) (A) (A) (A) (A) (A) (A) (A) (A) (A) (A) (A)
                 (A) (A) (A) (A) (A) (A) (A) (A) (A) (A) (A) (A)
                 (A) (A) (A) (A) (A) (A) (A) (A) (A) (A) (A) (A)
                 (A) (A) (A) (A) (A) (A) (A) (A) (A) (A) (A) (A)
                 (A) (A) (A) (A) (A) (A) (A) (A) (A) (A) (A) (A)
                 (A) (A) (A) (A) (A) (A) (A) (A) (A) (A) (A) (A)
                 (A) (A) (A) (A) (A) (A) (A) (A) (A) (A) (A) (A)
                 (A) (A) (A) (A) (A) (A) (A) (A) (A) (A) (A) (A)
                 (A) (A) (A) (A) (A) (A) (A) (A) (A) (A) (A) (A)
                 (A) (A) (A) (A) (A) (A) (A) (A) (A) (A) (A) (A)
                 (A) (A) (A) (A) (A) (A) (A) (A) (A) (A) (A) (A)
                 (A) (A) (A) (A) (A) (A) (A) (A) (A) (A) (A) (A)
                 (A) (A) (A) (A) (A) (A) (A) (A) (A) (A) (A) (A)
                 (A) (A) (A) (A) (A) (A) (A) (A) (A) (A) (A) (A)
                 (A) (A) (A) (A) (A) (A) (A) (A) (A) (A) (A) (A)
                 (A) (A) (A) (A) (A) (A) (A) (A) (A) (A) (A) (A)
                 (A) (A) (A) (A) (A) (A) (A) (A) (A) (A) (A) (A)
                 (A) (A) (A) (A) (A) (A) (A) (A) (A) (A) (A) (A)
                 (A) (A) (A) (A) (A) (A) (A) (A) (A) (A) (A) (A)
                 (A) (A) (A) (A) (A) (A) (A) (A) (A) (A) (A) (A)
                 (A) (A) (A) (A) (A) (A) (A) (A) (A) (A) (A) (A)
                 (A) (A) (A) (A) (A) (A) (A) (A) (A) (A) (A) (A)
                 (A) (A) (A) (A) (A) (A) (A) (A) (A) (A) (A) (A)
                 (A) (A) (A) (A) (A) (A) (A) (A) (A) (A) (A) (A)
                 (A) (A) (A) (A) (A) (A) (A) (A) (A) (A)
 The electronic state of the initial guess is 1-A.
 Requested convergence on RMS density matrix=1.00D-08 within 128 cycles.
 Requested convergence on MAX density matrix=1.00D-06.
 Requested convergence on             energy=1.00D-06.
 No special actions if energy rises.
 Integral accuracy reduced to 1.0D-05 until final iterations.
 Initial convergence to 1.0D-05 achieved.  Increase integral accuracy.
 SCF Done:  E(RB3LYP) =  -1387.30179404     A.U. after   16 cycles
             Convg  =    0.4292D-08             -V/T =  2.0091

 **********************************************************************

            Population analysis using the SCF density.

 **********************************************************************

 Orbital symmetries:
       Occupied  (A) (A) (A) (A) (A) (A) (A) (A) (A) (A) (A) (A)
                 (A) (A) (A) (A) (A) (A) (A) (A) (A) (A) (A) (A)
                 (A) (A) (A) (A) (A) (A) (A) (A) (A) (A) (A) (A)
                 (A) (A) (A) (A) (A) (A) (A) (A) (A) (A) (A) (A)
                 (A) (A) (A) (A) (A) (A) (A) (A) (A) (A) (A) (A)
                 (A) (A) (A) (A) (A) (A) (A) (A) (A) (A) (A) (A)
                 (A) (A) (A) (A) (A) (A) (A) (A) (A) (A) (A) (A)
                 (A) (A) (A) (A) (A) (A) (A) (A) (A) (A) (A) (A)
                 (A) (A) (A) (A) (A) (A) (A) (A) (A) (A) (A) (A)
                 (A) (A) (A) (A) (A) (A) (A)
       Virtual   (A) (A) (A) (A) (A) (A) (A) (A) (A) (A) (A) (A)
                 (A) (A) (A) (A) (A) (A) (A) (A) (A) (A) (A) (A)
                 (A) (A) (A) (A) (A) (A) (A) (A) (A) (A) (A) (A)
                 (A) (A) (A) (A) (A) (A) (A) (A) (A) (A) (A) (A)
                 (A) (A) (A) (A) (A) (A) (A) (A) (A) (A) (A) (A)
                 (A) (A) (A) (A) (A) (A) (A) (A) (A) (A) (A) (A)
                 (A) (A) (A) (A) (A) (A) (A) (A) (A) (A) (A) (A)
                 (A) (A) (A) (A) (A) (A) (A) (A) (A) (A) (A) (A)
                 (A) (A) (A) (A) (A) (A) (A) (A) (A) (A) (A) (A)
                 (A) (A) (A) (A) (A) (A) (A) (A) (A) (A) (A) (A)
                 (A) (A) (A) (A) (A) (A) (A) (A) (A) (A) (A) (A)
                 (A) (A) (A) (A) (A) (A) (A) (A) (A) (A) (A) (A)
                 (A) (A) (A) (A) (A) (A) (A) (A) (A) (A) (A) (A)
                 (A) (A) (A) (A) (A) (A) (A) (A) (A) (A) (A) (A)
                 (A) (A) (A) (A) (A) (A) (A) (A) (A) (A) (A) (A)
                 (A) (A) (A) (A) (A) (A) (A) (A) (A) (A) (A) (A)
                 (A) (A) (A) (A) (A) (A) (A) (A) (A) (A) (A) (A)
                 (A) (A) (A) (A) (A) (A) (A) (A) (A) (A) (A) (A)
                 (A) (A) (A) (A) (A) (A) (A) (A) (A) (A) (A) (A)
                 (A) (A) (A) (A) (A) (A) (A) (A) (A) (A) (A) (A)
                 (A) (A) (A) (A) (A) (A) (A) (A) (A) (A) (A) (A)
                 (A) (A) (A) (A) (A) (A) (A) (A) (A) (A) (A) (A)
                 (A) (A) (A) (A) (A) (A) (A) (A) (A) (A) (A) (A)
                 (A) (A) (A) (A) (A) (A) (A) (A) (A) (A) (A) (A)
                 (A) (A) (A) (A) (A) (A) (A) (A) (A) (A) (A) (A)
                 (A) (A) (A) (A) (A) (A) (A) (A) (A) (A) (A) (A)
                 (A) (A) (A) (A) (A) (A) (A) (A) (A) (A) (A) (A)
                 (A) (A) (A) (A) (A) (A) (A) (A) (A) (A) (A) (A)
                 (A) (A) (A) (A) (A) (A) (A) (A) (A) (A) (A) (A)
                 (A) (A) (A) (A) (A) (A) (A) (A) (A) (A) (A) (A)
                 (A) (A) (A) (A) (A) (A) (A) (A) (A) (A) (A) (A)
                 (A) (A) (A) (A) (A) (A) (A) (A) (A) (A) (A) (A)
                 (A) (A) (A) (A) (A) (A) (A) (A) (A) (A) (A) (A)
                 (A) (A) (A) (A) (A) (A) (A) (A) (A) (A) (A) (A)
                 (A) (A) (A) (A) (A) (A) (A) (A) (A) (A)
 The electronic state is 1-A.
 Alpha  occ. eigenvalues --  -19.19437 -19.16787 -19.15183 -19.13673 -19.13209
 Alpha  occ. eigenvalues --  -10.28127 -10.27038 -10.26728 -10.25946 -10.25929
 Alpha  occ. eigenvalues --  -10.25380 -10.25231 -10.21768 -10.20763 -10.20156
 Alpha  occ. eigenvalues --  -10.19986 -10.19766 -10.19468 -10.19312 -10.19273
 Alpha  occ. eigenvalues --  -10.19241 -10.19150 -10.18450 -10.18414 -10.18336
 Alpha  occ. eigenvalues --  -10.18279 -10.18008 -10.17573 -10.16891 -10.16619
 Alpha  occ. eigenvalues --  -10.15279  -1.08309  -1.05910  -1.03508  -1.02268
 Alpha  occ. eigenvalues --   -1.02172  -0.87334  -0.84009  -0.82703  -0.81779
 Alpha  occ. eigenvalues --   -0.80391  -0.79668  -0.76869  -0.74467  -0.73648
 Alpha  occ. eigenvalues --   -0.72229  -0.71337  -0.69378  -0.69289  -0.68064
 Alpha  occ. eigenvalues --   -0.64903  -0.64160  -0.63233  -0.61914  -0.60842
 Alpha  occ. eigenvalues --   -0.59373  -0.58889  -0.57406  -0.55578  -0.53898
 Alpha  occ. eigenvalues --   -0.53325  -0.52277  -0.50960  -0.50573  -0.49076
 Alpha  occ. eigenvalues --   -0.48008  -0.47581  -0.46623  -0.45964  -0.45640
 Alpha  occ. eigenvalues --   -0.44944  -0.44580  -0.44208  -0.43854  -0.43143
 Alpha  occ. eigenvalues --   -0.42889  -0.42440  -0.42165  -0.41963  -0.41524
 Alpha  occ. eigenvalues --   -0.40943  -0.40614  -0.40420  -0.40174  -0.39671
 Alpha  occ. eigenvalues --   -0.39049  -0.38708  -0.38533  -0.38242  -0.38142
 Alpha  occ. eigenvalues --   -0.37212  -0.37008  -0.36964  -0.36837  -0.36556
 Alpha  occ. eigenvalues --   -0.35969  -0.35697  -0.34723  -0.34442  -0.34384
 Alpha  occ. eigenvalues --   -0.33907  -0.33399  -0.32986  -0.32529  -0.32031
 Alpha  occ. eigenvalues --   -0.31574  -0.31365  -0.30779  -0.28062  -0.26573
 Alpha  occ. eigenvalues --   -0.25717  -0.25213  -0.24535  -0.23360  -0.23082
 Alpha virt. eigenvalues --   -0.05124  -0.01905   0.01063   0.02271   0.03573
 Alpha virt. eigenvalues --    0.07181   0.07966   0.08983   0.09196   0.10166
 Alpha virt. eigenvalues --    0.10607   0.11091   0.11535   0.11931   0.12580
 Alpha virt. eigenvalues --    0.12859   0.13121   0.13640   0.13716   0.13960
 Alpha virt. eigenvalues --    0.14360   0.14824   0.15058   0.15581   0.15761
 Alpha virt. eigenvalues --    0.15927   0.16168   0.16696   0.17190   0.17696
 Alpha virt. eigenvalues --    0.18006   0.18176   0.18547   0.18861   0.19040
 Alpha virt. eigenvalues --    0.19295   0.19847   0.20120   0.20255   0.20361
 Alpha virt. eigenvalues --    0.20992   0.21126   0.21467   0.21617   0.22452
 Alpha virt. eigenvalues --    0.22858   0.23649   0.24032   0.24591   0.24822
 Alpha virt. eigenvalues --    0.25029   0.25375   0.25848   0.26551   0.27049
 Alpha virt. eigenvalues --    0.27572   0.27951   0.28160   0.29163   0.30358
 Alpha virt. eigenvalues --    0.30957   0.32048   0.32611   0.33448   0.34548
 Alpha virt. eigenvalues --    0.35286   0.35603   0.36825   0.38770   0.40269
 Alpha virt. eigenvalues --    0.42286   0.45367   0.45748   0.48158   0.48321
 Alpha virt. eigenvalues --    0.50068   0.50325   0.51479   0.51870   0.52001
 Alpha virt. eigenvalues --    0.52482   0.52664   0.53155   0.53591   0.53949
 Alpha virt. eigenvalues --    0.54472   0.55210   0.55388   0.55485   0.56836
 Alpha virt. eigenvalues --    0.57366   0.57492   0.57980   0.58526   0.58786
 Alpha virt. eigenvalues --    0.59991   0.60962   0.61767   0.61848   0.62058
 Alpha virt. eigenvalues --    0.62229   0.62618   0.63122   0.63889   0.64580
 Alpha virt. eigenvalues --    0.65197   0.65749   0.66487   0.66810   0.66903
 Alpha virt. eigenvalues --    0.67817   0.68208   0.68676   0.69223   0.69324
 Alpha virt. eigenvalues --    0.70433   0.70937   0.72187   0.72599   0.73466
 Alpha virt. eigenvalues --    0.74430   0.74661   0.75481   0.76071   0.76356
 Alpha virt. eigenvalues --    0.77102   0.77241   0.77878   0.78552   0.79503
 Alpha virt. eigenvalues --    0.80483   0.80925   0.81214   0.81693   0.82096
 Alpha virt. eigenvalues --    0.82561   0.82916   0.83553   0.84389   0.84978
 Alpha virt. eigenvalues --    0.85442   0.85796   0.85950   0.86428   0.87084
 Alpha virt. eigenvalues --    0.87499   0.87917   0.88519   0.88760   0.89184
 Alpha virt. eigenvalues --    0.89535   0.89983   0.90405   0.90549   0.90853
 Alpha virt. eigenvalues --    0.91027   0.91397   0.92122   0.92406   0.92699
 Alpha virt. eigenvalues --    0.93063   0.93659   0.94001   0.94318   0.94718
 Alpha virt. eigenvalues --    0.94923   0.95484   0.95892   0.96196   0.96792
 Alpha virt. eigenvalues --    0.97276   0.97898   0.98467   0.99228   0.99232
 Alpha virt. eigenvalues --    1.00648   1.01340   1.02210   1.03297   1.04123
 Alpha virt. eigenvalues --    1.04750   1.04930   1.06278   1.06835   1.07926
 Alpha virt. eigenvalues --    1.08935   1.09557   1.10349   1.10934   1.12074
 Alpha virt. eigenvalues --    1.12420   1.14204   1.14800   1.15826   1.16944
 Alpha virt. eigenvalues --    1.17311   1.18469   1.19160   1.20382   1.21805
 Alpha virt. eigenvalues --    1.23186   1.23923   1.24765   1.25072   1.26216
 Alpha virt. eigenvalues --    1.28546   1.29720   1.30811   1.32261   1.32657
 Alpha virt. eigenvalues --    1.34210   1.36080   1.38508   1.39688   1.39936
 Alpha virt. eigenvalues --    1.41215   1.42188   1.43124   1.44852   1.46696
 Alpha virt. eigenvalues --    1.47809   1.48935   1.50454   1.51114   1.53197
 Alpha virt. eigenvalues --    1.54465   1.55100   1.55880   1.56703   1.57994
 Alpha virt. eigenvalues --    1.60821   1.61380   1.62241   1.62846   1.63040
 Alpha virt. eigenvalues --    1.65564   1.65700   1.67099   1.67613   1.68854
 Alpha virt. eigenvalues --    1.70541   1.72003   1.73342   1.73757   1.74031
 Alpha virt. eigenvalues --    1.75721   1.76417   1.76912   1.77773   1.78697
 Alpha virt. eigenvalues --    1.79668   1.79827   1.81339   1.82355   1.82775
 Alpha virt. eigenvalues --    1.83268   1.83478   1.84156   1.85115   1.85750
 Alpha virt. eigenvalues --    1.86865   1.87357   1.87660   1.88578   1.88649
 Alpha virt. eigenvalues --    1.88795   1.90031   1.90501   1.90653   1.91251
 Alpha virt. eigenvalues --    1.91886   1.92992   1.93590   1.94039   1.95384
 Alpha virt. eigenvalues --    1.95891   1.96181   1.97476   1.98138   1.98302
 Alpha virt. eigenvalues --    1.99237   1.99487   2.01124   2.01623   2.02010
 Alpha virt. eigenvalues --    2.02207   2.03332   2.04028   2.05039   2.05964
 Alpha virt. eigenvalues --    2.06495   2.06932   2.07882   2.08643   2.09641
 Alpha virt. eigenvalues --    2.10545   2.10904   2.12050   2.13070   2.13684
 Alpha virt. eigenvalues --    2.14600   2.15783   2.16926   2.17239   2.19692
 Alpha virt. eigenvalues --    2.20219   2.20543   2.21539   2.22574   2.23146
 Alpha virt. eigenvalues --    2.23600   2.24287   2.25931   2.26593   2.27074
 Alpha virt. eigenvalues --    2.28360   2.29123   2.29827   2.30800   2.32098
 Alpha virt. eigenvalues --    2.32528   2.33581   2.34409   2.34559   2.35882
 Alpha virt. eigenvalues --    2.35989   2.36839   2.37414   2.37763   2.38528
 Alpha virt. eigenvalues --    2.39102   2.41353   2.41713   2.42633   2.43450
 Alpha virt. eigenvalues --    2.44536   2.45477   2.46374   2.47883   2.49598
 Alpha virt. eigenvalues --    2.50449   2.50769   2.52666   2.53554   2.54778
 Alpha virt. eigenvalues --    2.56803   2.57551   2.57977   2.59348   2.60778
 Alpha virt. eigenvalues --    2.61719   2.62562   2.63688   2.64657   2.66442
 Alpha virt. eigenvalues --    2.66876   2.68276   2.69142   2.70398   2.70681
 Alpha virt. eigenvalues --    2.71623   2.72228   2.74420   2.76628   2.78967
 Alpha virt. eigenvalues --    2.80020   2.80849   2.81420   2.83711   2.84511
 Alpha virt. eigenvalues --    2.86154   2.92183   2.92237   2.95260   2.96561
 Alpha virt. eigenvalues --    2.97878   2.99998   3.00364   3.02153   3.04022
 Alpha virt. eigenvalues --    3.06543   3.07555   3.12846   3.18323   3.20507
 Alpha virt. eigenvalues --    3.21834   3.29644   4.02092   4.09053   4.11234
 Alpha virt. eigenvalues --    4.12599   4.14035   4.16659   4.18710   4.19610
 Alpha virt. eigenvalues --    4.22842   4.25774   4.27453   4.29764   4.31649
 Alpha virt. eigenvalues --    4.34013   4.36039   4.38452   4.39198   4.42102
 Alpha virt. eigenvalues --    4.46867   4.50600   4.52791   4.55682   4.60216
 Alpha virt. eigenvalues --    4.61844   4.65413   4.71949   4.75364   4.82298
 Alpha virt. eigenvalues --    4.91923   5.03558   5.19363
          Condensed to atoms (all electrons):
 Mulliken atomic charges:
              1
     1  C   -0.192126
     2  C    0.192524
     3  C   -0.187345
     4  C    0.320574
     5  C   -0.042611
     6  C   -0.333096
     7  C    0.207634
     8  C    0.405080
     9  C   -0.088139
    10  C    0.427080
    11  C    0.413485
    12  O   -0.448881
    13  C   -0.143740
    14  C   -0.263700
    15  C   -0.471252
    16  O   -0.507494
    17  C   -0.161961
    18  C    0.311960
    19  O   -0.538997
    20  C   -0.321665
    21  O   -0.663438
    22  C   -0.322788
    23  C    0.109529
    24  O   -0.589425
    25  C    0.189203
    26  C   -0.519044
    27  C   -0.404214
    28  C   -0.462644
    29  C   -0.462729
    30  H    0.142925
    31  H    0.164556
    32  C   -0.517593
    33  H    0.123835
    34  H    0.150976
    35  H    0.178710
    36  H    0.152438
    37  H    0.171222
    38  H    0.130188
    39  H    0.143586
    40  H    0.152270
    41  H    0.157403
    42  H    0.174392
    43  H    0.147416
    44  H    0.413309
    45  H    0.174008
    46  H    0.167601
    47  H    0.144893
    48  H    0.156445
    49  H    0.161349
    50  H    0.168771
    51  H    0.140123
    52  H    0.144923
    53  H    0.148702
    54  H    0.139120
    55  H    0.184663
    56  H    0.163328
    57  H    0.157997
    58  H    0.148557
    59  H    0.158084
    60  H    0.162812
    61  H    0.148595
    62  C   -0.442523
    63  H    0.131201
    64  H    0.137533
    65  H    0.166406
 Sum of Mulliken atomic charges =   0.00000
 Mulliken charges with hydrogens summed into heavy atoms:
              1
     1  C   -0.068291
     2  C    0.192524
     3  C   -0.022789
     4  C    0.320574
     5  C   -0.042611
     6  C   -0.003410
     7  C    0.207634
     8  C    0.405080
     9  C   -0.088139
    10  C    0.427080
    11  C    0.413485
    12  O   -0.448881
    13  C    0.008697
    14  C    0.037710
    15  C   -0.017993
    16  O   -0.507494
    17  C   -0.019036
    18  C    0.311960
    19  O   -0.538997
    20  C    0.000143
    21  O   -0.250129
    22  C    0.018821
    23  C    0.254422
    24  O   -0.589425
    25  C    0.189203
    26  C   -0.032479
    27  C   -0.119168
    28  C    0.009840
    29  C    0.007153
    32  C   -0.048102
    62  C   -0.007384
 Sum of Mulliken charges with hydrogens summed into heavy atoms =   0.00000
 Electronic spatial extent (au):  <R**2>=          11252.4492
 Charge=              0.0000 electrons
 Dipole moment (field-independent basis, Debye):
    X=             -4.5135    Y=              1.5592    Z=             -0.6995  Tot=              4.8262
 Quadrupole moment (field-independent basis, Debye-Ang):
   XX=           -188.9122   YY=           -174.7468   ZZ=           -182.4845
   XY=              3.3705   XZ=             -6.4659   YZ=              0.5344
 Traceless Quadrupole moment (field-independent basis, Debye-Ang):
   XX=             -6.8644   YY=              7.3010   ZZ=             -0.4367
   XY=              3.3705   XZ=             -6.4659   YZ=              0.5344
 Octapole moment (field-independent basis, Debye-Ang**2):
  XXX=            -28.4153  YYY=             42.4108  ZZZ=             13.1787  XYY=            -27.7375
  XXY=            -29.4596  XXZ=            -46.7618  XZZ=            -12.0308  YZZ=              1.2775
  YYZ=            -14.2101  XYZ=             -1.1460
 Hexadecapole moment (field-independent basis, Debye-Ang**3):
 XXXX=          -7416.3313 YYYY=          -4431.7463 ZZZZ=          -3281.4607 XXXY=             38.2942
 XXXZ=            -32.2928 YYYX=             64.1046 YYYZ=            -17.9890 ZZZX=             26.5871
 ZZZY=            -23.0730 XXYY=          -1877.3830 XXZZ=          -1736.1543 YYZZ=          -1273.3710
 XXYZ=             21.5417 YYXZ=              2.1576 ZZXY=             13.4588
 N-N= 3.533032202698D+03 E-N=-1.029245947553D+04  KE= 1.374765197302D+03
 Calling FoFJK, ICntrl=      2127 FMM=T ISym2X=0 I1Cent= 0 IOpClX= 0 NMat=1 NMatS=1 NMatT=0.
 ***** Axes restored to original set *****
 -------------------------------------------------------------------
 Center     Atomic                   Forces (Hartrees/Bohr)
 Number     Number              X              Y              Z
 -------------------------------------------------------------------
      1        6           0.009786444   -0.000680512    0.000316588
      2        6          -0.012327045   -0.005213462    0.001973338
      3        6          -0.000944685   -0.008049860   -0.000568150
      4        6           0.003995681   -0.004153647    0.010168248
      5        6          -0.011576611   -0.001293718    0.000499162
      6        6          -0.004677877   -0.010715345   -0.000775882
      7        6           0.010812908    0.019887522    0.008322758
      8        6           0.010206674   -0.013556548   -0.014749370
      9        6           0.001018854    0.006088560    0.012745249
     10        6          -0.005201603    0.002330653   -0.020724247
     11        6          -0.008932468   -0.027301967   -0.020921449
     12        8          -0.003439126    0.021529518    0.002757878
     13        6           0.004107883    0.009802956   -0.000453357
     14        6          -0.006143061   -0.007656772   -0.003073391
     15        6           0.003778313    0.003801413    0.003985497
     16        8           0.006098949   -0.004051933    0.010058495
     17        6           0.007983492   -0.010926543   -0.005455318
     18        6           0.032279040    0.007509949   -0.000606912
     19        8          -0.028276806    0.002936678    0.026526284
     20        6           0.011331130   -0.005058351   -0.000160527
     21        8          -0.005750407    0.006446737   -0.001926575
     22        6          -0.010477549    0.010969127    0.000370448
     23        6           0.007788646    0.008983645    0.003902733
     24        8          -0.003967583   -0.003781040   -0.008751737
     25        6           0.009576008    0.011347845    0.006369253
     26        6          -0.000200474   -0.000228587   -0.000027430
     27        6          -0.003278184   -0.009235090   -0.003668925
     28        6          -0.003037334    0.007659140   -0.004999450
     29        6          -0.003726420   -0.006450219   -0.008822635
     30        1          -0.001654567    0.001096718   -0.001723795
     31        1          -0.003412082    0.006093195   -0.000076907
     32        6          -0.001170340    0.000852720   -0.001105571
     33        1           0.001390903   -0.000732738   -0.000111649
     34        1          -0.000612414    0.005660888    0.001922492
     35        1           0.000291085    0.007348597   -0.001184246
     36        1          -0.001759969   -0.005374093   -0.000884906
     37        1           0.002418725    0.002256618    0.002124270
     38        1           0.003294772    0.003663332    0.000935219
     39        1          -0.000750056   -0.001201980   -0.000688618
     40        1           0.000342992    0.001111125    0.000848496
     41        1          -0.000150812   -0.000117278    0.000297552
     42        1           0.000036095    0.002903946   -0.000188230
     43        1          -0.001293226   -0.001868672   -0.001418936
     44        1          -0.002035036   -0.002049563   -0.001308212
     45        1           0.002352900   -0.000894555    0.002551110
     46        1           0.001485191   -0.002763441   -0.001633976
     47        1          -0.003881836   -0.001205646    0.002459966
     48        1          -0.004167229   -0.000847466   -0.000456153
     49        1           0.001964614   -0.001324764   -0.000673777
     50        1          -0.003981708   -0.000979683   -0.000106908
     51        1          -0.001182452    0.000007407   -0.000258387
     52        1           0.000415573   -0.000939112   -0.000209904
     53        1           0.002082676   -0.003852712    0.000392612
     54        1           0.000502703   -0.000817688    0.000194088
     55        1          -0.001261684   -0.002642428    0.005632670
     56        1          -0.000282575    0.000147426    0.003631201
     57        1           0.000550353    0.002795076    0.001430408
     58        1          -0.000783552    0.001292715    0.000650335
     59        1          -0.001112749    0.001789928   -0.000630569
     60        1           0.004172838   -0.001575117    0.000291998
     61        1           0.004092089   -0.001108651    0.000167289
     62        6          -0.004252014   -0.004771793    0.000047886
     63        1          -0.001290405   -0.000529115   -0.000981639
     64        1           0.000691057   -0.001675015   -0.000661213
     65        1           0.002143354   -0.000688332   -0.001584571
 -------------------------------------------------------------------
 Cartesian Forces:  Max     0.032279040 RMS     0.006923929

 GradGradGradGradGradGradGradGradGradGradGradGradGradGradGradGradGradGrad
 Berny optimization.
 Internal  Forces:  Max     0.021841524 RMS     0.003489525
 Search for a local minimum.
 Step number   1 out of a maximum of  390
 All quantities printed in internal units (Hartrees-Bohrs-Radians)
 Mixed Optimization -- RFO/linear search
 Second derivative matrix not updated -- first step.
 ITU=  0
     Eigenvalues ---    0.00268   0.00274   0.00334   0.00344   0.00354
     Eigenvalues ---    0.00427   0.00465   0.00558   0.00586   0.00609
     Eigenvalues ---    0.00610   0.00682   0.00684   0.00695   0.00754
     Eigenvalues ---    0.01034   0.01084   0.01234   0.01251   0.01421
     Eigenvalues ---    0.01468   0.01626   0.01712   0.01820   0.01926
     Eigenvalues ---    0.02515   0.02820   0.02821   0.03030   0.03124
     Eigenvalues ---    0.03422   0.03565   0.03599   0.03846   0.04036
     Eigenvalues ---    0.04106   0.04323   0.04392   0.04630   0.04810
     Eigenvalues ---    0.04842   0.04916   0.04953   0.05091   0.05245
     Eigenvalues ---    0.05304   0.05384   0.05398   0.05436   0.05486
     Eigenvalues ---    0.05498   0.05502   0.05548   0.05557   0.05602
     Eigenvalues ---    0.05630   0.05713   0.05913   0.06268   0.06618
     Eigenvalues ---    0.06698   0.06876   0.07105   0.07109   0.07186
     Eigenvalues ---    0.07246   0.07259   0.07352   0.07685   0.08379
     Eigenvalues ---    0.08455   0.08534   0.09011   0.09185   0.09846
     Eigenvalues ---    0.10096   0.10656   0.10936   0.11627   0.12346
     Eigenvalues ---    0.13167   0.14641   0.15205   0.15969   0.16000
     Eigenvalues ---    0.16000   0.16000   0.16000   0.16000   0.16000
     Eigenvalues ---    0.16000   0.16000   0.16000   0.16000   0.16000
     Eigenvalues ---    0.16000   0.16000   0.16000   0.16000   0.16000
     Eigenvalues ---    0.16000   0.16000   0.16000   0.16000   0.16000
     Eigenvalues ---    0.16137   0.16916   0.17246   0.18367   0.18660
     Eigenvalues ---    0.19739   0.21542   0.21936   0.22737   0.23519
     Eigenvalues ---    0.24492   0.24932   0.24975   0.24982   0.24987
     Eigenvalues ---    0.24997   0.24998   0.25000   0.25890   0.27254
     Eigenvalues ---    0.27380   0.27728   0.27806   0.28100   0.28296
     Eigenvalues ---    0.28731   0.28740   0.28770   0.29178   0.29250
     Eigenvalues ---    0.29316   0.30102   0.30453   0.30581   0.30994
     Eigenvalues ---    0.31724   0.31732   0.31870   0.33490   0.33671
     Eigenvalues ---    0.33842   0.33862   0.33977   0.33980   0.34042
     Eigenvalues ---    0.34044   0.34045   0.34064   0.34070   0.34119
     Eigenvalues ---    0.34128   0.34130   0.34184   0.34201   0.34205
     Eigenvalues ---    0.34213   0.34233   0.34245   0.34249   0.34251
     Eigenvalues ---    0.34254   0.34264   0.34267   0.34298   0.34306
     Eigenvalues ---    0.34314   0.34344   0.34409   0.34463   0.34600
     Eigenvalues ---    0.34949   0.35100   0.35266   0.35384   0.36359
     Eigenvalues ---    0.37406   0.42928   0.43610   0.51841   0.53373
     Eigenvalues ---    0.54554   0.56152   0.89544   0.89980
 RFO step:  Lambda=-2.22184863D-02 EMin= 2.68274544D-03
 Linear search not attempted -- first point.
 Iteration  1 RMS(Cart)=  0.04848889 RMS(Int)=  0.00075738
 Iteration  2 RMS(Cart)=  0.00120442 RMS(Int)=  0.00026103
 Iteration  3 RMS(Cart)=  0.00000063 RMS(Int)=  0.00026103
 Variable       Old X    -DE/DX   Delta X   Delta X   Delta X     New X
                                 (Linear)    (Quad)   (Total)
    R1        2.53450  -0.00265   0.00000  -0.00515  -0.00517   2.52933
    R2        2.82238   0.00866   0.00000   0.02589   0.02583   2.84821
    R3        2.05758  -0.00006   0.00000  -0.00017  -0.00017   2.05741
    R4        2.85442   0.00361   0.00000   0.00804   0.00808   2.86250
    R5        2.84636   0.00300   0.00000   0.00885   0.00885   2.85521
    R6        2.94050   0.00498   0.00000   0.01094   0.01086   2.95136
    R7        2.91021   0.01110   0.00000   0.03793   0.03792   2.94812
    R8        2.07889  -0.00089   0.00000  -0.00248  -0.00248   2.07641
    R9        2.90658   0.00865   0.00000   0.02879   0.02855   2.93514
   R10        2.91293   0.00590   0.00000   0.02001   0.02013   2.93306
   R11        2.76610  -0.00500   0.00000  -0.01318  -0.01320   2.75290
   R12        2.91561   0.00022   0.00000   0.00328   0.00321   2.91882
   R13        2.90453   0.00630   0.00000   0.01429   0.01422   2.91875
   R14        2.89289   0.01109   0.00000   0.03753   0.03754   2.93043
   R15        2.07256   0.00299   0.00000   0.00825   0.00825   2.08082
   R16        2.07363  -0.00123   0.00000  -0.00340  -0.00340   2.07023
   R17        2.81371   0.00921   0.00000   0.02006   0.01967   2.83337
   R18        2.85838   0.01561   0.00000   0.05597   0.05545   2.91383
   R19        2.67758   0.00448   0.00000   0.00993   0.00993   2.68751
   R20        2.52554   0.01168   0.00000   0.02006   0.02010   2.54564
   R21        2.63031  -0.02070   0.00000  -0.04895  -0.04877   2.58154
   R22        2.79102  -0.00155   0.00000  -0.00847  -0.00828   2.78274
   R23        2.79630   0.02100   0.00000   0.05703   0.05703   2.85332
   R24        2.32942  -0.00880   0.00000  -0.00954  -0.00954   2.31988
   R25        2.33144  -0.02184   0.00000  -0.02380  -0.02380   2.30764
   R26        2.89484  -0.00174   0.00000  -0.00553  -0.00553   2.88931
   R27        2.90569   0.00552   0.00000   0.01784   0.01784   2.92353
   R28        2.89349   0.00483   0.00000   0.01532   0.01532   2.90881
   R29        2.07597   0.00059   0.00000   0.00164   0.00164   2.07761
   R30        2.06938   0.00058   0.00000   0.00159   0.00159   2.07097
   R31        2.07369   0.00076   0.00000   0.00211   0.00211   2.07580
   R32        2.87760   0.00860   0.00000   0.02661   0.02661   2.90421
   R33        2.07020   0.00006   0.00000   0.00016   0.00016   2.07037
   R34        2.06913   0.00074   0.00000   0.00202   0.00202   2.07114
   R35        2.06973   0.00029   0.00000   0.00079   0.00079   2.07052
   R36        2.91775  -0.00093   0.00000   0.00937   0.00964   2.92739
   R37        2.90544   0.00431   0.00000   0.01554   0.01562   2.92106
   R38        2.07114  -0.00160   0.00000  -0.00441  -0.00441   2.06673
[...]
     56          1           0        1.222294    4.137683    0.224439
     57          1           0        1.661147    4.564251   -1.434717
     58          1           0        0.103125    5.094770   -0.772522
     59          1           0       -0.389424    1.513504    5.006443
     60          1           0        0.017034    2.673960    3.732769
     61          1           0       -1.662333    2.470155    4.224406
     62          6           0        5.601338   -1.513115    0.681758
     63          1           0        6.097955   -2.234813    1.341290
     64          1           0        6.363728   -1.083399    0.020139
     65          1           0        5.209922   -0.699689    1.298809
 ---------------------------------------------------------------------
 Rotational constants (GHZ):      0.1850931      0.1342054      0.1193092

 **********************************************************************

            Population analysis using the SCF density.

 **********************************************************************

 Orbital symmetries:
       Occupied  (A) (A) (A) (A) (A) (A) (A) (A) (A) (A) (A) (A)
                 (A) (A) (A) (A) (A) (A) (A) (A) (A) (A) (A) (A)
                 (A) (A) (A) (A) (A) (A) (A) (A) (A) (A) (A) (A)
                 (A) (A) (A) (A) (A) (A) (A) (A) (A) (A) (A) (A)
                 (A) (A) (A) (A) (A) (A) (A) (A) (A) (A) (A) (A)
                 (A) (A) (A) (A) (A) (A) (A) (A) (A) (A) (A) (A)
                 (A) (A) (A) (A) (A) (A) (A) (A) (A) (A) (A) (A)
                 (A) (A) (A) (A) (A) (A) (A) (A) (A) (A) (A) (A)
                 (A) (A) (A) (A) (A) (A) (A) (A) (A) (A) (A) (A)
                 (A) (A) (A) (A) (A) (A) (A)
       Virtual   (A) (A) (A) (A) (A) (A) (A) (A) (A) (A) (A) (A)
                 (A) (A) (A) (A) (A) (A) (A) (A) (A) (A) (A) (A)
                 (A) (A) (A) (A) (A) (A) (A) (A) (A) (A) (A) (A)
                 (A) (A) (A) (A) (A) (A) (A) (A) (A) (A) (A) (A)
                 (A) (A) (A) (A) (A) (A) (A) (A) (A) (A) (A) (A)
                 (A) (A) (A) (A) (A) (A) (A) (A) (A) (A) (A) (A)
                 (A) (A) (A) (A) (A) (A) (A) (A) (A) (A) (A) (A)
                 (A) (A) (A) (A) (A) (A) (A) (A) (A) (A) (A) (A)
                 (A) (A) (A) (A) (A) (A) (A) (A) (A) (A) (A) (A)
                 (A) (A) (A) (A) (A) (A) (A) (A) (A) (A) (A) (A)
                 (A) (A) (A) (A) (A) (A) (A) (A) (A) (A) (A) (A)
                 (A) (A) (A) (A) (A) (A) (A) (A) (A) (A) (A) (A)
                 (A) (A) (A) (A) (A) (A) (A) (A) (A) (A) (A) (A)
                 (A) (A) (A) (A) (A) (A) (A) (A) (A) (A) (A) (A)
                 (A) (A) (A) (A) (A) (A) (A) (A) (A) (A) (A) (A)
                 (A) (A) (A) (A) (A) (A) (A) (A) (A) (A) (A) (A)
                 (A) (A) (A) (A) (A) (A) (A) (A) (A) (A) (A) (A)
                 (A) (A) (A) (A) (A) (A) (A) (A) (A) (A) (A) (A)
                 (A) (A) (A) (A) (A) (A) (A) (A) (A) (A) (A) (A)
                 (A) (A) (A) (A) (A) (A) (A) (A) (A) (A) (A) (A)
                 (A) (A) (A) (A) (A) (A) (A) (A) (A) (A) (A) (A)
                 (A) (A) (A) (A) (A) (A) (A) (A) (A) (A) (A) (A)
                 (A) (A) (A) (A) (A) (A) (A) (A) (A) (A) (A) (A)
                 (A) (A) (A) (A) (A) (A) (A) (A) (A) (A) (A) (A)
                 (A) (A) (A) (A) (A) (A) (A) (A) (A) (A) (A) (A)
                 (A) (A) (A) (A) (A) (A) (A) (A) (A) (A) (A) (A)
                 (A) (A) (A) (A) (A) (A) (A) (A) (A) (A) (A) (A)
                 (A) (A) (A) (A) (A) (A) (A) (A) (A) (A) (A) (A)
                 (A) (A) (A) (A) (A) (A) (A) (A) (A) (A) (A) (A)
                 (A) (A) (A) (A) (A) (A) (A) (A) (A) (A) (A) (A)
                 (A) (A) (A) (A) (A) (A) (A) (A) (A) (A) (A) (A)
                 (A) (A) (A) (A) (A) (A) (A) (A) (A) (A) (A) (A)
                 (A) (A) (A) (A) (A) (A) (A) (A) (A) (A) (A) (A)
                 (A) (A) (A) (A) (A) (A) (A) (A) (A) (A) (A) (A)
                 (A) (A) (A) (A) (A) (A) (A) (A) (A) (A)
 The electronic state is 1-A.
 Alpha  occ. eigenvalues --  -19.19429 -19.16631 -19.15771 -19.12737 -19.12507
 Alpha  occ. eigenvalues --  -10.27235 -10.27181 -10.26549 -10.26513 -10.25719
 Alpha  occ. eigenvalues --  -10.25700 -10.25325 -10.21344 -10.20962 -10.20544
 Alpha  occ. eigenvalues --  -10.20261 -10.19827 -10.19752 -10.19439 -10.19314
 Alpha  occ. eigenvalues --  -10.19149 -10.18759 -10.18732 -10.18477 -10.18397
 Alpha  occ. eigenvalues --  -10.18076 -10.18050 -10.18046 -10.16543 -10.16320
 Alpha  occ. eigenvalues --  -10.15260  -1.09112  -1.05993  -1.03001  -1.02556
 Alpha  occ. eigenvalues --   -1.02285  -0.86699  -0.83569  -0.82440  -0.81345
 Alpha  occ. eigenvalues --   -0.80215  -0.78963  -0.76559  -0.74274  -0.73114
 Alpha  occ. eigenvalues --   -0.71744  -0.71029  -0.69836  -0.69617  -0.67911
 Alpha  occ. eigenvalues --   -0.64916  -0.63530  -0.63144  -0.61589  -0.60563
 Alpha  occ. eigenvalues --   -0.59300  -0.58596  -0.56965  -0.55197  -0.53896
 Alpha  occ. eigenvalues --   -0.52981  -0.52336  -0.50681  -0.50352  -0.49140
 Alpha  occ. eigenvalues --   -0.47815  -0.47133  -0.46611  -0.45896  -0.45607
 Alpha  occ. eigenvalues --   -0.44978  -0.44329  -0.43812  -0.43367  -0.43031
 Alpha  occ. eigenvalues --   -0.42906  -0.42055  -0.42018  -0.41774  -0.41291
 Alpha  occ. eigenvalues --   -0.40814  -0.40567  -0.40214  -0.39969  -0.39782
 Alpha  occ. eigenvalues --   -0.39017  -0.38779  -0.38713  -0.38075  -0.37527
 Alpha  occ. eigenvalues --   -0.37480  -0.37249  -0.37076  -0.36765  -0.36382
 Alpha  occ. eigenvalues --   -0.36165  -0.35562  -0.34905  -0.34611  -0.34379
 Alpha  occ. eigenvalues --   -0.33888  -0.33435  -0.32847  -0.32491  -0.31964
 Alpha  occ. eigenvalues --   -0.31504  -0.31031  -0.30206  -0.28282  -0.26437
 Alpha  occ. eigenvalues --   -0.26024  -0.24641  -0.24033  -0.23370  -0.22463
 Alpha virt. eigenvalues --   -0.04672  -0.01139   0.00862   0.02267   0.05280
 Alpha virt. eigenvalues --    0.07330   0.08258   0.08948   0.09420   0.10013
 Alpha virt. eigenvalues --    0.10788   0.11117   0.11498   0.12219   0.12543
 Alpha virt. eigenvalues --    0.12871   0.12941   0.14034   0.14094   0.14445
 Alpha virt. eigenvalues --    0.14593   0.15009   0.15474   0.15794   0.16092
 Alpha virt. eigenvalues --    0.16196   0.16510   0.17158   0.17226   0.17349
 Alpha virt. eigenvalues --    0.17833   0.18229   0.18439   0.18605   0.19115
 Alpha virt. eigenvalues --    0.19156   0.19357   0.19493   0.20071   0.20278
 Alpha virt. eigenvalues --    0.20767   0.21150   0.21386   0.21727   0.22178
 Alpha virt. eigenvalues --    0.22814   0.23190   0.23780   0.24472   0.24605
 Alpha virt. eigenvalues --    0.24964   0.25171   0.25868   0.26613   0.27354
 Alpha virt. eigenvalues --    0.27664   0.28067   0.28471   0.29050   0.30238
 Alpha virt. eigenvalues --    0.30471   0.31582   0.32578   0.33289   0.33874
 Alpha virt. eigenvalues --    0.34999   0.36130   0.37137   0.37880   0.39553
 Alpha virt. eigenvalues --    0.41648   0.45360   0.45971   0.48331   0.48970
 Alpha virt. eigenvalues --    0.49479   0.49946   0.51217   0.51412   0.51788
 Alpha virt. eigenvalues --    0.52207   0.52648   0.52847   0.53606   0.53855
 Alpha virt. eigenvalues --    0.53971   0.54561   0.55164   0.55448   0.56350
 Alpha virt. eigenvalues --    0.57056   0.57283   0.57859   0.58308   0.59486
 Alpha virt. eigenvalues --    0.59919   0.60383   0.60966   0.61907   0.62191
 Alpha virt. eigenvalues --    0.62366   0.62570   0.63497   0.63949   0.64661
 Alpha virt. eigenvalues --    0.65165   0.65553   0.65804   0.66561   0.67752
 Alpha virt. eigenvalues --    0.68203   0.68429   0.68600   0.68909   0.69289
 Alpha virt. eigenvalues --    0.70342   0.70772   0.72200   0.72518   0.73299
 Alpha virt. eigenvalues --    0.74303   0.74861   0.75473   0.76106   0.76480
 Alpha virt. eigenvalues --    0.76852   0.77138   0.77500   0.78660   0.79154
 Alpha virt. eigenvalues --    0.80010   0.81305   0.81395   0.82000   0.82399
 Alpha virt. eigenvalues --    0.82795   0.83664   0.83830   0.84439   0.84953
 Alpha virt. eigenvalues --    0.85711   0.85978   0.86182   0.86973   0.87191
 Alpha virt. eigenvalues --    0.87358   0.88217   0.88323   0.88700   0.88977
 Alpha virt. eigenvalues --    0.89504   0.89790   0.90124   0.90556   0.91001
 Alpha virt. eigenvalues --    0.91346   0.91608   0.91834   0.92527   0.92697
 Alpha virt. eigenvalues --    0.93412   0.93667   0.94101   0.94284   0.94485
 Alpha virt. eigenvalues --    0.95237   0.95658   0.95802   0.96690   0.96909
 Alpha virt. eigenvalues --    0.97304   0.97936   0.98175   0.98842   0.99353
 Alpha virt. eigenvalues --    1.00696   1.01094   1.02282   1.02658   1.03344
 Alpha virt. eigenvalues --    1.04809   1.05891   1.07253   1.07969   1.08644
 Alpha virt. eigenvalues --    1.08738   1.10716   1.11156   1.12075   1.13369
 Alpha virt. eigenvalues --    1.14183   1.14667   1.15654   1.16297   1.17428
 Alpha virt. eigenvalues --    1.17746   1.19082   1.19633   1.20006   1.21806
 Alpha virt. eigenvalues --    1.22680   1.23306   1.25418   1.25797   1.26602
 Alpha virt. eigenvalues --    1.28434   1.30157   1.31357   1.31732   1.32904
 Alpha virt. eigenvalues --    1.34472   1.36422   1.37938   1.39534   1.39847
 Alpha virt. eigenvalues --    1.40896   1.42156   1.42955   1.44590   1.45840
 Alpha virt. eigenvalues --    1.47278   1.47685   1.49385   1.51655   1.51944
 Alpha virt. eigenvalues --    1.54877   1.55459   1.56137   1.56548   1.58091
 Alpha virt. eigenvalues --    1.59776   1.61446   1.61781   1.61959   1.63890
 Alpha virt. eigenvalues --    1.64786   1.65552   1.66601   1.67999   1.68323
 Alpha virt. eigenvalues --    1.70773   1.71924   1.72708   1.73451   1.73771
 Alpha virt. eigenvalues --    1.74969   1.75502   1.76971   1.77056   1.77816
 Alpha virt. eigenvalues --    1.78665   1.79977   1.80263   1.81374   1.81691
 Alpha virt. eigenvalues --    1.83021   1.83448   1.84132   1.84677   1.85446
 Alpha virt. eigenvalues --    1.86147   1.86751   1.86993   1.87480   1.88106
 Alpha virt. eigenvalues --    1.88330   1.89033   1.89612   1.90195   1.91242
 Alpha virt. eigenvalues --    1.91897   1.92070   1.92966   1.94353   1.95418
 Alpha virt. eigenvalues --    1.95623   1.96215   1.97247   1.98207   1.98810
 Alpha virt. eigenvalues --    1.98994   1.99530   2.00151   2.00991   2.01745
 Alpha virt. eigenvalues --    2.02317   2.04104   2.04272   2.04955   2.05794
 Alpha virt. eigenvalues --    2.06419   2.07153   2.07478   2.07684   2.09101
 Alpha virt. eigenvalues --    2.10196   2.10238   2.11455   2.12342   2.13275
 Alpha virt. eigenvalues --    2.14352   2.15168   2.16089   2.16846   2.17999
 Alpha virt. eigenvalues --    2.18816   2.19720   2.20769   2.21677   2.22607
 Alpha virt. eigenvalues --    2.24004   2.25229   2.25856   2.26231   2.26568
 Alpha virt. eigenvalues --    2.27705   2.29111   2.29748   2.30394   2.31251
 Alpha virt. eigenvalues --    2.33017   2.33636   2.34126   2.34460   2.35567
 Alpha virt. eigenvalues --    2.35809   2.36919   2.37183   2.38103   2.38822
 Alpha virt. eigenvalues --    2.39159   2.40446   2.41422   2.42303   2.42547
 Alpha virt. eigenvalues --    2.43249   2.44984   2.45497   2.47414   2.48643
 Alpha virt. eigenvalues --    2.49397   2.50417   2.52298   2.53299   2.54718
 Alpha virt. eigenvalues --    2.55720   2.56294   2.56755   2.58920   2.59695
 Alpha virt. eigenvalues --    2.60639   2.61494   2.64077   2.64603   2.65755
 Alpha virt. eigenvalues --    2.66684   2.68179   2.68874   2.69662   2.70037
 Alpha virt. eigenvalues --    2.71049   2.71117   2.72967   2.76231   2.76731
 Alpha virt. eigenvalues --    2.77430   2.79582   2.80715   2.83586   2.83979
 Alpha virt. eigenvalues --    2.84791   2.89812   2.92015   2.94053   2.97743
 Alpha virt. eigenvalues --    2.98029   2.99885   3.01383   3.01984   3.02859
 Alpha virt. eigenvalues --    3.05983   3.08198   3.12044   3.18215   3.21082
 Alpha virt. eigenvalues --    3.25057   3.28338   4.03341   4.07186   4.08501
 Alpha virt. eigenvalues --    4.12519   4.13225   4.15086   4.17759   4.19084
 Alpha virt. eigenvalues --    4.22926   4.25252   4.26796   4.27753   4.31320
 Alpha virt. eigenvalues --    4.31896   4.35674   4.37655   4.39909   4.43269
 Alpha virt. eigenvalues --    4.45665   4.50645   4.52468   4.56157   4.58024
 Alpha virt. eigenvalues --    4.63633   4.65732   4.69597   4.75374   4.82921
 Alpha virt. eigenvalues --    4.89870   5.04103   5.15659
          Condensed to atoms (all electrons):
 Mulliken atomic charges:
              1
     1  C   -0.188074
     2  C    0.194139
     3  C   -0.189434
     4  C    0.321972
     5  C   -0.051340
     6  C   -0.332680
     7  C    0.198289
     8  C    0.402892
     9  C   -0.095985
    10  C    0.429558
    11  C    0.413949
    12  O   -0.445211
    13  C   -0.137140
    14  C   -0.268125
    15  C   -0.473937
    16  O   -0.518981
    17  C   -0.166058
    18  C    0.303803
    19  O   -0.516330
    20  C   -0.325848
    21  O   -0.662000
    22  C   -0.326569
    23  C    0.106746
    24  O   -0.589802
    25  C    0.186893
    26  C   -0.519480
    27  C   -0.408922
    28  C   -0.469081
    29  C   -0.457179
    30  H    0.142670
    31  H    0.166276
    32  C   -0.520048
    33  H    0.122791
    34  H    0.145141
    35  H    0.183789
    36  H    0.148206
    37  H    0.175421
    38  H    0.126588
    39  H    0.141381
    40  H    0.144969
    41  H    0.165310
    42  H    0.174587
    43  H    0.150930
    44  H    0.416154
    45  H    0.173074
    46  H    0.165015
    47  H    0.145730
    48  H    0.159067
    49  H    0.161942
    50  H    0.169746
    51  H    0.139777
    52  H    0.153604
    53  H    0.158055
    54  H    0.142743
    55  H    0.191212
    56  H    0.168391
    57  H    0.165834
    58  H    0.147834
    59  H    0.158006
    60  H    0.160022
    61  H    0.150024
    62  C   -0.445438
    63  H    0.132518
    64  H    0.135295
    65  H    0.167323
 Sum of Mulliken atomic charges =   0.00000
 Mulliken charges with hydrogens summed into heavy atoms:
              1
     1  C   -0.065283
     2  C    0.194139
     3  C   -0.023159
     4  C    0.321972
     5  C   -0.051340
     6  C   -0.003750
     7  C    0.198289
     8  C    0.402892
     9  C   -0.095985
    10  C    0.429558
    11  C    0.413949
    12  O   -0.445211
    13  C    0.011066
    14  C    0.033884
    15  C   -0.022276
    16  O   -0.518981
    17  C   -0.023389
    18  C    0.303803
    19  O   -0.516330
    20  C   -0.000331
    21  O   -0.245846
    22  C    0.011520
    23  C    0.252476
    24  O   -0.589802
    25  C    0.186893
    26  C   -0.028726
    27  C   -0.115541
    28  C    0.022929
    29  C    0.024880
    32  C   -0.051997
    62  C   -0.010303
 Sum of Mulliken charges with hydrogens summed into heavy atoms =   0.00000
 Electronic spatial extent (au):  <R**2>=          11328.1591
 Charge=              0.0000 electrons
 Dipole moment (field-independent basis, Debye):
    X=             -5.0395    Y=              1.3218    Z=             -0.4453  Tot=              5.2290
 Quadrupole moment (field-independent basis, Debye-Ang):
   XX=           -192.2157   YY=           -171.9002   ZZ=           -181.1113
   XY=              1.1822   XZ=             -2.0236   YZ=              1.5433
 Traceless Quadrupole moment (field-independent basis, Debye-Ang):
   XX=            -10.4733   YY=              9.8422   ZZ=              0.6311
   XY=              1.1822   XZ=             -2.0236   YZ=              1.5433
 Octapole moment (field-independent basis, Debye-Ang**2):
  XXX=            -42.3887  YYY=             44.0895  ZZZ=              8.7049  XYY=            -36.7258
  XXY=            -32.2087  XXZ=            -36.5439  XZZ=             -1.2513  YZZ=              6.7993
  YYZ=            -18.3744  XYZ=             -0.5248
 Hexadecapole moment (field-independent basis, Debye-Ang**3):
 XXXX=          -7478.8963 YYYY=          -4474.3585 ZZZZ=          -3279.6403 XXXY=            -16.5368
 XXXZ=             31.4612 YYYX=             81.8623 YYYZ=            -37.1103 ZZZX=             25.3813
 ZZZY=            -24.9561 XXYY=          -1921.0760 XXZZ=          -1715.3011 YYZZ=          -1282.5473
 XXYZ=             28.0285 YYXZ=             -4.1539 ZZXY=             19.4647
 N-N= 3.521607789386D+03 E-N=-1.026962324179D+04  KE= 1.374450311114D+03
 1\1\GINC-B0800\FOpt\RB3LYP\6-31G(d)\C26H34O5\CAOFEI\24-Mar-2021\0\\# o
 pt rb3lyp/6-31g(d) geom=connectivity\\Title Card Required\\0,1\C,-0.00
 82413216,0.0048597959,-0.0668710435\C,1.3279146536,-0.054408318,-0.107
 6410561\C,2.1718942973,1.2028236717,-0.0770424925\C,1.4049891942,2.541
 1489372,-0.3108618277\C,-0.1028178907,2.4853772307,-0.6653966141\C,-0.
 797829718,1.2820190623,0.0160509925\C,2.2451216561,3.2876506611,-1.378
 2085203\C,1.8394685612,2.9428355749,-2.7960445643\C,0.5757798887,2.650
 170153,-3.1942616696\C,-0.4586923632,2.4621397141,-2.1776755871\C,0.29
 51268613,2.3336299138,-4.653439799\O,0.949407516,1.456848978,-5.192283
 8302\C,-0.7401721989,3.1320564942,-5.4538620715\C,-2.0235629771,2.2973
 629485,-5.7192235723\C,-1.080757736,4.501894914,-4.850929018\O,-1.6315
 582544,2.2524776924,-2.4835674764\C,3.6642496414,2.6794641111,-1.38487
 96262\C,4.1657675454,2.9963271484,-2.8149715499\O,2.9032833927,2.96644
 18701,-3.6044742186\C,3.3625981476,1.197246372,-1.0806126064\O,2.17183
 41294,4.6950184815,-1.2464315299\C,-0.61775174,3.8150073915,-0.0559377
 135\C,0.2253503289,3.9493287408,1.2223718388\O,1.4813689154,3.31912050
 86,0.9107366674\C,0.423969761,5.3626986893,1.7296473827\C,-0.844125231
 ,6.1513971928,1.9452596624\C,1.6343790849,5.8532158831,2.0168726724\C,
 4.7635012062,4.3992721398,-2.9417108792\C,5.0834362328,1.9548050917,-3
 .4494575202\H,4.3055804972,3.1298219251,-0.6207616824\H,2.5938269222,1
 .3022214023,0.9333557079\C,2.066673796,-1.3698612706,-0.1121317068\H,-
 0.5777771997,-0.9234547293,-0.0533278333\H,-0.9911719143,1.5173161776,
 1.0736108397\H,-1.7784468654,1.1633926344,-0.4535825698\H,-0.247437270
 3,3.2848617185,-6.4249298539\H,-2.4562083129,2.0110246181,-4.755446787
 9\H,-2.7459050986,2.9710896714,-6.2008453511\H,-1.6842496134,5.0792110
 232,-5.5607137832\H,-0.180430426,5.0852896637,-4.6272166855\H,-1.66025
 71444,4.3941442471,-3.9292150523\H,3.0586233496,0.682294886,-1.9985114
 471\H,4.2310859628,0.663084416,-0.684850115\H,2.1624603296,4.866262061
 ,-0.2846313375\H,-0.4159302783,4.6529664208,-0.7304522822\H,-1.6925744
 837,3.7774990308,0.1402211598\H,-0.24712864,3.3708571059,2.0333191301\
 H,-1.5347022355,5.6153132606,2.6107454571\H,-0.6315817562,7.125797244,
 2.3939424159\H,-1.3814364139,6.3197701006,1.0033447623\H,1.7556410035,
 6.8648278765,2.3947549717\H,2.5336423044,5.2552251281,1.9094294939\H,4
 .9208129337,4.6414881305,-3.9977811022\H,5.7342408891,4.4388292537,-2.
 4341166772\H,4.1030465488,5.1461510262,-2.4977910239\H,4.6227440219,0.
 9649972445,-3.4758120601\H,5.3220670553,2.2433267189,-4.4778950548\H,6
 .0209559533,1.891889211,-2.8855923175\H,1.370759477,-2.2126328428,-0.0
 583884357\H,2.6775658859,-1.4974380771,-1.0148743965\H,2.7523048732,-1
 .4419102459,0.744344022\C,-1.8214745031,1.0631430362,-6.6029659162\H,-
 2.7741384621,0.5410022119,-6.7521639966\H,-1.4322553501,1.3397764381,-
 7.5906987063\H,-1.1121574186,0.3592922388,-6.1590262152\\Version=EM64L
 -G09RevB.01\State=1-A\HF=-1387.3182825\RMSD=9.510e-09\RMSF=1.886e-06\D
 ipole=0.9868852,0.5323984,1.7247753\Quadrupole=5.0678391,0.5246022,-5.
 5924413,-3.9063594,-3.3079496,-2.5946735\PG=C01 [X(C26H34O5)]\\@


 THEORY:  SUPPOSITION WHICH HAS SCIENTIFIC BASIS,
          BUT NOT EXPERIMENTALLY PROVEN.
 FACT:    A THEORY WHICH HAS BEEN PROVEN BY ENOUGH 
          MONEY TO PAY FOR THE EXPERIMENTS.

                          --  THE WIZARD OF ID
 Job cpu time:  0 days 22 hours 13 minutes 17.9 seconds.
 File lengths (MBytes):  RWF=    186 Int=      0 D2E=      0 Chk=     20 Scr=      1
 Normal termination of Gaussian 09 at Wed Mar 24 18:58:12 2021.
