 Entering Gaussian System, Link 0=g09
 Initial command:
 /public/software/g09/g09/l1.exe /tmp/Gau-22172.inp -scrdir=/tmp/
 Entering Link 1 = /public/software/g09/g09/l1.exe PID=     22173.
  
 Copyright (c) 1988,1990,1992,1993,1995,1998,2003,2009,2010,
            Gaussian, Inc.  All Rights Reserved.
  
 This is part of the Gaussian(R) 09 program.  It is based on
 the Gaussian(R) 03 system (copyright 2003, Gaussian, Inc.),
 the Gaussian(R) 98 system (copyright 1998, Gaussian, Inc.),
 the Gaussian(R) 94 system (copyright 1995, Gaussian, Inc.),
 the Gaussian 92(TM) system (copyright 1992, Gaussian, Inc.),
 the Gaussian 90(TM) system (copyright 1990, Gaussian, Inc.),
 the Gaussian 88(TM) system (copyright 1988, Gaussian, Inc.),
 the Gaussian 86(TM) system (copyright 1986, Carnegie Mellon
 University), and the Gaussian 82(TM) system (copyright 1983,
 Carnegie Mellon University). Gaussian is a federally registered
 trademark of Gaussian, Inc.
  
 This software contains proprietary and confidential information,
 including trade secrets, belonging to Gaussian, Inc.
  
 This software is provided under written license and may be
 used, copied, transmitted, or stored only in accord with that
 written license.
  
 The following legend is applicable only to US Government
 contracts under FAR:
  
                    RESTRICTED RIGHTS LEGEND
  
 Use, reproduction and disclosure by the US Government is
 subject to restrictions as set forth in subparagraphs (a)
 and (c) of the Commercial Computer Software - Restricted
 Rights clause in FAR 52.227-19.
  
 Gaussian, Inc.
 340 Quinnipiac St., Bldg. 40, Wallingford CT 06492
  
  
 ---------------------------------------------------------------
 Warning -- This program may not be used in any manner that
 competes with the business of Gaussian, Inc. or will provide
 assistance to any competitor of Gaussian, Inc.  The licensee
 of this program is prohibited from giving any competitor of
 Gaussian, Inc. access to this program.  By using this program,
 the user acknowledges that Gaussian, Inc. is engaged in the
 business of creating and licensing software in the field of
 computational chemistry and represents and warrants to the
 licensee that it is not a competitor of Gaussian, Inc. and that
 it will not use this program in any manner prohibited above.
 ---------------------------------------------------------------
  

 Cite this work as:
 Gaussian 09, Revision B.01,
 M. J. Frisch, G. W. Trucks, H. B. Schlegel, G. E. Scuseria, 
 M. A. Robb, J. R. Cheeseman, G. Scalmani, V. Barone, B. Mennucci, 
 G. A. Petersson, H. Nakatsuji, M. Caricato, X. Li, H. P. Hratchian, 
 A. F. Izmaylov, J. Bloino, G. Zheng, J. L. Sonnenberg, M. Hada, 
 M. Ehara, K. Toyota, R. Fukuda, J. Hasegawa, M. Ishida, T. Nakajima, 
 Y. Honda, O. Kitao, H. Nakai, T. Vreven, J. A. Montgomery, Jr., 
 J. E. Peralta, F. Ogliaro, M. Bearpark, J. J. Heyd, E. Brothers, 
 K. N. Kudin, V. N. Staroverov, T. Keith, R. Kobayashi, J. Normand, 
 K. Raghavachari, A. Rendell, J. C. Burant, S. S. Iyengar, J. Tomasi, 
 M. Cossi, N. Rega, J. M. Millam, M. Klene, J. E. Knox, J. B. Cross, 
 V. Bakken, C. Adamo, J. Jaramillo, R. Gomperts, R. E. Stratmann, 
 O. Yazyev, A. J. Austin, R. Cammi, C. Pomelli, J. W. Ochterski, 
 R. L. Martin, K. Morokuma, V. G. Zakrzewski, G. A. Voth, 
 P. Salvador, J. J. Dannenberg, S. Dapprich, A. D. Daniels, 
 O. Farkas, J. B. Foresman, J. V. Ortiz, J. Cioslowski, 
 and D. J. Fox, Gaussian, Inc., Wallingford CT, 2010.
 
 ******************************************
 Gaussian 09:  EM64L-G09RevB.01 12-Aug-2010
                24-Mar-2021 
 ******************************************
 %mem=600MW
 %nprocshared=10
 Will use up to   10 processors via shared memory.
 ---------------------------------------
 # opt rb3lyp/6-31g(d) geom=connectivity
 ---------------------------------------
 1/14=-1,18=20,19=15,26=3,38=1,57=2/1,3;
 2/9=110,12=2,17=6,18=5,40=1/2;
 3/5=1,6=6,7=1,11=2,16=1,25=1,30=1,71=1,74=-5,116=1/1,2,3;
 4//1;
 5/5=2,38=5/2;
 6/7=2,8=2,9=2,10=2,28=1/1;
 7//1,2,3,16;
 1/14=-1,18=20,19=15/3(2);
 2/9=110/2;
 99//99;
 2/9=110/2;
 3/5=1,6=6,7=1,11=2,16=1,25=1,30=1,71=1,74=-5,116=1/1,2,3;
 4/5=5,16=3/1;
 5/5=2,38=5/2;
 7//1,2,3,16;
 1/14=-1,18=20,19=15/3(-5);
 2/9=110/2;
 6/7=2,8=2,9=2,10=2,19=2,28=1/1;
 99/9=1/99;
 -------------------
 Title Card Required
 -------------------
 Symbolic Z-matrix:
 Charge =  0 Multiplicity = 1
 C                     0.        0.        0. 
 C                     1.3421    0.        0. 
 C                     2.1132    1.2979    0. 
 C                     1.4021    2.5237    0.6504 
 C                    -0.1081    2.3605    0.9109 
 C                    -0.7905    1.2718    0.0534 
 C                     1.7959    3.7108   -0.2692 
 C                     0.6957    4.2472   -1.1166 
 C                    -0.5732    4.3077   -0.697 
 C                    -0.8512    3.6724    0.6158 
 C                    -1.6679    4.7911   -1.5634 
 O                    -2.5961    4.0275   -1.8311 
 C                    -1.6202    6.24     -2.0399 
 C                    -2.1647    6.3817   -3.4693 
 C                    -2.4417    7.085    -1.0669 
 O                    -1.6944    4.1561    1.3658 
 C                     2.7684    3.2126   -1.3177 
 C                     2.4754    4.1243   -2.5269 
 O                     1.0904    4.5373   -2.4126 
 C                     2.3964    1.737    -1.4476 
 O                     2.3732    4.7898    0.4548 
 C                    -0.1826    1.9736    2.3917 
 C                     1.139     2.4056    3.0019 
 O                     2.0173    2.7922    1.9394 
 C                     0.9824    3.5096    4.0252 
 C                     0.6425    3.0406    5.4158 
 C                     1.1142    4.8218    3.7686 
 C                     3.3382    5.3964   -2.5122 
 C                     2.6539    3.4299   -3.8795 
 H                     3.8147    3.2989   -0.9982 
 H                     3.0678    1.1388    0.521 
 C                     2.1422   -1.2687   -0.0616 
 H                    -0.5567   -0.9327   -0.0531 
 H                    -1.7822    1.0538    0.472 
 H                    -0.9682    1.6018   -0.9772 
 H                    -0.5861    6.6026   -2.0206 
 H                    -3.1737    5.9579   -3.5423 
 H                    -2.2491    7.4456   -3.7225 
 H                    -2.4136    8.1427   -1.3483 
 H                    -2.0514    6.9978   -0.0469 
 H                    -3.4893    6.7643   -1.0467 
 H                     3.2112    1.1587   -1.8968 
 H                     1.5076    1.5975   -2.0752 
 H                     2.7011    4.3934    1.2903 
 H                    -0.2711    0.8875    2.5219 
 H                    -1.0516    2.3912    2.9122 
 H                     1.6212    1.5493    3.4894 
 H                    -0.2924    2.4709    5.4093 
 H                     1.4392    2.3979    5.8045 
 H                     0.5176    3.8737    6.1156 
 H                     1.3245    5.202     2.7774 
 H                     0.9834    5.5665    4.5482 
 H                     3.1728    5.9957   -1.612 
 H                     3.0785    6.0488   -3.3544 
 H                     4.4042    5.1556   -2.5781 
 H                     3.6647    3.0252   -3.9918 
 H                     2.4701    4.1312   -4.7022 
 H                     1.9297    2.6211   -4.0201 
 H                     1.5023   -2.1569   -0.0878 
 H                     2.7691   -1.2827   -0.9587 
 H                     2.7895   -1.3505    0.8175 
 C                    -1.2714    5.7148   -4.5072 
 H                    -1.2018    4.6353   -4.343 
 H                    -0.2607    6.1345   -4.4818 
 H                    -1.6777    5.875    -5.5109 
 

 GradGradGradGradGradGradGradGradGradGradGradGradGradGradGradGradGradGrad
 Berny optimization.
 Initialization pass.
                           ----------------------------
                           !    Initial Parameters    !
                           ! (Angstroms and Degrees)  !
 --------------------------                            --------------------------
 ! Name  Definition              Value          Derivative Info.                !
 --------------------------------------------------------------------------------
 ! R1    R(1,2)                  1.3421         estimate D2E/DX2                !
 ! R2    R(1,6)                  1.4984         estimate D2E/DX2                !
 ! R3    R(1,33)                 1.0875         estimate D2E/DX2                !
 ! R4    R(2,3)                  1.5097         estimate D2E/DX2                !
 ! R5    R(2,32)                 1.5012         estimate D2E/DX2                !
 ! R6    R(3,4)                  1.5593         estimate D2E/DX2                !
 ! R7    R(3,20)                 1.539          estimate D2E/DX2                !
 ! R8    R(3,31)                 1.0991         estimate D2E/DX2                !
 ! R9    R(4,5)                  1.5412         estimate D2E/DX2                !
 ! R10   R(4,7)                  1.5524         estimate D2E/DX2                !
 ! R11   R(4,24)                 1.4533         estimate D2E/DX2                !
 ! R12   R(5,6)                  1.5447         estimate D2E/DX2                !
 ! R13   R(5,10)                 1.5363         estimate D2E/DX2                !
 ! R14   R(5,22)                 1.5323         estimate D2E/DX2                !
 ! R15   R(6,34)                 1.0983         estimate D2E/DX2                !
 ! R16   R(6,35)                 1.0966         estimate D2E/DX2                !
 ! R17   R(7,8)                  1.4887         estimate D2E/DX2                !
 ! R18   R(7,17)                 1.5144         estimate D2E/DX2                !
 ! R19   R(7,21)                 1.4219         estimate D2E/DX2                !
 ! R20   R(8,9)                  1.3378         estimate D2E/DX2                !
 ! R21   R(8,19)                 1.3855         estimate D2E/DX2                !
 ! R22   R(9,10)                 1.4847         estimate D2E/DX2                !
 ! R23   R(9,11)                 1.4774         estimate D2E/DX2                !
 ! R24   R(10,16)                1.2278         estimate D2E/DX2                !
 ! R25   R(11,12)                1.2314         estimate D2E/DX2                !
 ! R26   R(11,13)                1.526          estimate D2E/DX2                !
 ! R27   R(13,14)                1.5361         estimate D2E/DX2                !
 ! R28   R(13,15)                1.5283         estimate D2E/DX2                !
 ! R29   R(13,36)                1.096          estimate D2E/DX2                !
 ! R30   R(14,37)                1.0968         estimate D2E/DX2                !
 ! R31   R(14,38)                1.0969         estimate D2E/DX2                !
 ! R32   R(14,62)                1.5231         estimate D2E/DX2                !
 ! R33   R(15,39)                1.0949         estimate D2E/DX2                !
 ! R34   R(15,40)                1.0956         estimate D2E/DX2                !
 ! R35   R(15,41)                1.0958         estimate D2E/DX2                !
 ! R36   R(17,18)                1.5425         estimate D2E/DX2                !
 ! R37   R(17,20)                1.5273         estimate D2E/DX2                !
 ! R38   R(17,30)                1.0974         estimate D2E/DX2                !
 ! R39   R(18,19)                1.4498         estimate D2E/DX2                !
 ! R40   R(18,28)                1.5372         estimate D2E/DX2                !
 ! R41   R(18,29)                1.5309         estimate D2E/DX2                !
 ! R42   R(20,42)                1.0955         estimate D2E/DX2                !
 ! R43   R(20,43)                1.097          estimate D2E/DX2                !
 ! R44   R(21,44)                0.9812         estimate D2E/DX2                !
 ! R45   R(22,23)                1.5184         estimate D2E/DX2                !
 ! R46   R(22,45)                1.0975         estimate D2E/DX2                !
 ! R47   R(22,46)                1.0957         estimate D2E/DX2                !
 ! R48   R(23,24)                1.4317         estimate D2E/DX2                !
 ! R49   R(23,25)                1.5134         estimate D2E/DX2                !
 ! R50   R(23,47)                1.097          estimate D2E/DX2                !
 ! R51   R(24,44)                1.8582         estimate D2E/DX2                !
 ! R52   R(25,26)                1.5064         estimate D2E/DX2                !
 ! R53   R(25,27)                1.3435         estimate D2E/DX2                !
 ! R54   R(26,48)                1.0948         estimate D2E/DX2                !
 ! R55   R(26,49)                1.0949         estimate D2E/DX2                !
 ! R56   R(26,50)                1.0952         estimate D2E/DX2                !
 ! R57   R(27,51)                1.0822         estimate D2E/DX2                !
 ! R58   R(27,52)                1.086          estimate D2E/DX2                !
 ! R59   R(28,53)                1.094          estimate D2E/DX2                !
 ! R60   R(28,54)                1.0965         estimate D2E/DX2                !
 ! R61   R(28,55)                1.0948         estimate D2E/DX2                !
 ! R62   R(29,56)                1.0946         estimate D2E/DX2                !
 ! R63   R(29,57)                1.0966         estimate D2E/DX2                !
 ! R64   R(29,58)                1.0947         estimate D2E/DX2                !
 ! R65   R(32,59)                1.095          estimate D2E/DX2                !
 ! R66   R(32,60)                1.0945         estimate D2E/DX2                !
 ! R67   R(32,61)                1.0948         estimate D2E/DX2                !
 ! R68   R(62,63)                1.0941         estimate D2E/DX2                !
 ! R69   R(62,64)                1.0947         estimate D2E/DX2                !
 ! R70   R(62,65)                1.0946         estimate D2E/DX2                !
 ! A1    A(2,1,6)              121.8408         estimate D2E/DX2                !
 ! A2    A(2,1,33)             120.7909         estimate D2E/DX2                !
 ! A3    A(6,1,33)             117.3631         estimate D2E/DX2                !
 ! A4    A(1,2,3)              120.7151         estimate D2E/DX2                !
 ! A5    A(1,2,32)             122.207          estimate D2E/DX2                !
 ! A6    A(3,2,32)             117.0228         estimate D2E/DX2                !
 ! A7    A(2,3,4)              116.2907         estimate D2E/DX2                !
 ! A8    A(2,3,20)             109.8329         estimate D2E/DX2                !
 ! A9    A(2,3,31)             108.6128         estimate D2E/DX2                !
 ! A10   A(4,3,20)             104.5941         estimate D2E/DX2                !
 ! A11   A(4,3,31)             108.1899         estimate D2E/DX2                !
 ! A12   A(20,3,31)            109.1079         estimate D2E/DX2                !
 ! A13   A(3,4,5)              115.7309         estimate D2E/DX2                !
 ! A14   A(3,4,7)              103.7907         estimate D2E/DX2                !
 ! A15   A(3,4,24)             108.7933         estimate D2E/DX2                !
 ! A16   A(5,4,7)              115.4471         estimate D2E/DX2                !
 ! A17   A(5,4,24)             106.5261         estimate D2E/DX2                !
 ! A18   A(7,4,24)             106.0659         estimate D2E/DX2                !
 ! A19   A(4,5,6)              114.4363         estimate D2E/DX2                !
 ! A20   A(4,5,10)             110.5528         estimate D2E/DX2                !
 ! A21   A(4,5,22)             103.7522         estimate D2E/DX2                !
 ! A22   A(6,5,10)             106.351          estimate D2E/DX2                !
 ! A23   A(6,5,22)             109.6951         estimate D2E/DX2                !
 ! A24   A(10,5,22)            112.1919         estimate D2E/DX2                !
 ! A25   A(1,6,5)              112.6389         estimate D2E/DX2                !
 ! A26   A(1,6,34)             108.7521         estimate D2E/DX2                !
 ! A27   A(1,6,35)             107.903          estimate D2E/DX2                !
 ! A28   A(5,6,34)             109.0992         estimate D2E/DX2                !
 ! A29   A(5,6,35)             112.4069         estimate D2E/DX2                !
 ! A30   A(34,6,35)            105.7597         estimate D2E/DX2                !
 ! A31   A(4,7,8)              115.1661         estimate D2E/DX2                !
 ! A32   A(4,7,17)             108.7522         estimate D2E/DX2                !
 ! A33   A(4,7,21)             112.4363         estimate D2E/DX2                !
 ! A34   A(8,7,17)             101.4796         estimate D2E/DX2                !
 ! A35   A(8,7,21)             108.4497         estimate D2E/DX2                !
 ! A36   A(17,7,21)            109.9661         estimate D2E/DX2                !
 ! A37   A(7,8,9)              122.5958         estimate D2E/DX2                !
 ! A38   A(7,8,19)             113.4134         estimate D2E/DX2                !
 ! A39   A(9,8,19)             123.6497         estimate D2E/DX2                !
 ! A40   A(8,9,10)             115.8215         estimate D2E/DX2                !
 ! A41   A(8,9,11)             122.2523         estimate D2E/DX2                !
 ! A42   A(10,9,11)            121.3192         estimate D2E/DX2                !
 ! A43   A(5,10,9)             116.4016         estimate D2E/DX2                !
 ! A44   A(5,10,16)            123.4528         estimate D2E/DX2                !
 ! A45   A(9,10,16)            120.0098         estimate D2E/DX2                !
 ! A46   A(9,11,12)            118.8894         estimate D2E/DX2                !
 ! A47   A(9,11,13)            118.075          estimate D2E/DX2                !
 ! A48   A(12,11,13)           122.9883         estimate D2E/DX2                !
 ! A49   A(11,13,14)           111.5346         estimate D2E/DX2                !
 ! A50   A(11,13,15)           108.0216         estimate D2E/DX2                !
 ! A51   A(11,13,36)           109.7624         estimate D2E/DX2                !
 ! A52   A(14,13,15)           110.5417         estimate D2E/DX2                !
 ! A53   A(14,13,36)           108.6815         estimate D2E/DX2                !
 ! A54   A(15,13,36)           108.2425         estimate D2E/DX2                !
 ! A55   A(13,14,37)           110.6321         estimate D2E/DX2                !
 ! A56   A(13,14,38)           109.3625         estimate D2E/DX2                !
 ! A57   A(13,14,62)           112.6931         estimate D2E/DX2                !
 ! A58   A(37,14,38)           106.7758         estimate D2E/DX2                !
 ! A59   A(37,14,62)           108.9652         estimate D2E/DX2                !
 ! A60   A(38,14,62)           108.2108         estimate D2E/DX2                !
 ! A61   A(13,15,39)           110.8987         estimate D2E/DX2                !
 ! A62   A(13,15,40)           110.9305         estimate D2E/DX2                !
 ! A63   A(13,15,41)           111.3349         estimate D2E/DX2                !
 ! A64   A(39,15,40)           107.8805         estimate D2E/DX2                !
 ! A65   A(39,15,41)           108.1806         estimate D2E/DX2                !
 ! A66   A(40,15,41)           107.4651         estimate D2E/DX2                !
 ! A67   A(7,17,18)            103.0816         estimate D2E/DX2                !
 ! A68   A(7,17,20)            102.7277         estimate D2E/DX2                !
 ! A69   A(7,17,30)            112.6333         estimate D2E/DX2                !
 ! A70   A(18,17,20)           117.2655         estimate D2E/DX2                !
 ! A71   A(18,17,30)           111.2765         estimate D2E/DX2                !
 ! A72   A(20,17,30)           109.449          estimate D2E/DX2                !
 ! A73   A(17,18,19)           106.7406         estimate D2E/DX2                !
 ! A74   A(17,18,28)           112.0259         estimate D2E/DX2                !
 ! A75   A(17,18,29)           113.7278         estimate D2E/DX2                !
 ! A76   A(19,18,28)           107.4402         estimate D2E/DX2                !
 ! A77   A(19,18,29)           108.0752         estimate D2E/DX2                !
 ! A78   A(28,18,29)           108.5651         estimate D2E/DX2                !
 ! A79   A(8,19,18)            106.6338         estimate D2E/DX2                !
 ! A80   A(3,20,17)            103.9145         estimate D2E/DX2                !
 ! A81   A(3,20,42)            111.8352         estimate D2E/DX2                !
 ! A82   A(3,20,43)            110.6567         estimate D2E/DX2                !
 ! A83   A(17,20,42)           111.3298         estimate D2E/DX2                !
 ! A84   A(17,20,43)           111.6462         estimate D2E/DX2                !
 ! A85   A(42,20,43)           107.5121         estimate D2E/DX2                !
 ! A86   A(7,21,44)            105.2299         estimate D2E/DX2                !
 ! A87   A(5,22,23)            105.9144         estimate D2E/DX2                !
 ! A88   A(5,22,45)            111.6201         estimate D2E/DX2                !
 ! A89   A(5,22,46)            113.6663         estimate D2E/DX2                !
 ! A90   A(23,22,45)           107.7026         estimate D2E/DX2                !
 ! A91   A(23,22,46)           113.0153         estimate D2E/DX2                !
 ! A92   A(45,22,46)           104.885          estimate D2E/DX2                !
 ! A93   A(22,23,24)           108.2123         estimate D2E/DX2                !
 ! A94   A(22,23,25)           112.9045         estimate D2E/DX2                !
 ! A95   A(22,23,47)           109.8214         estimate D2E/DX2                !
 ! A96   A(24,23,25)           111.6098         estimate D2E/DX2                !
 ! A97   A(24,23,47)           105.7188         estimate D2E/DX2                !
 ! A98   A(25,23,47)           108.3256         estimate D2E/DX2                !
 ! A99   A(4,24,23)            110.4046         estimate D2E/DX2                !
 ! A100  A(23,25,26)           114.86           estimate D2E/DX2                !
 ! A101  A(23,25,27)           124.9714         estimate D2E/DX2                !
 ! A102  A(26,25,27)           120.1667         estimate D2E/DX2                !
 ! A103  A(25,26,48)           110.4386         estimate D2E/DX2                !
 ! A104  A(25,26,49)           110.2597         estimate D2E/DX2                !
 ! A105  A(25,26,50)           112.2573         estimate D2E/DX2                !
 ! A106  A(48,26,49)           108.5425         estimate D2E/DX2                !
 ! A107  A(48,26,50)           107.5926         estimate D2E/DX2                !
 ! A108  A(49,26,50)           107.6175         estimate D2E/DX2                !
 ! A109  A(25,27,51)           122.4863         estimate D2E/DX2                !
 ! A110  A(25,27,52)           121.386          estimate D2E/DX2                !
 ! A111  A(51,27,52)           116.1015         estimate D2E/DX2                !
 ! A112  A(18,28,53)           112.1075         estimate D2E/DX2                !
 ! A113  A(18,28,54)           110.6154         estimate D2E/DX2                !
 ! A114  A(18,28,55)           111.3409         estimate D2E/DX2                !
 ! A115  A(53,28,54)           105.6798         estimate D2E/DX2                !
 ! A116  A(53,28,55)           108.4944         estimate D2E/DX2                !
 ! A117  A(54,28,55)           108.3745         estimate D2E/DX2                !
 ! A118  A(18,29,56)           111.4711         estimate D2E/DX2                !
 ! A119  A(18,29,57)           110.686          estimate D2E/DX2                !
 ! A120  A(18,29,58)           111.8064         estimate D2E/DX2                !
 ! A121  A(56,29,57)           108.3169         estimate D2E/DX2                !
 ! A122  A(56,29,58)           108.9392         estimate D2E/DX2                !
 ! A123  A(57,29,58)           105.3829         estimate D2E/DX2                !
 ! A124  A(2,32,59)            112.0265         estimate D2E/DX2                !
 ! A125  A(2,32,60)            110.4697         estimate D2E/DX2                !
 ! A126  A(2,32,61)            110.202          estimate D2E/DX2                !
 ! A127  A(59,32,60)           107.7414         estimate D2E/DX2                !
 ! A128  A(59,32,61)           107.7058         estimate D2E/DX2                !
 ! A129  A(60,32,61)           108.5753         estimate D2E/DX2                !
 ! A130  A(14,62,63)           111.5327         estimate D2E/DX2                !
 ! A131  A(14,62,64)           110.9659         estimate D2E/DX2                !
 ! A132  A(14,62,65)           110.0631         estimate D2E/DX2                !
 ! A133  A(63,62,64)           108.4248         estimate D2E/DX2                !
 ! A134  A(63,62,65)           107.7954         estimate D2E/DX2                !
 ! A135  A(64,62,65)           107.9312         estimate D2E/DX2                !
 ! D1    D(6,1,2,3)             -2.4043         estimate D2E/DX2                !
 ! D2    D(6,1,2,32)          -179.6246         estimate D2E/DX2                !
 ! D3    D(33,1,2,3)           176.7416         estimate D2E/DX2                !
 ! D4    D(33,1,2,32)           -0.4787         estimate D2E/DX2                !
 ! D5    D(2,1,6,5)            -34.6726         estimate D2E/DX2                !
 ! D6    D(2,1,6,34)          -155.7357         estimate D2E/DX2                !
 ! D7    D(2,1,6,35)            89.9905         estimate D2E/DX2                !
 ! D8    D(33,1,6,5)           146.1536         estimate D2E/DX2                !
 ! D9    D(33,1,6,34)           25.0905         estimate D2E/DX2                !
 ! D10   D(33,1,6,35)          -89.1834         estimate D2E/DX2                !
 ! D11   D(1,2,3,4)             27.7263         estimate D2E/DX2                !
 ! D12   D(1,2,3,20)           -90.7596         estimate D2E/DX2                !
 ! D13   D(1,2,3,31)           149.9877         estimate D2E/DX2                !
 ! D14   D(32,2,3,4)          -154.9138         estimate D2E/DX2                !
 ! D15   D(32,2,3,20)           86.6002         estimate D2E/DX2                !
 ! D16   D(32,2,3,31)          -32.6525         estimate D2E/DX2                !
 ! D17   D(1,2,32,59)           -0.9543         estimate D2E/DX2                !
 ! D18   D(1,2,32,60)          119.1705         estimate D2E/DX2                !
 ! D19   D(1,2,32,61)         -120.8516         estimate D2E/DX2                !
 ! D20   D(3,2,32,59)         -178.2717         estimate D2E/DX2                !
 ! D21   D(3,2,32,60)          -58.147          estimate D2E/DX2                !
 ! D22   D(3,2,32,61)           61.8309         estimate D2E/DX2                !
 ! D23   D(2,3,4,5)            -13.9494         estimate D2E/DX2                !
 ! D24   D(2,3,4,7)           -141.4971         estimate D2E/DX2                !
 ! D25   D(2,3,4,24)           105.8883         estimate D2E/DX2                !
 ! D26   D(20,3,4,5)           107.3607         estimate D2E/DX2                !
 ! D27   D(20,3,4,7)           -20.187          estimate D2E/DX2                !
 ! D28   D(20,3,4,24)         -132.8016         estimate D2E/DX2                !
 ! D29   D(31,3,4,5)          -136.4327         estimate D2E/DX2                !
 ! D30   D(31,3,4,7)            96.0197         estimate D2E/DX2                !
 ! D31   D(31,3,4,24)          -16.595          estimate D2E/DX2                !
 ! D32   D(2,3,20,17)          163.0533         estimate D2E/DX2                !
 ! D33   D(2,3,20,42)          -76.7506         estimate D2E/DX2                !
 ! D34   D(2,3,20,43)           43.084          estimate D2E/DX2                !
 ! D35   D(4,3,20,17)           37.5704         estimate D2E/DX2                !
 ! D36   D(4,3,20,42)          157.7665         estimate D2E/DX2                !
 ! D37   D(4,3,20,43)          -82.399          estimate D2E/DX2                !
 ! D38   D(31,3,20,17)         -77.9978         estimate D2E/DX2                !
 ! D39   D(31,3,20,42)          42.1983         estimate D2E/DX2                !
 ! D40   D(31,3,20,43)         162.0328         estimate D2E/DX2                !
 ! D41   D(3,4,5,6)            -21.3739         estimate D2E/DX2                !
 ! D42   D(3,4,5,10)          -141.414          estimate D2E/DX2                !
 ! D43   D(3,4,5,22)            98.1183         estimate D2E/DX2                !
 ! D44   D(7,4,5,6)            100.1174         estimate D2E/DX2                !
 ! D45   D(7,4,5,10)           -19.9227         estimate D2E/DX2                !
 ! D46   D(7,4,5,22)          -140.3905         estimate D2E/DX2                !
 ! D47   D(24,4,5,6)          -142.4394         estimate D2E/DX2                !
 ! D48   D(24,4,5,10)           97.5205         estimate D2E/DX2                !
 ! D49   D(24,4,5,22)          -22.9472         estimate D2E/DX2                !
 ! D50   D(3,4,7,8)            108.6778         estimate D2E/DX2                !
 ! D51   D(3,4,7,17)            -4.3843         estimate D2E/DX2                !
 ! D52   D(3,4,7,21)          -126.4113         estimate D2E/DX2                !
 ! D53   D(5,4,7,8)            -19.0461         estimate D2E/DX2                !
 ! D54   D(5,4,7,17)          -132.1082         estimate D2E/DX2                !
 ! D55   D(5,4,7,21)           105.8647         estimate D2E/DX2                !
 ! D56   D(24,4,7,8)          -136.747          estimate D2E/DX2                !
 ! D57   D(24,4,7,17)          110.1909         estimate D2E/DX2                !
 ! D58   D(24,4,7,21)          -11.8361         estimate D2E/DX2                !
 ! D59   D(3,4,24,23)         -107.359          estimate D2E/DX2                !
 ! D60   D(5,4,24,23)           18.0441         estimate D2E/DX2                !
 ! D61   D(7,4,24,23)          141.5386         estimate D2E/DX2                !
 ! D62   D(4,5,6,1)             45.1755         estimate D2E/DX2                !
 ! D63   D(4,5,6,34)           166.0403         estimate D2E/DX2                !
 ! D64   D(4,5,6,35)           -76.9805         estimate D2E/DX2                !
 ! D65   D(10,5,6,1)           167.5314         estimate D2E/DX2                !
 ! D66   D(10,5,6,34)          -71.6037         estimate D2E/DX2                !
 ! D67   D(10,5,6,35)           45.3755         estimate D2E/DX2                !
 ! D68   D(22,5,6,1)           -70.9276         estimate D2E/DX2                !
 ! D69   D(22,5,6,34)           49.9372         estimate D2E/DX2                !
 ! D70   D(22,5,6,35)          166.9164         estimate D2E/DX2                !
 ! D71   D(4,5,10,9)            50.4215         estimate D2E/DX2                !
 ! D72   D(4,5,10,16)         -133.8251         estimate D2E/DX2                !
 ! D73   D(6,5,10,9)           -74.3584         estimate D2E/DX2                !
 ! D74   D(6,5,10,16)          101.395          estimate D2E/DX2                !
 ! D75   D(22,5,10,9)          165.7078         estimate D2E/DX2                !
 ! D76   D(22,5,10,16)         -18.5388         estimate D2E/DX2                !
 ! D77   D(4,5,22,23)           19.5459         estimate D2E/DX2                !
 ! D78   D(4,5,22,45)          -97.3988         estimate D2E/DX2                !
 ! D79   D(4,5,22,46)          144.2163         estimate D2E/DX2                !
 ! D80   D(6,5,22,23)          142.2268         estimate D2E/DX2                !
 ! D81   D(6,5,22,45)           25.2821         estimate D2E/DX2                !
 ! D82   D(6,5,22,46)          -93.1028         estimate D2E/DX2                !
 ! D83   D(10,5,22,23)         -99.8067         estimate D2E/DX2                !
 ! D84   D(10,5,22,45)         143.2486         estimate D2E/DX2                !
 ! D85   D(10,5,22,46)          24.8637         estimate D2E/DX2                !
 ! D86   D(4,7,8,9)             35.4855         estimate D2E/DX2                !
 ! D87   D(4,7,8,19)          -138.0304         estimate D2E/DX2                !
 ! D88   D(17,7,8,9)           152.7345         estimate D2E/DX2                !
 ! D89   D(17,7,8,19)          -20.7815         estimate D2E/DX2                !
 ! D90   D(21,7,8,9)           -91.4761         estimate D2E/DX2                !
 ! D91   D(21,7,8,19)           95.0079         estimate D2E/DX2                !
 ! D92   D(4,7,17,18)          149.5853         estimate D2E/DX2                !
 ! D93   D(4,7,17,20)           27.265          estimate D2E/DX2                !
 ! D94   D(4,7,17,30)          -90.3813         estimate D2E/DX2                !
 ! D95   D(8,7,17,18)           27.7692         estimate D2E/DX2                !
 ! D96   D(8,7,17,20)          -94.5512         estimate D2E/DX2                !
 ! D97   D(8,7,17,30)          147.8025         estimate D2E/DX2                !
 ! D98   D(21,7,17,18)         -86.899          estimate D2E/DX2                !
 ! D99   D(21,7,17,20)         150.7807         estimate D2E/DX2                !
 ! D100  D(21,7,17,30)          33.1344         estimate D2E/DX2                !
 ! D101  D(4,7,21,44)           21.6649         estimate D2E/DX2                !
 ! D102  D(8,7,21,44)          150.1823         estimate D2E/DX2                !
 ! D103  D(17,7,21,44)         -99.6711         estimate D2E/DX2                !
 ! D104  D(7,8,9,10)            -6.3252         estimate D2E/DX2                !
 ! D105  D(7,8,9,11)          -177.4958         estimate D2E/DX2                !
 ! D106  D(19,8,9,10)          166.5236         estimate D2E/DX2                !
 ! D107  D(19,8,9,11)           -4.6469         estimate D2E/DX2                !
 ! D108  D(7,8,19,18)            3.6057         estimate D2E/DX2                !
 ! D109  D(9,8,19,18)         -169.8316         estimate D2E/DX2                !
 ! D110  D(8,9,10,5)           -38.5214         estimate D2E/DX2                !
 ! D111  D(8,9,10,16)          145.5699         estimate D2E/DX2                !
 ! D112  D(11,9,10,5)          132.7385         estimate D2E/DX2                !
 ! D113  D(11,9,10,16)         -43.1702         estimate D2E/DX2                !
 ! D114  D(8,9,11,12)          119.1694         estimate D2E/DX2                !
 ! D115  D(8,9,11,13)          -63.2557         estimate D2E/DX2                !
 ! D116  D(10,9,11,12)         -51.5229         estimate D2E/DX2                !
 ! D117  D(10,9,11,13)         126.052          estimate D2E/DX2                !
 ! D118  D(9,11,13,14)         144.2104         estimate D2E/DX2                !
 ! D119  D(9,11,13,15)         -94.1173         estimate D2E/DX2                !
 ! D120  D(9,11,13,36)          23.7017         estimate D2E/DX2                !
 ! D121  D(12,11,13,14)        -38.3211         estimate D2E/DX2                !
 ! D122  D(12,11,13,15)         83.3512         estimate D2E/DX2                !
 ! D123  D(12,11,13,36)       -158.8298         estimate D2E/DX2                !
 ! D124  D(11,13,14,37)         54.6081         estimate D2E/DX2                !
 ! D125  D(11,13,14,38)        171.9444         estimate D2E/DX2                !
 ! D126  D(11,13,14,62)        -67.658          estimate D2E/DX2                !
 ! D127  D(15,13,14,37)        -65.5931         estimate D2E/DX2                !
 ! D128  D(15,13,14,38)         51.7432         estimate D2E/DX2                !
 ! D129  D(15,13,14,62)        172.1408         estimate D2E/DX2                !
 ! D130  D(36,13,14,37)        175.7485         estimate D2E/DX2                !
 ! D131  D(36,13,14,38)        -66.9152         estimate D2E/DX2                !
 ! D132  D(36,13,14,62)         53.4824         estimate D2E/DX2                !
 ! D133  D(11,13,15,39)        178.2421         estimate D2E/DX2                !
 ! D134  D(11,13,15,40)         58.38           estimate D2E/DX2                !
 ! D135  D(11,13,15,41)        -61.2474         estimate D2E/DX2                !
 ! D136  D(14,13,15,39)        -59.4739         estimate D2E/DX2                !
 ! D137  D(14,13,15,40)       -179.336          estimate D2E/DX2                !
 ! D138  D(14,13,15,41)         61.0366         estimate D2E/DX2                !
 ! D139  D(36,13,15,39)         59.4512         estimate D2E/DX2                !
 ! D140  D(36,13,15,40)        -60.4109         estimate D2E/DX2                !
 ! D141  D(36,13,15,41)        179.9617         estimate D2E/DX2                !
 ! D142  D(13,14,62,63)         62.6105         estimate D2E/DX2                !
 ! D143  D(13,14,62,64)        -58.3907         estimate D2E/DX2                !
 ! D144  D(13,14,62,65)       -177.7937         estimate D2E/DX2                !
 ! D145  D(37,14,62,63)        -60.5892         estimate D2E/DX2                !
 ! D146  D(37,14,62,64)        178.4095         estimate D2E/DX2                !
 ! D147  D(37,14,62,65)         59.0066         estimate D2E/DX2                !
 ! D148  D(38,14,62,63)       -176.3328         estimate D2E/DX2                !
 ! D149  D(38,14,62,64)         62.666          estimate D2E/DX2                !
 ! D150  D(38,14,62,65)        -56.7369         estimate D2E/DX2                !
 ! D151  D(7,17,18,19)         -27.5517         estimate D2E/DX2                !
 ! D152  D(7,17,18,28)          89.7903         estimate D2E/DX2                !
 ! D153  D(7,17,18,29)        -146.6378         estimate D2E/DX2                !
 ! D154  D(20,17,18,19)         84.4243         estimate D2E/DX2                !
 ! D155  D(20,17,18,28)       -158.2337         estimate D2E/DX2                !
 ! D156  D(20,17,18,29)        -34.6619         estimate D2E/DX2                !
 ! D157  D(30,17,18,19)       -148.5137         estimate D2E/DX2                !
 ! D158  D(30,17,18,28)        -31.1717         estimate D2E/DX2                !
 ! D159  D(30,17,18,29)         92.4001         estimate D2E/DX2                !
 ! D160  D(7,17,20,3)          -39.6942         estimate D2E/DX2                !
 ! D161  D(7,17,20,42)        -160.2316         estimate D2E/DX2                !
 ! D162  D(7,17,20,43)          79.6021         estimate D2E/DX2                !
 ! D163  D(18,17,20,3)        -151.87           estimate D2E/DX2                !
 ! D164  D(18,17,20,42)         87.5926         estimate D2E/DX2                !
 ! D165  D(18,17,20,43)        -32.5737         estimate D2E/DX2                !
 ! D166  D(30,17,20,3)          80.1841         estimate D2E/DX2                !
 ! D167  D(30,17,20,42)        -40.3533         estimate D2E/DX2                !
 ! D168  D(30,17,20,43)       -160.5196         estimate D2E/DX2                !
 ! D169  D(17,18,19,8)          15.2101         estimate D2E/DX2                !
 ! D170  D(28,18,19,8)        -105.1204         estimate D2E/DX2                !
 ! D171  D(29,18,19,8)         137.9061         estimate D2E/DX2                !
 ! D172  D(17,18,28,53)        -59.6712         estimate D2E/DX2                !
 ! D173  D(17,18,28,54)       -177.3474         estimate D2E/DX2                !
 ! D174  D(17,18,28,55)         62.0845         estimate D2E/DX2                !
 ! D175  D(19,18,28,53)         57.251          estimate D2E/DX2                !
 ! D176  D(19,18,28,54)        -60.4252         estimate D2E/DX2                !
 ! D177  D(19,18,28,55)        179.0067         estimate D2E/DX2                !
 ! D178  D(29,18,28,53)        173.9035         estimate D2E/DX2                !
 ! D179  D(29,18,28,54)         56.2273         estimate D2E/DX2                !
 ! D180  D(29,18,28,55)        -64.3408         estimate D2E/DX2                !
 ! D181  D(17,18,29,56)        -57.2553         estimate D2E/DX2                !
 ! D182  D(17,18,29,57)       -177.8856         estimate D2E/DX2                !
 ! D183  D(17,18,29,58)         64.9544         estimate D2E/DX2                !
 ! D184  D(19,18,29,56)       -175.5773         estimate D2E/DX2                !
 ! D185  D(19,18,29,57)         63.7924         estimate D2E/DX2                !
 ! D186  D(19,18,29,58)        -53.3676         estimate D2E/DX2                !
 ! D187  D(28,18,29,56)         68.179          estimate D2E/DX2                !
 ! D188  D(28,18,29,57)        -52.4513         estimate D2E/DX2                !
 ! D189  D(28,18,29,58)       -169.6113         estimate D2E/DX2                !
 ! D190  D(5,22,23,24)          -9.5362         estimate D2E/DX2                !
 ! D191  D(5,22,23,25)         114.513          estimate D2E/DX2                !
 ! D192  D(5,22,23,47)        -124.4819         estimate D2E/DX2                !
 ! D193  D(45,22,23,24)        110.0143         estimate D2E/DX2                !
 ! D194  D(45,22,23,25)       -125.9365         estimate D2E/DX2                !
 ! D195  D(45,22,23,47)         -4.9314         estimate D2E/DX2                !
 ! D196  D(46,22,23,24)       -134.6097         estimate D2E/DX2                !
 ! D197  D(46,22,23,25)        -10.5605         estimate D2E/DX2                !
 ! D198  D(46,22,23,47)        110.4447         estimate D2E/DX2                !
 ! D199  D(22,23,24,4)          -5.3637         estimate D2E/DX2                !
 ! D200  D(25,23,24,4)        -130.1857         estimate D2E/DX2                !
 ! D201  D(47,23,24,4)         112.2456         estimate D2E/DX2                !
 ! D202  D(22,23,25,26)         84.6717         estimate D2E/DX2                !
 ! D203  D(22,23,25,27)        -94.8203         estimate D2E/DX2                !
 ! D204  D(24,23,25,26)       -153.1669         estimate D2E/DX2                !
 ! D205  D(24,23,25,27)         27.3411         estimate D2E/DX2                !
 ! D206  D(47,23,25,26)        -37.1799         estimate D2E/DX2                !
 ! D207  D(47,23,25,27)        143.3282         estimate D2E/DX2                !
 ! D208  D(23,25,26,48)        -58.6731         estimate D2E/DX2                !
 ! D209  D(23,25,26,49)         61.2811         estimate D2E/DX2                !
 ! D210  D(23,25,26,50)       -178.7417         estimate D2E/DX2                !
 ! D211  D(27,25,26,48)        120.8454         estimate D2E/DX2                !
 ! D212  D(27,25,26,49)       -119.2004         estimate D2E/DX2                !
 ! D213  D(27,25,26,50)          0.7768         estimate D2E/DX2                !
 ! D214  D(23,25,27,51)          1.5803         estimate D2E/DX2                !
 ! D215  D(23,25,27,52)        179.6452         estimate D2E/DX2                !
 ! D216  D(26,25,27,51)       -177.8865         estimate D2E/DX2                !
 ! D217  D(26,25,27,52)          0.1784         estimate D2E/DX2                !
 --------------------------------------------------------------------------------
 Trust Radius=3.00D-01 FncErr=1.00D-07 GrdErr=1.00D-06
 Number of steps in this run=    390 maximum allowed number of steps=    390.
 GradGradGradGradGradGradGradGradGradGradGradGradGradGradGradGradGradGrad

 Stoichiometry    C26H34O5
 Framework group  C1[X(C26H34O5)]
 Deg. of freedom   189
 Full point group                 C1      NOp   1
 Largest Abelian subgroup         C1      NOp   1
 Largest concise Abelian subgroup C1      NOp   1
                         Standard orientation:                         
 ---------------------------------------------------------------------
 Center     Atomic      Atomic             Coordinates (Angstroms)
 Number     Number       Type             X           Y           Z
 ---------------------------------------------------------------------
      1          6           0        1.913723    1.326060   -2.632974
      2          6           0        2.267798    2.185421   -1.664799
      3          6           0        1.771171    2.001540   -0.251050
      4          6           0        1.442499    0.539797    0.180868
      5          6           0        1.340416   -0.488760   -0.962306
      6          6           0        1.061892    0.125811   -2.351899
      7          6           0        0.170721    0.690280    1.058298
      8          6           0       -1.086497    0.183186    0.443066
      9          6           0       -1.118352   -0.897294   -0.345211
     10          6           0        0.200777   -1.483249   -0.692904
     11          6           0       -2.360725   -1.362491   -0.995436
     12          8           0       -2.407805   -1.407335   -2.225101
     13          6           0       -3.510690   -1.819948   -0.102713
     14          6           0       -4.873815   -1.437251   -0.698679
     15          6           0       -3.405118   -3.335321    0.064961
     16          8           0        0.317175   -2.698246   -0.825887
     17          6           0       -0.142445    2.163815    1.212999
     18          6           0       -1.678455    2.181477    1.352901
     19          8           0       -2.175210    1.014626    0.650369
     20          6           0        0.451445    2.769205   -0.057218
     21          8           0        0.319994    0.088690    2.337946
     22          6           0        2.713595   -1.168751   -0.964204
     23          6           0        3.317207   -0.891848    0.401290
     24          8           0        2.490750    0.067310    1.069693
     25          6           0        3.498717   -2.145040    1.230172
     26          6           0        4.774030   -2.901286    0.963849
     27          6           0        2.620520   -2.601168    2.138909
     28          6           0       -2.125219    2.061501    2.818808
     29          6           0       -2.338448    3.420371    0.742055
     30          1           0        0.342537    2.608709    2.091141
     31          1           0        2.525457    2.402313    0.440650
     32          6           0        3.113933    3.394818   -1.938603
     33          1           0        2.227471    1.486471   -3.661806
     34          1           0        1.252586   -0.631209   -3.124412
     35          1           0        0.012878    0.420379   -2.476053
     36          1           0       -3.418017   -1.357987    0.886842
     37          1           0       -4.969798   -1.820933   -1.721710
     38          1           0       -5.672403   -1.904095   -0.109246
     39          1           0       -4.193233   -3.711005    0.725598
     40          1           0       -2.439454   -3.614551    0.500691
     41          1           0       -3.492365   -3.850056   -0.898449
     42          1           0        0.619119    3.845937    0.055234
     43          1           0       -0.209668    2.626520   -0.920860
     44          1           0        1.288433    0.034884    2.486074
     45          1           0        3.380183   -0.731728   -1.718570
     46          1           0        2.675316   -2.236457   -1.207121
     47          1           0        4.296130   -0.410680    0.284629
     48          1           0        4.829470   -3.198814   -0.088312
     49          1           0        5.641707   -2.274596    1.194670
     50          1           0        4.851329   -3.810485    1.569455
     51          1           0        1.678300   -2.106567    2.336000
     52          1           0        2.807757   -3.512951    2.698423
     53          1           0       -1.772245    1.135529    3.282342
     54          1           0       -3.219105    2.029096    2.887620
     55          1           0       -1.766801    2.906920    3.415035
     56          1           0       -1.943293    4.342158    1.180543
     57          1           0       -3.423091    3.400048    0.901976
     58          1           0       -2.205691    3.458141   -0.343919
     59          1           0        3.403239    3.463567   -2.992469
     60          1           0        2.569493    4.308966   -1.681880
     61          1           0        4.031814    3.356712   -1.343163
     62          6           0       -5.108406    0.067677   -0.710367
     63          1           0       -4.376479    0.583331   -1.339262
     64          1           0       -5.047828    0.481406    0.301298
     65          1           0       -6.104631    0.289365   -1.106026
 ---------------------------------------------------------------------
 Rotational constants (GHZ):      0.2066504      0.1365528      0.1134671
 Standard basis: 6-31G(d) (6D, 7F)
 There are   533 symmetry adapted basis functions of A   symmetry.
 Integral buffers will be    131072 words long.
 Raffenetti 2 integral format.
 Two-electron integral symmetry is turned on.
   533 basis functions,  1004 primitive gaussians,   533 cartesian basis functions
   115 alpha electrons      115 beta electrons
       nuclear repulsion energy      3541.6663331002 Hartrees.
 NAtoms=   65 NActive=   65 NUniq=   65 SFac= 1.00D+00 NAtFMM=   50 NAOKFM=T Big=T
 One-electron integrals computed using PRISM.
 NBasis=   533 RedAO= T  NBF=   533
 NBsUse=   533 1.00D-06 NBFU=   533
 Harris functional with IExCor=  402 diagonalized for initial guess.
 ExpMin= 1.61D-01 ExpMax= 5.48D+03 ExpMxC= 8.25D+02 IAcc=1 IRadAn=         1 AccDes= 0.00D+00
 HarFok:  IExCor=  402 AccDes= 0.00D+00 IRadAn=         1 IDoV= 1
 ScaDFX=  1.000000  1.000000  1.000000  1.000000
 FoFCou: FMM=F IPFlag=           0 FMFlag=      100000 FMFlg1=        2001
         NFxFlg=           0 DoJE=T BraDBF=F KetDBF=T FulRan=T
         Omega=  0.000000  0.000000  1.000000  0.000000  0.000000 ICntrl=     500 IOpCl=  0
         NMat0=    1 NMatS0=    1 NMatT0=    0 NMatD0=    1 NMtDS0=    0 NMtDT0=    0
         I1Cent=           4 NGrid=           0.
 Petite list used in FoFCou.
 Initial guess orbital symmetries:
       Occupied  (A) (A) (A) (A) (A) (A) (A) (A) (A) (A) (A) (A)
                 (A) (A) (A) (A) (A) (A) (A) (A) (A) (A) (A) (A)
                 (A) (A) (A) (A) (A) (A) (A) (A) (A) (A) (A) (A)
                 (A) (A) (A) (A) (A) (A) (A) (A) (A) (A) (A) (A)
                 (A) (A) (A) (A) (A) (A) (A) (A) (A) (A) (A) (A)
                 (A) (A) (A) (A) (A) (A) (A) (A) (A) (A) (A) (A)
                 (A) (A) (A) (A) (A) (A) (A) (A) (A) (A) (A) (A)
                 (A) (A) (A) (A) (A) (A) (A) (A) (A) (A) (A) (A)
                 (A) (A) (A) (A) (A) (A) (A) (A) (A) (A) (A) (A)
                 (A) (A) (A) (A) (A) (A) (A)
       Virtual   (A) (A) (A) (A) (A) (A) (A) (A) (A) (A) (A) (A)
                 (A) (A) (A) (A) (A) (A) (A) (A) (A) (A) (A) (A)
                 (A) (A) (A) (A) (A) (A) (A) (A) (A) (A) (A) (A)
                 (A) (A) (A) (A) (A) (A) (A) (A) (A) (A) (A) (A)
                 (A) (A) (A) (A) (A) (A) (A) (A) (A) (A) (A) (A)
                 (A) (A) (A) (A) (A) (A) (A) (A) (A) (A) (A) (A)
                 (A) (A) (A) (A) (A) (A) (A) (A) (A) (A) (A) (A)
                 (A) (A) (A) (A) (A) (A) (A) (A) (A) (A) (A) (A)
                 (A) (A) (A) (A) (A) (A) (A) (A) (A) (A) (A) (A)
                 (A) (A) (A) (A) (A) (A) (A) (A) (A) (A) (A) (A)
                 (A) (A) (A) (A) (A) (A) (A) (A) (A) (A) (A) (A)
                 (A) (A) (A) (A) (A) (A) (A) (A) (A) (A) (A) (A)
                 (A) (A) (A) (A) (A) (A) (A) (A) (A) (A) (A) (A)
                 (A) (A) (A) (A) (A) (A) (A) (A) (A) (A) (A) (A)
                 (A) (A) (A) (A) (A) (A) (A) (A) (A) (A) (A) (A)
                 (A) (A) (A) (A) (A) (A) (A) (A) (A) (A) (A) (A)
                 (A) (A) (A) (A) (A) (A) (A) (A) (A) (A) (A) (A)
                 (A) (A) (A) (A) (A) (A) (A) (A) (A) (A) (A) (A)
                 (A) (A) (A) (A) (A) (A) (A) (A) (A) (A) (A) (A)
                 (A) (A) (A) (A) (A) (A) (A) (A) (A) (A) (A) (A)
                 (A) (A) (A) (A) (A) (A) (A) (A) (A) (A) (A) (A)
                 (A) (A) (A) (A) (A) (A) (A) (A) (A) (A) (A) (A)
                 (A) (A) (A) (A) (A) (A) (A) (A) (A) (A) (A) (A)
                 (A) (A) (A) (A) (A) (A) (A) (A) (A) (A) (A) (A)
                 (A) (A) (A) (A) (A) (A) (A) (A) (A) (A) (A) (A)
                 (A) (A) (A) (A) (A) (A) (A) (A) (A) (A) (A) (A)
                 (A) (A) (A) (A) (A) (A) (A) (A) (A) (A) (A) (A)
                 (A) (A) (A) (A) (A) (A) (A) (A) (A) (A) (A) (A)
                 (A) (A) (A) (A) (A) (A) (A) (A) (A) (A) (A) (A)
                 (A) (A) (A) (A) (A) (A) (A) (A) (A) (A) (A) (A)
                 (A) (A) (A) (A) (A) (A) (A) (A) (A) (A) (A) (A)
                 (A) (A) (A) (A) (A) (A) (A) (A) (A) (A) (A) (A)
                 (A) (A) (A) (A) (A) (A) (A) (A) (A) (A) (A) (A)
                 (A) (A) (A) (A) (A) (A) (A) (A) (A) (A) (A) (A)
                 (A) (A) (A) (A) (A) (A) (A) (A) (A) (A)
 The electronic state of the initial guess is 1-A.
 Requested convergence on RMS density matrix=1.00D-08 within 128 cycles.
 Requested convergence on MAX density matrix=1.00D-06.
 Requested convergence on             energy=1.00D-06.
 No special actions if energy rises.
 Integral accuracy reduced to 1.0D-05 until final iterations.
 Initial convergence to 1.0D-05 achieved.  Increase integral accuracy.
 SCF Done:  E(RB3LYP) =  -1387.30224936     A.U. after   16 cycles
             Convg  =    0.4095D-08             -V/T =  2.0090

 **********************************************************************

            Population analysis using the SCF density.

 **********************************************************************

 Orbital symmetries:
       Occupied  (A) (A) (A) (A) (A) (A) (A) (A) (A) (A) (A) (A)
                 (A) (A) (A) (A) (A) (A) (A) (A) (A) (A) (A) (A)
                 (A) (A) (A) (A) (A) (A) (A) (A) (A) (A) (A) (A)
                 (A) (A) (A) (A) (A) (A) (A) (A) (A) (A) (A) (A)
                 (A) (A) (A) (A) (A) (A) (A) (A) (A) (A) (A) (A)
                 (A) (A) (A) (A) (A) (A) (A) (A) (A) (A) (A) (A)
                 (A) (A) (A) (A) (A) (A) (A) (A) (A) (A) (A) (A)
                 (A) (A) (A) (A) (A) (A) (A) (A) (A) (A) (A) (A)
                 (A) (A) (A) (A) (A) (A) (A) (A) (A) (A) (A) (A)
                 (A) (A) (A) (A) (A) (A) (A)
       Virtual   (A) (A) (A) (A) (A) (A) (A) (A) (A) (A) (A) (A)
                 (A) (A) (A) (A) (A) (A) (A) (A) (A) (A) (A) (A)
                 (A) (A) (A) (A) (A) (A) (A) (A) (A) (A) (A) (A)
                 (A) (A) (A) (A) (A) (A) (A) (A) (A) (A) (A) (A)
                 (A) (A) (A) (A) (A) (A) (A) (A) (A) (A) (A) (A)
                 (A) (A) (A) (A) (A) (A) (A) (A) (A) (A) (A) (A)
                 (A) (A) (A) (A) (A) (A) (A) (A) (A) (A) (A) (A)
                 (A) (A) (A) (A) (A) (A) (A) (A) (A) (A) (A) (A)
                 (A) (A) (A) (A) (A) (A) (A) (A) (A) (A) (A) (A)
                 (A) (A) (A) (A) (A) (A) (A) (A) (A) (A) (A) (A)
                 (A) (A) (A) (A) (A) (A) (A) (A) (A) (A) (A) (A)
                 (A) (A) (A) (A) (A) (A) (A) (A) (A) (A) (A) (A)
                 (A) (A) (A) (A) (A) (A) (A) (A) (A) (A) (A) (A)
                 (A) (A) (A) (A) (A) (A) (A) (A) (A) (A) (A) (A)
                 (A) (A) (A) (A) (A) (A) (A) (A) (A) (A) (A) (A)
                 (A) (A) (A) (A) (A) (A) (A) (A) (A) (A) (A) (A)
                 (A) (A) (A) (A) (A) (A) (A) (A) (A) (A) (A) (A)
                 (A) (A) (A) (A) (A) (A) (A) (A) (A) (A) (A) (A)
                 (A) (A) (A) (A) (A) (A) (A) (A) (A) (A) (A) (A)
                 (A) (A) (A) (A) (A) (A) (A) (A) (A) (A) (A) (A)
                 (A) (A) (A) (A) (A) (A) (A) (A) (A) (A) (A) (A)
                 (A) (A) (A) (A) (A) (A) (A) (A) (A) (A) (A) (A)
                 (A) (A) (A) (A) (A) (A) (A) (A) (A) (A) (A) (A)
                 (A) (A) (A) (A) (A) (A) (A) (A) (A) (A) (A) (A)
                 (A) (A) (A) (A) (A) (A) (A) (A) (A) (A) (A) (A)
                 (A) (A) (A) (A) (A) (A) (A) (A) (A) (A) (A) (A)
                 (A) (A) (A) (A) (A) (A) (A) (A) (A) (A) (A) (A)
                 (A) (A) (A) (A) (A) (A) (A) (A) (A) (A) (A) (A)
                 (A) (A) (A) (A) (A) (A) (A) (A) (A) (A) (A) (A)
                 (A) (A) (A) (A) (A) (A) (A) (A) (A) (A) (A) (A)
                 (A) (A) (A) (A) (A) (A) (A) (A) (A) (A) (A) (A)
                 (A) (A) (A) (A) (A) (A) (A) (A) (A) (A) (A) (A)
                 (A) (A) (A) (A) (A) (A) (A) (A) (A) (A) (A) (A)
                 (A) (A) (A) (A) (A) (A) (A) (A) (A) (A) (A) (A)
                 (A) (A) (A) (A) (A) (A) (A) (A) (A) (A)
 The electronic state is 1-A.
 Alpha  occ. eigenvalues --  -19.19721 -19.16957 -19.14830 -19.13679 -19.13243
 Alpha  occ. eigenvalues --  -10.27654 -10.26958 -10.26596 -10.26419 -10.26179
 Alpha  occ. eigenvalues --  -10.25598 -10.24503 -10.21825 -10.20476 -10.19949
 Alpha  occ. eigenvalues --  -10.19890 -10.19740 -10.19694 -10.19177 -10.19117
 Alpha  occ. eigenvalues --  -10.18933 -10.18882 -10.18813 -10.18595 -10.18474
 Alpha  occ. eigenvalues --  -10.18180 -10.17891 -10.16951 -10.16947 -10.16876
 Alpha  occ. eigenvalues --  -10.15977  -1.08649  -1.06211  -1.03398  -1.02306
 Alpha  occ. eigenvalues --   -1.01973  -0.87815  -0.84180  -0.82668  -0.81408
 Alpha  occ. eigenvalues --   -0.80197  -0.79735  -0.77157  -0.74237  -0.73593
 Alpha  occ. eigenvalues --   -0.72695  -0.71922  -0.69793  -0.68667  -0.68052
 Alpha  occ. eigenvalues --   -0.65256  -0.64017  -0.63213  -0.62087  -0.61164
 Alpha  occ. eigenvalues --   -0.59511  -0.58863  -0.56964  -0.54946  -0.53589
 Alpha  occ. eigenvalues --   -0.53322  -0.51870  -0.51097  -0.50059  -0.49315
 Alpha  occ. eigenvalues --   -0.48775  -0.47438  -0.47166  -0.46212  -0.45853
 Alpha  occ. eigenvalues --   -0.44859  -0.44712  -0.44056  -0.43484  -0.43156
 Alpha  occ. eigenvalues --   -0.42603  -0.42551  -0.42024  -0.41725  -0.41203
 Alpha  occ. eigenvalues --   -0.41119  -0.40775  -0.40537  -0.40170  -0.39896
 Alpha  occ. eigenvalues --   -0.39274  -0.39226  -0.38835  -0.38598  -0.38078
 Alpha  occ. eigenvalues --   -0.37773  -0.37570  -0.37036  -0.36191  -0.35838
 Alpha  occ. eigenvalues --   -0.35726  -0.35189  -0.35136  -0.34852  -0.34449
 Alpha  occ. eigenvalues --   -0.34076  -0.33581  -0.33000  -0.32695  -0.32428
 Alpha  occ. eigenvalues --   -0.31971  -0.31682  -0.31002  -0.27646  -0.27016
 Alpha  occ. eigenvalues --   -0.25059  -0.24414  -0.24038  -0.23733  -0.23266
 Alpha virt. eigenvalues --   -0.04791  -0.02421   0.01303   0.02265   0.03769
 Alpha virt. eigenvalues --    0.06444   0.07994   0.08829   0.09095   0.10375
 Alpha virt. eigenvalues --    0.10746   0.10813   0.11009   0.11780   0.12285
 Alpha virt. eigenvalues --    0.12775   0.13351   0.13517   0.13793   0.14138
 Alpha virt. eigenvalues --    0.14408   0.14521   0.14981   0.15400   0.15607
 Alpha virt. eigenvalues --    0.16126   0.16194   0.16703   0.16987   0.17666
 Alpha virt. eigenvalues --    0.18206   0.18373   0.18779   0.19097   0.19377
 Alpha virt. eigenvalues --    0.19472   0.19680   0.20110   0.20257   0.20524
 Alpha virt. eigenvalues --    0.20783   0.21280   0.21644   0.21764   0.21871
 Alpha virt. eigenvalues --    0.22916   0.24094   0.24535   0.24764   0.24972
 Alpha virt. eigenvalues --    0.25054   0.25255   0.25841   0.26172   0.26625
 Alpha virt. eigenvalues --    0.26881   0.27137   0.27936   0.28153   0.30513
 Alpha virt. eigenvalues --    0.31153   0.31580   0.32834   0.33287   0.34272
 Alpha virt. eigenvalues --    0.35168   0.35910   0.37359   0.38218   0.39784
 Alpha virt. eigenvalues --    0.41140   0.43641   0.45656   0.47411   0.48446
 Alpha virt. eigenvalues --    0.49714   0.50103   0.50497   0.51076   0.51777
 Alpha virt. eigenvalues --    0.51924   0.52208   0.53097   0.53635   0.53731
 Alpha virt. eigenvalues --    0.53878   0.54469   0.54887   0.55303   0.56301
 Alpha virt. eigenvalues --    0.56630   0.57210   0.58283   0.58583   0.59239
 Alpha virt. eigenvalues --    0.59630   0.60663   0.60858   0.61104   0.61351
 Alpha virt. eigenvalues --    0.62742   0.63357   0.63691   0.64419   0.64823
 Alpha virt. eigenvalues --    0.65580   0.66106   0.66628   0.66949   0.67585
 Alpha virt. eigenvalues --    0.67963   0.68001   0.68731   0.69317   0.70236
 Alpha virt. eigenvalues --    0.70515   0.71155   0.72166   0.73037   0.73324
 Alpha virt. eigenvalues --    0.74110   0.74362   0.75106   0.75328   0.76271
 Alpha virt. eigenvalues --    0.76794   0.77194   0.77628   0.78170   0.78951
 Alpha virt. eigenvalues --    0.79687   0.80191   0.80677   0.81677   0.82022
 Alpha virt. eigenvalues --    0.82531   0.83182   0.83717   0.83849   0.84357
 Alpha virt. eigenvalues --    0.85217   0.85800   0.86151   0.86545   0.86829
 Alpha virt. eigenvalues --    0.87392   0.87671   0.88049   0.88880   0.89136
 Alpha virt. eigenvalues --    0.89820   0.89902   0.90060   0.90461   0.90720
 Alpha virt. eigenvalues --    0.91037   0.91243   0.91513   0.91971   0.92154
 Alpha virt. eigenvalues --    0.92327   0.92498   0.93128   0.94102   0.94173
 Alpha virt. eigenvalues --    0.94704   0.95034   0.96005   0.96447   0.97041
 Alpha virt. eigenvalues --    0.97262   0.97393   0.97634   0.98104   0.98947
 Alpha virt. eigenvalues --    0.99706   1.00847   1.01376   1.01640   1.03127
 Alpha virt. eigenvalues --    1.03872   1.04132   1.05747   1.07134   1.07871
 Alpha virt. eigenvalues --    1.09348   1.11107   1.11389   1.12700   1.13514
 Alpha virt. eigenvalues --    1.13803   1.15014   1.15600   1.16220   1.17382
 Alpha virt. eigenvalues --    1.17648   1.19017   1.20165   1.20506   1.20693
 Alpha virt. eigenvalues --    1.21797   1.23379   1.24513   1.26659   1.27408
 Alpha virt. eigenvalues --    1.29006   1.30000   1.30274   1.31326   1.32290
 Alpha virt. eigenvalues --    1.35354   1.36802   1.37656   1.39246   1.40368
 Alpha virt. eigenvalues --    1.41354   1.42934   1.45075   1.45272   1.46541
 Alpha virt. eigenvalues --    1.48868   1.49307   1.50591   1.52121   1.52444
 Alpha virt. eigenvalues --    1.54581   1.55717   1.56536   1.57411   1.59011
 Alpha virt. eigenvalues --    1.59993   1.61371   1.62409   1.63461   1.65884
 Alpha virt. eigenvalues --    1.66110   1.67090   1.68350   1.69142   1.69788
 Alpha virt. eigenvalues --    1.70684   1.71809   1.72504   1.74007   1.75459
 Alpha virt. eigenvalues --    1.75713   1.75965   1.76449   1.77834   1.78811
 Alpha virt. eigenvalues --    1.79331   1.79734   1.80233   1.81216   1.81963
 Alpha virt. eigenvalues --    1.83332   1.83407   1.84481   1.85162   1.86222
 Alpha virt. eigenvalues --    1.86660   1.87218   1.87365   1.88123   1.88626
 Alpha virt. eigenvalues --    1.88965   1.89400   1.90226   1.90592   1.91560
 Alpha virt. eigenvalues --    1.92289   1.92897   1.93258   1.93416   1.94040
 Alpha virt. eigenvalues --    1.94916   1.95961   1.96752   1.97719   1.97795
 Alpha virt. eigenvalues --    1.98739   1.99229   1.99505   2.00360   2.01612
 Alpha virt. eigenvalues --    2.02395   2.02997   2.04026   2.04649   2.05499
 Alpha virt. eigenvalues --    2.06267   2.07086   2.07408   2.09116   2.09401
 Alpha virt. eigenvalues --    2.10700   2.11424   2.12485   2.12929   2.13474
 Alpha virt. eigenvalues --    2.14528   2.15848   2.17721   2.18974   2.19009
 Alpha virt. eigenvalues --    2.20427   2.20739   2.21593   2.22090   2.22642
 Alpha virt. eigenvalues --    2.23264   2.25088   2.26400   2.27599   2.27998
 Alpha virt. eigenvalues --    2.28031   2.28767   2.29809   2.30854   2.31007
 Alpha virt. eigenvalues --    2.31374   2.33322   2.33862   2.34866   2.35123
 Alpha virt. eigenvalues --    2.35499   2.36903   2.37281   2.38011   2.39349
 Alpha virt. eigenvalues --    2.40233   2.40890   2.42170   2.42529   2.43650
 Alpha virt. eigenvalues --    2.44367   2.45921   2.46302   2.47058   2.49957
 Alpha virt. eigenvalues --    2.50710   2.51448   2.52258   2.54625   2.55161
 Alpha virt. eigenvalues --    2.55525   2.57363   2.58277   2.59264   2.59940
 Alpha virt. eigenvalues --    2.61619   2.62586   2.62902   2.65538   2.66045
 Alpha virt. eigenvalues --    2.66771   2.68502   2.70513   2.71246   2.72410
 Alpha virt. eigenvalues --    2.73125   2.75767   2.76110   2.77070   2.78141
 Alpha virt. eigenvalues --    2.78411   2.79603   2.80200   2.82388   2.83030
 Alpha virt. eigenvalues --    2.88148   2.90696   2.91976   2.93663   2.95737
 Alpha virt. eigenvalues --    2.97368   2.99334   2.99927   3.00606   3.02935
 Alpha virt. eigenvalues --    3.04925   3.06711   3.11079   3.16980   3.19996
 Alpha virt. eigenvalues --    3.23068   3.27241   3.97524   4.11603   4.14116
 Alpha virt. eigenvalues --    4.14806   4.16076   4.16791   4.21203   4.21490
 Alpha virt. eigenvalues --    4.22471   4.25268   4.27480   4.27817   4.30039
 Alpha virt. eigenvalues --    4.32467   4.34032   4.39124   4.41605   4.44732
 Alpha virt. eigenvalues --    4.46636   4.51399   4.54918   4.56452   4.60751
 Alpha virt. eigenvalues --    4.65330   4.66831   4.70544   4.72191   4.78277
 Alpha virt. eigenvalues --    4.88629   4.92837   5.24156
          Condensed to atoms (all electrons):
 Mulliken atomic charges:
              1
     1  C   -0.200587
     2  C    0.198963
     3  C   -0.202351
     4  C    0.316319
     5  C   -0.035935
     6  C   -0.324257
     7  C    0.203657
     8  C    0.406181
     9  C   -0.093141
    10  C    0.412049
    11  C    0.427272
    12  O   -0.473201
    13  C   -0.149449
    14  C   -0.248726
    15  C   -0.456639
    16  O   -0.472719
    17  C   -0.149303
    18  C    0.304018
    19  O   -0.534826
    20  C   -0.305093
    21  O   -0.665473
    22  C   -0.332243
    23  C    0.107374
    24  O   -0.587876
    25  C    0.195158
    26  C   -0.515289
    27  C   -0.403574
    28  C   -0.460087
    29  C   -0.464384
    30  H    0.146780
    31  H    0.148151
    32  C   -0.518490
    33  H    0.126752
    34  H    0.165815
    35  H    0.178669
    36  H    0.143157
    37  H    0.154127
    38  H    0.125087
    39  H    0.146950
    40  H    0.164396
    41  H    0.162552
    42  H    0.149803
    43  H    0.162068
    44  H    0.426531
    45  H    0.151350
    46  H    0.193666
    47  H    0.130442
    48  H    0.157022
    49  H    0.152376
    50  H    0.160256
    51  H    0.148436
    52  H    0.135921
    53  H    0.183744
    54  H    0.149740
    55  H    0.141462
    56  H    0.150406
    57  H    0.160029
    58  H    0.157753
    59  H    0.157940
    60  H    0.155603
    61  H    0.155462
    62  C   -0.447518
    63  H    0.154434
    64  H    0.138810
    65  H    0.134479
 Sum of Mulliken atomic charges =   0.00000
 Mulliken charges with hydrogens summed into heavy atoms:
              1
     1  C   -0.073835
     2  C    0.198963
     3  C   -0.054200
     4  C    0.316319
     5  C   -0.035935
     6  C    0.020227
     7  C    0.203657
     8  C    0.406181
     9  C   -0.093141
    10  C    0.412049
    11  C    0.427272
    12  O   -0.473201
    13  C   -0.006292
    14  C    0.030488
    15  C    0.017259
    16  O   -0.472719
    17  C   -0.002524
    18  C    0.304018
    19  O   -0.534826
    20  C    0.006777
    21  O   -0.238942
    22  C    0.012773
    23  C    0.237816
    24  O   -0.587876
    25  C    0.195158
    26  C   -0.045635
    27  C   -0.119216
    28  C    0.014860
    29  C    0.003804
    32  C   -0.049485
    62  C   -0.019795
 Sum of Mulliken charges with hydrogens summed into heavy atoms =   0.00000
 Electronic spatial extent (au):  <R**2>=          11207.8002
 Charge=              0.0000 electrons
 Dipole moment (field-independent basis, Debye):
    X=              2.5752    Y=              4.6083    Z=              1.2643  Tot=              5.4283
 Quadrupole moment (field-independent basis, Debye-Ang):
   XX=           -175.6936   YY=           -180.9317   ZZ=           -189.1635
   XY=             -1.7084   XZ=             -9.4741   YZ=             -3.0340
 Traceless Quadrupole moment (field-independent basis, Debye-Ang):
   XX=              6.2360   YY=              0.9979   ZZ=             -7.2339
   XY=             -1.7084   XZ=             -9.4741   YZ=             -3.0340
 Octapole moment (field-independent basis, Debye-Ang**2):
  XXX=             20.3714  YYY=             36.7005  ZZZ=              5.2099  XYY=              2.8764
  XXY=            -19.1396  XXZ=             12.2896  XZZ=             19.1422  YZZ=             12.7238
  YYZ=             27.6428  XYZ=              0.0526
 Hexadecapole moment (field-independent basis, Debye-Ang**3):
 XXXX=          -7880.6707 YYYY=          -4569.0746 ZZZZ=          -2444.2886 XXXY=            -15.8704
 XXXZ=            -27.2602 YYYX=            -11.0816 YYYZ=              2.1705 ZZZX=            -55.5777
 ZZZY=             -0.3597 XXYY=          -2014.1258 XXZZ=          -1769.0266 YYZZ=          -1148.9417
 XXYZ=            -21.3547 YYXZ=              3.2281 ZZXY=            -27.4915
 N-N= 3.541666333100D+03 E-N=-1.030977351840D+04  KE= 1.374865212982D+03
 Calling FoFJK, ICntrl=      2127 FMM=T ISym2X=0 I1Cent= 0 IOpClX= 0 NMat=1 NMatS=1 NMatT=0.
 ***** Axes restored to original set *****
 -------------------------------------------------------------------
 Center     Atomic                   Forces (Hartrees/Bohr)
 Number     Number              X              Y              Z
 -------------------------------------------------------------------
      1        6           0.009266857    0.001176790    0.001964859
      2        6          -0.010036792   -0.005985640    0.004999291
      3        6          -0.007711218   -0.009667282   -0.004421316
      4        6           0.013072389   -0.005503794    0.007865645
      5        6          -0.007298128    0.001664889    0.003824704
      6        6          -0.005092816   -0.009048278   -0.005657823
      7        6           0.022081127    0.015527999    0.005046571
      8        6          -0.009096580   -0.000276336   -0.023380631
      9        6           0.006735883   -0.003234115    0.003833033
     10        6          -0.018125588    0.018994487    0.009383874
     11        6          -0.018224310   -0.007013571   -0.003832639
     12        8           0.008796605    0.012052038    0.002115990
     13        6          -0.006353729    0.000663393   -0.010415302
     14        6           0.001039389   -0.001191027   -0.003896587
     15        6          -0.002552612    0.002265792    0.011215286
     16        8           0.007089737   -0.011681082   -0.004626806
     17        6           0.001042352   -0.006286257   -0.012164452
     18        6           0.027737468    0.005900049   -0.018556890
     19        8          -0.004450735   -0.009310849    0.033482609
     20        6           0.008994847   -0.002180678   -0.007191993
     21        8          -0.003980884    0.005900070    0.007656803
     22        6          -0.008041450   -0.013919598    0.006699712
     23        6           0.011178665    0.008606666    0.015989771
     24        8          -0.011976227   -0.003422020   -0.014076784
     25        6           0.003694238    0.017735353    0.007223160
     26        6           0.000329962    0.000589264   -0.000531626
     27        6          -0.000388490   -0.009779038   -0.004028091
     28        6          -0.001609276    0.008183630    0.002235949
     29        6          -0.009614816   -0.000251699   -0.006098817
     30        1          -0.003615567    0.002815776    0.001136637
     31        1          -0.001238378    0.004792133    0.000293234
     32        6          -0.002545318   -0.000560496    0.000141727
     33        1           0.000941029   -0.001173769   -0.000202599
     34        1           0.000534080    0.004526781   -0.000199980
     35        1          -0.001949196    0.006112264    0.000395613
     36        1           0.001083599   -0.002399292    0.001033704
     37        1           0.000186383    0.000190093    0.003839020
     38        1          -0.000704539    0.001642562    0.002754146
     39        1           0.000821865    0.000173386   -0.001157607
     40        1          -0.000953881    0.000344132    0.001155072
     41        1           0.000429817   -0.000641757   -0.001049157
     42        1          -0.002265185   -0.001812030   -0.001224964
     43        1           0.000126962   -0.000479279    0.001903558
     44        1          -0.003533585    0.001438043   -0.002218614
     45        1          -0.000394199    0.000617292   -0.007134611
     46        1           0.001935123    0.006195576   -0.005997711
     47        1          -0.000318116   -0.000846378    0.003299507
     48        1          -0.001021202   -0.003640031    0.002433160
     49        1          -0.000505348   -0.003996458    0.001964762
     50        1          -0.000095714    0.000246300   -0.002177986
     51        1           0.001786980    0.000183473   -0.002076530
     52        1          -0.000898087   -0.000946612    0.000844391
     53        1           0.000913236   -0.004581629    0.003116151
     54        1           0.000202327   -0.003255406   -0.002301896
     55        1           0.000070341   -0.000750489   -0.000369964
     56        1           0.000101363    0.000628654    0.001397307
     57        1           0.002199434    0.001403524    0.001598048
     58        1           0.001771932   -0.002029839    0.002262541
     59        1          -0.000605781    0.000729738   -0.000328008
     60        1           0.004169363   -0.001573144   -0.000210617
     61        1           0.004141039   -0.001196796   -0.000001672
     62        6          -0.000067707   -0.000696966   -0.005281091
     63        1           0.000981768   -0.000297732   -0.000008184
     64        1           0.001334872   -0.001037008   -0.000384831
     65        1           0.000474420   -0.000633774   -0.001900055
 -------------------------------------------------------------------
 Cartesian Forces:  Max     0.033482609 RMS     0.006951021

 GradGradGradGradGradGradGradGradGradGradGradGradGradGradGradGradGradGrad
 Berny optimization.
 Internal  Forces:  Max     0.016761296 RMS     0.003575626
 Search for a local minimum.
 Step number   1 out of a maximum of  390
 All quantities printed in internal units (Hartrees-Bohrs-Radians)
 Mixed Optimization -- RFO/linear search
 Second derivative matrix not updated -- first step.
 ITU=  0
     Eigenvalues ---    0.00274   0.00288   0.00358   0.00392   0.00422
     Eigenvalues ---    0.00460   0.00528   0.00552   0.00588   0.00595
     Eigenvalues ---    0.00671   0.00681   0.00685   0.00750   0.00848
     Eigenvalues ---    0.01065   0.01131   0.01247   0.01260   0.01484
     Eigenvalues ---    0.01572   0.01697   0.01733   0.01806   0.02061
     Eigenvalues ---    0.02583   0.02836   0.02839   0.03153   0.03245
     Eigenvalues ---    0.03537   0.03685   0.03890   0.04095   0.04160
     Eigenvalues ---    0.04315   0.04393   0.04485   0.04703   0.04714
     Eigenvalues ---    0.04839   0.04983   0.05043   0.05098   0.05289
     Eigenvalues ---    0.05293   0.05336   0.05404   0.05499   0.05504
     Eigenvalues ---    0.05512   0.05526   0.05557   0.05575   0.05646
     Eigenvalues ---    0.05669   0.05697   0.05864   0.05951   0.06190
     Eigenvalues ---    0.06626   0.06919   0.07089   0.07097   0.07164
     Eigenvalues ---    0.07282   0.07328   0.07376   0.07479   0.07991
     Eigenvalues ---    0.08137   0.08347   0.08429   0.09007   0.09512
     Eigenvalues ---    0.09580   0.10313   0.11486   0.11741   0.12208
     Eigenvalues ---    0.12690   0.13325   0.14415   0.15316   0.15998
     Eigenvalues ---    0.16000   0.16000   0.16000   0.16000   0.16000
     Eigenvalues ---    0.16000   0.16000   0.16000   0.16000   0.16000
     Eigenvalues ---    0.16000   0.16000   0.16000   0.16000   0.16000
     Eigenvalues ---    0.16000   0.16000   0.16000   0.16000   0.16000
     Eigenvalues ---    0.16340   0.16351   0.16698   0.17697   0.18110
     Eigenvalues ---    0.19514   0.20722   0.21916   0.22091   0.22699
     Eigenvalues ---    0.23112   0.24635   0.24922   0.24962   0.24981
     Eigenvalues ---    0.24999   0.24999   0.25000   0.26071   0.26549
     Eigenvalues ---    0.26914   0.27380   0.27970   0.28284   0.28383
     Eigenvalues ---    0.28771   0.28863   0.29039   0.29343   0.29584
     Eigenvalues ---    0.29797   0.30065   0.30200   0.30271   0.31008
     Eigenvalues ---    0.31409   0.31714   0.32253   0.32761   0.33782
     Eigenvalues ---    0.33873   0.33966   0.33972   0.34015   0.34021
     Eigenvalues ---    0.34031   0.34036   0.34057   0.34066   0.34069
     Eigenvalues ---    0.34128   0.34154   0.34167   0.34173   0.34185
     Eigenvalues ---    0.34223   0.34239   0.34249   0.34258   0.34259
     Eigenvalues ---    0.34261   0.34268   0.34274   0.34278   0.34286
     Eigenvalues ---    0.34288   0.34295   0.34339   0.34352   0.34870
     Eigenvalues ---    0.35103   0.35275   0.35724   0.36392   0.36457
     Eigenvalues ---    0.38383   0.40895   0.44734   0.50189   0.53060
     Eigenvalues ---    0.53892   0.56420   0.90513   0.92016
 RFO step:  Lambda=-2.50847220D-02 EMin= 2.74316689D-03
 Linear search not attempted -- first point.
 Iteration  1 RMS(Cart)=  0.09163866 RMS(Int)=  0.00189923
 Iteration  2 RMS(Cart)=  0.00348157 RMS(Int)=  0.00025656
 Iteration  3 RMS(Cart)=  0.00000570 RMS(Int)=  0.00025654
 Iteration  4 RMS(Cart)=  0.00000000 RMS(Int)=  0.00025654
 Variable       Old X    -DE/DX   Delta X   Delta X   Delta X     New X
                                 (Linear)    (Quad)   (Total)
    R1        2.53620  -0.00344   0.00000  -0.00642  -0.00656   2.52964
    R2        2.83157   0.00718   0.00000   0.02096   0.02077   2.85234
    R3        2.05508   0.00053   0.00000   0.00142   0.00142   2.05650
    R4        2.85289   0.00439   0.00000   0.01133   0.01138   2.86427
    R5        2.83683   0.00497   0.00000   0.01429   0.01429   2.85112
    R6        2.94656   0.00673   0.00000   0.01609   0.01618   2.96274
    R7        2.90831   0.00958   0.00000   0.03114   0.03107   2.93938
    R8        2.07699  -0.00163   0.00000  -0.00449  -0.00449   2.07250
    R9        2.91239   0.00942   0.00000   0.02805   0.02790   2.94029
   R10        2.93361   0.00935   0.00000   0.03609   0.03603   2.96964
   R11        2.74634  -0.00600   0.00000  -0.01543  -0.01548   2.73086
   R12        2.91915   0.00382   0.00000   0.01415   0.01411   2.93326
   R13        2.90328   0.00671   0.00000   0.01513   0.01479   2.91807
   R14        2.89567   0.00460   0.00000   0.01318   0.01303   2.90870
   R15        2.07545  -0.00146   0.00000  -0.00401  -0.00401   2.07144
   R16        2.07234   0.00178   0.00000   0.00488   0.00488   2.07722
   R17        2.81325   0.01092   0.00000   0.02496   0.02469   2.83794
   R18        2.86174   0.01551   0.00000   0.05291   0.05244   2.91418
   R19        2.68693   0.00431   0.00000   0.01098   0.01085   2.69778
   R20        2.52816   0.01293   0.00000   0.02290   0.02305   2.55121
   R21        2.61818  -0.01676   0.00000  -0.03826  -0.03803   2.58016
   R22        2.80568   0.00460   0.00000   0.00919   0.00938   2.81506
   R23        2.79187   0.01469   0.00000   0.03931   0.03931   2.83118
   R24        2.32017  -0.01230   0.00000  -0.01301  -0.01301   2.30716
   R25        2.32698  -0.01456   0.00000  -0.01566  -0.01566   2.31132
   R26        2.88370  -0.00041   0.00000  -0.00126  -0.00126   2.88244
   R27        2.90289   0.00320   0.00000   0.01020   0.01020   2.91309
   R28        2.88802   0.00887   0.00000   0.02765   0.02765   2.91567
   R29        2.07114   0.00024   0.00000   0.00067   0.00067   2.07181
   R30        2.07269  -0.00050   0.00000  -0.00136  -0.00136   2.07133
   R31        2.07278   0.00101   0.00000   0.00277   0.00277   2.07554
   R32        2.87833   0.00792   0.00000   0.02430   0.02430   2.90263
   R33        2.06897   0.00048   0.00000   0.00132   0.00132   2.07029
   R34        2.07038   0.00071   0.00000   0.00193   0.00193   2.07232
   R35        2.07071  -0.00024   0.00000  -0.00065  -0.00065   2.07006
   R36        2.91484   0.00030   0.00000   0.01155   0.01171   2.92655
[...]
     54          1           0       -3.018181    1.997213    3.049386
     55          1           0       -1.655112    3.041667    3.498765
     56          1           0       -1.957438    4.422650    1.307469
     57          1           0       -3.378343    3.404524    1.008824
     58          1           0       -2.126020    3.556875   -0.234585
     59          1           0        3.522199    3.309703   -3.103461
     60          1           0        2.775541    4.236323   -1.789236
     61          1           0        4.164679    3.209717   -1.450911
     62          6           0       -5.238493   -0.096631   -1.433104
     63          1           0       -4.463185    0.148670   -2.166472
     64          1           0       -5.254502    0.700209   -0.678847
     65          1           0       -6.203387   -0.084481   -1.952857
 ---------------------------------------------------------------------
 Rotational constants (GHZ):      0.2029600      0.1325474      0.1122454

 **********************************************************************

            Population analysis using the SCF density.

 **********************************************************************

 Orbital symmetries:
       Occupied  (A) (A) (A) (A) (A) (A) (A) (A) (A) (A) (A) (A)
                 (A) (A) (A) (A) (A) (A) (A) (A) (A) (A) (A) (A)
                 (A) (A) (A) (A) (A) (A) (A) (A) (A) (A) (A) (A)
                 (A) (A) (A) (A) (A) (A) (A) (A) (A) (A) (A) (A)
                 (A) (A) (A) (A) (A) (A) (A) (A) (A) (A) (A) (A)
                 (A) (A) (A) (A) (A) (A) (A) (A) (A) (A) (A) (A)
                 (A) (A) (A) (A) (A) (A) (A) (A) (A) (A) (A) (A)
                 (A) (A) (A) (A) (A) (A) (A) (A) (A) (A) (A) (A)
                 (A) (A) (A) (A) (A) (A) (A) (A) (A) (A) (A) (A)
                 (A) (A) (A) (A) (A) (A) (A)
       Virtual   (A) (A) (A) (A) (A) (A) (A) (A) (A) (A) (A) (A)
                 (A) (A) (A) (A) (A) (A) (A) (A) (A) (A) (A) (A)
                 (A) (A) (A) (A) (A) (A) (A) (A) (A) (A) (A) (A)
                 (A) (A) (A) (A) (A) (A) (A) (A) (A) (A) (A) (A)
                 (A) (A) (A) (A) (A) (A) (A) (A) (A) (A) (A) (A)
                 (A) (A) (A) (A) (A) (A) (A) (A) (A) (A) (A) (A)
                 (A) (A) (A) (A) (A) (A) (A) (A) (A) (A) (A) (A)
                 (A) (A) (A) (A) (A) (A) (A) (A) (A) (A) (A) (A)
                 (A) (A) (A) (A) (A) (A) (A) (A) (A) (A) (A) (A)
                 (A) (A) (A) (A) (A) (A) (A) (A) (A) (A) (A) (A)
                 (A) (A) (A) (A) (A) (A) (A) (A) (A) (A) (A) (A)
                 (A) (A) (A) (A) (A) (A) (A) (A) (A) (A) (A) (A)
                 (A) (A) (A) (A) (A) (A) (A) (A) (A) (A) (A) (A)
                 (A) (A) (A) (A) (A) (A) (A) (A) (A) (A) (A) (A)
                 (A) (A) (A) (A) (A) (A) (A) (A) (A) (A) (A) (A)
                 (A) (A) (A) (A) (A) (A) (A) (A) (A) (A) (A) (A)
                 (A) (A) (A) (A) (A) (A) (A) (A) (A) (A) (A) (A)
                 (A) (A) (A) (A) (A) (A) (A) (A) (A) (A) (A) (A)
                 (A) (A) (A) (A) (A) (A) (A) (A) (A) (A) (A) (A)
                 (A) (A) (A) (A) (A) (A) (A) (A) (A) (A) (A) (A)
                 (A) (A) (A) (A) (A) (A) (A) (A) (A) (A) (A) (A)
                 (A) (A) (A) (A) (A) (A) (A) (A) (A) (A) (A) (A)
                 (A) (A) (A) (A) (A) (A) (A) (A) (A) (A) (A) (A)
                 (A) (A) (A) (A) (A) (A) (A) (A) (A) (A) (A) (A)
                 (A) (A) (A) (A) (A) (A) (A) (A) (A) (A) (A) (A)
                 (A) (A) (A) (A) (A) (A) (A) (A) (A) (A) (A) (A)
                 (A) (A) (A) (A) (A) (A) (A) (A) (A) (A) (A) (A)
                 (A) (A) (A) (A) (A) (A) (A) (A) (A) (A) (A) (A)
                 (A) (A) (A) (A) (A) (A) (A) (A) (A) (A) (A) (A)
                 (A) (A) (A) (A) (A) (A) (A) (A) (A) (A) (A) (A)
                 (A) (A) (A) (A) (A) (A) (A) (A) (A) (A) (A) (A)
                 (A) (A) (A) (A) (A) (A) (A) (A) (A) (A) (A) (A)
                 (A) (A) (A) (A) (A) (A) (A) (A) (A) (A) (A) (A)
                 (A) (A) (A) (A) (A) (A) (A) (A) (A) (A) (A) (A)
                 (A) (A) (A) (A) (A) (A) (A) (A) (A) (A)
 The electronic state is 1-A.
 Alpha  occ. eigenvalues --  -19.19869 -19.16867 -19.15384 -19.13004 -19.12409
 Alpha  occ. eigenvalues --  -10.26995 -10.26946 -10.26939 -10.26296 -10.26232
 Alpha  occ. eigenvalues --  -10.26021 -10.24736 -10.21271 -10.20629 -10.20473
 Alpha  occ. eigenvalues --  -10.20334 -10.19869 -10.19588 -10.19480 -10.19384
 Alpha  occ. eigenvalues --  -10.19099 -10.18924 -10.18716 -10.18531 -10.18527
 Alpha  occ. eigenvalues --  -10.18466 -10.18085 -10.17145 -10.16979 -10.16825
 Alpha  occ. eigenvalues --  -10.16158  -1.09184  -1.06224  -1.03319  -1.02335
 Alpha  occ. eigenvalues --   -1.02042  -0.87049  -0.83898  -0.82053  -0.81188
 Alpha  occ. eigenvalues --   -0.79896  -0.79359  -0.76825  -0.73885  -0.73098
 Alpha  occ. eigenvalues --   -0.72333  -0.71573  -0.70352  -0.68640  -0.68243
 Alpha  occ. eigenvalues --   -0.64833  -0.64020  -0.63213  -0.61900  -0.60769
 Alpha  occ. eigenvalues --   -0.59125  -0.58845  -0.56617  -0.54721  -0.53570
 Alpha  occ. eigenvalues --   -0.53027  -0.51732  -0.50895  -0.49792  -0.49076
 Alpha  occ. eigenvalues --   -0.48307  -0.47409  -0.47040  -0.46493  -0.46037
 Alpha  occ. eigenvalues --   -0.44909  -0.44376  -0.44196  -0.43194  -0.42819
 Alpha  occ. eigenvalues --   -0.42409  -0.42281  -0.41857  -0.41541  -0.41260
 Alpha  occ. eigenvalues --   -0.40991  -0.40808  -0.40513  -0.40071  -0.39881
 Alpha  occ. eigenvalues --   -0.39386  -0.39218  -0.38850  -0.38550  -0.38071
 Alpha  occ. eigenvalues --   -0.37649  -0.37525  -0.37287  -0.36276  -0.36067
 Alpha  occ. eigenvalues --   -0.35768  -0.35456  -0.35227  -0.34747  -0.34507
 Alpha  occ. eigenvalues --   -0.33966  -0.33572  -0.33026  -0.32703  -0.32077
 Alpha  occ. eigenvalues --   -0.31714  -0.31419  -0.30920  -0.27779  -0.27397
 Alpha  occ. eigenvalues --   -0.24761  -0.24341  -0.24292  -0.23466  -0.22605
 Alpha virt. eigenvalues --   -0.04360  -0.01665   0.01098   0.02012   0.05188
 Alpha virt. eigenvalues --    0.07096   0.08145   0.08602   0.09334   0.10170
 Alpha virt. eigenvalues --    0.10585   0.11004   0.11075   0.12015   0.12299
 Alpha virt. eigenvalues --    0.13025   0.13108   0.13471   0.13806   0.14292
 Alpha virt. eigenvalues --    0.14318   0.14689   0.15129   0.15346   0.15608
 Alpha virt. eigenvalues --    0.16015   0.16184   0.16488   0.17005   0.17486
 Alpha virt. eigenvalues --    0.17752   0.18359   0.18740   0.19083   0.19267
 Alpha virt. eigenvalues --    0.19447   0.19558   0.19662   0.20016   0.20345
 Alpha virt. eigenvalues --    0.20576   0.21026   0.21507   0.21704   0.21868
 Alpha virt. eigenvalues --    0.22695   0.23638   0.23764   0.24603   0.24715
 Alpha virt. eigenvalues --    0.24834   0.24842   0.25676   0.25981   0.26366
 Alpha virt. eigenvalues --    0.26829   0.27573   0.27639   0.28076   0.29891
 Alpha virt. eigenvalues --    0.30937   0.31379   0.32306   0.33663   0.33893
 Alpha virt. eigenvalues --    0.34729   0.36205   0.37608   0.38036   0.39320
 Alpha virt. eigenvalues --    0.41400   0.43670   0.45282   0.47298   0.48043
 Alpha virt. eigenvalues --    0.49458   0.50039   0.50266   0.50416   0.51113
 Alpha virt. eigenvalues --    0.51321   0.52016   0.52809   0.53030   0.53214
 Alpha virt. eigenvalues --    0.53447   0.54169   0.54541   0.55102   0.56201
 Alpha virt. eigenvalues --    0.56841   0.57271   0.57624   0.58599   0.59079
 Alpha virt. eigenvalues --    0.59251   0.60122   0.60594   0.60760   0.61681
 Alpha virt. eigenvalues --    0.62775   0.63037   0.63339   0.64175   0.64382
 Alpha virt. eigenvalues --    0.65018   0.65642   0.66846   0.67032   0.67648
 Alpha virt. eigenvalues --    0.67883   0.68123   0.68344   0.69286   0.70277
 Alpha virt. eigenvalues --    0.70574   0.70781   0.71545   0.72750   0.73227
 Alpha virt. eigenvalues --    0.73648   0.74111   0.74910   0.75362   0.76314
 Alpha virt. eigenvalues --    0.76496   0.76770   0.77019   0.77851   0.78340
 Alpha virt. eigenvalues --    0.79430   0.80046   0.80547   0.81744   0.82148
 Alpha virt. eigenvalues --    0.82875   0.83103   0.84044   0.84203   0.84752
 Alpha virt. eigenvalues --    0.85480   0.85630   0.85929   0.86578   0.86717
 Alpha virt. eigenvalues --    0.87271   0.87962   0.88398   0.88661   0.88993
 Alpha virt. eigenvalues --    0.89093   0.89260   0.89955   0.90690   0.90782
 Alpha virt. eigenvalues --    0.91033   0.91075   0.91633   0.91809   0.91999
 Alpha virt. eigenvalues --    0.92401   0.92598   0.93092   0.93884   0.94234
 Alpha virt. eigenvalues --    0.94604   0.94936   0.95885   0.96285   0.96542
 Alpha virt. eigenvalues --    0.96722   0.97109   0.97251   0.97827   0.98978
 Alpha virt. eigenvalues --    0.99561   1.00685   1.01004   1.01648   1.03477
 Alpha virt. eigenvalues --    1.03789   1.04520   1.06854   1.07832   1.08648
 Alpha virt. eigenvalues --    1.09937   1.10161   1.11252   1.11665   1.13321
 Alpha virt. eigenvalues --    1.14172   1.14625   1.14888   1.16339   1.16768
 Alpha virt. eigenvalues --    1.17682   1.18277   1.20001   1.20208   1.20992
 Alpha virt. eigenvalues --    1.22232   1.23523   1.23929   1.26965   1.28571
 Alpha virt. eigenvalues --    1.28894   1.29533   1.30206   1.30935   1.33290
 Alpha virt. eigenvalues --    1.36785   1.37143   1.37500   1.39158   1.39660
 Alpha virt. eigenvalues --    1.40741   1.42859   1.45154   1.45214   1.47446
 Alpha virt. eigenvalues --    1.47836   1.49127   1.50200   1.51542   1.52966
 Alpha virt. eigenvalues --    1.54183   1.55547   1.55866   1.57367   1.58396
 Alpha virt. eigenvalues --    1.59772   1.61167   1.62202   1.62716   1.63583
 Alpha virt. eigenvalues --    1.65434   1.66268   1.67951   1.68935   1.69557
 Alpha virt. eigenvalues --    1.70154   1.71207   1.72158   1.72933   1.74859
 Alpha virt. eigenvalues --    1.75110   1.75562   1.76033   1.76855   1.78171
 Alpha virt. eigenvalues --    1.78580   1.79418   1.79629   1.79725   1.81373
 Alpha virt. eigenvalues --    1.82239   1.82405   1.83623   1.84677   1.84926
 Alpha virt. eigenvalues --    1.85730   1.86282   1.86982   1.87272   1.87988
 Alpha virt. eigenvalues --    1.89143   1.89311   1.89828   1.90047   1.91453
 Alpha virt. eigenvalues --    1.91990   1.92309   1.93132   1.93710   1.94152
 Alpha virt. eigenvalues --    1.94575   1.95094   1.95980   1.96948   1.97844
 Alpha virt. eigenvalues --    1.98079   1.98376   1.98822   1.99473   2.00764
 Alpha virt. eigenvalues --    2.01577   2.02331   2.02493   2.04083   2.04417
 Alpha virt. eigenvalues --    2.05679   2.06608   2.07472   2.07909   2.08565
 Alpha virt. eigenvalues --    2.10507   2.10752   2.11026   2.12376   2.12503
 Alpha virt. eigenvalues --    2.12927   2.14695   2.16952   2.17699   2.18025
 Alpha virt. eigenvalues --    2.19576   2.19708   2.21445   2.21719   2.22139
 Alpha virt. eigenvalues --    2.23163   2.24128   2.25534   2.26281   2.26989
 Alpha virt. eigenvalues --    2.28085   2.28573   2.28978   2.30338   2.30567
 Alpha virt. eigenvalues --    2.31838   2.32305   2.33318   2.34381   2.34586
 Alpha virt. eigenvalues --    2.35223   2.36289   2.37415   2.38290   2.39738
 Alpha virt. eigenvalues --    2.39950   2.40146   2.41061   2.42109   2.42827
 Alpha virt. eigenvalues --    2.43791   2.44666   2.46715   2.47207   2.47915
 Alpha virt. eigenvalues --    2.50760   2.50859   2.51708   2.52904   2.54674
 Alpha virt. eigenvalues --    2.55251   2.56742   2.57505   2.57887   2.59468
 Alpha virt. eigenvalues --    2.61168   2.62168   2.63158   2.64397   2.65465
 Alpha virt. eigenvalues --    2.66281   2.67938   2.68268   2.69691   2.70993
 Alpha virt. eigenvalues --    2.72181   2.74051   2.74786   2.76984   2.77203
 Alpha virt. eigenvalues --    2.77941   2.78173   2.80022   2.81161   2.82798
 Alpha virt. eigenvalues --    2.87257   2.88308   2.91270   2.95351   2.95764
 Alpha virt. eigenvalues --    2.98149   2.98747   2.99836   3.01019   3.01825
 Alpha virt. eigenvalues --    3.04524   3.06326   3.10336   3.14237   3.18077
 Alpha virt. eigenvalues --    3.24823   3.25995   3.98604   4.09405   4.11933
 Alpha virt. eigenvalues --    4.13238   4.14877   4.15894   4.19574   4.20439
 Alpha virt. eigenvalues --    4.22308   4.24571   4.27036   4.28192   4.29952
 Alpha virt. eigenvalues --    4.31378   4.32373   4.37342   4.40407   4.44130
 Alpha virt. eigenvalues --    4.47808   4.50162   4.54195   4.56364   4.60035
 Alpha virt. eigenvalues --    4.66026   4.67884   4.70180   4.71551   4.76792
 Alpha virt. eigenvalues --    4.87551   4.93200   5.22103
          Condensed to atoms (all electrons):
 Mulliken atomic charges:
              1
     1  C   -0.197924
     2  C    0.203775
     3  C   -0.203425
     4  C    0.325315
     5  C   -0.046033
     6  C   -0.324199
     7  C    0.194922
     8  C    0.398305
     9  C   -0.097928
    10  C    0.416805
    11  C    0.429728
    12  O   -0.465287
    13  C   -0.165685
    14  C   -0.243229
    15  C   -0.455831
    16  O   -0.466358
    17  C   -0.155592
    18  C    0.299327
    19  O   -0.533489
    20  C   -0.306712
    21  O   -0.663520
    22  C   -0.337341
    23  C    0.106329
    24  O   -0.590791
    25  C    0.200982
    26  C   -0.518150
    27  C   -0.408019
    28  C   -0.466473
    29  C   -0.460848
    30  H    0.147111
    31  H    0.146533
    32  C   -0.520883
    33  H    0.126034
    34  H    0.169126
    35  H    0.169270
    36  H    0.147408
    37  H    0.154511
    38  H    0.122536
    39  H    0.145984
    40  H    0.160022
    41  H    0.162812
    42  H    0.151553
    43  H    0.160697
    44  H    0.430425
    45  H    0.149612
    46  H    0.197450
    47  H    0.130129
    48  H    0.161378
    49  H    0.153902
    50  H    0.161011
    51  H    0.148476
    52  H    0.136924
    53  H    0.193396
    54  H    0.156171
    55  H    0.145592
    56  H    0.151977
    57  H    0.163613
    58  H    0.161967
    59  H    0.158056
    60  H    0.154324
    61  H    0.156517
    62  C   -0.452580
    63  H    0.157073
    64  H    0.134348
    65  H    0.138871
 Sum of Mulliken atomic charges =   0.00000
 Mulliken charges with hydrogens summed into heavy atoms:
              1
     1  C   -0.071890
     2  C    0.203775
     3  C   -0.056892
     4  C    0.325315
     5  C   -0.046033
     6  C    0.014197
     7  C    0.194922
     8  C    0.398305
     9  C   -0.097928
    10  C    0.416805
    11  C    0.429728
    12  O   -0.465287
    13  C   -0.018278
    14  C    0.033818
    15  C    0.012987
    16  O   -0.466358
    17  C   -0.008481
    18  C    0.299327
    19  O   -0.533489
    20  C    0.005537
    21  O   -0.233095
    22  C    0.009721
    23  C    0.236458
    24  O   -0.590791
    25  C    0.200982
    26  C   -0.041859
    27  C   -0.122618
    28  C    0.028686
    29  C    0.016710
    32  C   -0.051985
    62  C   -0.022288
 Sum of Mulliken charges with hydrogens summed into heavy atoms =   0.00000
 Electronic spatial extent (au):  <R**2>=          11407.9070
 Charge=              0.0000 electrons
 Dipole moment (field-independent basis, Debye):
    X=              2.5935    Y=              5.4964    Z=              1.7037  Tot=              6.3118
 Quadrupole moment (field-independent basis, Debye-Ang):
   XX=           -175.2204   YY=           -181.7591   ZZ=           -188.0803
   XY=             -5.3724   XZ=             -9.9735   YZ=             -4.3508
 Traceless Quadrupole moment (field-independent basis, Debye-Ang):
   XX=              6.4662   YY=             -0.0725   ZZ=             -6.3937
   XY=             -5.3724   XZ=             -9.9735   YZ=             -4.3508
 Octapole moment (field-independent basis, Debye-Ang**2):
  XXX=             23.8910  YYY=             44.4504  ZZZ=              4.4860  XYY=             10.7700
  XXY=            -14.3731  XXZ=             13.4308  XZZ=             15.2625  YZZ=             16.1856
  YYZ=             36.5428  XYZ=             -0.3932
 Hexadecapole moment (field-independent basis, Debye-Ang**3):
 XXXX=          -8027.3637 YYYY=          -4497.8719 ZZZZ=          -2597.7763 XXXY=            -44.9241
 XXXZ=            -43.1706 YYYX=            -39.3503 YYYZ=             -1.4680 ZZZX=            -55.2807
 ZZZY=              6.9676 XXYY=          -2035.1546 XXZZ=          -1818.7317 YYZZ=          -1176.4253
 XXYZ=            -24.3200 YYXZ=            -13.9347 ZZXY=            -36.4581
 N-N= 3.517637476438D+03 E-N=-1.026153800207D+04  KE= 1.374453674615D+03
 1\1\GINC-B0600\FOpt\RB3LYP\6-31G(d)\C26H34O5\CAOFEI\24-Mar-2021\0\\# o
 pt rb3lyp/6-31g(d) geom=connectivity\\Title Card Required\\0,1\C,0.047
 2384349,-0.0245584909,-0.0392338952\C,1.3853804066,-0.0276497766,-0.00
 4502946\C,2.1359477277,1.2850792533,-0.0220996327\C,1.4182004159,2.498
 0361427,0.6588596729\C,-0.1155480266,2.3422330304,0.8777010743\C,-0.75
 46742773,1.250280418,-0.0330358977\C,1.8431585528,3.7324025277,-0.2225
 264024\C,0.7274411382,4.2378260595,-1.1162969454\C,-0.5655145487,4.315
 6336411,-0.7219590021\C,-0.9016238038,3.649012422,0.5668954003\C,-1.69
 38173419,4.8641792626,-1.5459175882\O,-2.755382171,4.2628346227,-1.590
 0336255\C,-1.5044625722,6.2144060208,-2.2401077719\C,-2.3874698318,6.3
 484764045,-3.4903833962\C,-1.8233012072,7.3087755431,-1.1954132259\O,-
 1.8230557036,4.0128292801,1.2744925012\C,2.8621330331,3.2465132732,-1.
 276275907\C,2.6350414666,4.2115903414,-2.4630268715\O,1.2001768791,4.5
 778672056,-2.3268704561\C,2.4746941874,1.7696270268,-1.4576123128\O,2.
 295126614,4.8170998395,0.5653254268\C,-0.2418250678,1.9413164662,2.362
 2388785\C,1.0874517734,2.356945174,3.0338266623\O,1.9736576101,2.73312
 95099,1.9595851098\C,0.93060487,3.4551907792,4.0711493338\C,0.56716016
 46,2.9486879763,5.4455049337\C,1.0499766055,4.7562054431,3.7975597305\
 C,3.452001369,5.4987373205,-2.3258599823\C,2.784176207,3.6065468828,-3
 .8553166424\H,3.8826653666,3.3346144049,-0.8911639493\H,3.0832896345,1
 .174215378,0.5221203447\C,2.2070100243,-1.2899006735,-0.0079835865\H,-
 0.4976162484,-0.9667913099,-0.0727680626\H,-1.7730117463,1.0665913283,
 0.3268718509\H,-0.8727009935,1.6392996218,-1.0538645573\H,-0.451083549
 2,6.3139591818,-2.5252858962\H,-3.4307769691,6.1760305467,-3.202437140
 7\H,-2.3212218805,7.3855901654,-3.8459908089\H,-1.6450319822,8.3016679
 434,-1.6235222494\H,-1.200557719,7.2063723837,-0.3002071414\H,-2.87248
 08744,7.249855978,-0.8855209773\H,3.2654863315,1.1711501741,-1.9204843
 458\H,1.5848519571,1.6735477246,-2.0909559413\H,2.5279941523,4.4102941
 871,1.4258735251\H,-0.3861455673,0.8614308878,2.4485175066\H,-1.105901
 0013,2.4468685987,2.7995463893\H,1.5440627607,1.4874795128,3.527219656
 7\H,-0.3567904106,2.3541259686,5.4201385681\H,1.3513483867,2.293326557
 6,5.8494764429\H,0.4143592825,3.7735273189,6.1470900402\H,1.271044131,
 5.1287602173,2.8042709028\H,0.8975621951,5.5040963181,4.5711135776\H,3
 .3372487709,5.9277115812,-1.3277083324\H,3.1251407857,6.231240365,-3.0
 71129569\H,4.5143872498,5.2886544082,-2.4946689677\H,3.819789784,3.286
 900488,-4.0148035754\H,2.5362428817,4.3513886381,-4.6182203939\H,2.128
 501247,2.7436463315,-3.9965260376\H,1.5742197826,-2.1823797426,-0.0441
 907577\H,2.8879561272,-1.3246215215,-0.8698166459\H,2.8380848394,-1.35
 48304033,0.8893556695\C,-2.0022561285,5.3921810077,-4.6243397143\H,-2.
 1295624564,4.3486527878,-4.3178354927\H,-0.9560581482,5.5309278159,-4.
 924894697\H,-2.6288429199,5.5577622308,-5.5082418569\\Version=EM64L-G0
 9RevB.01\State=1-A\HF=-1387.3188237\RMSD=4.066e-09\RMSF=1.627e-06\Dipo
 le=2.184694,-1.1456075,-0.2850449\Quadrupole=-9.3198819,4.7648765,4.55
 50054,0.0050628,-4.7976357,-4.010255\PG=C01 [X(C26H34O5)]\\@


 A people that values its privileges above its principles soon loses both.
 -- Dwight D. Eisenhower
 Job cpu time:  0 days  6 hours 57 minutes 19.9 seconds.
 File lengths (MBytes):  RWF=    186 Int=      0 D2E=      0 Chk=     20 Scr=      1
 Normal termination of Gaussian 09 at Wed Mar 24 16:33:45 2021.
