 Entering Gaussian System, Link 0=g09
 Initial command:
 /public/software/g09/g09/l1.exe /tmp/Gau-11943.inp -scrdir=/tmp/
 Entering Link 1 = /public/software/g09/g09/l1.exe PID=     11944.
  
 Copyright (c) 1988,1990,1992,1993,1995,1998,2003,2009,2010,
            Gaussian, Inc.  All Rights Reserved.
  
 This is part of the Gaussian(R) 09 program.  It is based on
 the Gaussian(R) 03 system (copyright 2003, Gaussian, Inc.),
 the Gaussian(R) 98 system (copyright 1998, Gaussian, Inc.),
 the Gaussian(R) 94 system (copyright 1995, Gaussian, Inc.),
 the Gaussian 92(TM) system (copyright 1992, Gaussian, Inc.),
 the Gaussian 90(TM) system (copyright 1990, Gaussian, Inc.),
 the Gaussian 88(TM) system (copyright 1988, Gaussian, Inc.),
 the Gaussian 86(TM) system (copyright 1986, Carnegie Mellon
 University), and the Gaussian 82(TM) system (copyright 1983,
 Carnegie Mellon University). Gaussian is a federally registered
 trademark of Gaussian, Inc.
  
 This software contains proprietary and confidential information,
 including trade secrets, belonging to Gaussian, Inc.
  
 This software is provided under written license and may be
 used, copied, transmitted, or stored only in accord with that
 written license.
  
 The following legend is applicable only to US Government
 contracts under FAR:
  
                    RESTRICTED RIGHTS LEGEND
  
 Use, reproduction and disclosure by the US Government is
 subject to restrictions as set forth in subparagraphs (a)
 and (c) of the Commercial Computer Software - Restricted
 Rights clause in FAR 52.227-19.
  
 Gaussian, Inc.
 340 Quinnipiac St., Bldg. 40, Wallingford CT 06492
  
  
 ---------------------------------------------------------------
 Warning -- This program may not be used in any manner that
 competes with the business of Gaussian, Inc. or will provide
 assistance to any competitor of Gaussian, Inc.  The licensee
 of this program is prohibited from giving any competitor of
 Gaussian, Inc. access to this program.  By using this program,
 the user acknowledges that Gaussian, Inc. is engaged in the
 business of creating and licensing software in the field of
 computational chemistry and represents and warrants to the
 licensee that it is not a competitor of Gaussian, Inc. and that
 it will not use this program in any manner prohibited above.
 ---------------------------------------------------------------
  

 Cite this work as:
 Gaussian 09, Revision B.01,
 M. J. Frisch, G. W. Trucks, H. B. Schlegel, G. E. Scuseria, 
 M. A. Robb, J. R. Cheeseman, G. Scalmani, V. Barone, B. Mennucci, 
 G. A. Petersson, H. Nakatsuji, M. Caricato, X. Li, H. P. Hratchian, 
 A. F. Izmaylov, J. Bloino, G. Zheng, J. L. Sonnenberg, M. Hada, 
 M. Ehara, K. Toyota, R. Fukuda, J. Hasegawa, M. Ishida, T. Nakajima, 
 Y. Honda, O. Kitao, H. Nakai, T. Vreven, J. A. Montgomery, Jr., 
 J. E. Peralta, F. Ogliaro, M. Bearpark, J. J. Heyd, E. Brothers, 
 K. N. Kudin, V. N. Staroverov, T. Keith, R. Kobayashi, J. Normand, 
 K. Raghavachari, A. Rendell, J. C. Burant, S. S. Iyengar, J. Tomasi, 
 M. Cossi, N. Rega, J. M. Millam, M. Klene, J. E. Knox, J. B. Cross, 
 V. Bakken, C. Adamo, J. Jaramillo, R. Gomperts, R. E. Stratmann, 
 O. Yazyev, A. J. Austin, R. Cammi, C. Pomelli, J. W. Ochterski, 
 R. L. Martin, K. Morokuma, V. G. Zakrzewski, G. A. Voth, 
 P. Salvador, J. J. Dannenberg, S. Dapprich, A. D. Daniels, 
 O. Farkas, J. B. Foresman, J. V. Ortiz, J. Cioslowski, 
 and D. J. Fox, Gaussian, Inc., Wallingford CT, 2010.
 
 ******************************************
 Gaussian 09:  EM64L-G09RevB.01 12-Aug-2010
                24-Mar-2021 
 ******************************************
 %mem=600MW
 %nprocshared=10
 Will use up to   10 processors via shared memory.
 ---------------------------------------
 # opt rb3lyp/6-31g(d) geom=connectivity
 ---------------------------------------
 1/14=-1,18=20,19=15,26=3,38=1,57=2/1,3;
 2/9=110,12=2,17=6,18=5,40=1/2;
 3/5=1,6=6,7=1,11=2,16=1,25=1,30=1,71=1,74=-5,116=1/1,2,3;
 4//1;
 5/5=2,38=5/2;
 6/7=2,8=2,9=2,10=2,28=1/1;
 7//1,2,3,16;
 1/14=-1,18=20,19=15/3(2);
 2/9=110/2;
 99//99;
 2/9=110/2;
 3/5=1,6=6,7=1,11=2,16=1,25=1,30=1,71=1,74=-5,116=1/1,2,3;
 4/5=5,16=3/1;
 5/5=2,38=5/2;
 7//1,2,3,16;
 1/14=-1,18=20,19=15/3(-5);
 2/9=110/2;
 6/7=2,8=2,9=2,10=2,19=2,28=1/1;
 99/9=1/99;
 -------------------
 Title Card Required
 -------------------
 Symbolic Z-matrix:
 Charge =  0 Multiplicity = 1
 C                     0.        0.        0. 
 C                     1.3419    0.        0. 
 C                     2.1148    1.2963    0. 
 C                     1.4011    2.5273    0.6389 
 C                    -0.1134    2.3794    0.8769 
 C                    -0.7927    1.2698    0.0436 
 C                     1.8022    3.7081   -0.2888 
 C                     0.7176    4.2275   -1.1678 
 C                    -0.5588    4.2942   -0.7741 
 C                    -0.8597    3.6791    0.5421 
 C                    -1.6366    4.7681   -1.6665 
 O                    -2.5629    4.0038   -1.9388 
 C                    -1.5765    6.2098   -2.1629 
 C                    -2.0937    6.3319   -3.6041 
 C                    -2.4143    7.0704   -1.2177 
 O                    -1.7289    4.1606    1.2634 
 C                     2.797     3.203    -1.3133 
 C                     2.5292    4.1041   -2.5358 
 O                     1.1387    4.5059   -2.4584 
 C                     2.4232    1.7273   -1.4436 
 O                     2.3484    4.8034    0.4293 
 C                    -0.196     2.0377    2.3635 
 C                     1.042     2.6525    2.9956 
 O                     2.0151    2.7756    1.9404 
 C                     0.8721    3.9713    3.7322 
 C                    -0.3903    4.1591    4.5343 
 C                     1.8229    4.9217    3.7865 
 C                     3.3824    5.3826   -2.5103 
 C                     2.7465    3.4009   -3.8784 
 H                     3.8364    3.2907   -0.9723 
 H                     3.0622    1.1356    0.5338 
 C                     2.1409   -1.2699   -0.0557 
 H                    -0.5557   -0.9336   -0.0501 
 H                    -1.7802    1.0531    0.4729 
 H                    -0.9805    1.5824   -0.9908 
 H                    -0.5423    6.5708   -2.1291 
 H                    -3.102     5.909    -3.69 
 H                    -2.171     7.3923   -3.8742 
 H                    -2.3783    8.124    -1.5136 
 H                    -2.0438    6.9969   -0.1894 
 H                    -3.4629    6.7524   -1.213 
 H                     3.2441    1.1451   -1.8765 
 H                     1.5443    1.5864   -2.0849 
 H                     2.6483    4.4242    1.2795 
 H                    -0.127     0.9516    2.51 
 H                    -1.1392    2.3268    2.834 
 H                     1.4495    1.9424    3.7266 
 H                    -1.2482    4.334     3.8799 
 H                    -0.5861    3.274     5.1487 
 H                    -0.3226    5.0145    5.2157 
 H                     2.7879    4.8058    3.3079 
 H                     1.6758    5.839     4.3494 
 H                     3.189     5.9898   -1.6211 
 H                     3.1407    6.0249   -3.3654 
 H                     4.4514    5.1489   -2.5455 
 H                     3.7629    3.0034   -3.9624 
 H                     2.5777    4.0945   -4.7107 
 H                     2.0324    2.5853   -4.0307 
 H                     1.5002   -2.1577   -0.0792 
 H                     2.7688   -1.2881   -0.952 
 H                     2.7871   -1.349     0.8244 
 C                    -1.1825    5.6485   -4.6153 
 H                    -1.118     4.5713   -4.4341 
 H                    -0.1716    6.0668   -4.5773 
 H                    -1.5697    5.7945   -5.6287 
 

 GradGradGradGradGradGradGradGradGradGradGradGradGradGradGradGradGradGrad
 Berny optimization.
 Initialization pass.
                           ----------------------------
                           !    Initial Parameters    !
                           ! (Angstroms and Degrees)  !
 --------------------------                            --------------------------
 ! Name  Definition              Value          Derivative Info.                !
 --------------------------------------------------------------------------------
 ! R1    R(1,2)                  1.3419         estimate D2E/DX2                !
 ! R2    R(1,6)                  1.4976         estimate D2E/DX2                !
 ! R3    R(1,33)                 1.0876         estimate D2E/DX2                !
 ! R4    R(2,3)                  1.5092         estimate D2E/DX2                !
 ! R5    R(2,32)                 1.5014         estimate D2E/DX2                !
 ! R6    R(3,4)                  1.5598         estimate D2E/DX2                !
 ! R7    R(3,20)                 1.5378         estimate D2E/DX2                !
 ! R8    R(3,31)                 1.0992         estimate D2E/DX2                !
 ! R9    R(4,5)                  1.5402         estimate D2E/DX2                !
 ! R10   R(4,7)                  1.5543         estimate D2E/DX2                !
 ! R11   R(4,24)                 1.4603         estimate D2E/DX2                !
 ! R12   R(5,6)                  1.545          estimate D2E/DX2                !
 ! R13   R(5,10)                 1.5357         estimate D2E/DX2                !
 ! R14   R(5,22)                 1.5276         estimate D2E/DX2                !
 ! R15   R(6,34)                 1.0984         estimate D2E/DX2                !
 ! R16   R(6,35)                 1.0968         estimate D2E/DX2                !
 ! R17   R(7,8)                  1.4896         estimate D2E/DX2                !
 ! R18   R(7,17)                 1.5147         estimate D2E/DX2                !
 ! R19   R(7,21)                 1.419          estimate D2E/DX2                !
 ! R20   R(8,9)                  1.3374         estimate D2E/DX2                !
 ! R21   R(8,19)                 1.3858         estimate D2E/DX2                !
 ! R22   R(9,10)                 1.4837         estimate D2E/DX2                !
 ! R23   R(9,11)                 1.4774         estimate D2E/DX2                !
 ! R24   R(10,16)                1.2279         estimate D2E/DX2                !
 ! R25   R(11,12)                1.2314         estimate D2E/DX2                !
 ! R26   R(11,13)                1.526          estimate D2E/DX2                !
 ! R27   R(13,14)                1.5361         estimate D2E/DX2                !
 ! R28   R(13,15)                1.5284         estimate D2E/DX2                !
 ! R29   R(13,36)                1.0959         estimate D2E/DX2                !
 ! R30   R(14,37)                1.0968         estimate D2E/DX2                !
 ! R31   R(14,38)                1.097          estimate D2E/DX2                !
 ! R32   R(14,62)                1.5231         estimate D2E/DX2                !
 ! R33   R(15,39)                1.095          estimate D2E/DX2                !
 ! R34   R(15,40)                1.0955         estimate D2E/DX2                !
 ! R35   R(15,41)                1.0958         estimate D2E/DX2                !
 ! R36   R(17,18)                1.5421         estimate D2E/DX2                !
 ! R37   R(17,20)                1.5279         estimate D2E/DX2                !
 ! R38   R(17,30)                1.0974         estimate D2E/DX2                !
 ! R39   R(18,19)                1.4495         estimate D2E/DX2                !
 ! R40   R(18,28)                1.5373         estimate D2E/DX2                !
 ! R41   R(18,29)                1.5311         estimate D2E/DX2                !
 ! R42   R(20,42)                1.0956         estimate D2E/DX2                !
 ! R43   R(20,43)                1.0971         estimate D2E/DX2                !
 ! R44   R(21,44)                0.978          estimate D2E/DX2                !
 ! R45   R(22,23)                1.5199         estimate D2E/DX2                !
 ! R46   R(22,45)                1.0981         estimate D2E/DX2                !
 ! R47   R(22,46)                1.093          estimate D2E/DX2                !
 ! R48   R(23,24)                1.4407         estimate D2E/DX2                !
 ! R49   R(23,25)                1.5201         estimate D2E/DX2                !
 ! R50   R(23,47)                1.0976         estimate D2E/DX2                !
 ! R51   R(24,44)                1.8856         estimate D2E/DX2                !
 ! R52   R(25,26)                1.5074         estimate D2E/DX2                !
 ! R53   R(25,27)                1.3454         estimate D2E/DX2                !
 ! R54   R(26,48)                1.0931         estimate D2E/DX2                !
 ! R55   R(26,49)                1.0951         estimate D2E/DX2                !
 ! R56   R(26,50)                1.0957         estimate D2E/DX2                !
 ! R57   R(27,51)                1.0834         estimate D2E/DX2                !
 ! R58   R(27,52)                1.0862         estimate D2E/DX2                !
 ! R59   R(28,53)                1.094          estimate D2E/DX2                !
 ! R60   R(28,54)                1.0964         estimate D2E/DX2                !
 ! R61   R(28,55)                1.0948         estimate D2E/DX2                !
 ! R62   R(29,56)                1.0946         estimate D2E/DX2                !
 ! R63   R(29,57)                1.0965         estimate D2E/DX2                !
 ! R64   R(29,58)                1.0947         estimate D2E/DX2                !
 ! R65   R(32,59)                1.0951         estimate D2E/DX2                !
 ! R66   R(32,60)                1.0945         estimate D2E/DX2                !
 ! R67   R(32,61)                1.0947         estimate D2E/DX2                !
 ! R68   R(62,63)                1.0942         estimate D2E/DX2                !
 ! R69   R(62,64)                1.0947         estimate D2E/DX2                !
 ! R70   R(62,65)                1.0946         estimate D2E/DX2                !
 ! A1    A(2,1,6)              121.9602         estimate D2E/DX2                !
 ! A2    A(2,1,33)             120.7259         estimate D2E/DX2                !
 ! A3    A(6,1,33)             117.3052         estimate D2E/DX2                !
 ! A4    A(1,2,3)              120.8049         estimate D2E/DX2                !
 ! A5    A(1,2,32)             122.1526         estimate D2E/DX2                !
 ! A6    A(3,2,32)             116.9976         estimate D2E/DX2                !
 ! A7    A(2,3,4)              116.3301         estimate D2E/DX2                !
 ! A8    A(2,3,20)             110.086          estimate D2E/DX2                !
 ! A9    A(2,3,31)             108.4097         estimate D2E/DX2                !
 ! A10   A(4,3,20)             104.7787         estimate D2E/DX2                !
 ! A11   A(4,3,31)             108.109          estimate D2E/DX2                !
 ! A12   A(20,3,31)            108.9043         estimate D2E/DX2                !
 ! A13   A(3,4,5)              115.9405         estimate D2E/DX2                !
 ! A14   A(3,4,7)              103.7101         estimate D2E/DX2                !
 ! A15   A(3,4,24)             107.8704         estimate D2E/DX2                !
 ! A16   A(5,4,7)              114.7675         estimate D2E/DX2                !
 ! A17   A(5,4,24)             106.9805         estimate D2E/DX2                !
 ! A18   A(7,4,24)             107.1141         estimate D2E/DX2                !
 ! A19   A(4,5,6)              114.7057         estimate D2E/DX2                !
 ! A20   A(4,5,10)             111.2788         estimate D2E/DX2                !
 ! A21   A(4,5,22)             103.0044         estimate D2E/DX2                !
 ! A22   A(6,5,10)             106.0556         estimate D2E/DX2                !
 ! A23   A(6,5,22)             109.9045         estimate D2E/DX2                !
 ! A24   A(10,5,22)            112.0367         estimate D2E/DX2                !
 ! A25   A(1,6,5)              113.0746         estimate D2E/DX2                !
 ! A26   A(1,6,34)             108.6624         estimate D2E/DX2                !
 ! A27   A(1,6,35)             107.7487         estimate D2E/DX2                !
 ! A28   A(5,6,34)             109.0371         estimate D2E/DX2                !
 ! A29   A(5,6,35)             112.2877         estimate D2E/DX2                !
 ! A30   A(34,6,35)            105.7181         estimate D2E/DX2                !
 ! A31   A(4,7,8)              115.418          estimate D2E/DX2                !
 ! A32   A(4,7,17)             108.6539         estimate D2E/DX2                !
 ! A33   A(4,7,21)             112.5614         estimate D2E/DX2                !
 ! A34   A(8,7,17)             101.2656         estimate D2E/DX2                !
 ! A35   A(8,7,21)             108.0438         estimate D2E/DX2                !
 ! A36   A(17,7,21)            110.2958         estimate D2E/DX2                !
 ! A37   A(7,8,9)              122.5884         estimate D2E/DX2                !
 ! A38   A(7,8,19)             113.4757         estimate D2E/DX2                !
 ! A39   A(9,8,19)             123.6513         estimate D2E/DX2                !
 ! A40   A(8,9,10)             115.7236         estimate D2E/DX2                !
 ! A41   A(8,9,11)             122.3063         estimate D2E/DX2                !
 ! A42   A(10,9,11)            121.3924         estimate D2E/DX2                !
 ! A43   A(5,10,9)             116.4697         estimate D2E/DX2                !
 ! A44   A(5,10,16)            123.2191         estimate D2E/DX2                !
 ! A45   A(9,10,16)            120.1411         estimate D2E/DX2                !
 ! A46   A(9,11,12)            118.8988         estimate D2E/DX2                !
 ! A47   A(9,11,13)            118.0882         estimate D2E/DX2                !
 ! A48   A(12,11,13)           122.9633         estimate D2E/DX2                !
 ! A49   A(11,13,14)           111.5342         estimate D2E/DX2                !
 ! A50   A(11,13,15)           108.0124         estimate D2E/DX2                !
 ! A51   A(11,13,36)           109.7765         estimate D2E/DX2                !
 ! A52   A(14,13,15)           110.5433         estimate D2E/DX2                !
 ! A53   A(14,13,36)           108.6931         estimate D2E/DX2                !
 ! A54   A(15,13,36)           108.2243         estimate D2E/DX2                !
 ! A55   A(13,14,37)           110.6331         estimate D2E/DX2                !
 ! A56   A(13,14,38)           109.3647         estimate D2E/DX2                !
 ! A57   A(13,14,62)           112.6939         estimate D2E/DX2                !
 ! A58   A(37,14,38)           106.7779         estimate D2E/DX2                !
 ! A59   A(37,14,62)           108.965          estimate D2E/DX2                !
 ! A60   A(38,14,62)           108.2047         estimate D2E/DX2                !
 ! A61   A(13,15,39)           110.8956         estimate D2E/DX2                !
 ! A62   A(13,15,40)           110.9367         estimate D2E/DX2                !
 ! A63   A(13,15,41)           111.3343         estimate D2E/DX2                !
 ! A64   A(39,15,40)           107.885          estimate D2E/DX2                !
 ! A65   A(39,15,41)           108.1719         estimate D2E/DX2                !
 ! A66   A(40,15,41)           107.4668         estimate D2E/DX2                !
 ! A67   A(7,17,18)            103.1368         estimate D2E/DX2                !
 ! A68   A(7,17,20)            102.655          estimate D2E/DX2                !
 ! A69   A(7,17,30)            112.6575         estimate D2E/DX2                !
 ! A70   A(18,17,20)           117.0182         estimate D2E/DX2                !
 ! A71   A(18,17,30)           111.3523         estimate D2E/DX2                !
 ! A72   A(20,17,30)           109.5972         estimate D2E/DX2                !
 ! A73   A(17,18,19)           106.6328         estimate D2E/DX2                !
 ! A74   A(17,18,28)           112.1128         estimate D2E/DX2                !
 ! A75   A(17,18,29)           113.7109         estimate D2E/DX2                !
 ! A76   A(19,18,28)           107.5181         estimate D2E/DX2                !
 ! A77   A(19,18,29)           108.0767         estimate D2E/DX2                !
 ! A78   A(28,18,29)           108.5266         estimate D2E/DX2                !
 ! A79   A(8,19,18)            106.5915         estimate D2E/DX2                !
 ! A80   A(3,20,17)            103.8692         estimate D2E/DX2                !
 ! A81   A(3,20,42)            111.8553         estimate D2E/DX2                !
 ! A82   A(3,20,43)            110.6148         estimate D2E/DX2                !
 ! A83   A(17,20,42)           111.3247         estimate D2E/DX2                !
 ! A84   A(17,20,43)           111.7093         estimate D2E/DX2                !
 ! A85   A(42,20,43)           107.5209         estimate D2E/DX2                !
 ! A86   A(7,21,44)            104.9908         estimate D2E/DX2                !
 ! A87   A(5,22,23)            105.6757         estimate D2E/DX2                !
 ! A88   A(5,22,45)            110.345          estimate D2E/DX2                !
 ! A89   A(5,22,46)            113.9803         estimate D2E/DX2                !
 ! A90   A(23,22,45)           107.0621         estimate D2E/DX2                !
 ! A91   A(23,22,46)           114.638          estimate D2E/DX2                !
 ! A92   A(45,22,46)           104.9759         estimate D2E/DX2                !
 ! A93   A(22,23,24)           106.2676         estimate D2E/DX2                !
 ! A94   A(22,23,25)           117.4785         estimate D2E/DX2                !
 ! A95   A(22,23,47)           108.5234         estimate D2E/DX2                !
 ! A96   A(24,23,25)           110.8722         estimate D2E/DX2                !
 ! A97   A(24,23,47)           106.9969         estimate D2E/DX2                !
 ! A98   A(25,23,47)           106.264          estimate D2E/DX2                !
 ! A99   A(4,24,23)            110.7477         estimate D2E/DX2                !
 ! A100  A(23,25,26)           117.3571         estimate D2E/DX2                !
 ! A101  A(23,25,27)           123.6015         estimate D2E/DX2                !
 ! A102  A(26,25,27)           118.8382         estimate D2E/DX2                !
 ! A103  A(25,26,48)           111.0177         estimate D2E/DX2                !
 ! A104  A(25,26,49)           110.3393         estimate D2E/DX2                !
 ! A105  A(25,26,50)           112.1121         estimate D2E/DX2                !
 ! A106  A(48,26,49)           108.9584         estimate D2E/DX2                !
 ! A107  A(48,26,50)           107.2104         estimate D2E/DX2                !
 ! A108  A(49,26,50)           107.0448         estimate D2E/DX2                !
 ! A109  A(25,27,51)           122.416          estimate D2E/DX2                !
 ! A110  A(25,27,52)           121.4485         estimate D2E/DX2                !
 ! A111  A(51,27,52)           116.0968         estimate D2E/DX2                !
 ! A112  A(18,28,53)           112.1467         estimate D2E/DX2                !
 ! A113  A(18,28,54)           110.6046         estimate D2E/DX2                !
 ! A114  A(18,28,55)           111.3377         estimate D2E/DX2                !
 ! A115  A(53,28,54)           105.6519         estimate D2E/DX2                !
 ! A116  A(53,28,55)           108.4956         estimate D2E/DX2                !
 ! A117  A(54,28,55)           108.3739         estimate D2E/DX2                !
 ! A118  A(18,29,56)           111.4608         estimate D2E/DX2                !
 ! A119  A(18,29,57)           110.6853         estimate D2E/DX2                !
 ! A120  A(18,29,58)           111.8144         estimate D2E/DX2                !
 ! A121  A(56,29,57)           108.3253         estimate D2E/DX2                !
 ! A122  A(56,29,58)           108.9348         estimate D2E/DX2                !
 ! A123  A(57,29,58)           105.3826         estimate D2E/DX2                !
 ! A124  A(2,32,59)            112.0336         estimate D2E/DX2                !
 ! A125  A(2,32,60)            110.4718         estimate D2E/DX2                !
 ! A126  A(2,32,61)            110.2079         estimate D2E/DX2                !
 ! A127  A(59,32,60)           107.7333         estimate D2E/DX2                !
 ! A128  A(59,32,61)           107.6998         estimate D2E/DX2                !
 ! A129  A(60,32,61)           108.5736         estimate D2E/DX2                !
 ! A130  A(14,62,63)           111.5324         estimate D2E/DX2                !
 ! A131  A(14,62,64)           110.9752         estimate D2E/DX2                !
 ! A132  A(14,62,65)           110.0705         estimate D2E/DX2                !
 ! A133  A(63,62,64)           108.4204         estimate D2E/DX2                !
 ! A134  A(63,62,65)           107.7857         estimate D2E/DX2                !
 ! A135  A(64,62,65)           107.9281         estimate D2E/DX2                !
 ! D1    D(6,1,2,3)             -1.9665         estimate D2E/DX2                !
 ! D2    D(6,1,2,32)          -179.4551         estimate D2E/DX2                !
 ! D3    D(33,1,2,3)           176.9283         estimate D2E/DX2                !
 ! D4    D(33,1,2,32)           -0.5602         estimate D2E/DX2                !
 ! D5    D(2,1,6,5)            -33.9949         estimate D2E/DX2                !
 ! D6    D(2,1,6,34)          -155.2003         estimate D2E/DX2                !
 ! D7    D(2,1,6,35)            90.6994         estimate D2E/DX2                !
 ! D8    D(33,1,6,5)           147.0742         estimate D2E/DX2                !
 ! D9    D(33,1,6,34)           25.8688         estimate D2E/DX2                !
 ! D10   D(33,1,6,35)          -88.2314         estimate D2E/DX2                !
 ! D11   D(1,2,3,4)             27.1952         estimate D2E/DX2                !
 ! D12   D(1,2,3,20)           -91.7524         estimate D2E/DX2                !
 ! D13   D(1,2,3,31)           149.2162         estimate D2E/DX2                !
 ! D14   D(32,2,3,4)          -155.1911         estimate D2E/DX2                !
 ! D15   D(32,2,3,20)           85.8613         estimate D2E/DX2                !
 ! D16   D(32,2,3,31)          -33.1701         estimate D2E/DX2                !
 ! D17   D(1,2,32,59)           -0.8707         estimate D2E/DX2                !
 ! D18   D(1,2,32,60)          119.25           estimate D2E/DX2                !
 ! D19   D(1,2,32,61)         -120.7692         estimate D2E/DX2                !
 ! D20   D(3,2,32,59)         -178.4498         estimate D2E/DX2                !
 ! D21   D(3,2,32,60)          -58.3291         estimate D2E/DX2                !
 ! D22   D(3,2,32,61)           61.6517         estimate D2E/DX2                !
 ! D23   D(2,3,4,5)            -14.5606         estimate D2E/DX2                !
 ! D24   D(2,3,4,7)           -141.3025         estimate D2E/DX2                !
 ! D25   D(2,3,4,24)           105.3118         estimate D2E/DX2                !
 ! D26   D(20,3,4,5)           107.2323         estimate D2E/DX2                !
 ! D27   D(20,3,4,7)           -19.5096         estimate D2E/DX2                !
 ! D28   D(20,3,4,24)         -132.8953         estimate D2E/DX2                !
 ! D29   D(31,3,4,5)          -136.7398         estimate D2E/DX2                !
 ! D30   D(31,3,4,7)            96.5183         estimate D2E/DX2                !
 ! D31   D(31,3,4,24)          -16.8674         estimate D2E/DX2                !
 ! D32   D(2,3,20,17)          163.1294         estimate D2E/DX2                !
 ! D33   D(2,3,20,42)          -76.6977         estimate D2E/DX2                !
 ! D34   D(2,3,20,43)           43.1328         estimate D2E/DX2                !
 ! D35   D(4,3,20,17)           37.334          estimate D2E/DX2                !
 ! D36   D(4,3,20,42)          157.5069         estimate D2E/DX2                !
 ! D37   D(4,3,20,43)          -82.6626         estimate D2E/DX2                !
 ! D38   D(31,3,20,17)         -78.142          estimate D2E/DX2                !
 ! D39   D(31,3,20,42)          42.0309         estimate D2E/DX2                !
 ! D40   D(31,3,20,43)         161.8614         estimate D2E/DX2                !
 ! D41   D(3,4,5,6)            -19.6477         estimate D2E/DX2                !
 ! D42   D(3,4,5,10)          -140.0381         estimate D2E/DX2                !
 ! D43   D(3,4,5,22)            99.7503         estimate D2E/DX2                !
 ! D44   D(7,4,5,6)            101.3296         estimate D2E/DX2                !
 ! D45   D(7,4,5,10)           -19.0607         estimate D2E/DX2                !
 ! D46   D(7,4,5,22)          -139.2723         estimate D2E/DX2                !
 ! D47   D(24,4,5,6)          -140.0017         estimate D2E/DX2                !
 ! D48   D(24,4,5,10)           99.6079         estimate D2E/DX2                !
 ! D49   D(24,4,5,22)          -20.6037         estimate D2E/DX2                !
 ! D50   D(3,4,7,8)            107.5727         estimate D2E/DX2                !
 ! D51   D(3,4,7,17)            -5.3017         estimate D2E/DX2                !
 ! D52   D(3,4,7,21)          -127.7606         estimate D2E/DX2                !
 ! D53   D(5,4,7,8)            -19.9039         estimate D2E/DX2                !
 ! D54   D(5,4,7,17)          -132.7783         estimate D2E/DX2                !
 ! D55   D(5,4,7,21)           104.7628         estimate D2E/DX2                !
 ! D56   D(24,4,7,8)          -138.4975         estimate D2E/DX2                !
 ! D57   D(24,4,7,17)          108.628          estimate D2E/DX2                !
 ! D58   D(24,4,7,21)          -13.8309         estimate D2E/DX2                !
 ! D59   D(3,4,24,23)         -119.1057         estimate D2E/DX2                !
 ! D60   D(5,4,24,23)            6.2757         estimate D2E/DX2                !
 ! D61   D(7,4,24,23)          129.8041         estimate D2E/DX2                !
 ! D62   D(4,5,6,1)             43.3877         estimate D2E/DX2                !
 ! D63   D(4,5,6,34)           164.3811         estimate D2E/DX2                !
 ! D64   D(4,5,6,35)           -78.8017         estimate D2E/DX2                !
 ! D65   D(10,5,6,1)           166.624          estimate D2E/DX2                !
 ! D66   D(10,5,6,34)          -72.3826         estimate D2E/DX2                !
 ! D67   D(10,5,6,35)           44.4346         estimate D2E/DX2                !
 ! D68   D(22,5,6,1)           -72.0812         estimate D2E/DX2                !
 ! D69   D(22,5,6,34)           48.9122         estimate D2E/DX2                !
 ! D70   D(22,5,6,35)          165.7294         estimate D2E/DX2                !
 ! D71   D(4,5,10,9)            49.8297         estimate D2E/DX2                !
 ! D72   D(4,5,10,16)         -134.9135         estimate D2E/DX2                !
 ! D73   D(6,5,10,9)           -75.5385         estimate D2E/DX2                !
 ! D74   D(6,5,10,16)           99.7184         estimate D2E/DX2                !
 ! D75   D(22,5,10,9)          164.5484         estimate D2E/DX2                !
 ! D76   D(22,5,10,16)         -20.1948         estimate D2E/DX2                !
 ! D77   D(4,5,22,23)           26.9414         estimate D2E/DX2                !
 ! D78   D(4,5,22,45)          -88.4676         estimate D2E/DX2                !
 ! D79   D(4,5,22,46)          153.7198         estimate D2E/DX2                !
 ! D80   D(6,5,22,23)          149.6139         estimate D2E/DX2                !
 ! D81   D(6,5,22,45)           34.2049         estimate D2E/DX2                !
 ! D82   D(6,5,22,46)          -83.6077         estimate D2E/DX2                !
 ! D83   D(10,5,22,23)         -92.7479         estimate D2E/DX2                !
 ! D84   D(10,5,22,45)         151.843          estimate D2E/DX2                !
 ! D85   D(10,5,22,46)          34.0305         estimate D2E/DX2                !
 ! D86   D(4,7,8,9)             36.0488         estimate D2E/DX2                !
 ! D87   D(4,7,8,19)          -138.0266         estimate D2E/DX2                !
 ! D88   D(17,7,8,9)           153.1619         estimate D2E/DX2                !
 ! D89   D(17,7,8,19)          -20.9135         estimate D2E/DX2                !
 ! D90   D(21,7,8,9)           -90.9341         estimate D2E/DX2                !
 ! D91   D(21,7,8,19)           94.9905         estimate D2E/DX2                !
 ! D92   D(4,7,17,18)          150.0617         estimate D2E/DX2                !
 ! D93   D(4,7,17,20)           28.0226         estimate D2E/DX2                !
 ! D94   D(4,7,17,30)          -89.7675         estimate D2E/DX2                !
 ! D95   D(8,7,17,18)           28.1129         estimate D2E/DX2                !
 ! D96   D(8,7,17,20)          -93.9263         estimate D2E/DX2                !
 ! D97   D(8,7,17,30)          148.2836         estimate D2E/DX2                !
 ! D98   D(21,7,17,18)         -86.1173         estimate D2E/DX2                !
 ! D99   D(21,7,17,20)         151.8435         estimate D2E/DX2                !
 ! D100  D(21,7,17,30)          34.0535         estimate D2E/DX2                !
 ! D101  D(4,7,21,44)           20.8713         estimate D2E/DX2                !
 ! D102  D(8,7,21,44)          149.4931         estimate D2E/DX2                !
 ! D103  D(17,7,21,44)        -100.6581         estimate D2E/DX2                !
 ! D104  D(7,8,9,10)            -6.5152         estimate D2E/DX2                !
 ! D105  D(7,8,9,11)          -177.9054         estimate D2E/DX2                !
 ! D106  D(19,8,9,10)          166.9542         estimate D2E/DX2                !
 ! D107  D(19,8,9,11)           -4.4361         estimate D2E/DX2                !
 ! D108  D(7,8,19,18)            3.4796         estimate D2E/DX2                !
 ! D109  D(9,8,19,18)         -170.5235         estimate D2E/DX2                !
 ! D110  D(8,9,10,5)           -38.0228         estimate D2E/DX2                !
 ! D111  D(8,9,10,16)          146.5653         estimate D2E/DX2                !
 ! D112  D(11,9,10,5)          133.453          estimate D2E/DX2                !
 ! D113  D(11,9,10,16)         -41.9589         estimate D2E/DX2                !
 ! D114  D(8,9,11,12)          119.4311         estimate D2E/DX2                !
 ! D115  D(8,9,11,13)          -63.0566         estimate D2E/DX2                !
 ! D116  D(10,9,11,12)         -51.4784         estimate D2E/DX2                !
 ! D117  D(10,9,11,13)         126.0339         estimate D2E/DX2                !
 ! D118  D(9,11,13,14)         144.1369         estimate D2E/DX2                !
 ! D119  D(9,11,13,15)         -94.1951         estimate D2E/DX2                !
 ! D120  D(9,11,13,36)          23.6045         estimate D2E/DX2                !
 ! D121  D(12,11,13,14)        -38.459          estimate D2E/DX2                !
 ! D122  D(12,11,13,15)         83.209          estimate D2E/DX2                !
 ! D123  D(12,11,13,36)       -158.9914         estimate D2E/DX2                !
 ! D124  D(11,13,14,37)         54.5926         estimate D2E/DX2                !
 ! D125  D(11,13,14,38)        171.9334         estimate D2E/DX2                !
 ! D126  D(11,13,14,62)        -67.6746         estimate D2E/DX2                !
 ! D127  D(15,13,14,37)        -65.5979         estimate D2E/DX2                !
 ! D128  D(15,13,14,38)         51.7429         estimate D2E/DX2                !
 ! D129  D(15,13,14,62)        172.1349         estimate D2E/DX2                !
 ! D130  D(36,13,14,37)        175.7579         estimate D2E/DX2                !
 ! D131  D(36,13,14,38)        -66.9012         estimate D2E/DX2                !
 ! D132  D(36,13,14,62)         53.4908         estimate D2E/DX2                !
 ! D133  D(11,13,15,39)        178.2307         estimate D2E/DX2                !
 ! D134  D(11,13,15,40)         58.3608         estimate D2E/DX2                !
 ! D135  D(11,13,15,41)        -61.2723         estimate D2E/DX2                !
 ! D136  D(14,13,15,39)        -59.4907         estimate D2E/DX2                !
 ! D137  D(14,13,15,40)       -179.3605         estimate D2E/DX2                !
 ! D138  D(14,13,15,41)         61.0063         estimate D2E/DX2                !
 ! D139  D(36,13,15,39)         59.4382         estimate D2E/DX2                !
 ! D140  D(36,13,15,40)        -60.4316         estimate D2E/DX2                !
 ! D141  D(36,13,15,41)        179.9352         estimate D2E/DX2                !
 ! D142  D(13,14,62,63)         62.5902         estimate D2E/DX2                !
 ! D143  D(13,14,62,64)        -58.4116         estimate D2E/DX2                !
 ! D144  D(13,14,62,65)       -177.8214         estimate D2E/DX2                !
 ! D145  D(37,14,62,63)        -60.6113         estimate D2E/DX2                !
 ! D146  D(37,14,62,64)        178.387          estimate D2E/DX2                !
 ! D147  D(37,14,62,65)         58.9772         estimate D2E/DX2                !
 ! D148  D(38,14,62,63)       -176.3539         estimate D2E/DX2                !
 ! D149  D(38,14,62,64)         62.6443         estimate D2E/DX2                !
 ! D150  D(38,14,62,65)        -56.7655         estimate D2E/DX2                !
 ! D151  D(7,17,18,19)         -28.0272         estimate D2E/DX2                !
 ! D152  D(7,17,18,28)          89.3905         estimate D2E/DX2                !
 ! D153  D(7,17,18,29)        -147.0332         estimate D2E/DX2                !
 ! D154  D(20,17,18,19)         83.7831         estimate D2E/DX2                !
 ! D155  D(20,17,18,28)       -158.7991         estimate D2E/DX2                !
 ! D156  D(20,17,18,29)        -35.2229         estimate D2E/DX2                !
 ! D157  D(30,17,18,19)       -149.0893         estimate D2E/DX2                !
 ! D158  D(30,17,18,28)        -31.6715         estimate D2E/DX2                !
 ! D159  D(30,17,18,29)         91.9047         estimate D2E/DX2                !
 ! D160  D(7,17,20,3)          -39.9951         estimate D2E/DX2                !
 ! D161  D(7,17,20,42)        -160.5266         estimate D2E/DX2                !
 ! D162  D(7,17,20,43)          79.2564         estimate D2E/DX2                !
 ! D163  D(18,17,20,3)        -152.0793         estimate D2E/DX2                !
 ! D164  D(18,17,20,42)         87.3892         estimate D2E/DX2                !
 ! D165  D(18,17,20,43)        -32.8278         estimate D2E/DX2                !
 ! D166  D(30,17,20,3)          79.9407         estimate D2E/DX2                !
 ! D167  D(30,17,20,42)        -40.5908         estimate D2E/DX2                !
 ! D168  D(30,17,20,43)       -160.8078         estimate D2E/DX2                !
 ! D169  D(17,18,19,8)          15.5593         estimate D2E/DX2                !
 ! D170  D(28,18,19,8)        -104.8565         estimate D2E/DX2                !
 ! D171  D(29,18,19,8)         138.1735         estimate D2E/DX2                !
 ! D172  D(17,18,28,53)        -59.8315         estimate D2E/DX2                !
 ! D173  D(17,18,28,54)       -177.4906         estimate D2E/DX2                !
 ! D174  D(17,18,28,55)         61.9514         estimate D2E/DX2                !
 ! D175  D(19,18,28,53)         57.0561         estimate D2E/DX2                !
 ! D176  D(19,18,28,54)        -60.603          estimate D2E/DX2                !
 ! D177  D(19,18,28,55)        178.8389         estimate D2E/DX2                !
 ! D178  D(29,18,28,53)        173.7319         estimate D2E/DX2                !
 ! D179  D(29,18,28,54)         56.0728         estimate D2E/DX2                !
 ! D180  D(29,18,28,55)        -64.4853         estimate D2E/DX2                !
 ! D181  D(17,18,29,56)        -57.3489         estimate D2E/DX2                !
 ! D182  D(17,18,29,57)       -177.9825         estimate D2E/DX2                !
 ! D183  D(17,18,29,58)         64.8533         estimate D2E/DX2                !
 ! D184  D(19,18,29,56)       -175.5269         estimate D2E/DX2                !
 ! D185  D(19,18,29,57)         63.8395         estimate D2E/DX2                !
 ! D186  D(19,18,29,58)        -53.3247         estimate D2E/DX2                !
 ! D187  D(28,18,29,56)         68.1571         estimate D2E/DX2                !
 ! D188  D(28,18,29,57)        -52.4765         estimate D2E/DX2                !
 ! D189  D(28,18,29,58)       -169.6407         estimate D2E/DX2                !
 ! D190  D(5,22,23,24)         -24.0381         estimate D2E/DX2                !
 ! D191  D(5,22,23,25)         100.7195         estimate D2E/DX2                !
 ! D192  D(5,22,23,47)        -138.8044         estimate D2E/DX2                !
 ! D193  D(45,22,23,24)         93.5982         estimate D2E/DX2                !
 ! D194  D(45,22,23,25)       -141.6442         estimate D2E/DX2                !
 ! D195  D(45,22,23,47)        -21.1681         estimate D2E/DX2                !
 ! D196  D(46,22,23,24)       -150.4161         estimate D2E/DX2                !
 ! D197  D(46,22,23,25)        -25.6585         estimate D2E/DX2                !
 ! D198  D(46,22,23,47)         94.8176         estimate D2E/DX2                !
 ! D199  D(22,23,24,4)          11.0318         estimate D2E/DX2                !
 ! D200  D(25,23,24,4)        -117.7006         estimate D2E/DX2                !
 ! D201  D(47,23,24,4)         126.8332         estimate D2E/DX2                !
 ! D202  D(22,23,25,26)         37.8158         estimate D2E/DX2                !
 ! D203  D(22,23,25,27)       -147.4337         estimate D2E/DX2                !
 ! D204  D(24,23,25,26)        160.2434         estimate D2E/DX2                !
 ! D205  D(24,23,25,27)        -25.0061         estimate D2E/DX2                !
 ! D206  D(47,23,25,26)        -83.8354         estimate D2E/DX2                !
 ! D207  D(47,23,25,27)         90.915          estimate D2E/DX2                !
 ! D208  D(23,25,26,48)        -74.0104         estimate D2E/DX2                !
 ! D209  D(23,25,26,49)         46.8939         estimate D2E/DX2                !
 ! D210  D(23,25,26,50)        166.1059         estimate D2E/DX2                !
 ! D211  D(27,25,26,48)        110.9803         estimate D2E/DX2                !
 ! D212  D(27,25,26,49)       -128.1154         estimate D2E/DX2                !
 ! D213  D(27,25,26,50)         -8.9035         estimate D2E/DX2                !
 ! D214  D(23,25,27,51)         -0.4154         estimate D2E/DX2                !
 ! D215  D(23,25,27,52)       -178.0624         estimate D2E/DX2                !
 ! D216  D(26,25,27,51)        174.2619         estimate D2E/DX2                !
 ! D217  D(26,25,27,52)         -3.3851         estimate D2E/DX2                !
 --------------------------------------------------------------------------------
 Trust Radius=3.00D-01 FncErr=1.00D-07 GrdErr=1.00D-06
 Number of steps in this run=    390 maximum allowed number of steps=    390.
 GradGradGradGradGradGradGradGradGradGradGradGradGradGradGradGradGradGrad

 Stoichiometry    C26H34O5
 Framework group  C1[X(C26H34O5)]
 Deg. of freedom   189
 Full point group                 C1      NOp   1
 Largest Abelian subgroup         C1      NOp   1
 Largest concise Abelian subgroup C1      NOp   1
                         Standard orientation:                         
 ---------------------------------------------------------------------
 Center     Atomic      Atomic             Coordinates (Angstroms)
 Number     Number       Type             X           Y           Z
 ---------------------------------------------------------------------
      1          6           0        2.028806    1.296718   -2.646847
      2          6           0        2.403959    2.138813   -1.671740
      3          6           0        1.909521    1.953547   -0.257889
      4          6           0        1.538912    0.497253    0.160176
      5          6           0        1.384186   -0.515215   -0.990127
      6          6           0        1.145570    0.117302   -2.379384
      7          6           0        0.272532    0.678392    1.042938
      8          6           0       -1.008292    0.240846    0.420992
      9          6           0       -1.091339   -0.823801   -0.384164
     10          6           0        0.199241   -1.460713   -0.744743
     11          6           0       -2.355886   -1.225753   -1.033754
     12          8           0       -2.410583   -1.253337   -2.263624
     13          6           0       -3.520608   -1.644565   -0.141260
     14          6           0       -4.868222   -1.193361   -0.724196
     15          6           0       -3.481435   -3.165503    0.004194
     16          8           0        0.260924   -2.675002   -0.915980
     17          6           0        0.019886    2.160191    1.229470
     18          6           0       -1.512581    2.237796    1.383503
     19          8           0       -2.060538    1.112387    0.652667
     20          6           0        0.621516    2.764518   -0.038295
     21          8           0        0.390964    0.036801    2.303104
     22          6           0        2.720268   -1.255692   -0.978359
     23          6           0        3.227679   -1.164636    0.451472
     24          8           0        2.600442   -0.003413    1.029106
     25          6           0        3.037992   -2.381943    1.341899
     26          6           0        3.214424   -3.738147    0.707966
     27          6           0        2.825686   -2.308319    2.668449
     28          6           0       -1.954712    2.097282    2.849088
     29          6           0       -2.124769    3.519279    0.811391
     30          1           0        0.531210    2.568616    2.110413
     31          1           0        2.683260    2.320455    0.431343
     32          6           0        3.279473    3.329278   -1.937104
     33          1           0        2.345673    1.459903   -3.674411
     34          1           0        1.326688   -0.640231   -3.153821
     35          1           0        0.106311    0.439920   -2.516602
     36          1           0       -3.402702   -1.201904    0.854321
     37          1           0       -4.986030   -1.557435   -1.752041
     38          1           0       -5.683969   -1.632960   -0.137096
     39          1           0       -4.282119   -3.515467    0.664010
     40          1           0       -2.526961   -3.493553    0.430147
     41          1           0       -3.596587   -3.661845   -0.965905
     42          1           0        0.828870    3.832693    0.089150
     43          1           0       -0.052504    2.659122   -0.897464
     44          1           0        1.352862   -0.073813    2.441267
     45          1           0        3.450348   -0.736067   -1.613032
     46          1           0        2.669015   -2.270945   -1.379867
     47          1           0        4.307064   -0.967240    0.426514
     48          1           0        2.362855   -3.986033    0.069058
     49          1           0        4.129149   -3.760985    0.106315
     50          1           0        3.301643   -4.534605    1.455391
     51          1           0        2.781716   -1.364228    3.198048
     52          1           0        2.725512   -3.202603    3.276853
     53          1           0       -1.640638    1.144355    3.285046
     54          1           0       -3.048410    2.111228    2.925207
     55          1           0       -1.555507    2.909452    3.465231
     56          1           0       -1.688958    4.411543    1.271895
     57          1           0       -3.208232    3.539173    0.978756
     58          1           0       -1.997427    3.581535   -0.274079
     59          1           0        3.568442    3.399956   -2.991020
     60          1           0        2.758438    4.254444   -1.671522
     61          1           0        4.197268    3.263401   -1.344044
     62          6           0       -5.036027    0.320429   -0.712980
     63          1           0       -4.284730    0.812430   -1.338153
     64          1           0       -4.952731    0.716394    0.304179
     65          1           0       -6.023163    0.591838   -1.100433
 ---------------------------------------------------------------------
 Rotational constants (GHZ):      0.1988585      0.1426751      0.1177320
 Standard basis: 6-31G(d) (6D, 7F)
 There are   533 symmetry adapted basis functions of A   symmetry.
 Integral buffers will be    131072 words long.
 Raffenetti 2 integral format.
 Two-electron integral symmetry is turned on.
   533 basis functions,  1004 primitive gaussians,   533 cartesian basis functions
   115 alpha electrons      115 beta electrons
       nuclear repulsion energy      3553.2704476058 Hartrees.
 NAtoms=   65 NActive=   65 NUniq=   65 SFac= 1.00D+00 NAtFMM=   50 NAOKFM=T Big=T
 One-electron integrals computed using PRISM.
 NBasis=   533 RedAO= T  NBF=   533
 NBsUse=   533 1.00D-06 NBFU=   533
 Harris functional with IExCor=  402 diagonalized for initial guess.
 ExpMin= 1.61D-01 ExpMax= 5.48D+03 ExpMxC= 8.25D+02 IAcc=1 IRadAn=         1 AccDes= 0.00D+00
 HarFok:  IExCor=  402 AccDes= 0.00D+00 IRadAn=         1 IDoV= 1
 ScaDFX=  1.000000  1.000000  1.000000  1.000000
 FoFCou: FMM=F IPFlag=           0 FMFlag=      100000 FMFlg1=        2001
         NFxFlg=           0 DoJE=T BraDBF=F KetDBF=T FulRan=T
         Omega=  0.000000  0.000000  1.000000  0.000000  0.000000 ICntrl=     500 IOpCl=  0
         NMat0=    1 NMatS0=    1 NMatT0=    0 NMatD0=    1 NMtDS0=    0 NMtDT0=    0
         I1Cent=           4 NGrid=           0.
 Petite list used in FoFCou.
 Initial guess orbital symmetries:
       Occupied  (A) (A) (A) (A) (A) (A) (A) (A) (A) (A) (A) (A)
                 (A) (A) (A) (A) (A) (A) (A) (A) (A) (A) (A) (A)
                 (A) (A) (A) (A) (A) (A) (A) (A) (A) (A) (A) (A)
                 (A) (A) (A) (A) (A) (A) (A) (A) (A) (A) (A) (A)
                 (A) (A) (A) (A) (A) (A) (A) (A) (A) (A) (A) (A)
                 (A) (A) (A) (A) (A) (A) (A) (A) (A) (A) (A) (A)
                 (A) (A) (A) (A) (A) (A) (A) (A) (A) (A) (A) (A)
                 (A) (A) (A) (A) (A) (A) (A) (A) (A) (A) (A) (A)
                 (A) (A) (A) (A) (A) (A) (A) (A) (A) (A) (A) (A)
                 (A) (A) (A) (A) (A) (A) (A)
       Virtual   (A) (A) (A) (A) (A) (A) (A) (A) (A) (A) (A) (A)
                 (A) (A) (A) (A) (A) (A) (A) (A) (A) (A) (A) (A)
                 (A) (A) (A) (A) (A) (A) (A) (A) (A) (A) (A) (A)
                 (A) (A) (A) (A) (A) (A) (A) (A) (A) (A) (A) (A)
                 (A) (A) (A) (A) (A) (A) (A) (A) (A) (A) (A) (A)
                 (A) (A) (A) (A) (A) (A) (A) (A) (A) (A) (A) (A)
                 (A) (A) (A) (A) (A) (A) (A) (A) (A) (A) (A) (A)
                 (A) (A) (A) (A) (A) (A) (A) (A) (A) (A) (A) (A)
                 (A) (A) (A) (A) (A) (A) (A) (A) (A) (A) (A) (A)
                 (A) (A) (A) (A) (A) (A) (A) (A) (A) (A) (A) (A)
                 (A) (A) (A) (A) (A) (A) (A) (A) (A) (A) (A) (A)
                 (A) (A) (A) (A) (A) (A) (A) (A) (A) (A) (A) (A)
                 (A) (A) (A) (A) (A) (A) (A) (A) (A) (A) (A) (A)
                 (A) (A) (A) (A) (A) (A) (A) (A) (A) (A) (A) (A)
                 (A) (A) (A) (A) (A) (A) (A) (A) (A) (A) (A) (A)
                 (A) (A) (A) (A) (A) (A) (A) (A) (A) (A) (A) (A)
                 (A) (A) (A) (A) (A) (A) (A) (A) (A) (A) (A) (A)
                 (A) (A) (A) (A) (A) (A) (A) (A) (A) (A) (A) (A)
                 (A) (A) (A) (A) (A) (A) (A) (A) (A) (A) (A) (A)
                 (A) (A) (A) (A) (A) (A) (A) (A) (A) (A) (A) (A)
                 (A) (A) (A) (A) (A) (A) (A) (A) (A) (A) (A) (A)
                 (A) (A) (A) (A) (A) (A) (A) (A) (A) (A) (A) (A)
                 (A) (A) (A) (A) (A) (A) (A) (A) (A) (A) (A) (A)
                 (A) (A) (A) (A) (A) (A) (A) (A) (A) (A) (A) (A)
                 (A) (A) (A) (A) (A) (A) (A) (A) (A) (A) (A) (A)
                 (A) (A) (A) (A) (A) (A) (A) (A) (A) (A) (A) (A)
                 (A) (A) (A) (A) (A) (A) (A) (A) (A) (A) (A) (A)
                 (A) (A) (A) (A) (A) (A) (A) (A) (A) (A) (A) (A)
                 (A) (A) (A) (A) (A) (A) (A) (A) (A) (A) (A) (A)
                 (A) (A) (A) (A) (A) (A) (A) (A) (A) (A) (A) (A)
                 (A) (A) (A) (A) (A) (A) (A) (A) (A) (A) (A) (A)
                 (A) (A) (A) (A) (A) (A) (A) (A) (A) (A) (A) (A)
                 (A) (A) (A) (A) (A) (A) (A) (A) (A) (A) (A) (A)
                 (A) (A) (A) (A) (A) (A) (A) (A) (A) (A) (A) (A)
                 (A) (A) (A) (A) (A) (A) (A) (A) (A) (A)
 The electronic state of the initial guess is 1-A.
 Requested convergence on RMS density matrix=1.00D-08 within 128 cycles.
 Requested convergence on MAX density matrix=1.00D-06.
 Requested convergence on             energy=1.00D-06.
 No special actions if energy rises.
 Integral accuracy reduced to 1.0D-05 until final iterations.
 Initial convergence to 1.0D-05 achieved.  Increase integral accuracy.
 SCF Done:  E(RB3LYP) =  -1387.30121783     A.U. after   16 cycles
             Convg  =    0.4241D-08             -V/T =  2.0091

 **********************************************************************

            Population analysis using the SCF density.

 **********************************************************************

 Orbital symmetries:
       Occupied  (A) (A) (A) (A) (A) (A) (A) (A) (A) (A) (A) (A)
                 (A) (A) (A) (A) (A) (A) (A) (A) (A) (A) (A) (A)
                 (A) (A) (A) (A) (A) (A) (A) (A) (A) (A) (A) (A)
                 (A) (A) (A) (A) (A) (A) (A) (A) (A) (A) (A) (A)
                 (A) (A) (A) (A) (A) (A) (A) (A) (A) (A) (A) (A)
                 (A) (A) (A) (A) (A) (A) (A) (A) (A) (A) (A) (A)
                 (A) (A) (A) (A) (A) (A) (A) (A) (A) (A) (A) (A)
                 (A) (A) (A) (A) (A) (A) (A) (A) (A) (A) (A) (A)
                 (A) (A) (A) (A) (A) (A) (A) (A) (A) (A) (A) (A)
                 (A) (A) (A) (A) (A) (A) (A)
       Virtual   (A) (A) (A) (A) (A) (A) (A) (A) (A) (A) (A) (A)
                 (A) (A) (A) (A) (A) (A) (A) (A) (A) (A) (A) (A)
                 (A) (A) (A) (A) (A) (A) (A) (A) (A) (A) (A) (A)
                 (A) (A) (A) (A) (A) (A) (A) (A) (A) (A) (A) (A)
                 (A) (A) (A) (A) (A) (A) (A) (A) (A) (A) (A) (A)
                 (A) (A) (A) (A) (A) (A) (A) (A) (A) (A) (A) (A)
                 (A) (A) (A) (A) (A) (A) (A) (A) (A) (A) (A) (A)
                 (A) (A) (A) (A) (A) (A) (A) (A) (A) (A) (A) (A)
                 (A) (A) (A) (A) (A) (A) (A) (A) (A) (A) (A) (A)
                 (A) (A) (A) (A) (A) (A) (A) (A) (A) (A) (A) (A)
                 (A) (A) (A) (A) (A) (A) (A) (A) (A) (A) (A) (A)
                 (A) (A) (A) (A) (A) (A) (A) (A) (A) (A) (A) (A)
                 (A) (A) (A) (A) (A) (A) (A) (A) (A) (A) (A) (A)
                 (A) (A) (A) (A) (A) (A) (A) (A) (A) (A) (A) (A)
                 (A) (A) (A) (A) (A) (A) (A) (A) (A) (A) (A) (A)
                 (A) (A) (A) (A) (A) (A) (A) (A) (A) (A) (A) (A)
                 (A) (A) (A) (A) (A) (A) (A) (A) (A) (A) (A) (A)
                 (A) (A) (A) (A) (A) (A) (A) (A) (A) (A) (A) (A)
                 (A) (A) (A) (A) (A) (A) (A) (A) (A) (A) (A) (A)
                 (A) (A) (A) (A) (A) (A) (A) (A) (A) (A) (A) (A)
                 (A) (A) (A) (A) (A) (A) (A) (A) (A) (A) (A) (A)
                 (A) (A) (A) (A) (A) (A) (A) (A) (A) (A) (A) (A)
                 (A) (A) (A) (A) (A) (A) (A) (A) (A) (A) (A) (A)
                 (A) (A) (A) (A) (A) (A) (A) (A) (A) (A) (A) (A)
                 (A) (A) (A) (A) (A) (A) (A) (A) (A) (A) (A) (A)
                 (A) (A) (A) (A) (A) (A) (A) (A) (A) (A) (A) (A)
                 (A) (A) (A) (A) (A) (A) (A) (A) (A) (A) (A) (A)
                 (A) (A) (A) (A) (A) (A) (A) (A) (A) (A) (A) (A)
                 (A) (A) (A) (A) (A) (A) (A) (A) (A) (A) (A) (A)
                 (A) (A) (A) (A) (A) (A) (A) (A) (A) (A) (A) (A)
                 (A) (A) (A) (A) (A) (A) (A) (A) (A) (A) (A) (A)
                 (A) (A) (A) (A) (A) (A) (A) (A) (A) (A) (A) (A)
                 (A) (A) (A) (A) (A) (A) (A) (A) (A) (A) (A) (A)
                 (A) (A) (A) (A) (A) (A) (A) (A) (A) (A) (A) (A)
                 (A) (A) (A) (A) (A) (A) (A) (A) (A) (A)
 The electronic state is 1-A.
 Alpha  occ. eigenvalues --  -19.19706 -19.16966 -19.14217 -19.13899 -19.13217
 Alpha  occ. eigenvalues --  -10.27815 -10.26931 -10.26571 -10.26425 -10.26082
 Alpha  occ. eigenvalues --  -10.25357 -10.24834 -10.21781 -10.20399 -10.19799
 Alpha  occ. eigenvalues --  -10.19769 -10.19711 -10.19675 -10.19481 -10.19051
 Alpha  occ. eigenvalues --  -10.18997 -10.18860 -10.18738 -10.18555 -10.18451
 Alpha  occ. eigenvalues --  -10.17787 -10.17546 -10.17284 -10.16961 -10.16933
 Alpha  occ. eigenvalues --  -10.15960  -1.08583  -1.05842  -1.03587  -1.02328
 Alpha  occ. eigenvalues --   -1.01652  -0.87726  -0.84159  -0.82584  -0.81320
 Alpha  occ. eigenvalues --   -0.80154  -0.79691  -0.77141  -0.74305  -0.73550
 Alpha  occ. eigenvalues --   -0.72629  -0.71878  -0.69695  -0.68652  -0.67868
 Alpha  occ. eigenvalues --   -0.65170  -0.64017  -0.63170  -0.62043  -0.61156
 Alpha  occ. eigenvalues --   -0.59464  -0.58794  -0.56885  -0.54776  -0.53763
 Alpha  occ. eigenvalues --   -0.53180  -0.51881  -0.50951  -0.50138  -0.49131
 Alpha  occ. eigenvalues --   -0.48787  -0.47361  -0.47020  -0.46557  -0.45852
 Alpha  occ. eigenvalues --   -0.44773  -0.44555  -0.44118  -0.43484  -0.43089
 Alpha  occ. eigenvalues --   -0.42587  -0.42530  -0.42107  -0.41783  -0.41057
 Alpha  occ. eigenvalues --   -0.40814  -0.40639  -0.40495  -0.40106  -0.39831
 Alpha  occ. eigenvalues --   -0.39370  -0.38901  -0.38679  -0.38417  -0.37898
 Alpha  occ. eigenvalues --   -0.37689  -0.37548  -0.36997  -0.36172  -0.35965
 Alpha  occ. eigenvalues --   -0.35723  -0.35251  -0.35005  -0.34871  -0.34526
 Alpha  occ. eigenvalues --   -0.33924  -0.33443  -0.32970  -0.32775  -0.32571
 Alpha  occ. eigenvalues --   -0.31914  -0.31578  -0.30992  -0.27363  -0.26840
 Alpha  occ. eigenvalues --   -0.25172  -0.24398  -0.24104  -0.23692  -0.23317
 Alpha virt. eigenvalues --   -0.04797  -0.02486   0.01305   0.01851   0.03884
 Alpha virt. eigenvalues --    0.06583   0.08252   0.09139   0.09462   0.10488
 Alpha virt. eigenvalues --    0.10590   0.10897   0.11083   0.11868   0.12319
 Alpha virt. eigenvalues --    0.12809   0.13326   0.13643   0.13752   0.14080
 Alpha virt. eigenvalues --    0.14414   0.14720   0.15311   0.15583   0.15707
 Alpha virt. eigenvalues --    0.16047   0.16448   0.16594   0.16997   0.17876
 Alpha virt. eigenvalues --    0.18196   0.18279   0.18762   0.19117   0.19368
 Alpha virt. eigenvalues --    0.19494   0.19825   0.20075   0.20143   0.20615
 Alpha virt. eigenvalues --    0.20984   0.21156   0.21684   0.21869   0.22275
 Alpha virt. eigenvalues --    0.23776   0.24151   0.24408   0.24633   0.24993
 Alpha virt. eigenvalues --    0.25226   0.25280   0.25795   0.26440   0.26659
 Alpha virt. eigenvalues --    0.26850   0.27101   0.27990   0.28054   0.30499
 Alpha virt. eigenvalues --    0.31218   0.31820   0.32541   0.33297   0.34333
 Alpha virt. eigenvalues --    0.34889   0.35723   0.37406   0.38747   0.39819
 Alpha virt. eigenvalues --    0.41650   0.43736   0.45756   0.47420   0.48542
 Alpha virt. eigenvalues --    0.49727   0.50091   0.50429   0.51372   0.51811
 Alpha virt. eigenvalues --    0.51872   0.52720   0.52874   0.53351   0.54232
 Alpha virt. eigenvalues --    0.54316   0.54750   0.55040   0.55536   0.56041
 Alpha virt. eigenvalues --    0.56550   0.57175   0.58360   0.58765   0.59399
 Alpha virt. eigenvalues --    0.59674   0.60965   0.61120   0.61529   0.61627
 Alpha virt. eigenvalues --    0.62748   0.63402   0.64126   0.64427   0.65249
 Alpha virt. eigenvalues --    0.66114   0.66357   0.66530   0.67270   0.67558
 Alpha virt. eigenvalues --    0.68038   0.68268   0.68795   0.69543   0.70457
 Alpha virt. eigenvalues --    0.70643   0.71391   0.72308   0.72842   0.73410
 Alpha virt. eigenvalues --    0.74258   0.74726   0.75338   0.76504   0.76781
 Alpha virt. eigenvalues --    0.76902   0.77704   0.77753   0.78153   0.78565
 Alpha virt. eigenvalues --    0.79341   0.80331   0.80961   0.81668   0.82388
 Alpha virt. eigenvalues --    0.82827   0.83269   0.84059   0.84509   0.84952
 Alpha virt. eigenvalues --    0.85377   0.85707   0.85995   0.86565   0.86933
 Alpha virt. eigenvalues --    0.87631   0.87819   0.88739   0.89075   0.89290
 Alpha virt. eigenvalues --    0.89348   0.89853   0.90283   0.90428   0.90914
 Alpha virt. eigenvalues --    0.91067   0.91690   0.91903   0.92163   0.92477
 Alpha virt. eigenvalues --    0.92694   0.92844   0.93429   0.93760   0.94483
 Alpha virt. eigenvalues --    0.94578   0.95372   0.95947   0.96927   0.97188
 Alpha virt. eigenvalues --    0.97707   0.97888   0.98153   0.98788   0.99647
 Alpha virt. eigenvalues --    1.00529   1.00948   1.01698   1.01893   1.03172
 Alpha virt. eigenvalues --    1.04065   1.05134   1.05316   1.07448   1.08353
 Alpha virt. eigenvalues --    1.09095   1.10637   1.11773   1.12239   1.12943
 Alpha virt. eigenvalues --    1.14080   1.14523   1.15245   1.16650   1.16979
 Alpha virt. eigenvalues --    1.17661   1.18683   1.19597   1.20539   1.21208
 Alpha virt. eigenvalues --    1.22168   1.24080   1.24770   1.25571   1.27770
 Alpha virt. eigenvalues --    1.28121   1.30334   1.30666   1.32270   1.32833
 Alpha virt. eigenvalues --    1.35460   1.35742   1.38141   1.38769   1.40264
 Alpha virt. eigenvalues --    1.41550   1.42218   1.44280   1.45308   1.47198
 Alpha virt. eigenvalues --    1.47434   1.48772   1.51209   1.51853   1.52800
 Alpha virt. eigenvalues --    1.53715   1.54673   1.56160   1.57159   1.57768
 Alpha virt. eigenvalues --    1.60166   1.61860   1.62325   1.63103   1.64348
 Alpha virt. eigenvalues --    1.66041   1.66510   1.68275   1.68847   1.70252
 Alpha virt. eigenvalues --    1.71054   1.71495   1.72409   1.73616   1.74668
 Alpha virt. eigenvalues --    1.75255   1.76162   1.76832   1.77859   1.78544
 Alpha virt. eigenvalues --    1.79294   1.79674   1.80783   1.81428   1.81902
 Alpha virt. eigenvalues --    1.82735   1.84300   1.84729   1.85469   1.86436
 Alpha virt. eigenvalues --    1.86844   1.87270   1.88316   1.88447   1.88815
 Alpha virt. eigenvalues --    1.89168   1.90009   1.90355   1.91095   1.91658
 Alpha virt. eigenvalues --    1.92812   1.93245   1.93316   1.93981   1.94193
 Alpha virt. eigenvalues --    1.95857   1.95957   1.96954   1.97743   1.98347
 Alpha virt. eigenvalues --    1.98720   1.99737   2.00532   2.01161   2.01662
 Alpha virt. eigenvalues --    2.02498   2.03125   2.03652   2.04688   2.05531
 Alpha virt. eigenvalues --    2.07055   2.07158   2.07554   2.09251   2.10217
 Alpha virt. eigenvalues --    2.10719   2.11360   2.12287   2.12554   2.13351
 Alpha virt. eigenvalues --    2.14306   2.15676   2.17202   2.18149   2.18687
 Alpha virt. eigenvalues --    2.19841   2.20445   2.21031   2.21886   2.22590
 Alpha virt. eigenvalues --    2.22887   2.24829   2.25881   2.27203   2.27569
 Alpha virt. eigenvalues --    2.27969   2.28550   2.30055   2.30423   2.31103
 Alpha virt. eigenvalues --    2.32014   2.33078   2.33801   2.34303   2.34942
 Alpha virt. eigenvalues --    2.35588   2.36539   2.37118   2.38565   2.39708
 Alpha virt. eigenvalues --    2.40301   2.40593   2.41860   2.42048   2.43906
 Alpha virt. eigenvalues --    2.45681   2.45877   2.46726   2.47256   2.47861
 Alpha virt. eigenvalues --    2.49486   2.51442   2.52275   2.54044   2.55193
 Alpha virt. eigenvalues --    2.55511   2.57232   2.57855   2.60126   2.60813
 Alpha virt. eigenvalues --    2.61957   2.63462   2.64566   2.65579   2.66721
 Alpha virt. eigenvalues --    2.67594   2.67760   2.70104   2.70646   2.72696
 Alpha virt. eigenvalues --    2.73270   2.75894   2.76117   2.76462   2.77997
 Alpha virt. eigenvalues --    2.79404   2.79772   2.80889   2.81584   2.83935
 Alpha virt. eigenvalues --    2.87480   2.90867   2.91895   2.93786   2.96375
 Alpha virt. eigenvalues --    2.96976   2.98787   2.99734   3.00540   3.03093
 Alpha virt. eigenvalues --    3.05460   3.06722   3.10540   3.16509   3.20349
 Alpha virt. eigenvalues --    3.23148   3.27367   4.00153   4.09792   4.14145
 Alpha virt. eigenvalues --    4.14946   4.16279   4.16848   4.20703   4.21570
 Alpha virt. eigenvalues --    4.21846   4.25543   4.26671   4.28007   4.30180
 Alpha virt. eigenvalues --    4.33585   4.34336   4.38429   4.39860   4.44106
 Alpha virt. eigenvalues --    4.46626   4.48595   4.53764   4.56498   4.61345
 Alpha virt. eigenvalues --    4.65507   4.66151   4.70773   4.71206   4.77725
 Alpha virt. eigenvalues --    4.89182   4.92691   5.24268
          Condensed to atoms (all electrons):
 Mulliken atomic charges:
              1
     1  C   -0.200715
     2  C    0.200476
     3  C   -0.200936
     4  C    0.320692
     5  C   -0.048412
     6  C   -0.321989
     7  C    0.205028
     8  C    0.408203
     9  C   -0.091777
    10  C    0.417834
    11  C    0.425817
    12  O   -0.473357
    13  C   -0.148988
    14  C   -0.248739
    15  C   -0.456452
    16  O   -0.481658
    17  C   -0.149319
    18  C    0.304110
    19  O   -0.535180
    20  C   -0.305720
    21  O   -0.672973
    22  C   -0.330117
    23  C    0.085811
    24  O   -0.586801
    25  C    0.209338
    26  C   -0.535011
    27  C   -0.395033
    28  C   -0.460194
    29  C   -0.464313
    30  H    0.145422
    31  H    0.149734
    32  C   -0.518874
    33  H    0.126461
    34  H    0.164658
    35  H    0.180044
    36  H    0.143794
    37  H    0.153971
    38  H    0.124940
    39  H    0.147008
    40  H    0.163681
    41  H    0.162148
    42  H    0.149405
    43  H    0.161292
    44  H    0.429219
    45  H    0.152215
    46  H    0.186928
    47  H    0.150846
    48  H    0.196508
    49  H    0.144344
    50  H    0.153476
    51  H    0.130487
    52  H    0.140584
    53  H    0.185005
    54  H    0.148928
    55  H    0.141100
    56  H    0.150291
    57  H    0.159568
    58  H    0.157555
    59  H    0.157571
    60  H    0.155512
    61  H    0.156210
    62  C   -0.447452
    63  H    0.154391
    64  H    0.139021
    65  H    0.134385
 Sum of Mulliken atomic charges =   0.00000
 Mulliken charges with hydrogens summed into heavy atoms:
              1
     1  C   -0.074255
     2  C    0.200476
     3  C   -0.051202
     4  C    0.320692
     5  C   -0.048412
     6  C    0.022713
     7  C    0.205028
     8  C    0.408203
     9  C   -0.091777
    10  C    0.417834
    11  C    0.425817
    12  O   -0.473357
    13  C   -0.005193
    14  C    0.030172
    15  C    0.016384
    16  O   -0.481658
    17  C   -0.003897
    18  C    0.304110
    19  O   -0.535180
    20  C    0.004977
    21  O   -0.243755
    22  C    0.009026
    23  C    0.236657
    24  O   -0.586801
    25  C    0.209338
    26  C   -0.040683
    27  C   -0.123961
    28  C    0.014839
    29  C    0.003100
    32  C   -0.049581
    62  C   -0.019655
 Sum of Mulliken charges with hydrogens summed into heavy atoms =   0.00000
 Electronic spatial extent (au):  <R**2>=          10972.3364
 Charge=              0.0000 electrons
 Dipole moment (field-independent basis, Debye):
    X=              2.6403    Y=              4.0938    Z=              1.3173  Tot=              5.0464
 Quadrupole moment (field-independent basis, Debye-Ang):
   XX=           -178.3626   YY=           -179.1140   ZZ=           -188.7874
   XY=             -1.5614   XZ=             -9.6785   YZ=             -2.2717
 Traceless Quadrupole moment (field-independent basis, Debye-Ang):
   XX=              3.7254   YY=              2.9740   ZZ=             -6.6994
   XY=             -1.5614   XZ=             -9.6785   YZ=             -2.2717
 Octapole moment (field-independent basis, Debye-Ang**2):
  XXX=              2.3425  YYY=             28.0709  ZZZ=             11.0677  XYY=              6.7738
  XXY=            -13.8209  XXZ=              6.6521  XZZ=             22.6412  YZZ=             13.5838
  YYZ=             25.8732  XYZ=              2.2571
 Hexadecapole moment (field-independent basis, Debye-Ang**3):
 XXXX=          -7363.3309 YYYY=          -4683.7315 ZZZZ=          -2560.6888 XXXY=             26.1215
 XXXZ=            -67.5610 YYYX=            -17.0485 YYYZ=              2.9782 ZZZX=            -40.4140
 ZZZY=             -5.7709 XXYY=          -1959.7174 XXZZ=          -1693.3707 YYZZ=          -1199.5425
 XXYZ=             -0.4394 YYXZ=             -2.8830 ZZXY=            -21.1563
 N-N= 3.553270447606D+03 E-N=-1.033305402295D+04  KE= 1.374834797078D+03
 Calling FoFJK, ICntrl=      2127 FMM=T ISym2X=0 I1Cent= 0 IOpClX= 0 NMat=1 NMatS=1 NMatT=0.
 ***** Axes restored to original set *****
 -------------------------------------------------------------------
 Center     Atomic                   Forces (Hartrees/Bohr)
 Number     Number              X              Y              Z
 -------------------------------------------------------------------
      1        6           0.009689637    0.000853509    0.001950234
      2        6          -0.010219429   -0.005802209    0.005147806
      3        6          -0.006723139   -0.009186713   -0.003373251
      4        6           0.012483316   -0.005740115    0.006883488
      5        6          -0.006749538    0.001559947    0.004809344
      6        6          -0.005311715   -0.008969635   -0.005414732
      7        6           0.022971825    0.016615618    0.005469381
      8        6          -0.007855684   -0.000783222   -0.023967068
      9        6           0.005320594   -0.003087389    0.004523605
     10        6          -0.015878286    0.017660962    0.005950495
     11        6          -0.018252531   -0.006989746   -0.003770371
     12        8           0.008755631    0.011980152    0.002017874
     13        6          -0.006083986    0.000617497   -0.010494544
     14        6           0.001048438   -0.001124511   -0.003904000
     15        6          -0.002835320    0.002435941    0.010937236
     16        8           0.005864884   -0.010007150   -0.002360307
     17        6           0.001302099   -0.006685728   -0.012214957
     18        6           0.028559567    0.005616654   -0.017812848
     19        8          -0.005793560   -0.009198406    0.034414771
     20        6           0.008979368   -0.002078013   -0.007037182
     21        8          -0.004740185    0.004961655    0.005176384
     22        6          -0.003868475   -0.011291519    0.007839334
     23        6           0.006993943    0.009931981    0.011057844
     24        8          -0.008701495   -0.008788682   -0.009683400
     25        6           0.004003466    0.018171396    0.007409050
     26        6          -0.001553468    0.000350387    0.000799922
     27        6          -0.003187067   -0.011164751   -0.003049798
     28        6          -0.001849655    0.008335674    0.002226312
     29        6          -0.009484685   -0.000375806   -0.006218075
     30        1          -0.003600098    0.002638593    0.000982457
     31        1          -0.001486996    0.004984690    0.000562992
     32        6          -0.002557690   -0.000509568    0.000115352
     33        1           0.000851431   -0.001059941   -0.000152933
     34        1           0.000367404    0.004553890   -0.000222359
     35        1          -0.002031918    0.006142921    0.000349598
     36        1           0.001062303   -0.002415083    0.001056748
     37        1           0.000088688    0.000247593    0.003850622
     38        1          -0.000757204    0.001607552    0.002718304
     39        1           0.000848420    0.000102072   -0.001090968
     40        1          -0.000880896    0.000404450    0.001192447
     41        1           0.000424372   -0.000654224   -0.001040422
     42        1          -0.002326256   -0.001877888   -0.001161855
     43        1           0.000081070   -0.000207729    0.001667058
     44        1          -0.003787154    0.001126324   -0.000609650
     45        1           0.000386547    0.000998833   -0.005980934
     46        1           0.001315073    0.005809569   -0.004371440
     47        1           0.002640129   -0.000892251    0.000369059
     48        1          -0.002895085   -0.002755696   -0.000850354
     49        1          -0.003779268   -0.002008702    0.000669576
     50        1           0.002567444   -0.000626170   -0.001499138
     51        1           0.001183140    0.000993906   -0.002303810
     52        1          -0.000281047   -0.001047208    0.000675560
     53        1           0.000834975   -0.004714350    0.003264482
     54        1           0.000297731   -0.003239711   -0.002391643
     55        1           0.000067950   -0.000807719   -0.000389440
     56        1           0.000064340    0.000654699    0.001341615
     57        1           0.002148846    0.001468943    0.001600117
     58        1           0.001707481   -0.002015124    0.002325110
     59        1          -0.000607758    0.000783873   -0.000349014
     60        1           0.004166609   -0.001567001   -0.000214796
     61        1           0.004122287   -0.001154067    0.000037131
     62        6           0.000083892   -0.000866251   -0.005353171
     63        1           0.000974080   -0.000222358    0.000036702
     64        1           0.001315080   -0.001036026   -0.000283121
     65        1           0.000507527   -0.000658617   -0.001862429
 -------------------------------------------------------------------
 Cartesian Forces:  Max     0.034414771 RMS     0.006746917

 GradGradGradGradGradGradGradGradGradGradGradGradGradGradGradGradGradGrad
 Berny optimization.
 Internal  Forces:  Max     0.017684621 RMS     0.003425635
 Search for a local minimum.
 Step number   1 out of a maximum of  390
 All quantities printed in internal units (Hartrees-Bohrs-Radians)
 Mixed Optimization -- RFO/linear search
 Second derivative matrix not updated -- first step.
 ITU=  0
     Eigenvalues ---    0.00273   0.00289   0.00354   0.00391   0.00423
     Eigenvalues ---    0.00460   0.00500   0.00544   0.00565   0.00607
     Eigenvalues ---    0.00668   0.00672   0.00689   0.00748   0.00834
     Eigenvalues ---    0.01065   0.01119   0.01182   0.01261   0.01498
     Eigenvalues ---    0.01549   0.01699   0.01726   0.01813   0.02061
     Eigenvalues ---    0.02574   0.02810   0.02815   0.03153   0.03217
     Eigenvalues ---    0.03538   0.03673   0.03891   0.04091   0.04160
     Eigenvalues ---    0.04303   0.04392   0.04476   0.04628   0.04713
     Eigenvalues ---    0.04788   0.04840   0.04989   0.05102   0.05284
     Eigenvalues ---    0.05299   0.05334   0.05409   0.05499   0.05503
     Eigenvalues ---    0.05526   0.05555   0.05568   0.05572   0.05600
     Eigenvalues ---    0.05646   0.05696   0.05831   0.05948   0.06183
     Eigenvalues ---    0.06599   0.06914   0.07039   0.07093   0.07162
     Eigenvalues ---    0.07204   0.07313   0.07326   0.07497   0.08043
     Eigenvalues ---    0.08281   0.08347   0.08467   0.08983   0.09548
     Eigenvalues ---    0.09644   0.10358   0.11519   0.11756   0.12208
     Eigenvalues ---    0.12671   0.13308   0.14403   0.15313   0.15997
     Eigenvalues ---    0.16000   0.16000   0.16000   0.16000   0.16000
     Eigenvalues ---    0.16000   0.16000   0.16000   0.16000   0.16000
     Eigenvalues ---    0.16000   0.16000   0.16000   0.16000   0.16000
     Eigenvalues ---    0.16000   0.16000   0.16000   0.16000   0.16000
     Eigenvalues ---    0.16347   0.16350   0.16832   0.17696   0.18131
     Eigenvalues ---    0.19380   0.20702   0.21917   0.22014   0.22720
     Eigenvalues ---    0.23103   0.24648   0.24891   0.24904   0.24936
     Eigenvalues ---    0.24969   0.24980   0.25000   0.26071   0.26569
     Eigenvalues ---    0.26929   0.27425   0.27976   0.28294   0.28585
     Eigenvalues ---    0.28763   0.28826   0.28871   0.29322   0.29574
     Eigenvalues ---    0.29801   0.30070   0.30184   0.30316   0.30358
     Eigenvalues ---    0.31475   0.31612   0.32233   0.32843   0.33766
     Eigenvalues ---    0.33863   0.33892   0.33952   0.33969   0.34007
     Eigenvalues ---    0.34018   0.34038   0.34042   0.34073   0.34080
     Eigenvalues ---    0.34138   0.34154   0.34160   0.34179   0.34187
     Eigenvalues ---    0.34230   0.34231   0.34246   0.34262   0.34273
     Eigenvalues ---    0.34277   0.34277   0.34283   0.34287   0.34297
     Eigenvalues ---    0.34328   0.34358   0.34459   0.34472   0.34873
     Eigenvalues ---    0.35089   0.35250   0.35589   0.35590   0.36475
     Eigenvalues ---    0.37231   0.41269   0.44675   0.50709   0.53143
     Eigenvalues ---    0.53983   0.56001   0.90508   0.91987
 RFO step:  Lambda=-2.36683368D-02 EMin= 2.73093023D-03
 Linear search not attempted -- first point.
 Iteration  1 RMS(Cart)=  0.09002236 RMS(Int)=  0.00206091
 Iteration  2 RMS(Cart)=  0.00384682 RMS(Int)=  0.00026105
 Iteration  3 RMS(Cart)=  0.00000782 RMS(Int)=  0.00026102
 Iteration  4 RMS(Cart)=  0.00000000 RMS(Int)=  0.00026102
 Variable       Old X    -DE/DX   Delta X   Delta X   Delta X     New X
                                 (Linear)    (Quad)   (Total)
    R1        2.53582  -0.00343   0.00000  -0.00626  -0.00637   2.52945
    R2        2.82997   0.00749   0.00000   0.02202   0.02183   2.85180
    R3        2.05531   0.00048   0.00000   0.00128   0.00128   2.05659
    R4        2.85203   0.00427   0.00000   0.01116   0.01122   2.86325
    R5        2.83720   0.00482   0.00000   0.01392   0.01392   2.85112
    R6        2.94756   0.00585   0.00000   0.01256   0.01261   2.96017
    R7        2.90604   0.00954   0.00000   0.03166   0.03159   2.93763
    R8        2.07727  -0.00174   0.00000  -0.00481  -0.00481   2.07246
    R9        2.91056   0.00964   0.00000   0.02881   0.02878   2.93934
   R10        2.93717   0.00908   0.00000   0.03401   0.03388   2.97105
   R11        2.75962  -0.00584   0.00000  -0.01485  -0.01487   2.74475
   R12        2.91964   0.00363   0.00000   0.01346   0.01341   2.93305
   R13        2.90199   0.00655   0.00000   0.01456   0.01417   2.91616
   R14        2.88675   0.00323   0.00000   0.00974   0.00959   2.89634
   R15        2.07562  -0.00132   0.00000  -0.00363  -0.00363   2.07198
   R16        2.07265   0.00177   0.00000   0.00486   0.00486   2.07751
   R17        2.81485   0.01090   0.00000   0.02480   0.02456   2.83941
   R18        2.86239   0.01537   0.00000   0.05305   0.05260   2.91499
   R19        2.68160   0.00283   0.00000   0.00731   0.00711   2.68871
   R20        2.52732   0.01382   0.00000   0.02455   0.02473   2.55206
   R21        2.61881  -0.01768   0.00000  -0.04053  -0.04029   2.57852
   R22        2.80373   0.00384   0.00000   0.00707   0.00725   2.81097
   R23        2.79182   0.01472   0.00000   0.03953   0.03953   2.83135
   R24        2.32031  -0.00946   0.00000  -0.01003  -0.01003   2.31028
   R25        2.32700  -0.01447   0.00000  -0.01558  -0.01558   2.31142
   R26        2.88363  -0.00028   0.00000  -0.00087  -0.00087   2.88276
   R27        2.90272   0.00324   0.00000   0.01036   0.01036   2.91308
   R28        2.88822   0.00882   0.00000   0.02760   0.02760   2.91582
   R29        2.07098   0.00024   0.00000   0.00065   0.00065   2.07163
   R30        2.07258  -0.00048   0.00000  -0.00131  -0.00131   2.07128
   R31        2.07300   0.00094   0.00000   0.00258   0.00258   2.07558
   R32        2.87825   0.00792   0.00000   0.02441   0.02441   2.90266
   R33        2.06916   0.00042   0.00000   0.00114   0.00114   2.07031
   R34        2.07015   0.00080   0.00000   0.00218   0.00218   2.07233
   R35        2.07070  -0.00022   0.00000  -0.00060  -0.00060   2.07010
   R36        2.91423   0.00000   0.00000   0.01120   0.01135   2.92558
[...]
     54          1           0       -2.771316    2.028796    3.132799
     55          1           0       -1.336918    2.953186    3.621560
     56          1           0       -1.598277    4.486103    1.529572
     57          1           0       -3.076297    3.569677    1.184163
     58          1           0       -1.829056    3.733394   -0.062956
     59          1           0        3.658357    3.226736   -3.140782
     60          1           0        2.959029    4.152647   -1.800425
     61          1           0        4.328066    3.087177   -1.501795
     62          6           0       -5.159221    0.291799   -1.423588
     63          1           0       -4.372746    0.492744   -2.158753
     64          1           0       -5.113715    1.076034   -0.657468
     65          1           0       -6.123669    0.381226   -1.936595
 ---------------------------------------------------------------------
 Rotational constants (GHZ):      0.1958681      0.1386359      0.1173709

 **********************************************************************

            Population analysis using the SCF density.

 **********************************************************************

 Orbital symmetries:
       Occupied  (A) (A) (A) (A) (A) (A) (A) (A) (A) (A) (A) (A)
                 (A) (A) (A) (A) (A) (A) (A) (A) (A) (A) (A) (A)
                 (A) (A) (A) (A) (A) (A) (A) (A) (A) (A) (A) (A)
                 (A) (A) (A) (A) (A) (A) (A) (A) (A) (A) (A) (A)
                 (A) (A) (A) (A) (A) (A) (A) (A) (A) (A) (A) (A)
                 (A) (A) (A) (A) (A) (A) (A) (A) (A) (A) (A) (A)
                 (A) (A) (A) (A) (A) (A) (A) (A) (A) (A) (A) (A)
                 (A) (A) (A) (A) (A) (A) (A) (A) (A) (A) (A) (A)
                 (A) (A) (A) (A) (A) (A) (A) (A) (A) (A) (A) (A)
                 (A) (A) (A) (A) (A) (A) (A)
       Virtual   (A) (A) (A) (A) (A) (A) (A) (A) (A) (A) (A) (A)
                 (A) (A) (A) (A) (A) (A) (A) (A) (A) (A) (A) (A)
                 (A) (A) (A) (A) (A) (A) (A) (A) (A) (A) (A) (A)
                 (A) (A) (A) (A) (A) (A) (A) (A) (A) (A) (A) (A)
                 (A) (A) (A) (A) (A) (A) (A) (A) (A) (A) (A) (A)
                 (A) (A) (A) (A) (A) (A) (A) (A) (A) (A) (A) (A)
                 (A) (A) (A) (A) (A) (A) (A) (A) (A) (A) (A) (A)
                 (A) (A) (A) (A) (A) (A) (A) (A) (A) (A) (A) (A)
                 (A) (A) (A) (A) (A) (A) (A) (A) (A) (A) (A) (A)
                 (A) (A) (A) (A) (A) (A) (A) (A) (A) (A) (A) (A)
                 (A) (A) (A) (A) (A) (A) (A) (A) (A) (A) (A) (A)
                 (A) (A) (A) (A) (A) (A) (A) (A) (A) (A) (A) (A)
                 (A) (A) (A) (A) (A) (A) (A) (A) (A) (A) (A) (A)
                 (A) (A) (A) (A) (A) (A) (A) (A) (A) (A) (A) (A)
                 (A) (A) (A) (A) (A) (A) (A) (A) (A) (A) (A) (A)
                 (A) (A) (A) (A) (A) (A) (A) (A) (A) (A) (A) (A)
                 (A) (A) (A) (A) (A) (A) (A) (A) (A) (A) (A) (A)
                 (A) (A) (A) (A) (A) (A) (A) (A) (A) (A) (A) (A)
                 (A) (A) (A) (A) (A) (A) (A) (A) (A) (A) (A) (A)
                 (A) (A) (A) (A) (A) (A) (A) (A) (A) (A) (A) (A)
                 (A) (A) (A) (A) (A) (A) (A) (A) (A) (A) (A) (A)
                 (A) (A) (A) (A) (A) (A) (A) (A) (A) (A) (A) (A)
                 (A) (A) (A) (A) (A) (A) (A) (A) (A) (A) (A) (A)
                 (A) (A) (A) (A) (A) (A) (A) (A) (A) (A) (A) (A)
                 (A) (A) (A) (A) (A) (A) (A) (A) (A) (A) (A) (A)
                 (A) (A) (A) (A) (A) (A) (A) (A) (A) (A) (A) (A)
                 (A) (A) (A) (A) (A) (A) (A) (A) (A) (A) (A) (A)
                 (A) (A) (A) (A) (A) (A) (A) (A) (A) (A) (A) (A)
                 (A) (A) (A) (A) (A) (A) (A) (A) (A) (A) (A) (A)
                 (A) (A) (A) (A) (A) (A) (A) (A) (A) (A) (A) (A)
                 (A) (A) (A) (A) (A) (A) (A) (A) (A) (A) (A) (A)
                 (A) (A) (A) (A) (A) (A) (A) (A) (A) (A) (A) (A)
                 (A) (A) (A) (A) (A) (A) (A) (A) (A) (A) (A) (A)
                 (A) (A) (A) (A) (A) (A) (A) (A) (A) (A) (A) (A)
                 (A) (A) (A) (A) (A) (A) (A) (A) (A) (A)
 The electronic state is 1-A.
 Alpha  occ. eigenvalues --  -19.19891 -19.16703 -19.14697 -19.13237 -19.12320
 Alpha  occ. eigenvalues --  -10.27125 -10.26941 -10.26835 -10.26236 -10.26159
 Alpha  occ. eigenvalues --  -10.25730 -10.24902 -10.21287 -10.20458 -10.20338
 Alpha  occ. eigenvalues --  -10.20193 -10.20020 -10.19790 -10.19601 -10.19312
 Alpha  occ. eigenvalues --  -10.18990 -10.18808 -10.18669 -10.18604 -10.18407
 Alpha  occ. eigenvalues --  -10.18032 -10.17835 -10.17669 -10.16965 -10.16806
 Alpha  occ. eigenvalues --  -10.16156  -1.09178  -1.05807  -1.03413  -1.02006
 Alpha  occ. eigenvalues --   -1.01957  -0.86930  -0.83879  -0.81997  -0.81147
 Alpha  occ. eigenvalues --   -0.79930  -0.79316  -0.76844  -0.74053  -0.73081
 Alpha  occ. eigenvalues --   -0.72252  -0.71540  -0.70232  -0.68683  -0.68090
 Alpha  occ. eigenvalues --   -0.64725  -0.64015  -0.63065  -0.61881  -0.60765
 Alpha  occ. eigenvalues --   -0.59114  -0.58696  -0.56575  -0.54549  -0.53755
 Alpha  occ. eigenvalues --   -0.52818  -0.51761  -0.50693  -0.49875  -0.48971
 Alpha  occ. eigenvalues --   -0.48301  -0.47405  -0.46991  -0.46736  -0.46091
 Alpha  occ. eigenvalues --   -0.44728  -0.44342  -0.44148  -0.43202  -0.42728
 Alpha  occ. eigenvalues --   -0.42410  -0.42303  -0.42056  -0.41680  -0.40970
 Alpha  occ. eigenvalues --   -0.40787  -0.40649  -0.40388  -0.40038  -0.39927
 Alpha  occ. eigenvalues --   -0.39212  -0.39063  -0.38707  -0.38365  -0.37846
 Alpha  occ. eigenvalues --   -0.37649  -0.37482  -0.37125  -0.36516  -0.35987
 Alpha  occ. eigenvalues --   -0.35705  -0.35455  -0.35247  -0.34626  -0.34515
 Alpha  occ. eigenvalues --   -0.34006  -0.33358  -0.32909  -0.32683  -0.32471
 Alpha  occ. eigenvalues --   -0.31552  -0.31259  -0.30823  -0.27353  -0.27218
 Alpha  occ. eigenvalues --   -0.25183  -0.24537  -0.24211  -0.23355  -0.22608
 Alpha virt. eigenvalues --   -0.04324  -0.01838   0.00981   0.01455   0.05372
 Alpha virt. eigenvalues --    0.07361   0.08534   0.08690   0.09995   0.10299
 Alpha virt. eigenvalues --    0.10689   0.10875   0.11147   0.12167   0.12600
 Alpha virt. eigenvalues --    0.13033   0.13269   0.13553   0.13977   0.14275
 Alpha virt. eigenvalues --    0.14501   0.15245   0.15333   0.15475   0.15694
 Alpha virt. eigenvalues --    0.16010   0.16589   0.16666   0.16901   0.17483
 Alpha virt. eigenvalues --    0.17837   0.18284   0.18604   0.18946   0.19294
 Alpha virt. eigenvalues --    0.19418   0.19686   0.19845   0.20013   0.20357
 Alpha virt. eigenvalues --    0.20774   0.21001   0.21222   0.21418   0.21911
 Alpha virt. eigenvalues --    0.22795   0.23582   0.23921   0.24459   0.24739
 Alpha virt. eigenvalues --    0.24885   0.25109   0.25797   0.26218   0.26636
 Alpha virt. eigenvalues --    0.26673   0.27302   0.27667   0.28151   0.29902
 Alpha virt. eigenvalues --    0.30908   0.31430   0.32229   0.33072   0.33772
 Alpha virt. eigenvalues --    0.34706   0.35634   0.37626   0.38026   0.39324
 Alpha virt. eigenvalues --    0.41983   0.43861   0.45535   0.47094   0.48228
 Alpha virt. eigenvalues --    0.49708   0.49965   0.50498   0.50651   0.51122
 Alpha virt. eigenvalues --    0.51649   0.52147   0.52915   0.53202   0.53233
 Alpha virt. eigenvalues --    0.54038   0.54254   0.54592   0.54917   0.56072
 Alpha virt. eigenvalues --    0.56973   0.57455   0.57605   0.58759   0.58942
 Alpha virt. eigenvalues --    0.59763   0.60144   0.60952   0.61481   0.62353
 Alpha virt. eigenvalues --    0.63061   0.63496   0.63952   0.64188   0.64995
 Alpha virt. eigenvalues --    0.65296   0.66300   0.66841   0.67153   0.67349
 Alpha virt. eigenvalues --    0.68013   0.68710   0.68900   0.69393   0.70390
 Alpha virt. eigenvalues --    0.70660   0.71045   0.72314   0.72679   0.73398
 Alpha virt. eigenvalues --    0.73987   0.74788   0.75106   0.76123   0.76486
 Alpha virt. eigenvalues --    0.77035   0.77300   0.77480   0.78267   0.78604
 Alpha virt. eigenvalues --    0.79716   0.80480   0.80778   0.81699   0.82385
 Alpha virt. eigenvalues --    0.82658   0.83981   0.84398   0.84686   0.84962
 Alpha virt. eigenvalues --    0.85493   0.85661   0.86091   0.86638   0.87060
 Alpha virt. eigenvalues --    0.87463   0.87577   0.88444   0.88753   0.89074
 Alpha virt. eigenvalues --    0.89150   0.89498   0.90168   0.90501   0.90648
 Alpha virt. eigenvalues --    0.91043   0.91266   0.91729   0.92054   0.92433
 Alpha virt. eigenvalues --    0.92710   0.92890   0.93342   0.93955   0.94245
 Alpha virt. eigenvalues --    0.94954   0.95662   0.95846   0.96457   0.96643
 Alpha virt. eigenvalues --    0.96926   0.97380   0.97683   0.98956   0.99592
 Alpha virt. eigenvalues --    1.00359   1.01122   1.01435   1.01906   1.03387
 Alpha virt. eigenvalues --    1.03678   1.05111   1.05790   1.08842   1.09269
 Alpha virt. eigenvalues --    1.10563   1.10602   1.11955   1.12003   1.13114
 Alpha virt. eigenvalues --    1.13901   1.14218   1.15202   1.15630   1.16219
 Alpha virt. eigenvalues --    1.17126   1.18161   1.19448   1.20411   1.22881
 Alpha virt. eigenvalues --    1.23580   1.24366   1.25318   1.26650   1.27935
 Alpha virt. eigenvalues --    1.28698   1.29945   1.31015   1.32077   1.33302
 Alpha virt. eigenvalues --    1.36391   1.36890   1.38303   1.38593   1.40803
 Alpha virt. eigenvalues --    1.41161   1.42040   1.43882   1.44632   1.46650
 Alpha virt. eigenvalues --    1.47557   1.48097   1.50149   1.51706   1.52164
 Alpha virt. eigenvalues --    1.53969   1.55025   1.55713   1.56472   1.57918
 Alpha virt. eigenvalues --    1.60164   1.61752   1.62242   1.62613   1.62962
 Alpha virt. eigenvalues --    1.64911   1.65620   1.67361   1.68284   1.69670
 Alpha virt. eigenvalues --    1.70846   1.72115   1.72572   1.72899   1.74350
 Alpha virt. eigenvalues --    1.75298   1.75393   1.76377   1.76808   1.77809
 Alpha virt. eigenvalues --    1.78861   1.79139   1.80027   1.80957   1.81891
 Alpha virt. eigenvalues --    1.82431   1.83562   1.84066   1.84695   1.85114
 Alpha virt. eigenvalues --    1.86342   1.86644   1.87132   1.87626   1.88745
 Alpha virt. eigenvalues --    1.89032   1.89735   1.90187   1.90692   1.92109
 Alpha virt. eigenvalues --    1.92253   1.92461   1.93735   1.94117   1.94821
 Alpha virt. eigenvalues --    1.95043   1.95599   1.96652   1.97352   1.97544
 Alpha virt. eigenvalues --    1.98836   1.99088   1.99865   2.00777   2.00989
 Alpha virt. eigenvalues --    2.01839   2.02798   2.03053   2.03756   2.05268
 Alpha virt. eigenvalues --    2.06432   2.06754   2.07563   2.07785   2.08872
 Alpha virt. eigenvalues --    2.09950   2.10883   2.11636   2.12132   2.12457
 Alpha virt. eigenvalues --    2.13637   2.14205   2.16416   2.17190   2.17687
 Alpha virt. eigenvalues --    2.18299   2.20109   2.21277   2.21444   2.22111
 Alpha virt. eigenvalues --    2.22758   2.23995   2.25267   2.26195   2.26805
 Alpha virt. eigenvalues --    2.27744   2.28746   2.29220   2.30024   2.30569
 Alpha virt. eigenvalues --    2.31996   2.32583   2.33369   2.33686   2.34824
 Alpha virt. eigenvalues --    2.35368   2.36340   2.37579   2.37956   2.39184
 Alpha virt. eigenvalues --    2.40065   2.40969   2.42002   2.42367   2.43133
 Alpha virt. eigenvalues --    2.44333   2.44865   2.45757   2.47279   2.47956
 Alpha virt. eigenvalues --    2.49156   2.50197   2.51421   2.53289   2.54595
 Alpha virt. eigenvalues --    2.55005   2.55627   2.57023   2.58420   2.60931
 Alpha virt. eigenvalues --    2.61821   2.63274   2.64072   2.64408   2.66029
 Alpha virt. eigenvalues --    2.67730   2.68115   2.68263   2.69176   2.70755
 Alpha virt. eigenvalues --    2.72544   2.74398   2.75081   2.76101   2.77394
 Alpha virt. eigenvalues --    2.78252   2.78972   2.79796   2.80926   2.83803
 Alpha virt. eigenvalues --    2.86725   2.88316   2.90965   2.95644   2.96192
 Alpha virt. eigenvalues --    2.97339   2.98061   2.99721   3.01238   3.02489
 Alpha virt. eigenvalues --    3.04668   3.06973   3.10404   3.14644   3.17821
 Alpha virt. eigenvalues --    3.25060   3.26138   4.03485   4.09563   4.12047
 Alpha virt. eigenvalues --    4.12862   4.14786   4.16467   4.19445   4.20717
 Alpha virt. eigenvalues --    4.21307   4.24808   4.27087   4.28606   4.30082
 Alpha virt. eigenvalues --    4.32360   4.34175   4.36540   4.39164   4.42509
 Alpha virt. eigenvalues --    4.47119   4.48132   4.52161   4.56374   4.60541
 Alpha virt. eigenvalues --    4.65373   4.67168   4.69051   4.73359   4.76316
 Alpha virt. eigenvalues --    4.88463   4.92500   5.22749
          Condensed to atoms (all electrons):
 Mulliken atomic charges:
              1
     1  C   -0.197995
     2  C    0.204363
     3  C   -0.200886
     4  C    0.315337
     5  C   -0.054779
     6  C   -0.321315
     7  C    0.207870
     8  C    0.398678
     9  C   -0.092689
    10  C    0.414702
    11  C    0.428791
    12  O   -0.467227
    13  C   -0.165223
    14  C   -0.243450
    15  C   -0.455780
    16  O   -0.476678
    17  C   -0.154760
    18  C    0.296901
    19  O   -0.532963
    20  C   -0.308524
    21  O   -0.678387
    22  C   -0.332988
    23  C    0.086669
    24  O   -0.583443
    25  C    0.200260
    26  C   -0.537774
    27  C   -0.410402
    28  C   -0.466882
    29  C   -0.461434
    30  H    0.147658
    31  H    0.150726
    32  C   -0.521009
    33  H    0.125529
    34  H    0.167253
    35  H    0.171302
    36  H    0.147432
    37  H    0.154506
    38  H    0.122356
    39  H    0.145710
    40  H    0.159795
    41  H    0.162064
    42  H    0.150976
    43  H    0.159778
    44  H    0.433755
    45  H    0.150513
    46  H    0.189082
    47  H    0.154147
    48  H    0.204499
    49  H    0.150526
    50  H    0.153588
    51  H    0.146758
    52  H    0.142056
    53  H    0.196509
    54  H    0.155213
    55  H    0.145463
    56  H    0.152178
    57  H    0.163233
    58  H    0.161856
    59  H    0.157565
    60  H    0.154149
    61  H    0.157252
    62  C   -0.452412
    63  H    0.156444
    64  H    0.134682
    65  H    0.138878
 Sum of Mulliken atomic charges =   0.00000
 Mulliken charges with hydrogens summed into heavy atoms:
              1
     1  C   -0.072466
     2  C    0.204363
     3  C   -0.050160
     4  C    0.315337
     5  C   -0.054779
     6  C    0.017240
     7  C    0.207870
     8  C    0.398678
     9  C   -0.092689
    10  C    0.414702
    11  C    0.428791
    12  O   -0.467227
    13  C   -0.017791
    14  C    0.033412
    15  C    0.011789
    16  O   -0.476678
    17  C   -0.007102
    18  C    0.296901
    19  O   -0.532963
    20  C    0.002230
    21  O   -0.244632
    22  C    0.006607
    23  C    0.240815
    24  O   -0.583443
    25  C    0.200260
    26  C   -0.029161
    27  C   -0.121588
    28  C    0.030304
    29  C    0.015833
    32  C   -0.052043
    62  C   -0.022408
 Sum of Mulliken charges with hydrogens summed into heavy atoms =   0.00000
 Electronic spatial extent (au):  <R**2>=          11119.2934
 Charge=              0.0000 electrons
 Dipole moment (field-independent basis, Debye):
    X=              2.7176    Y=              4.8016    Z=              1.8254  Tot=              5.8114
 Quadrupole moment (field-independent basis, Debye-Ang):
   XX=           -179.3998   YY=           -179.3539   ZZ=           -187.3908
   XY=             -5.2853   XZ=            -10.2186   YZ=             -3.6120
 Traceless Quadrupole moment (field-independent basis, Debye-Ang):
   XX=              2.6483   YY=              2.6943   ZZ=             -5.3426
   XY=             -5.2853   XZ=            -10.2186   YZ=             -3.6120
 Octapole moment (field-independent basis, Debye-Ang**2):
  XXX=              1.5698  YYY=             32.9293  ZZZ=             10.5828  XYY=             15.8213
  XXY=             -6.1815  XXZ=              9.9948  XZZ=             20.5512  YZZ=             16.6493
  YYZ=             34.7558  XYZ=              2.4441
 Hexadecapole moment (field-independent basis, Debye-Ang**3):
 XXXX=          -7489.8276 YYYY=          -4564.8695 ZZZZ=          -2742.8674 XXXY=             14.3754
 XXXZ=            -75.5531 YYYX=            -40.6370 YYYZ=              6.3021 ZZZX=            -35.7405
 ZZZY=             -1.6533 XXYY=          -1973.4616 XXZZ=          -1730.8801 YYZZ=          -1220.0049
 XXYZ=             -5.6722 YYXZ=            -22.5092 ZZXY=            -36.4352
 N-N= 3.533609783114D+03 E-N=-1.029360024390D+04  KE= 1.374462562457D+03
 1\1\GINC-B0606\FOpt\RB3LYP\6-31G(d)\C26H34O5\CAOFEI\24-Mar-2021\0\\# o
 pt rb3lyp/6-31g(d) geom=connectivity\\Title Card Required\\0,1\C,0.037
 2434781,-0.0325700114,-0.0499997641\C,1.3755284413,-0.0342730983,-0.03
 21371057\C,2.1322226632,1.2743513156,-0.0306565587\C,1.4112927198,2.48
 18725222,0.6493849048\C,-0.1279844634,2.3468341311,0.8560414261\C,-0.7
 745896316,1.235326264,-0.0257071108\C,1.8362414732,3.7209435147,-0.222
 5431752\C,0.7365194093,4.1978506718,-1.1577359514\C,-0.5652107313,4.28
 2499453,-0.7907723916\C,-0.9090410377,3.6457017222,0.5067669168\C,-1.6
 797790978,4.8311645369,-1.6307504281\O,-2.7531683144,4.2497504448,-1.6
 63808555\C,-1.4654701304,6.1612328924,-2.356852819\C,-2.3230792861,6.2
 685222053,-3.6271997923\C,-1.7966076359,7.2847124748,-1.3476508549\O,-
 1.8332631023,4.0286207772,1.2053194041\C,2.8920868964,3.2484346911,-1.
 2458806295\C,2.6877583782,4.20913417,-2.4384979664\O,1.2367839826,4.53
 10652133,-2.3566827717\C,2.5139714036,1.7704881333,-1.4499450076\O,2.2
 265018147,4.8236973256,0.5635743774\C,-0.2571312833,1.9941652981,2.346
 693404\C,0.9891981836,2.5826225725,3.0204624312\O,1.9770311644,2.66290
 61333,1.9629007244\C,0.848882685,3.9169355495,3.7579769935\C,-0.480438
 7749,4.2295075149,4.398375021\C,1.907023172,4.722430985,3.9028465927\C
 ,3.4590312766,5.5200113189,-2.26647327\C,2.9080956518,3.6149177439,-3.
 8257900816\H,3.900439638,3.3419407562,-0.8317806493\H,3.0640554424,1.1
 525086009,0.53710159\C,2.1948001473,-1.2979744884,-0.0621045914\H,-0.5
 047819475,-0.9762802725,-0.0903591413\H,-1.7804598546,1.0423474235,0.3
 641912204\H,-0.9271128647,1.6129047796,-1.0462829002\H,-0.4063357765,6
 .246471119,-2.6239667524\H,-3.3728577808,6.1090787984,-3.355708604\H,-
 2.2437523481,7.2958095112,-4.0078414035\H,-1.6043296021,8.264865044,-1
 .7984796877\H,-1.1901965162,7.2024269497,-0.4391961801\H,-2.8516220309
 ,7.240005765,-1.055532468\H,3.3209432906,1.1780184605,-1.8921497619\H,
 1.6455427412,1.677994375,-2.1134897306\H,2.3018891836,4.4787814578,1.4
 763078249\H,-0.2436900158,0.9067539266,2.4613545537\H,-1.1992073115,2.
 3732572683,2.7429325271\H,1.3892019434,1.8611800912,3.7458363492\H,-1.
 2529014398,4.4057571465,3.6410956485\H,-0.828121172,3.3970505402,5.025
 7096316\H,-0.4060917539,5.1181491986,5.0319482719\H,2.8824457488,4.477
 8164381,3.4905041686\H,1.8370577875,5.6528773395,4.4594852049\H,3.2888
 585452,5.9442398797,-1.2743367409\H,3.1434200807,6.2429142479,-3.02589
 22684\H,4.5333704135,5.3410439795,-2.3890630039\H,3.9595643085,3.33326
 2331,-3.9492278904\H,2.661300873,4.3535703964,-4.5951133068\H,2.289253
 9225,2.7298250945,-3.9928268098\H,1.5600799757,-2.1887942996,-0.104780
 062\H,2.8668835851,-1.3214793048,-0.9311918411\H,2.8345246877,-1.37635
 58779,0.8279586717\C,-1.9217370731,5.281634157,-4.72884083\H,-2.058138
 8828,4.2465578877,-4.398081647\H,-0.8701078335,5.4089075206,-5.0150464
 744\H,-2.5325374153,5.4260772932,-5.6273908798\\Version=EM64L-G09RevB.
 01\State=1-A\HF=-1387.3181153\RMSD=5.381e-09\RMSF=1.510e-06\Dipole=2.0
 489756,-0.9977425,-0.183609\Quadrupole=-8.3426699,4.649798,3.6928718,0
 .1629621,-5.8023112,-2.466188\PG=C01 [X(C26H34O5)]\\@


 EDUCATION DOESN'T COST 
           ... IT PAYS!

 -- POSTMARK, UNIV. OF MISSISSIPPI, DEC 78
 Job cpu time:  0 days  5 hours 47 minutes 45.2 seconds.
 File lengths (MBytes):  RWF=    186 Int=      0 D2E=      0 Chk=     20 Scr=      1
 Normal termination of Gaussian 09 at Wed Mar 24 16:23:47 2021.
