 Entering Gaussian System, Link 0=g09
 Initial command:
 /public/software/g09/g09/l1.exe /tmp/Gau-22446.inp -scrdir=/tmp/
 Entering Link 1 = /public/software/g09/g09/l1.exe PID=     22447.
  
 Copyright (c) 1988,1990,1992,1993,1995,1998,2003,2009,2010,
            Gaussian, Inc.  All Rights Reserved.
  
 This is part of the Gaussian(R) 09 program.  It is based on
 the Gaussian(R) 03 system (copyright 2003, Gaussian, Inc.),
 the Gaussian(R) 98 system (copyright 1998, Gaussian, Inc.),
 the Gaussian(R) 94 system (copyright 1995, Gaussian, Inc.),
 the Gaussian 92(TM) system (copyright 1992, Gaussian, Inc.),
 the Gaussian 90(TM) system (copyright 1990, Gaussian, Inc.),
 the Gaussian 88(TM) system (copyright 1988, Gaussian, Inc.),
 the Gaussian 86(TM) system (copyright 1986, Carnegie Mellon
 University), and the Gaussian 82(TM) system (copyright 1983,
 Carnegie Mellon University). Gaussian is a federally registered
 trademark of Gaussian, Inc.
  
 This software contains proprietary and confidential information,
 including trade secrets, belonging to Gaussian, Inc.
  
 This software is provided under written license and may be
 used, copied, transmitted, or stored only in accord with that
 written license.
  
 The following legend is applicable only to US Government
 contracts under FAR:
  
                    RESTRICTED RIGHTS LEGEND
  
 Use, reproduction and disclosure by the US Government is
 subject to restrictions as set forth in subparagraphs (a)
 and (c) of the Commercial Computer Software - Restricted
 Rights clause in FAR 52.227-19.
  
 Gaussian, Inc.
 340 Quinnipiac St., Bldg. 40, Wallingford CT 06492
  
  
 ---------------------------------------------------------------
 Warning -- This program may not be used in any manner that
 competes with the business of Gaussian, Inc. or will provide
 assistance to any competitor of Gaussian, Inc.  The licensee
 of this program is prohibited from giving any competitor of
 Gaussian, Inc. access to this program.  By using this program,
 the user acknowledges that Gaussian, Inc. is engaged in the
 business of creating and licensing software in the field of
 computational chemistry and represents and warrants to the
 licensee that it is not a competitor of Gaussian, Inc. and that
 it will not use this program in any manner prohibited above.
 ---------------------------------------------------------------
  

 Cite this work as:
 Gaussian 09, Revision B.01,
 M. J. Frisch, G. W. Trucks, H. B. Schlegel, G. E. Scuseria, 
 M. A. Robb, J. R. Cheeseman, G. Scalmani, V. Barone, B. Mennucci, 
 G. A. Petersson, H. Nakatsuji, M. Caricato, X. Li, H. P. Hratchian, 
 A. F. Izmaylov, J. Bloino, G. Zheng, J. L. Sonnenberg, M. Hada, 
 M. Ehara, K. Toyota, R. Fukuda, J. Hasegawa, M. Ishida, T. Nakajima, 
 Y. Honda, O. Kitao, H. Nakai, T. Vreven, J. A. Montgomery, Jr., 
 J. E. Peralta, F. Ogliaro, M. Bearpark, J. J. Heyd, E. Brothers, 
 K. N. Kudin, V. N. Staroverov, T. Keith, R. Kobayashi, J. Normand, 
 K. Raghavachari, A. Rendell, J. C. Burant, S. S. Iyengar, J. Tomasi, 
 M. Cossi, N. Rega, J. M. Millam, M. Klene, J. E. Knox, J. B. Cross, 
 V. Bakken, C. Adamo, J. Jaramillo, R. Gomperts, R. E. Stratmann, 
 O. Yazyev, A. J. Austin, R. Cammi, C. Pomelli, J. W. Ochterski, 
 R. L. Martin, K. Morokuma, V. G. Zakrzewski, G. A. Voth, 
 P. Salvador, J. J. Dannenberg, S. Dapprich, A. D. Daniels, 
 O. Farkas, J. B. Foresman, J. V. Ortiz, J. Cioslowski, 
 and D. J. Fox, Gaussian, Inc., Wallingford CT, 2010.
 
 ******************************************
 Gaussian 09:  EM64L-G09RevB.01 12-Aug-2010
                24-Mar-2021 
 ******************************************
 %mem=600MW
 %nprocshared=10
 Will use up to   10 processors via shared memory.
 ---------------------------------------
 # opt rb3lyp/6-31g(d) geom=connectivity
 ---------------------------------------
 1/14=-1,18=20,19=15,26=3,38=1,57=2/1,3;
 2/9=110,12=2,17=6,18=5,40=1/2;
 3/5=1,6=6,7=1,11=2,16=1,25=1,30=1,71=1,74=-5,116=1/1,2,3;
 4//1;
 5/5=2,38=5/2;
 6/7=2,8=2,9=2,10=2,28=1/1;
 7//1,2,3,16;
 1/14=-1,18=20,19=15/3(2);
 2/9=110/2;
 99//99;
 2/9=110/2;
 3/5=1,6=6,7=1,11=2,16=1,25=1,30=1,71=1,74=-5,116=1/1,2,3;
 4/5=5,16=3/1;
 5/5=2,38=5/2;
 7//1,2,3,16;
 1/14=-1,18=20,19=15/3(-5);
 2/9=110/2;
 6/7=2,8=2,9=2,10=2,19=2,28=1/1;
 99/9=1/99;
 -------------------
 Title Card Required
 -------------------
 Symbolic Z-matrix:
 Charge =  0 Multiplicity = 1
 C                     0.        0.        0. 
 C                     1.3407    0.        0. 
 C                     2.1186    1.2896    0. 
 C                     1.3803    2.5388    0.5689 
 C                    -0.1567    2.4403    0.7303 
 C                    -0.7995    1.2617   -0.0318 
 C                     1.8771    3.7061   -0.3123 
 C                     0.895     4.2135   -1.3091 
 C                    -0.4162    4.285    -1.0618 
 C                    -0.8856    3.6949    0.2126 
 C                    -1.3646    4.7309   -2.1032 
 O                    -1.8955    3.8742   -2.8146 
 C                    -1.7318    6.2108   -2.224 
 C                    -2.8584    6.604    -1.2572 
 C                    -0.5346    7.1448   -2.0458 
 O                    -1.8985    4.1377    0.7506 
 C                     2.9615    3.1765   -1.2303 
 C                     2.8428    4.0805   -2.4718 
 O                     1.4554    4.489    -2.5478 
 C                     2.5568    1.7077   -1.4089 
 O                     2.335     4.8023    0.4678 
 C                    -0.3622    2.2984    2.2516 
 C                     1.0302    2.1121    2.8274 
 O                     1.9063    2.7692    1.9084 
 C                     1.2288    2.6853    4.2079 
 C                     1.2589    4.1831    4.353 
 C                     1.3903    1.8869    5.2771 
 C                     3.6965    5.3526   -2.3477 
 C                     3.206     3.3746   -3.7809 
 H                     3.9615    3.2361   -0.7828 
 H                     3.0234    1.13      0.6055 
 C                     2.1366   -1.2736   -0.0232 
 H                    -0.5519   -0.9369   -0.0338 
 H                    -1.7949    1.0584    0.3853 
 H                    -0.9737    1.5101   -1.0869 
 H                    -2.0867    6.3512   -3.2543 
 H                    -3.0729    7.6738   -1.3734 
 H                    -2.5407    6.4624   -0.2183 
 H                    -0.1294    7.1004   -1.0293 
 H                    -0.8238    8.1831   -2.242 
 H                     0.2691    6.8915   -2.7443 
 H                     1.7289    1.5915   -2.1193 
 H                     3.3956    1.105    -1.7735 
 H                     2.5522    4.4256    1.347 
 H                    -0.8388    3.1877    2.6772 
 H                    -1.0042    1.4541    2.5287 
 H                     1.2913    1.046     2.8209 
 H                     0.3298    4.6316    3.9898 
 H                     2.0946    4.6081    3.7883 
 H                     1.3817    4.49      5.3974 
 H                     1.5408    2.2941    6.2725 
 H                     1.3773    0.8049    5.188 
 H                     3.4061    5.9625   -1.4873 
 H                     4.7607    5.111    -2.2591 
 H                     3.5603    5.9957   -3.2253 
 H                     2.5103    2.5614   -4.0112 
 H                     4.2237    2.9725   -3.7497 
 H                     3.1352    4.0678   -4.6275 
 H                     1.4937   -2.1601   -0.0352 
 H                     2.772    -1.3112   -0.9136 
 H                     2.7748   -1.3378    0.864 
 C                    -4.1527    5.8375   -1.4932 
 H                    -4.9402    6.2204   -0.8361 
 H                    -4.4919    5.9488   -2.528 
 H                    -4.0337    4.7712   -1.2799 
 

 GradGradGradGradGradGradGradGradGradGradGradGradGradGradGradGradGradGrad
 Berny optimization.
 Initialization pass.
                           ----------------------------
                           !    Initial Parameters    !
                           ! (Angstroms and Degrees)  !
 --------------------------                            --------------------------
 ! Name  Definition              Value          Derivative Info.                !
 --------------------------------------------------------------------------------
 ! R1    R(1,2)                  1.3407         estimate D2E/DX2                !
 ! R2    R(1,6)                  1.494          estimate D2E/DX2                !
 ! R3    R(1,33)                 1.0879         estimate D2E/DX2                !
 ! R4    R(2,3)                  1.5061         estimate D2E/DX2                !
 ! R5    R(2,32)                 1.502          estimate D2E/DX2                !
 ! R6    R(3,4)                  1.5586         estimate D2E/DX2                !
 ! R7    R(3,20)                 1.5336         estimate D2E/DX2                !
 ! R8    R(3,31)                 1.1003         estimate D2E/DX2                !
 ! R9    R(4,5)                  1.5486         estimate D2E/DX2                !
 ! R10   R(4,7)                  1.5446         estimate D2E/DX2                !
 ! R11   R(4,24)                 1.4574         estimate D2E/DX2                !
 ! R12   R(5,6)                  1.5437         estimate D2E/DX2                !
 ! R13   R(5,10)                 1.5406         estimate D2E/DX2                !
 ! R14   R(5,22)                 1.5417         estimate D2E/DX2                !
 ! R15   R(6,34)                 1.0982         estimate D2E/DX2                !
 ! R16   R(6,35)                 1.0979         estimate D2E/DX2                !
 ! R17   R(7,8)                  1.4885         estimate D2E/DX2                !
 ! R18   R(7,17)                 1.5163         estimate D2E/DX2                !
 ! R19   R(7,21)                 1.4212         estimate D2E/DX2                !
 ! R20   R(8,9)                  1.3362         estimate D2E/DX2                !
 ! R21   R(8,19)                 1.3872         estimate D2E/DX2                !
 ! R22   R(9,10)                 1.4808         estimate D2E/DX2                !
 ! R23   R(9,11)                 1.4774         estimate D2E/DX2                !
 ! R24   R(10,16)                1.2294         estimate D2E/DX2                !
 ! R25   R(11,12)                1.2336         estimate D2E/DX2                !
 ! R26   R(11,13)                1.5296         estimate D2E/DX2                !
 ! R27   R(13,14)                1.5358         estimate D2E/DX2                !
 ! R28   R(13,15)                1.5289         estimate D2E/DX2                !
 ! R29   R(13,36)                1.0987         estimate D2E/DX2                !
 ! R30   R(14,37)                1.0973         estimate D2E/DX2                !
 ! R31   R(14,38)                1.0956         estimate D2E/DX2                !
 ! R32   R(14,62)                1.5226         estimate D2E/DX2                !
 ! R33   R(15,39)                1.0952         estimate D2E/DX2                !
 ! R34   R(15,40)                1.0955         estimate D2E/DX2                !
 ! R35   R(15,41)                1.0945         estimate D2E/DX2                !
 ! R36   R(17,18)                1.5403         estimate D2E/DX2                !
 ! R37   R(17,20)                1.534          estimate D2E/DX2                !
 ! R38   R(17,30)                1.0972         estimate D2E/DX2                !
 ! R39   R(18,19)                1.4483         estimate D2E/DX2                !
 ! R40   R(18,28)                1.537          estimate D2E/DX2                !
 ! R41   R(18,29)                1.531          estimate D2E/DX2                !
 ! R42   R(20,42)                1.0971         estimate D2E/DX2                !
 ! R43   R(20,43)                1.0953         estimate D2E/DX2                !
 ! R44   R(21,44)                0.9809         estimate D2E/DX2                !
 ! R45   R(22,23)                1.5182         estimate D2E/DX2                !
 ! R46   R(22,45)                1.0951         estimate D2E/DX2                !
 ! R47   R(22,46)                1.0963         estimate D2E/DX2                !
 ! R48   R(23,24)                1.4296         estimate D2E/DX2                !
 ! R49   R(23,25)                1.5079         estimate D2E/DX2                !
 ! R50   R(23,47)                1.0976         estimate D2E/DX2                !
 ! R51   R(24,44)                1.8644         estimate D2E/DX2                !
 ! R52   R(25,26)                1.5051         estimate D2E/DX2                !
 ! R53   R(25,27)                1.3441         estimate D2E/DX2                !
 ! R54   R(26,48)                1.0938         estimate D2E/DX2                !
 ! R55   R(26,49)                1.0945         estimate D2E/DX2                !
 ! R56   R(26,50)                1.0955         estimate D2E/DX2                !
 ! R57   R(27,51)                1.0859         estimate D2E/DX2                !
 ! R58   R(27,52)                1.0857         estimate D2E/DX2                !
 ! R59   R(28,53)                1.0939         estimate D2E/DX2                !
 ! R60   R(28,54)                1.0949         estimate D2E/DX2                !
 ! R61   R(28,55)                1.0965         estimate D2E/DX2                !
 ! R62   R(29,56)                1.0947         estimate D2E/DX2                !
 ! R63   R(29,57)                1.0947         estimate D2E/DX2                !
 ! R64   R(29,58)                1.0965         estimate D2E/DX2                !
 ! R65   R(32,59)                1.0951         estimate D2E/DX2                !
 ! R66   R(32,60)                1.0945         estimate D2E/DX2                !
 ! R67   R(32,61)                1.0948         estimate D2E/DX2                !
 ! R68   R(62,63)                1.0948         estimate D2E/DX2                !
 ! R69   R(62,64)                1.0946         estimate D2E/DX2                !
 ! R70   R(62,65)                1.0939         estimate D2E/DX2                !
 ! A1    A(2,1,6)              122.3529         estimate D2E/DX2                !
 ! A2    A(2,1,33)             120.4848         estimate D2E/DX2                !
 ! A3    A(6,1,33)             117.0744         estimate D2E/DX2                !
 ! A4    A(1,2,3)              121.0988         estimate D2E/DX2                !
 ! A5    A(1,2,32)             121.9979         estimate D2E/DX2                !
 ! A6    A(3,2,32)             116.8956         estimate D2E/DX2                !
 ! A7    A(2,3,4)              116.2077         estimate D2E/DX2                !
 ! A8    A(2,3,20)             112.398          estimate D2E/DX2                !
 ! A9    A(2,3,31)             107.4891         estimate D2E/DX2                !
 ! A10   A(4,3,20)             104.6063         estimate D2E/DX2                !
 ! A11   A(4,3,31)             107.7526         estimate D2E/DX2                !
 ! A12   A(20,3,31)            108.0672         estimate D2E/DX2                !
 ! A13   A(3,4,5)              117.2074         estimate D2E/DX2                !
 ! A14   A(3,4,7)              104.1882         estimate D2E/DX2                !
 ! A15   A(3,4,24)             106.9311         estimate D2E/DX2                !
 ! A16   A(5,4,7)              115.2614         estimate D2E/DX2                !
 ! A17   A(5,4,24)             105.8118         estimate D2E/DX2                !
 ! A18   A(7,4,24)             106.7853         estimate D2E/DX2                !
 ! A19   A(4,5,6)              114.2293         estimate D2E/DX2                !
 ! A20   A(4,5,10)             112.5057         estimate D2E/DX2                !
 ! A21   A(4,5,22)             103.9457         estimate D2E/DX2                !
 ! A22   A(6,5,10)             105.0018         estimate D2E/DX2                !
 ! A23   A(6,5,22)             111.1849         estimate D2E/DX2                !
 ! A24   A(10,5,22)            110.0901         estimate D2E/DX2                !
 ! A25   A(1,6,5)              114.2942         estimate D2E/DX2                !
 ! A26   A(1,6,34)             108.6999         estimate D2E/DX2                !
 ! A27   A(1,6,35)             107.2441         estimate D2E/DX2                !
 ! A28   A(5,6,34)             109.3442         estimate D2E/DX2                !
 ! A29   A(5,6,35)             111.5786         estimate D2E/DX2                !
 ! A30   A(34,6,35)            105.2522         estimate D2E/DX2                !
 ! A31   A(4,7,8)              115.3053         estimate D2E/DX2                !
 ! A32   A(4,7,17)             108.1471         estimate D2E/DX2                !
 ! A33   A(4,7,21)             111.9237         estimate D2E/DX2                !
 ! A34   A(8,7,17)             100.6897         estimate D2E/DX2                !
 ! A35   A(8,7,21)             108.4956         estimate D2E/DX2                !
 ! A36   A(17,7,21)            111.7954         estimate D2E/DX2                !
 ! A37   A(7,8,9)              122.8022         estimate D2E/DX2                !
 ! A38   A(7,8,19)             113.5245         estimate D2E/DX2                !
 ! A39   A(9,8,19)             123.4387         estimate D2E/DX2                !
 ! A40   A(8,9,10)             116.6807         estimate D2E/DX2                !
 ! A41   A(8,9,11)             121.0373         estimate D2E/DX2                !
 ! A42   A(10,9,11)            121.5622         estimate D2E/DX2                !
 ! A43   A(5,10,9)             117.6306         estimate D2E/DX2                !
 ! A44   A(5,10,16)            122.4165         estimate D2E/DX2                !
 ! A45   A(9,10,16)            119.6208         estimate D2E/DX2                !
 ! A46   A(9,11,12)            118.2382         estimate D2E/DX2                !
 ! A47   A(9,11,13)            120.1182         estimate D2E/DX2                !
 ! A48   A(12,11,13)           121.5367         estimate D2E/DX2                !
 ! A49   A(11,13,14)           111.9694         estimate D2E/DX2                !
 ! A50   A(11,13,15)           113.1965         estimate D2E/DX2                !
 ! A51   A(11,13,36)           105.9764         estimate D2E/DX2                !
 ! A52   A(14,13,15)           110.1608         estimate D2E/DX2                !
 ! A53   A(14,13,36)           108.7025         estimate D2E/DX2                !
 ! A54   A(15,13,36)           106.5095         estimate D2E/DX2                !
 ! A55   A(13,14,37)           109.0481         estimate D2E/DX2                !
 ! A56   A(13,14,38)           110.5572         estimate D2E/DX2                !
 ! A57   A(13,14,62)           113.3978         estimate D2E/DX2                !
 ! A58   A(37,14,38)           106.4465         estimate D2E/DX2                !
 ! A59   A(37,14,62)           107.9519         estimate D2E/DX2                !
 ! A60   A(38,14,62)           109.1722         estimate D2E/DX2                !
 ! A61   A(13,15,39)           111.9093         estimate D2E/DX2                !
 ! A62   A(13,15,40)           110.5735         estimate D2E/DX2                !
 ! A63   A(13,15,41)           111.0532         estimate D2E/DX2                !
 ! A64   A(39,15,40)           107.5967         estimate D2E/DX2                !
 ! A65   A(39,15,41)           108.1356         estimate D2E/DX2                !
 ! A66   A(40,15,41)           107.3903         estimate D2E/DX2                !
 ! A67   A(7,17,18)            103.172          estimate D2E/DX2                !
 ! A68   A(7,17,20)            102.4887         estimate D2E/DX2                !
 ! A69   A(7,17,30)            112.7008         estimate D2E/DX2                !
 ! A70   A(18,17,20)           116.6014         estimate D2E/DX2                !
 ! A71   A(18,17,30)           111.5363         estimate D2E/DX2                !
 ! A72   A(20,17,30)           109.8743         estimate D2E/DX2                !
 ! A73   A(17,18,19)           106.3589         estimate D2E/DX2                !
 ! A74   A(17,18,28)           112.2006         estimate D2E/DX2                !
 ! A75   A(17,18,29)           113.5968         estimate D2E/DX2                !
 ! A76   A(19,18,28)           107.63           estimate D2E/DX2                !
 ! A77   A(19,18,29)           108.2062         estimate D2E/DX2                !
 ! A78   A(28,18,29)           108.5949         estimate D2E/DX2                !
 ! A79   A(8,19,18)            106.5063         estimate D2E/DX2                !
 ! A80   A(3,20,17)            103.2659         estimate D2E/DX2                !
 ! A81   A(3,20,42)            110.5112         estimate D2E/DX2                !
 ! A82   A(3,20,43)            112.0001         estimate D2E/DX2                !
 ! A83   A(17,20,42)           112.0802         estimate D2E/DX2                !
 ! A84   A(17,20,43)           111.3206         estimate D2E/DX2                !
 ! A85   A(42,20,43)           107.7024         estimate D2E/DX2                !
 ! A86   A(7,21,44)            105.4935         estimate D2E/DX2                !
 ! A87   A(5,22,23)            105.2655         estimate D2E/DX2                !
 ! A88   A(5,22,45)            111.5178         estimate D2E/DX2                !
 ! A89   A(5,22,46)            113.477          estimate D2E/DX2                !
 ! A90   A(23,22,45)           110.5736         estimate D2E/DX2                !
 ! A91   A(23,22,46)           110.2868         estimate D2E/DX2                !
 ! A92   A(45,22,46)           105.8031         estimate D2E/DX2                !
 ! A93   A(22,23,24)           105.1784         estimate D2E/DX2                !
 ! A94   A(22,23,25)           114.9203         estimate D2E/DX2                !
 ! A95   A(22,23,47)           109.5786         estimate D2E/DX2                !
 ! A96   A(24,23,25)           109.4556         estimate D2E/DX2                !
 ! A97   A(24,23,47)           107.2681         estimate D2E/DX2                !
 ! A98   A(25,23,47)           110.0783         estimate D2E/DX2                !
 ! A99   A(4,24,23)            107.2762         estimate D2E/DX2                !
 ! A100  A(23,25,26)           117.9808         estimate D2E/DX2                !
 ! A101  A(23,25,27)           121.2167         estimate D2E/DX2                !
 ! A102  A(26,25,27)           120.7979         estimate D2E/DX2                !
 ! A103  A(25,26,48)           111.0427         estimate D2E/DX2                !
 ! A104  A(25,26,49)           110.6068         estimate D2E/DX2                !
 ! A105  A(25,26,50)           111.8975         estimate D2E/DX2                !
 ! A106  A(48,26,49)           108.545          estimate D2E/DX2                !
 ! A107  A(48,26,50)           107.2735         estimate D2E/DX2                !
 ! A108  A(49,26,50)           107.3086         estimate D2E/DX2                !
 ! A109  A(25,27,51)           121.5371         estimate D2E/DX2                !
 ! A110  A(25,27,52)           121.6832         estimate D2E/DX2                !
 ! A111  A(51,27,52)           116.7797         estimate D2E/DX2                !
 ! A112  A(18,28,53)           112.1793         estimate D2E/DX2                !
 ! A113  A(18,28,54)           111.3317         estimate D2E/DX2                !
 ! A114  A(18,28,55)           110.5974         estimate D2E/DX2                !
 ! A115  A(53,28,54)           108.507          estimate D2E/DX2                !
 ! A116  A(53,28,55)           105.6373         estimate D2E/DX2                !
 ! A117  A(54,28,55)           108.3561         estimate D2E/DX2                !
 ! A118  A(18,29,56)           111.8165         estimate D2E/DX2                !
 ! A119  A(18,29,57)           111.4404         estimate D2E/DX2                !
 ! A120  A(18,29,58)           110.6948         estimate D2E/DX2                !
 ! A121  A(56,29,57)           108.9023         estimate D2E/DX2                !
 ! A122  A(56,29,58)           105.4364         estimate D2E/DX2                !
 ! A123  A(57,29,58)           108.3157         estimate D2E/DX2                !
 ! A124  A(2,32,59)            112.0541         estimate D2E/DX2                !
 ! A125  A(2,32,60)            110.4452         estimate D2E/DX2                !
 ! A126  A(2,32,61)            110.2492         estimate D2E/DX2                !
 ! A127  A(59,32,60)           107.7026         estimate D2E/DX2                !
 ! A128  A(59,32,61)           107.6756         estimate D2E/DX2                !
 ! A129  A(60,32,61)           108.5921         estimate D2E/DX2                !
 ! A130  A(14,62,63)           110.0205         estimate D2E/DX2                !
 ! A131  A(14,62,64)           111.0227         estimate D2E/DX2                !
 ! A132  A(14,62,65)           111.5924         estimate D2E/DX2                !
 ! A133  A(63,62,64)           107.9952         estimate D2E/DX2                !
 ! A134  A(63,62,65)           107.586          estimate D2E/DX2                !
 ! A135  A(64,62,65)           108.4904         estimate D2E/DX2                !
 ! D1    D(6,1,2,3)              1.4438         estimate D2E/DX2                !
 ! D2    D(6,1,2,32)          -177.5126         estimate D2E/DX2                !
 ! D3    D(33,1,2,3)           177.9339         estimate D2E/DX2                !
 ! D4    D(33,1,2,32)           -1.0225         estimate D2E/DX2                !
 ! D5    D(2,1,6,5)            -34.2341         estimate D2E/DX2                !
 ! D6    D(2,1,6,34)          -156.6776         estimate D2E/DX2                !
 ! D7    D(2,1,6,35)            90.0026         estimate D2E/DX2                !
 ! D8    D(33,1,6,5)           149.1628         estimate D2E/DX2                !
 ! D9    D(33,1,6,34)           26.7193         estimate D2E/DX2                !
 ! D10   D(33,1,6,35)          -86.6006         estimate D2E/DX2                !
 ! D11   D(1,2,3,4)             24.0058         estimate D2E/DX2                !
 ! D12   D(1,2,3,20)           -96.4495         estimate D2E/DX2                !
 ! D13   D(1,2,3,31)           144.7637         estimate D2E/DX2                !
 ! D14   D(32,2,3,4)          -156.9866         estimate D2E/DX2                !
 ! D15   D(32,2,3,20)           82.5581         estimate D2E/DX2                !
 ! D16   D(32,2,3,31)          -36.2287         estimate D2E/DX2                !
 ! D17   D(1,2,32,59)           -0.2341         estimate D2E/DX2                !
 ! D18   D(1,2,32,60)          119.8431         estimate D2E/DX2                !
 ! D19   D(1,2,32,61)         -120.1435         estimate D2E/DX2                !
 ! D20   D(3,2,32,59)         -179.2322         estimate D2E/DX2                !
 ! D21   D(3,2,32,60)          -59.1549         estimate D2E/DX2                !
 ! D22   D(3,2,32,61)           60.8585         estimate D2E/DX2                !
 ! D23   D(2,3,4,5)            -15.4671         estimate D2E/DX2                !
 ! D24   D(2,3,4,7)           -144.1426         estimate D2E/DX2                !
 ! D25   D(2,3,4,24)           103.0067         estimate D2E/DX2                !
 ! D26   D(20,3,4,5)           109.085          estimate D2E/DX2                !
 ! D27   D(20,3,4,7)           -19.5905         estimate D2E/DX2                !
 ! D28   D(20,3,4,24)         -132.4412         estimate D2E/DX2                !
 ! D29   D(31,3,4,5)          -136.0839         estimate D2E/DX2                !
 ! D30   D(31,3,4,7)            95.2406         estimate D2E/DX2                !
 ! D31   D(31,3,4,24)          -17.6101         estimate D2E/DX2                !
 ! D32   D(2,3,20,17)          164.8797         estimate D2E/DX2                !
 ! D33   D(2,3,20,42)           44.8433         estimate D2E/DX2                !
 ! D34   D(2,3,20,43)          -75.2429         estimate D2E/DX2                !
 ! D35   D(4,3,20,17)           37.9371         estimate D2E/DX2                !
 ! D36   D(4,3,20,42)          -82.0993         estimate D2E/DX2                !
 ! D37   D(4,3,20,43)          157.8145         estimate D2E/DX2                !
 ! D38   D(31,3,20,17)         -76.6732         estimate D2E/DX2                !
 ! D39   D(31,3,20,42)         163.2904         estimate D2E/DX2                !
 ! D40   D(31,3,20,43)          43.2042         estimate D2E/DX2                !
 ! D41   D(3,4,5,6)            -15.2369         estimate D2E/DX2                !
 ! D42   D(3,4,5,10)          -134.822          estimate D2E/DX2                !
 ! D43   D(3,4,5,22)           106.1004         estimate D2E/DX2                !
 ! D44   D(7,4,5,6)            107.9471         estimate D2E/DX2                !
 ! D45   D(7,4,5,10)           -11.638          estimate D2E/DX2                !
 ! D46   D(7,4,5,22)          -130.7157         estimate D2E/DX2                !
 ! D47   D(24,4,5,6)          -134.3095         estimate D2E/DX2                !
 ! D48   D(24,4,5,10)          106.1054         estimate D2E/DX2                !
 ! D49   D(24,4,5,22)          -12.9722         estimate D2E/DX2                !
 ! D50   D(3,4,7,8)            105.6579         estimate D2E/DX2                !
 ! D51   D(3,4,7,17)            -6.1124         estimate D2E/DX2                !
 ! D52   D(3,4,7,21)          -129.6926         estimate D2E/DX2                !
 ! D53   D(5,4,7,8)            -24.1909         estimate D2E/DX2                !
 ! D54   D(5,4,7,17)          -135.9612         estimate D2E/DX2                !
 ! D55   D(5,4,7,21)           100.4585         estimate D2E/DX2                !
 ! D56   D(24,4,7,8)          -141.3868         estimate D2E/DX2                !
 ! D57   D(24,4,7,17)          106.8428         estimate D2E/DX2                !
 ! D58   D(24,4,7,21)          -16.7374         estimate D2E/DX2                !
 ! D59   D(3,4,24,23)          -94.3977         estimate D2E/DX2                !
 ! D60   D(5,4,24,23)           31.2593         estimate D2E/DX2                !
 ! D61   D(7,4,24,23)          154.5366         estimate D2E/DX2                !
 ! D62   D(4,5,6,1)             39.2067         estimate D2E/DX2                !
 ! D63   D(4,5,6,34)           161.2984         estimate D2E/DX2                !
 ! D64   D(4,5,6,35)           -82.6828         estimate D2E/DX2                !
 ! D65   D(10,5,6,1)           162.9286         estimate D2E/DX2                !
 ! D66   D(10,5,6,34)          -74.9797         estimate D2E/DX2                !
 ! D67   D(10,5,6,35)           41.0391         estimate D2E/DX2                !
 ! D68   D(22,5,6,1)           -78.0422         estimate D2E/DX2                !
 ! D69   D(22,5,6,34)           44.0495         estimate D2E/DX2                !
 ! D70   D(22,5,6,35)          160.0683         estimate D2E/DX2                !
 ! D71   D(4,5,10,9)            42.1105         estimate D2E/DX2                !
 ! D72   D(4,5,10,16)         -144.5391         estimate D2E/DX2                !
 ! D73   D(6,5,10,9)           -82.7044         estimate D2E/DX2                !
 ! D74   D(6,5,10,16)           90.646          estimate D2E/DX2                !
 ! D75   D(22,5,10,9)          157.5345         estimate D2E/DX2                !
 ! D76   D(22,5,10,16)         -29.115          estimate D2E/DX2                !
 ! D77   D(4,5,22,23)           -8.3404         estimate D2E/DX2                !
 ! D78   D(4,5,22,45)          111.6038         estimate D2E/DX2                !
 ! D79   D(4,5,22,46)         -129.0293         estimate D2E/DX2                !
 ! D80   D(6,5,22,23)          115.0089         estimate D2E/DX2                !
 ! D81   D(6,5,22,45)         -125.0468         estimate D2E/DX2                !
 ! D82   D(6,5,22,46)           -5.68           estimate D2E/DX2                !
 ! D83   D(10,5,22,23)        -129.0561         estimate D2E/DX2                !
 ! D84   D(10,5,22,45)          -9.1118         estimate D2E/DX2                !
 ! D85   D(10,5,22,46)         110.255          estimate D2E/DX2                !
 ! D86   D(4,7,8,9)             36.3135         estimate D2E/DX2                !
 ! D87   D(4,7,8,19)          -138.2928         estimate D2E/DX2                !
 ! D88   D(17,7,8,9)           152.4079         estimate D2E/DX2                !
 ! D89   D(17,7,8,19)          -22.1984         estimate D2E/DX2                !
 ! D90   D(21,7,8,9)           -90.1033         estimate D2E/DX2                !
 ! D91   D(21,7,8,19)           95.2904         estimate D2E/DX2                !
 ! D92   D(4,7,17,18)          150.7859         estimate D2E/DX2                !
 ! D93   D(4,7,17,20)           29.2616         estimate D2E/DX2                !
 ! D94   D(4,7,17,30)          -88.7785         estimate D2E/DX2                !
 ! D95   D(8,7,17,18)           29.4785         estimate D2E/DX2                !
 ! D96   D(8,7,17,20)          -92.0458         estimate D2E/DX2                !
 ! D97   D(8,7,17,30)          149.9141         estimate D2E/DX2                !
 ! D98   D(21,7,17,18)         -85.5565         estimate D2E/DX2                !
 ! D99   D(21,7,17,20)         152.9192         estimate D2E/DX2                !
 ! D100  D(21,7,17,30)          34.8791         estimate D2E/DX2                !
 ! D101  D(4,7,21,44)           21.7869         estimate D2E/DX2                !
 ! D102  D(8,7,21,44)          150.1388         estimate D2E/DX2                !
 ! D103  D(17,7,21,44)         -99.7151         estimate D2E/DX2                !
 ! D104  D(7,8,9,10)            -6.4521         estimate D2E/DX2                !
 ! D105  D(7,8,9,11)          -176.8789         estimate D2E/DX2                !
 ! D106  D(19,8,9,10)          167.6197         estimate D2E/DX2                !
 ! D107  D(19,8,9,11)           -2.8071         estimate D2E/DX2                !
 ! D108  D(7,8,19,18)            4.1876         estimate D2E/DX2                !
 ! D109  D(9,8,19,18)         -170.3793         estimate D2E/DX2                !
 ! D110  D(8,9,10,5)           -34.3074         estimate D2E/DX2                !
 ! D111  D(8,9,10,16)          152.149          estimate D2E/DX2                !
 ! D112  D(11,9,10,5)          136.0654         estimate D2E/DX2                !
 ! D113  D(11,9,10,16)         -37.4782         estimate D2E/DX2                !
 ! D114  D(8,9,11,12)           92.6162         estimate D2E/DX2                !
 ! D115  D(8,9,11,13)          -91.083          estimate D2E/DX2                !
 ! D116  D(10,9,11,12)         -77.3402         estimate D2E/DX2                !
 ! D117  D(10,9,11,13)          98.9606         estimate D2E/DX2                !
 ! D118  D(9,11,13,14)         -84.0406         estimate D2E/DX2                !
 ! D119  D(9,11,13,15)          41.2133         estimate D2E/DX2                !
 ! D120  D(9,11,13,36)         157.5904         estimate D2E/DX2                !
 ! D121  D(12,11,13,14)         92.1354         estimate D2E/DX2                !
 ! D122  D(12,11,13,15)       -142.6107         estimate D2E/DX2                !
 ! D123  D(12,11,13,36)        -26.2336         estimate D2E/DX2                !
 ! D124  D(11,13,14,37)        179.2054         estimate D2E/DX2                !
 ! D125  D(11,13,14,38)         62.5019         estimate D2E/DX2                !
 ! D126  D(11,13,14,62)        -60.4844         estimate D2E/DX2                !
 ! D127  D(15,13,14,37)         52.2953         estimate D2E/DX2                !
 ! D128  D(15,13,14,38)        -64.4082         estimate D2E/DX2                !
 ! D129  D(15,13,14,62)        172.6055         estimate D2E/DX2                !
 ! D130  D(36,13,14,37)        -64.0571         estimate D2E/DX2                !
 ! D131  D(36,13,14,38)        179.2394         estimate D2E/DX2                !
 ! D132  D(36,13,14,62)         56.2531         estimate D2E/DX2                !
 ! D133  D(11,13,15,39)        -65.8919         estimate D2E/DX2                !
 ! D134  D(11,13,15,40)        174.1739         estimate D2E/DX2                !
 ! D135  D(11,13,15,41)         55.0594         estimate D2E/DX2                !
 ! D136  D(14,13,15,39)         60.3302         estimate D2E/DX2                !
 ! D137  D(14,13,15,40)        -59.6041         estimate D2E/DX2                !
 ! D138  D(14,13,15,41)       -178.7186         estimate D2E/DX2                !
 ! D139  D(36,13,15,39)        178.0464         estimate D2E/DX2                !
 ! D140  D(36,13,15,40)         58.1121         estimate D2E/DX2                !
 ! D141  D(36,13,15,41)        -61.0024         estimate D2E/DX2                !
 ! D142  D(13,14,62,63)       -175.073          estimate D2E/DX2                !
 ! D143  D(13,14,62,64)        -55.5819         estimate D2E/DX2                !
 ! D144  D(13,14,62,65)         65.5832         estimate D2E/DX2                !
 ! D145  D(37,14,62,63)        -54.1431         estimate D2E/DX2                !
 ! D146  D(37,14,62,64)         65.3481         estimate D2E/DX2                !
 ! D147  D(37,14,62,65)       -173.4868         estimate D2E/DX2                !
 ! D148  D(38,14,62,63)         61.1809         estimate D2E/DX2                !
 ! D149  D(38,14,62,64)       -179.328          estimate D2E/DX2                !
 ! D150  D(38,14,62,65)        -58.1629         estimate D2E/DX2                !
 ! D151  D(7,17,18,19)         -29.1391         estimate D2E/DX2                !
 ! D152  D(7,17,18,28)          88.2942         estimate D2E/DX2                !
 ! D153  D(7,17,18,29)        -148.0569         estimate D2E/DX2                !
 ! D154  D(20,17,18,19)         82.3044         estimate D2E/DX2                !
 ! D155  D(20,17,18,28)       -160.2623         estimate D2E/DX2                !
 ! D156  D(20,17,18,29)        -36.6134         estimate D2E/DX2                !
 ! D157  D(30,17,18,19)       -150.3677         estimate D2E/DX2                !
 ! D158  D(30,17,18,28)        -32.9344         estimate D2E/DX2                !
 ! D159  D(30,17,18,29)         90.7146         estimate D2E/DX2                !
 ! D160  D(7,17,20,3)          -41.2044         estimate D2E/DX2                !
 ! D161  D(7,17,20,42)          77.7508         estimate D2E/DX2                !
 ! D162  D(7,17,20,43)        -161.5472         estimate D2E/DX2                !
 ! D163  D(18,17,20,3)        -153.0402         estimate D2E/DX2                !
 ! D164  D(18,17,20,42)        -34.085          estimate D2E/DX2                !
 ! D165  D(18,17,20,43)         86.617          estimate D2E/DX2                !
 ! D166  D(30,17,20,3)          78.82           estimate D2E/DX2                !
 ! D167  D(30,17,20,42)       -162.2247         estimate D2E/DX2                !
 ! D168  D(30,17,20,43)        -41.5228         estimate D2E/DX2                !
 ! D169  D(17,18,19,8)          15.8124         estimate D2E/DX2                !
 ! D170  D(28,18,19,8)        -104.6176         estimate D2E/DX2                !
 ! D171  D(29,18,19,8)         138.205          estimate D2E/DX2                !
 ! D172  D(17,18,28,53)        -59.9815         estimate D2E/DX2                !
 ! D173  D(17,18,28,54)         61.8349         estimate D2E/DX2                !
 ! D174  D(17,18,28,55)       -177.6384         estimate D2E/DX2                !
 ! D175  D(19,18,28,53)         56.691          estimate D2E/DX2                !
 ! D176  D(19,18,28,54)        178.5075         estimate D2E/DX2                !
 ! D177  D(19,18,28,55)        -60.9658         estimate D2E/DX2                !
 ! D178  D(29,18,28,53)        173.6152         estimate D2E/DX2                !
 ! D179  D(29,18,28,54)        -64.5684         estimate D2E/DX2                !
 ! D180  D(29,18,28,55)         55.9583         estimate D2E/DX2                !
 ! D181  D(17,18,29,56)         64.5042         estimate D2E/DX2                !
 ! D182  D(17,18,29,57)        -57.6428         estimate D2E/DX2                !
 ! D183  D(17,18,29,58)       -178.2569         estimate D2E/DX2                !
 ! D184  D(19,18,29,56)        -53.3498         estimate D2E/DX2                !
 ! D185  D(19,18,29,57)       -175.4969         estimate D2E/DX2                !
 ! D186  D(19,18,29,58)         63.889          estimate D2E/DX2                !
 ! D187  D(28,18,29,56)       -169.9042         estimate D2E/DX2                !
 ! D188  D(28,18,29,57)         67.9488         estimate D2E/DX2                !
 ! D189  D(28,18,29,58)        -52.6654         estimate D2E/DX2                !
 ! D190  D(5,22,23,24)          27.3139         estimate D2E/DX2                !
 ! D191  D(5,22,23,25)         147.751          estimate D2E/DX2                !
 ! D192  D(5,22,23,47)         -87.7061         estimate D2E/DX2                !
 ! D193  D(45,22,23,24)        -93.2532         estimate D2E/DX2                !
 ! D194  D(45,22,23,25)         27.1839         estimate D2E/DX2                !
 ! D195  D(45,22,23,47)        151.7268         estimate D2E/DX2                !
 ! D196  D(46,22,23,24)        150.0756         estimate D2E/DX2                !
 ! D197  D(46,22,23,25)        -89.4873         estimate D2E/DX2                !
 ! D198  D(46,22,23,47)         35.0557         estimate D2E/DX2                !
 ! D199  D(22,23,24,4)         -36.7996         estimate D2E/DX2                !
 ! D200  D(25,23,24,4)        -160.7765         estimate D2E/DX2                !
 ! D201  D(47,23,24,4)          79.8115         estimate D2E/DX2                !
 ! D202  D(22,23,25,26)        -70.6851         estimate D2E/DX2                !
 ! D203  D(22,23,25,27)        110.0876         estimate D2E/DX2                !
 ! D204  D(24,23,25,26)         47.3695         estimate D2E/DX2                !
 ! D205  D(24,23,25,27)       -131.8577         estimate D2E/DX2                !
 ! D206  D(47,23,25,26)        165.035          estimate D2E/DX2                !
 ! D207  D(47,23,25,27)        -14.1923         estimate D2E/DX2                !
 ! D208  D(23,25,26,48)         58.6768         estimate D2E/DX2                !
 ! D209  D(23,25,26,49)        -61.9023         estimate D2E/DX2                !
 ! D210  D(23,25,26,50)        178.5132         estimate D2E/DX2                !
 ! D211  D(27,25,26,48)       -122.0925         estimate D2E/DX2                !
 ! D212  D(27,25,26,49)        117.3284         estimate D2E/DX2                !
 ! D213  D(27,25,26,50)         -2.2561         estimate D2E/DX2                !
 ! D214  D(23,25,27,51)        179.5551         estimate D2E/DX2                !
 ! D215  D(23,25,27,52)         -0.4077         estimate D2E/DX2                !
 ! D216  D(26,25,27,51)          0.3496         estimate D2E/DX2                !
 ! D217  D(26,25,27,52)       -179.6133         estimate D2E/DX2                !
 --------------------------------------------------------------------------------
 Trust Radius=3.00D-01 FncErr=1.00D-07 GrdErr=1.00D-06
 Number of steps in this run=    390 maximum allowed number of steps=    390.
 GradGradGradGradGradGradGradGradGradGradGradGradGradGradGradGradGradGrad

 Stoichiometry    C26H34O5
 Framework group  C1[X(C26H34O5)]
 Deg. of freedom   189
 Full point group                 C1      NOp   1
 Largest Abelian subgroup         C1      NOp   1
 Largest concise Abelian subgroup C1      NOp   1
                         Standard orientation:                         
 ---------------------------------------------------------------------
 Center     Atomic      Atomic             Coordinates (Angstroms)
 Number     Number       Type             X           Y           Z
 ---------------------------------------------------------------------
      1          6           0       -2.003551    0.220277    2.793597
      2          6           0       -2.533781    1.198148    2.045197
      3          6           0       -2.031178    1.470887    0.651928
      4          6           0       -1.335455    0.280133   -0.074233
      5          6           0       -0.897608   -0.922486    0.797615
      6          6           0       -0.873332   -0.630617    2.313303
      7          6           0       -0.208162    0.944017   -0.895440
      8          6           0        1.166850    0.754544   -0.357827
      9          6           0        1.564657   -0.377614    0.229950
     10          6           0        0.525757   -1.406939    0.461957
     11          6           0        2.917581   -0.499696    0.810896
     12          8           0        3.065884   -0.232450    2.006080
     13          6           0        4.073550   -1.027745   -0.040239
     14          6           0        4.118446   -2.562721   -0.059454
     15          6           0        4.067518   -0.482844   -1.468681
     16          8           0        0.844123   -2.593811    0.500144
     17          6           0       -0.354761    2.447909   -0.769186
     18          6           0        1.091906    2.955356   -0.918448
     19          8           0        1.948181    1.899099   -0.419808
     20          6           0       -0.997897    2.603483    0.614731
     21          8           0       -0.223144    0.524507   -2.253258
     22          6           0       -1.924685   -2.020941    0.458162
     23          6           0       -2.978170   -1.334093   -0.392391
     24          8           0       -2.296119   -0.252615   -1.032003
     25          6           0       -3.621439   -2.210398   -1.437416
     26          6           0       -2.789490   -2.624219   -2.621467
     27          6           0       -4.903253   -2.599649   -1.327187
     28          6           0        1.470395    3.207356   -2.386673
     29          6           0        1.381781    4.225700   -0.114613
     30          1           0       -1.012604    2.875101   -1.536361
     31          1           0       -2.894945    1.776840    0.042778
     32          6           0       -3.633205    2.084602    2.556585
     33          1           0       -2.351289    0.053589    3.810853
     34          1           0       -0.886833   -1.579148    2.866685
     35          1           0        0.058495   -0.134061    2.613993
     36          1           0        4.992371   -0.654303    0.432513
     37          1           0        4.953278   -2.888664   -0.692542
     38          1           0        3.207822   -2.968568   -0.513712
     39          1           0        3.198366   -0.832634   -2.035826
     40          1           0        4.965698   -0.804487   -2.007212
     41          1           0        4.058477    0.611644   -1.471966
     42          1           0       -0.267549    2.484275    1.424651
     43          1           0       -1.464043    3.588090    0.728847
     44          1           0       -1.134743    0.202053   -2.417825
     45          1           0       -1.462582   -2.846185   -0.093717
     46          1           0       -2.386897   -2.474982    1.342468
     47          1           0       -3.746905   -0.895886    0.257074
     48          1           0       -1.896925   -3.170146   -2.302741
     49          1           0       -2.474651   -1.747644   -3.196270
     50          1           0       -3.344926   -3.278237   -3.302487
     51          1           0       -5.373799   -3.224783   -2.080232
     52          1           0       -5.518237   -2.304467   -0.482501
     53          1           0        1.392019    2.301382   -2.994676
     54          1           0        0.838364    3.981622   -2.833652
     55          1           0        2.516266    3.526991   -2.466024
     56          1           0        1.300280    4.052576    0.963217
     57          1           0        0.705753    5.039734   -0.395158
     58          1           0        2.412497    4.561600   -0.279134
     59          1           0       -3.927893    1.825968    3.579138
     60          1           0       -3.311599    3.130798    2.557439
     61          1           0       -4.520321    1.992657    1.921670
     62          6           0        4.306843   -3.179442    1.319891
     63          1           0        4.418640   -4.265029    1.232985
     64          1           0        5.204185   -2.784998    1.807175
     65          1           0        3.446926   -2.986568    1.967962
 ---------------------------------------------------------------------
 Rotational constants (GHZ):      0.1949392      0.1372130      0.1130188
 Standard basis: 6-31G(d) (6D, 7F)
 There are   533 symmetry adapted basis functions of A   symmetry.
 Integral buffers will be    131072 words long.
 Raffenetti 2 integral format.
 Two-electron integral symmetry is turned on.
   533 basis functions,  1004 primitive gaussians,   533 cartesian basis functions
   115 alpha electrons      115 beta electrons
       nuclear repulsion energy      3530.0445941942 Hartrees.
 NAtoms=   65 NActive=   65 NUniq=   65 SFac= 1.00D+00 NAtFMM=   50 NAOKFM=T Big=T
 One-electron integrals computed using PRISM.
 NBasis=   533 RedAO= T  NBF=   533
 NBsUse=   533 1.00D-06 NBFU=   533
 Harris functional with IExCor=  402 diagonalized for initial guess.
 ExpMin= 1.61D-01 ExpMax= 5.48D+03 ExpMxC= 8.25D+02 IAcc=1 IRadAn=         1 AccDes= 0.00D+00
 HarFok:  IExCor=  402 AccDes= 0.00D+00 IRadAn=         1 IDoV= 1
 ScaDFX=  1.000000  1.000000  1.000000  1.000000
 FoFCou: FMM=F IPFlag=           0 FMFlag=      100000 FMFlg1=        2001
         NFxFlg=           0 DoJE=T BraDBF=F KetDBF=T FulRan=T
         Omega=  0.000000  0.000000  1.000000  0.000000  0.000000 ICntrl=     500 IOpCl=  0
         NMat0=    1 NMatS0=    1 NMatT0=    0 NMatD0=    1 NMtDS0=    0 NMtDT0=    0
         I1Cent=           4 NGrid=           0.
 Petite list used in FoFCou.
 Initial guess orbital symmetries:
       Occupied  (A) (A) (A) (A) (A) (A) (A) (A) (A) (A) (A) (A)
                 (A) (A) (A) (A) (A) (A) (A) (A) (A) (A) (A) (A)
                 (A) (A) (A) (A) (A) (A) (A) (A) (A) (A) (A) (A)
                 (A) (A) (A) (A) (A) (A) (A) (A) (A) (A) (A) (A)
                 (A) (A) (A) (A) (A) (A) (A) (A) (A) (A) (A) (A)
                 (A) (A) (A) (A) (A) (A) (A) (A) (A) (A) (A) (A)
                 (A) (A) (A) (A) (A) (A) (A) (A) (A) (A) (A) (A)
                 (A) (A) (A) (A) (A) (A) (A) (A) (A) (A) (A) (A)
                 (A) (A) (A) (A) (A) (A) (A) (A) (A) (A) (A) (A)
                 (A) (A) (A) (A) (A) (A) (A)
       Virtual   (A) (A) (A) (A) (A) (A) (A) (A) (A) (A) (A) (A)
                 (A) (A) (A) (A) (A) (A) (A) (A) (A) (A) (A) (A)
                 (A) (A) (A) (A) (A) (A) (A) (A) (A) (A) (A) (A)
                 (A) (A) (A) (A) (A) (A) (A) (A) (A) (A) (A) (A)
                 (A) (A) (A) (A) (A) (A) (A) (A) (A) (A) (A) (A)
                 (A) (A) (A) (A) (A) (A) (A) (A) (A) (A) (A) (A)
                 (A) (A) (A) (A) (A) (A) (A) (A) (A) (A) (A) (A)
                 (A) (A) (A) (A) (A) (A) (A) (A) (A) (A) (A) (A)
                 (A) (A) (A) (A) (A) (A) (A) (A) (A) (A) (A) (A)
                 (A) (A) (A) (A) (A) (A) (A) (A) (A) (A) (A) (A)
                 (A) (A) (A) (A) (A) (A) (A) (A) (A) (A) (A) (A)
                 (A) (A) (A) (A) (A) (A) (A) (A) (A) (A) (A) (A)
                 (A) (A) (A) (A) (A) (A) (A) (A) (A) (A) (A) (A)
                 (A) (A) (A) (A) (A) (A) (A) (A) (A) (A) (A) (A)
                 (A) (A) (A) (A) (A) (A) (A) (A) (A) (A) (A) (A)
                 (A) (A) (A) (A) (A) (A) (A) (A) (A) (A) (A) (A)
                 (A) (A) (A) (A) (A) (A) (A) (A) (A) (A) (A) (A)
                 (A) (A) (A) (A) (A) (A) (A) (A) (A) (A) (A) (A)
                 (A) (A) (A) (A) (A) (A) (A) (A) (A) (A) (A) (A)
                 (A) (A) (A) (A) (A) (A) (A) (A) (A) (A) (A) (A)
                 (A) (A) (A) (A) (A) (A) (A) (A) (A) (A) (A) (A)
                 (A) (A) (A) (A) (A) (A) (A) (A) (A) (A) (A) (A)
                 (A) (A) (A) (A) (A) (A) (A) (A) (A) (A) (A) (A)
                 (A) (A) (A) (A) (A) (A) (A) (A) (A) (A) (A) (A)
                 (A) (A) (A) (A) (A) (A) (A) (A) (A) (A) (A) (A)
                 (A) (A) (A) (A) (A) (A) (A) (A) (A) (A) (A) (A)
                 (A) (A) (A) (A) (A) (A) (A) (A) (A) (A) (A) (A)
                 (A) (A) (A) (A) (A) (A) (A) (A) (A) (A) (A) (A)
                 (A) (A) (A) (A) (A) (A) (A) (A) (A) (A) (A) (A)
                 (A) (A) (A) (A) (A) (A) (A) (A) (A) (A) (A) (A)
                 (A) (A) (A) (A) (A) (A) (A) (A) (A) (A) (A) (A)
                 (A) (A) (A) (A) (A) (A) (A) (A) (A) (A) (A) (A)
                 (A) (A) (A) (A) (A) (A) (A) (A) (A) (A) (A) (A)
                 (A) (A) (A) (A) (A) (A) (A) (A) (A) (A) (A) (A)
                 (A) (A) (A) (A) (A) (A) (A) (A) (A) (A)
 The electronic state of the initial guess is 1-A.
 Requested convergence on RMS density matrix=1.00D-08 within 128 cycles.
 Requested convergence on MAX density matrix=1.00D-06.
 Requested convergence on             energy=1.00D-06.
 No special actions if energy rises.
 Integral accuracy reduced to 1.0D-05 until final iterations.
 Initial convergence to 1.0D-05 achieved.  Increase integral accuracy.
 SCF Done:  E(RB3LYP) =  -1387.30217405     A.U. after   15 cycles
             Convg  =    0.8266D-08             -V/T =  2.0091

 **********************************************************************

            Population analysis using the SCF density.

 **********************************************************************

 Orbital symmetries:
       Occupied  (A) (A) (A) (A) (A) (A) (A) (A) (A) (A) (A) (A)
                 (A) (A) (A) (A) (A) (A) (A) (A) (A) (A) (A) (A)
                 (A) (A) (A) (A) (A) (A) (A) (A) (A) (A) (A) (A)
                 (A) (A) (A) (A) (A) (A) (A) (A) (A) (A) (A) (A)
                 (A) (A) (A) (A) (A) (A) (A) (A) (A) (A) (A) (A)
                 (A) (A) (A) (A) (A) (A) (A) (A) (A) (A) (A) (A)
                 (A) (A) (A) (A) (A) (A) (A) (A) (A) (A) (A) (A)
                 (A) (A) (A) (A) (A) (A) (A) (A) (A) (A) (A) (A)
                 (A) (A) (A) (A) (A) (A) (A) (A) (A) (A) (A) (A)
                 (A) (A) (A) (A) (A) (A) (A)
       Virtual   (A) (A) (A) (A) (A) (A) (A) (A) (A) (A) (A) (A)
                 (A) (A) (A) (A) (A) (A) (A) (A) (A) (A) (A) (A)
                 (A) (A) (A) (A) (A) (A) (A) (A) (A) (A) (A) (A)
                 (A) (A) (A) (A) (A) (A) (A) (A) (A) (A) (A) (A)
                 (A) (A) (A) (A) (A) (A) (A) (A) (A) (A) (A) (A)
                 (A) (A) (A) (A) (A) (A) (A) (A) (A) (A) (A) (A)
                 (A) (A) (A) (A) (A) (A) (A) (A) (A) (A) (A) (A)
                 (A) (A) (A) (A) (A) (A) (A) (A) (A) (A) (A) (A)
                 (A) (A) (A) (A) (A) (A) (A) (A) (A) (A) (A) (A)
                 (A) (A) (A) (A) (A) (A) (A) (A) (A) (A) (A) (A)
                 (A) (A) (A) (A) (A) (A) (A) (A) (A) (A) (A) (A)
                 (A) (A) (A) (A) (A) (A) (A) (A) (A) (A) (A) (A)
                 (A) (A) (A) (A) (A) (A) (A) (A) (A) (A) (A) (A)
                 (A) (A) (A) (A) (A) (A) (A) (A) (A) (A) (A) (A)
                 (A) (A) (A) (A) (A) (A) (A) (A) (A) (A) (A) (A)
                 (A) (A) (A) (A) (A) (A) (A) (A) (A) (A) (A) (A)
                 (A) (A) (A) (A) (A) (A) (A) (A) (A) (A) (A) (A)
                 (A) (A) (A) (A) (A) (A) (A) (A) (A) (A) (A) (A)
                 (A) (A) (A) (A) (A) (A) (A) (A) (A) (A) (A) (A)
                 (A) (A) (A) (A) (A) (A) (A) (A) (A) (A) (A) (A)
                 (A) (A) (A) (A) (A) (A) (A) (A) (A) (A) (A) (A)
                 (A) (A) (A) (A) (A) (A) (A) (A) (A) (A) (A) (A)
                 (A) (A) (A) (A) (A) (A) (A) (A) (A) (A) (A) (A)
                 (A) (A) (A) (A) (A) (A) (A) (A) (A) (A) (A) (A)
                 (A) (A) (A) (A) (A) (A) (A) (A) (A) (A) (A) (A)
                 (A) (A) (A) (A) (A) (A) (A) (A) (A) (A) (A) (A)
                 (A) (A) (A) (A) (A) (A) (A) (A) (A) (A) (A) (A)
                 (A) (A) (A) (A) (A) (A) (A) (A) (A) (A) (A) (A)
                 (A) (A) (A) (A) (A) (A) (A) (A) (A) (A) (A) (A)
                 (A) (A) (A) (A) (A) (A) (A) (A) (A) (A) (A) (A)
                 (A) (A) (A) (A) (A) (A) (A) (A) (A) (A) (A) (A)
                 (A) (A) (A) (A) (A) (A) (A) (A) (A) (A) (A) (A)
                 (A) (A) (A) (A) (A) (A) (A) (A) (A) (A) (A) (A)
                 (A) (A) (A) (A) (A) (A) (A) (A) (A) (A) (A) (A)
                 (A) (A) (A) (A) (A) (A) (A) (A) (A) (A)
 The electronic state is 1-A.
 Alpha  occ. eigenvalues --  -19.19508 -19.16951 -19.14662 -19.13879 -19.13550
 Alpha  occ. eigenvalues --  -10.27984 -10.27221 -10.26461 -10.26289 -10.25990
 Alpha  occ. eigenvalues --  -10.25606 -10.24542 -10.21889 -10.20385 -10.20191
 Alpha  occ. eigenvalues --  -10.19942 -10.19829 -10.19673 -10.19657 -10.19230
 Alpha  occ. eigenvalues --  -10.18883 -10.18806 -10.18641 -10.18617 -10.18463
 Alpha  occ. eigenvalues --  -10.18392 -10.18286 -10.17737 -10.17119 -10.16675
 Alpha  occ. eigenvalues --  -10.15447  -1.08467  -1.06356  -1.03666  -1.02464
 Alpha  occ. eigenvalues --   -1.01940  -0.87668  -0.84031  -0.82670  -0.81600
 Alpha  occ. eigenvalues --   -0.80395  -0.79828  -0.77033  -0.74301  -0.73531
 Alpha  occ. eigenvalues --   -0.72536  -0.71617  -0.69671  -0.69190  -0.68362
 Alpha  occ. eigenvalues --   -0.65041  -0.63837  -0.63394  -0.61980  -0.61091
 Alpha  occ. eigenvalues --   -0.59275  -0.58925  -0.57236  -0.55694  -0.54427
 Alpha  occ. eigenvalues --   -0.52988  -0.51879  -0.51092  -0.50317  -0.49621
 Alpha  occ. eigenvalues --   -0.47994  -0.47345  -0.46398  -0.46291  -0.45779
 Alpha  occ. eigenvalues --   -0.45209  -0.44904  -0.44217  -0.43820  -0.43358
 Alpha  occ. eigenvalues --   -0.42742  -0.42611  -0.42584  -0.41709  -0.41282
 Alpha  occ. eigenvalues --   -0.40856  -0.40593  -0.40489  -0.40159  -0.39946
 Alpha  occ. eigenvalues --   -0.39507  -0.39021  -0.38765  -0.38413  -0.37925
 Alpha  occ. eigenvalues --   -0.37840  -0.37089  -0.36866  -0.36570  -0.36295
 Alpha  occ. eigenvalues --   -0.35646  -0.35243  -0.35069  -0.34813  -0.34308
 Alpha  occ. eigenvalues --   -0.34004  -0.33390  -0.33154  -0.32674  -0.32144
 Alpha  occ. eigenvalues --   -0.32066  -0.31611  -0.30936  -0.28163  -0.27085
 Alpha  occ. eigenvalues --   -0.25312  -0.25129  -0.24519  -0.23716  -0.23087
 Alpha virt. eigenvalues --   -0.04608  -0.02262   0.00715   0.01621   0.02723
 Alpha virt. eigenvalues --    0.06475   0.08227   0.08307   0.09267   0.10284
 Alpha virt. eigenvalues --    0.10540   0.10889   0.11214   0.11873   0.12165
 Alpha virt. eigenvalues --    0.12806   0.13254   0.13505   0.13796   0.13863
 Alpha virt. eigenvalues --    0.14531   0.14589   0.14778   0.15417   0.15725
 Alpha virt. eigenvalues --    0.16259   0.16474   0.16793   0.17089   0.17679
 Alpha virt. eigenvalues --    0.18008   0.18298   0.18747   0.19173   0.19338
 Alpha virt. eigenvalues --    0.19561   0.19867   0.20162   0.20360   0.20831
 Alpha virt. eigenvalues --    0.20910   0.21411   0.21620   0.21825   0.22311
 Alpha virt. eigenvalues --    0.23596   0.24158   0.24264   0.24539   0.24845
 Alpha virt. eigenvalues --    0.25200   0.25840   0.25932   0.26693   0.26793
 Alpha virt. eigenvalues --    0.27050   0.27080   0.28321   0.28664   0.29942
 Alpha virt. eigenvalues --    0.31746   0.32302   0.32581   0.33907   0.34655
 Alpha virt. eigenvalues --    0.35110   0.36141   0.37269   0.37712   0.40578
 Alpha virt. eigenvalues --    0.41323   0.44781   0.45495   0.47843   0.48201
 Alpha virt. eigenvalues --    0.48973   0.49817   0.50358   0.51063   0.51572
 Alpha virt. eigenvalues --    0.51962   0.52411   0.52564   0.53126   0.53303
 Alpha virt. eigenvalues --    0.53840   0.54302   0.54530   0.55507   0.56126
 Alpha virt. eigenvalues --    0.56599   0.57155   0.57825   0.58221   0.59201
 Alpha virt. eigenvalues --    0.59791   0.60300   0.61197   0.61360   0.61734
 Alpha virt. eigenvalues --    0.61991   0.62780   0.63359   0.63538   0.63910
 Alpha virt. eigenvalues --    0.65663   0.65984   0.66338   0.66860   0.67584
 Alpha virt. eigenvalues --    0.67652   0.68245   0.68927   0.69644   0.70032
 Alpha virt. eigenvalues --    0.70165   0.71066   0.72040   0.72286   0.72820
 Alpha virt. eigenvalues --    0.73529   0.74099   0.75125   0.75686   0.76564
 Alpha virt. eigenvalues --    0.76817   0.77123   0.77717   0.77888   0.78532
 Alpha virt. eigenvalues --    0.79458   0.80267   0.81089   0.81403   0.82271
 Alpha virt. eigenvalues --    0.83393   0.83657   0.83988   0.84412   0.84777
 Alpha virt. eigenvalues --    0.85565   0.85695   0.86230   0.86324   0.86814
 Alpha virt. eigenvalues --    0.87320   0.87767   0.88516   0.88740   0.89485
 Alpha virt. eigenvalues --    0.89629   0.90168   0.90465   0.90648   0.91112
 Alpha virt. eigenvalues --    0.91385   0.91584   0.91661   0.92070   0.92811
 Alpha virt. eigenvalues --    0.93351   0.93697   0.93955   0.94302   0.94800
 Alpha virt. eigenvalues --    0.95056   0.95455   0.95862   0.96463   0.96786
 Alpha virt. eigenvalues --    0.97342   0.97630   0.98510   0.98708   0.99220
 Alpha virt. eigenvalues --    0.99501   1.00193   1.01758   1.02777   1.02967
 Alpha virt. eigenvalues --    1.03479   1.04755   1.05771   1.06827   1.07999
 Alpha virt. eigenvalues --    1.09390   1.09899   1.11196   1.11492   1.12786
 Alpha virt. eigenvalues --    1.13809   1.14786   1.15641   1.17074   1.17402
 Alpha virt. eigenvalues --    1.18117   1.18228   1.19165   1.20994   1.21523
 Alpha virt. eigenvalues --    1.21849   1.22427   1.25785   1.26495   1.27258
 Alpha virt. eigenvalues --    1.28854   1.30338   1.30738   1.31617   1.34121
 Alpha virt. eigenvalues --    1.34684   1.37750   1.38373   1.39774   1.40426
 Alpha virt. eigenvalues --    1.41996   1.43437   1.44472   1.45133   1.45692
 Alpha virt. eigenvalues --    1.47889   1.49624   1.50278   1.51963   1.53214
 Alpha virt. eigenvalues --    1.54012   1.55230   1.55997   1.57748   1.58406
 Alpha virt. eigenvalues --    1.59263   1.59538   1.60609   1.62066   1.63408
 Alpha virt. eigenvalues --    1.63917   1.65405   1.67267   1.67773   1.68879
 Alpha virt. eigenvalues --    1.70905   1.72133   1.72603   1.73369   1.74978
 Alpha virt. eigenvalues --    1.75774   1.75910   1.77056   1.77170   1.78905
 Alpha virt. eigenvalues --    1.79682   1.80317   1.80487   1.81373   1.81864
 Alpha virt. eigenvalues --    1.83210   1.83780   1.84583   1.85115   1.86202
 Alpha virt. eigenvalues --    1.86699   1.87241   1.88113   1.88597   1.89488
 Alpha virt. eigenvalues --    1.89807   1.90626   1.91233   1.91525   1.91860
 Alpha virt. eigenvalues --    1.92845   1.92893   1.94102   1.94754   1.95076
 Alpha virt. eigenvalues --    1.95851   1.96931   1.97444   1.98246   1.98445
 Alpha virt. eigenvalues --    1.98722   1.99923   2.00437   2.00627   2.01068
 Alpha virt. eigenvalues --    2.01724   2.03089   2.03744   2.04282   2.05182
 Alpha virt. eigenvalues --    2.05554   2.06476   2.07409   2.08427   2.09142
 Alpha virt. eigenvalues --    2.09575   2.11188   2.12373   2.13339   2.14406
 Alpha virt. eigenvalues --    2.15564   2.16162   2.17526   2.17976   2.19144
 Alpha virt. eigenvalues --    2.20042   2.20271   2.21043   2.21187   2.22868
 Alpha virt. eigenvalues --    2.23530   2.24988   2.25264   2.26245   2.27929
 Alpha virt. eigenvalues --    2.28352   2.28937   2.29521   2.29702   2.31918
 Alpha virt. eigenvalues --    2.32587   2.33223   2.33876   2.34572   2.35049
 Alpha virt. eigenvalues --    2.36631   2.36980   2.37949   2.38759   2.40044
 Alpha virt. eigenvalues --    2.40611   2.41022   2.41737   2.41873   2.44355
 Alpha virt. eigenvalues --    2.45222   2.46522   2.47553   2.47626   2.48666
 Alpha virt. eigenvalues --    2.49455   2.51437   2.52634   2.52737   2.53184
 Alpha virt. eigenvalues --    2.55127   2.57086   2.58624   2.60328   2.60781
 Alpha virt. eigenvalues --    2.61749   2.63411   2.64321   2.65555   2.65742
 Alpha virt. eigenvalues --    2.68546   2.69502   2.69789   2.70753   2.72059
 Alpha virt. eigenvalues --    2.72781   2.73933   2.74277   2.76475   2.78059
 Alpha virt. eigenvalues --    2.78987   2.80464   2.81651   2.81747   2.88012
 Alpha virt. eigenvalues --    2.88615   2.91788   2.93727   2.94563   2.95030
 Alpha virt. eigenvalues --    2.96582   2.97676   2.99949   3.00713   3.02975
 Alpha virt. eigenvalues --    3.05883   3.07251   3.12048   3.15960   3.20283
 Alpha virt. eigenvalues --    3.22171   3.28464   3.99964   4.10818   4.12128
 Alpha virt. eigenvalues --    4.12932   4.14320   4.16708   4.18440   4.19716
 Alpha virt. eigenvalues --    4.24115   4.24361   4.26355   4.28072   4.31320
 Alpha virt. eigenvalues --    4.32193   4.33564   4.36771   4.39322   4.43673
 Alpha virt. eigenvalues --    4.49103   4.50649   4.52069   4.57435   4.62159
 Alpha virt. eigenvalues --    4.64944   4.66257   4.70248   4.73463   4.78124
 Alpha virt. eigenvalues --    4.89686   4.96136   5.25919
          Condensed to atoms (all electrons):
 Mulliken atomic charges:
              1
     1  C   -0.196749
     2  C    0.196019
     3  C   -0.195715
     4  C    0.315553
     5  C   -0.017100
     6  C   -0.334130
     7  C    0.196123
     8  C    0.422791
     9  C   -0.099788
    10  C    0.399852
    11  C    0.416045
    12  O   -0.454539
    13  C   -0.147138
    14  C   -0.260392
    15  C   -0.472248
    16  O   -0.485966
    17  C   -0.151997
    18  C    0.304800
    19  O   -0.537703
    20  C   -0.307608
    21  O   -0.675844
    22  C   -0.330090
    23  C    0.104994
    24  O   -0.589622
    25  C    0.208126
    26  C   -0.517589
    27  C   -0.399656
    28  C   -0.460114
    29  C   -0.463848
    30  H    0.145810
    31  H    0.150057
    32  C   -0.519803
    33  H    0.126506
    34  H    0.162830
    35  H    0.183629
    36  H    0.146511
    37  H    0.132330
    38  H    0.163482
    39  H    0.157795
    40  H    0.143959
    41  H    0.157574
    42  H    0.166410
    43  H    0.149337
    44  H    0.426093
    45  H    0.182875
    46  H    0.154054
    47  H    0.131344
    48  H    0.167675
    49  H    0.163389
    50  H    0.155349
    51  H    0.141089
    52  H    0.136790
    53  H    0.184438
    54  H    0.140529
    55  H    0.149665
    56  H    0.160346
    57  H    0.149250
    58  H    0.158327
    59  H    0.158080
    60  H    0.156733
    61  H    0.154900
    62  C   -0.444317
    63  H    0.135651
    64  H    0.139605
    65  H    0.165241
 Sum of Mulliken atomic charges =   0.00000
 Mulliken charges with hydrogens summed into heavy atoms:
              1
     1  C   -0.070243
     2  C    0.196019
     3  C   -0.045658
     4  C    0.315553
     5  C   -0.017100
     6  C    0.012329
     7  C    0.196123
     8  C    0.422791
     9  C   -0.099788
    10  C    0.399852
    11  C    0.416045
    12  O   -0.454539
    13  C   -0.000626
    14  C    0.035420
    15  C   -0.012920
    16  O   -0.485966
    17  C   -0.006187
    18  C    0.304800
    19  O   -0.537703
    20  C    0.008139
    21  O   -0.249751
    22  C    0.006839
    23  C    0.236337
    24  O   -0.589622
    25  C    0.208126
    26  C   -0.031175
    27  C   -0.121777
    28  C    0.014517
    29  C    0.004075
    32  C   -0.050090
    62  C   -0.003820
 Sum of Mulliken charges with hydrogens summed into heavy atoms =   0.00000
 Electronic spatial extent (au):  <R**2>=          11331.6579
 Charge=              0.0000 electrons
 Dipole moment (field-independent basis, Debye):
    X=             -3.8752    Y=              2.9516    Z=             -1.0460  Tot=              4.9823
 Quadrupole moment (field-independent basis, Debye-Ang):
   XX=           -181.9774   YY=           -178.4489   ZZ=           -187.3161
   XY=              1.5402   XZ=             -9.5555   YZ=              1.7094
 Traceless Quadrupole moment (field-independent basis, Debye-Ang):
   XX=              0.6034   YY=              4.1319   ZZ=             -4.7353
   XY=              1.5402   XZ=             -9.5555   YZ=              1.7094
 Octapole moment (field-independent basis, Debye-Ang**2):
  XXX=              1.7137  YYY=             56.6877  ZZZ=             -7.3022  XYY=             -8.9529
  XXY=            -11.9297  XXZ=            -24.7284  XZZ=            -32.6128  YZZ=             -7.3515
  YYZ=            -20.6934  XYZ=             -5.8134
 Hexadecapole moment (field-independent basis, Debye-Ang**3):
 XXXX=          -7608.8086 YYYY=          -4807.3862 ZZZZ=          -2623.0352 XXXY=             12.3619
 XXXZ=            -86.3974 YYYX=             33.5430 YYYZ=             -0.0915 ZZZX=            -15.8575
 ZZZY=              0.6386 XXYY=          -2045.2892 XXZZ=          -1763.0325 YYZZ=          -1216.4854
 XXYZ=             41.8453 YYXZ=             23.3755 ZZXY=             37.5182
 N-N= 3.530044594194D+03 E-N=-1.028642454626D+04  KE= 1.374858842782D+03
 Calling FoFJK, ICntrl=      2127 FMM=T ISym2X=0 I1Cent= 0 IOpClX= 0 NMat=1 NMatS=1 NMatT=0.
 ***** Axes restored to original set *****
 -------------------------------------------------------------------
 Center     Atomic                   Forces (Hartrees/Bohr)
 Number     Number              X              Y              Z
 -------------------------------------------------------------------
      1        6           0.009652731    0.000174007    0.001019428
      2        6          -0.009476344   -0.006128614    0.003897672
      3        6          -0.007087119   -0.009845446   -0.003364536
      4        6           0.010913299   -0.006508751    0.011321847
      5        6          -0.008130366    0.005015189    0.005101582
      6        6          -0.008811328   -0.008043811   -0.006240524
      7        6           0.021471581    0.014437226    0.010249989
      8        6          -0.006808290   -0.002255601   -0.024070231
      9        6           0.011713958   -0.006968175    0.008594704
     10        6          -0.014554906    0.017908803   -0.002362261
     11        6          -0.029931693   -0.005762745   -0.017060912
     12        8           0.008935443    0.014013466    0.009905039
     13        6           0.007076816    0.006177569   -0.007536889
     14        6          -0.007663526   -0.002744930    0.004040233
     15        6           0.007716540    0.001537555    0.000174903
     16        8           0.006432358   -0.010479304    0.001448561
     17        6           0.002692203   -0.006330296   -0.011682907
     18        6           0.029699049    0.005097998   -0.014580780
     19        8          -0.010515359   -0.008631323    0.033237972
     20        6           0.009323101   -0.001616356   -0.005962589
     21        8          -0.003374521    0.004817665    0.005814979
     22        6          -0.008016511   -0.000888621    0.007788136
     23        6           0.004987068   -0.004771156    0.009452589
     24        8          -0.005192206    0.004312671   -0.013238892
     25        6           0.006597195   -0.004937192    0.015265318
     26        6           0.000394490    0.001159004    0.001070595
     27        6          -0.001378589    0.002495603   -0.009713741
     28        6          -0.001813621    0.008371551    0.001819087
     29        6          -0.008627135   -0.000557487   -0.007319622
     30        1          -0.003058806    0.002012818    0.000282288
     31        1          -0.001705176    0.005604216    0.000669809
     32        6          -0.002524847   -0.000573140    0.000220802
     33        1           0.000749570   -0.000880479    0.000039862
     34        1           0.000751665    0.005094884   -0.000137419
     35        1          -0.001328573    0.005525051   -0.001118743
     36        1          -0.003623485   -0.004206076    0.000951726
     37        1           0.004311077    0.001474184   -0.002125766
     38        1           0.002182349   -0.000954234   -0.000313742
     39        1           0.000560612   -0.000265805    0.000330658
     40        1          -0.001764707   -0.000265552    0.000204981
     41        1           0.001273981    0.000244612    0.000728462
     42        1           0.000266184    0.000636132    0.000941497
     43        1          -0.002109280   -0.001526637   -0.001418272
     44        1          -0.003009149    0.001318345   -0.004055019
     45        1          -0.000214627    0.000554168   -0.004810331
     46        1           0.000986094    0.000577146   -0.002861616
     47        1          -0.000581201   -0.001316943    0.003283237
     48        1           0.000010384    0.003112311   -0.002845258
     49        1          -0.001323425    0.002241303   -0.002048325
     50        1          -0.000301024   -0.002537096   -0.000303958
     51        1          -0.001703804   -0.000061365    0.000485938
     52        1           0.001036928   -0.001434592    0.000060381
     53        1           0.000475658   -0.004584172    0.003326708
     54        1           0.000110767   -0.000788756   -0.000375809
     55        1           0.000500901   -0.003301146   -0.002250318
     56        1           0.001315550   -0.001770506    0.002507915
     57        1          -0.000055704    0.000774113    0.001384181
     58        1           0.001929529    0.001489056    0.001839989
     59        1          -0.000585858    0.000872523   -0.000333089
     60        1           0.004038337   -0.001558797   -0.000115723
     61        1           0.004265172   -0.001179310    0.000058599
     62        6          -0.004412511   -0.002027054    0.002530430
     63        1          -0.001453842   -0.000214849    0.000290545
     64        1          -0.000882499   -0.000967149   -0.001026842
     65        1          -0.000350559   -0.000165706   -0.001066527
 -------------------------------------------------------------------
 Cartesian Forces:  Max     0.033237972 RMS     0.007003479

 GradGradGradGradGradGradGradGradGradGradGradGradGradGradGradGradGradGrad
 Berny optimization.
 Internal  Forces:  Max     0.020385259 RMS     0.003435791
 Search for a local minimum.
 Step number   1 out of a maximum of  390
 All quantities printed in internal units (Hartrees-Bohrs-Radians)
 Mixed Optimization -- RFO/linear search
 Second derivative matrix not updated -- first step.
 ITU=  0
     Eigenvalues ---    0.00276   0.00293   0.00356   0.00375   0.00384
     Eigenvalues ---    0.00466   0.00481   0.00550   0.00595   0.00650
     Eigenvalues ---    0.00661   0.00698   0.00720   0.00739   0.00875
     Eigenvalues ---    0.01064   0.01163   0.01241   0.01293   0.01460
     Eigenvalues ---    0.01530   0.01726   0.01732   0.01831   0.02085
     Eigenvalues ---    0.02623   0.02828   0.02828   0.03117   0.03227
     Eigenvalues ---    0.03464   0.03598   0.03711   0.03886   0.04086
     Eigenvalues ---    0.04282   0.04346   0.04473   0.04530   0.04827
     Eigenvalues ---    0.04837   0.04921   0.05016   0.05135   0.05284
     Eigenvalues ---    0.05306   0.05328   0.05339   0.05419   0.05445
     Eigenvalues ---    0.05501   0.05518   0.05571   0.05585   0.05640
     Eigenvalues ---    0.05658   0.05704   0.05887   0.05922   0.06141
     Eigenvalues ---    0.06593   0.06811   0.07122   0.07151   0.07155
     Eigenvalues ---    0.07200   0.07252   0.07318   0.07476   0.07966
     Eigenvalues ---    0.08351   0.08474   0.08628   0.09300   0.09455
     Eigenvalues ---    0.09824   0.10250   0.11453   0.11866   0.12304
     Eigenvalues ---    0.12607   0.13299   0.14534   0.15388   0.15969
     Eigenvalues ---    0.15977   0.16000   0.16000   0.16000   0.16000
     Eigenvalues ---    0.16000   0.16000   0.16000   0.16000   0.16000
     Eigenvalues ---    0.16000   0.16000   0.16000   0.16000   0.16000
     Eigenvalues ---    0.16000   0.16000   0.16000   0.16000   0.16000
     Eigenvalues ---    0.16000   0.16535   0.16962   0.18084   0.18613
     Eigenvalues ---    0.19708   0.20881   0.21921   0.22330   0.22518
     Eigenvalues ---    0.23320   0.24561   0.24827   0.24959   0.24995
     Eigenvalues ---    0.24998   0.24999   0.25000   0.26096   0.26695
     Eigenvalues ---    0.26982   0.27224   0.27374   0.27762   0.28320
     Eigenvalues ---    0.28784   0.28899   0.28963   0.29332   0.29465
     Eigenvalues ---    0.29529   0.30114   0.30292   0.30647   0.31562
     Eigenvalues ---    0.31777   0.31847   0.32167   0.33140   0.33644
     Eigenvalues ---    0.33824   0.33878   0.33921   0.33946   0.33987
     Eigenvalues ---    0.33996   0.34007   0.34072   0.34074   0.34099
     Eigenvalues ---    0.34176   0.34181   0.34189   0.34203   0.34220
     Eigenvalues ---    0.34225   0.34235   0.34256   0.34266   0.34266
     Eigenvalues ---    0.34275   0.34277   0.34281   0.34294   0.34296
     Eigenvalues ---    0.34299   0.34364   0.34367   0.34383   0.34865
     Eigenvalues ---    0.35057   0.35285   0.35310   0.35431   0.36606
     Eigenvalues ---    0.37917   0.40983   0.44438   0.50219   0.53374
     Eigenvalues ---    0.54323   0.56287   0.89584   0.91327
 RFO step:  Lambda=-2.19886374D-02 EMin= 2.76190322D-03
 Linear search not attempted -- first point.
 Iteration  1 RMS(Cart)=  0.04762614 RMS(Int)=  0.00081744
 Iteration  2 RMS(Cart)=  0.00137645 RMS(Int)=  0.00025510
 Iteration  3 RMS(Cart)=  0.00000111 RMS(Int)=  0.00025510
 Iteration  4 RMS(Cart)=  0.00000000 RMS(Int)=  0.00025510
 Variable       Old X    -DE/DX   Delta X   Delta X   Delta X     New X
                                 (Linear)    (Quad)   (Total)
    R1        2.53356  -0.00211   0.00000  -0.00437  -0.00442   2.52913
    R2        2.82329   0.00864   0.00000   0.02502   0.02491   2.84820
    R3        2.05583   0.00038   0.00000   0.00101   0.00101   2.05684
    R4        2.84603   0.00483   0.00000   0.01224   0.01230   2.85833
    R5        2.83840   0.00482   0.00000   0.01404   0.01404   2.85244
    R6        2.94533   0.00654   0.00000   0.01657   0.01651   2.96183
    R7        2.89802   0.01020   0.00000   0.03426   0.03419   2.93222
    R8        2.07936  -0.00185   0.00000  -0.00515  -0.00515   2.07421
    R9        2.92641   0.01123   0.00000   0.03395   0.03390   2.96031
   R10        2.91895   0.00809   0.00000   0.03199   0.03232   2.95127
   R11        2.75409  -0.00552   0.00000  -0.01532  -0.01533   2.73876
   R12        2.91722   0.00504   0.00000   0.01851   0.01846   2.93568
   R13        2.91124   0.00491   0.00000   0.00874   0.00841   2.91965
   R14        2.91332   0.00549   0.00000   0.01797   0.01790   2.93122
   R15        2.07537  -0.00168   0.00000  -0.00465  -0.00465   2.07072
   R16        2.07464   0.00254   0.00000   0.00702   0.00702   2.08166
   R17        2.81283   0.01095   0.00000   0.02574   0.02542   2.83825
   R18        2.86537   0.01503   0.00000   0.05312   0.05265   2.91802
   R19        2.68573   0.00265   0.00000   0.00687   0.00693   2.69266
   R20        2.52511   0.01144   0.00000   0.02040   0.02049   2.54560
   R21        2.62143  -0.01778   0.00000  -0.04150  -0.04123   2.58019
   R22        2.79823   0.00176   0.00000   0.00061   0.00076   2.79899
   R23        2.79194   0.02039   0.00000   0.05500   0.05500   2.84694
   R24        2.32327  -0.00844   0.00000  -0.00902  -0.00902   2.31425
   R25        2.33125  -0.01929   0.00000  -0.02101  -0.02101   2.31024
   R26        2.89044  -0.00280   0.00000  -0.00886  -0.00886   2.88158
   R27        2.90215   0.00610   0.00000   0.01960   0.01960   2.92175
   R28        2.88912   0.00702   0.00000   0.02214   0.02214   2.91125
   R29        2.07628  -0.00026   0.00000  -0.00072  -0.00072   2.07556
   R30        2.07353   0.00082   0.00000   0.00226   0.00226   2.07579
   R31        2.07035   0.00046   0.00000   0.00126   0.00126   2.07161
   R32        2.87737   0.00763   0.00000   0.02361   0.02361   2.90098
   R33        2.06960   0.00052   0.00000   0.00144   0.00144   2.07104
   R34        2.07026   0.00018   0.00000   0.00049   0.00049   2.07075
   R35        2.06836   0.00041   0.00000   0.00113   0.00113   2.06950
   R36        2.91081   0.00020   0.00000   0.01228   0.01245   2.92326
[...]
     54          1           0        0.963246    4.021960   -2.902315
     55          1           0        2.561666    3.375271   -2.480917
     56          1           0        1.134250    4.162545    0.888310
     57          1           0        0.770424    5.134127   -0.554672
     58          1           0        2.417719    4.542092   -0.271046
     59          1           0       -4.254028    1.818832    3.323741
     60          1           0       -3.725417    3.130731    2.255296
     61          1           0       -4.765908    1.859203    1.623613
     62          6           0        4.165110   -3.311786    1.180701
     63          1           0        4.167011   -4.382558    0.947054
     64          1           0        5.100752   -3.078919    1.703625
     65          1           0        3.336411   -3.123751    1.868960
 ---------------------------------------------------------------------
 Rotational constants (GHZ):      0.1898592      0.1409115      0.1131115

 **********************************************************************

            Population analysis using the SCF density.

 **********************************************************************

 Orbital symmetries:
       Occupied  (A) (A) (A) (A) (A) (A) (A) (A) (A) (A) (A) (A)
                 (A) (A) (A) (A) (A) (A) (A) (A) (A) (A) (A) (A)
                 (A) (A) (A) (A) (A) (A) (A) (A) (A) (A) (A) (A)
                 (A) (A) (A) (A) (A) (A) (A) (A) (A) (A) (A) (A)
                 (A) (A) (A) (A) (A) (A) (A) (A) (A) (A) (A) (A)
                 (A) (A) (A) (A) (A) (A) (A) (A) (A) (A) (A) (A)
                 (A) (A) (A) (A) (A) (A) (A) (A) (A) (A) (A) (A)
                 (A) (A) (A) (A) (A) (A) (A) (A) (A) (A) (A) (A)
                 (A) (A) (A) (A) (A) (A) (A) (A) (A) (A) (A) (A)
                 (A) (A) (A) (A) (A) (A) (A)
       Virtual   (A) (A) (A) (A) (A) (A) (A) (A) (A) (A) (A) (A)
                 (A) (A) (A) (A) (A) (A) (A) (A) (A) (A) (A) (A)
                 (A) (A) (A) (A) (A) (A) (A) (A) (A) (A) (A) (A)
                 (A) (A) (A) (A) (A) (A) (A) (A) (A) (A) (A) (A)
                 (A) (A) (A) (A) (A) (A) (A) (A) (A) (A) (A) (A)
                 (A) (A) (A) (A) (A) (A) (A) (A) (A) (A) (A) (A)
                 (A) (A) (A) (A) (A) (A) (A) (A) (A) (A) (A) (A)
                 (A) (A) (A) (A) (A) (A) (A) (A) (A) (A) (A) (A)
                 (A) (A) (A) (A) (A) (A) (A) (A) (A) (A) (A) (A)
                 (A) (A) (A) (A) (A) (A) (A) (A) (A) (A) (A) (A)
                 (A) (A) (A) (A) (A) (A) (A) (A) (A) (A) (A) (A)
                 (A) (A) (A) (A) (A) (A) (A) (A) (A) (A) (A) (A)
                 (A) (A) (A) (A) (A) (A) (A) (A) (A) (A) (A) (A)
                 (A) (A) (A) (A) (A) (A) (A) (A) (A) (A) (A) (A)
                 (A) (A) (A) (A) (A) (A) (A) (A) (A) (A) (A) (A)
                 (A) (A) (A) (A) (A) (A) (A) (A) (A) (A) (A) (A)
                 (A) (A) (A) (A) (A) (A) (A) (A) (A) (A) (A) (A)
                 (A) (A) (A) (A) (A) (A) (A) (A) (A) (A) (A) (A)
                 (A) (A) (A) (A) (A) (A) (A) (A) (A) (A) (A) (A)
                 (A) (A) (A) (A) (A) (A) (A) (A) (A) (A) (A) (A)
                 (A) (A) (A) (A) (A) (A) (A) (A) (A) (A) (A) (A)
                 (A) (A) (A) (A) (A) (A) (A) (A) (A) (A) (A) (A)
                 (A) (A) (A) (A) (A) (A) (A) (A) (A) (A) (A) (A)
                 (A) (A) (A) (A) (A) (A) (A) (A) (A) (A) (A) (A)
                 (A) (A) (A) (A) (A) (A) (A) (A) (A) (A) (A) (A)
                 (A) (A) (A) (A) (A) (A) (A) (A) (A) (A) (A) (A)
                 (A) (A) (A) (A) (A) (A) (A) (A) (A) (A) (A) (A)
                 (A) (A) (A) (A) (A) (A) (A) (A) (A) (A) (A) (A)
                 (A) (A) (A) (A) (A) (A) (A) (A) (A) (A) (A) (A)
                 (A) (A) (A) (A) (A) (A) (A) (A) (A) (A) (A) (A)
                 (A) (A) (A) (A) (A) (A) (A) (A) (A) (A) (A) (A)
                 (A) (A) (A) (A) (A) (A) (A) (A) (A) (A) (A) (A)
                 (A) (A) (A) (A) (A) (A) (A) (A) (A) (A) (A) (A)
                 (A) (A) (A) (A) (A) (A) (A) (A) (A) (A) (A) (A)
                 (A) (A) (A) (A) (A) (A) (A) (A) (A) (A)
 The electronic state is 1-A.
 Alpha  occ. eigenvalues --  -19.19450 -19.16939 -19.14991 -19.13280 -19.13268
 Alpha  occ. eigenvalues --  -10.27255 -10.26969 -10.26649 -10.26473 -10.26071
 Alpha  occ. eigenvalues --  -10.25844 -10.24709 -10.21329 -10.20451 -10.20390
 Alpha  occ. eigenvalues --  -10.20170 -10.20169 -10.19777 -10.19409 -10.19087
 Alpha  occ. eigenvalues --  -10.19017 -10.18826 -10.18659 -10.18511 -10.18490
 Alpha  occ. eigenvalues --  -10.18401 -10.18279 -10.18273 -10.17252 -10.16853
 Alpha  occ. eigenvalues --  -10.15496  -1.08811  -1.06321  -1.03514  -1.02738
 Alpha  occ. eigenvalues --   -1.02147  -0.86873  -0.83688  -0.82103  -0.81292
 Alpha  occ. eigenvalues --   -0.79969  -0.79594  -0.76648  -0.73862  -0.72924
 Alpha  occ. eigenvalues --   -0.72069  -0.71396  -0.70116  -0.69311  -0.68192
 Alpha  occ. eigenvalues --   -0.64824  -0.63659  -0.63391  -0.61684  -0.60578
 Alpha  occ. eigenvalues --   -0.58925  -0.58702  -0.56718  -0.55511  -0.54052
 Alpha  occ. eigenvalues --   -0.52856  -0.51791  -0.51054  -0.49953  -0.49313
 Alpha  occ. eigenvalues --   -0.47719  -0.47130  -0.46592  -0.46149  -0.45794
 Alpha  occ. eigenvalues --   -0.44990  -0.44597  -0.44242  -0.43619  -0.43254
 Alpha  occ. eigenvalues --   -0.42363  -0.42351  -0.42240  -0.41405  -0.41191
 Alpha  occ. eigenvalues --   -0.40923  -0.40559  -0.40224  -0.40107  -0.39899
 Alpha  occ. eigenvalues --   -0.39386  -0.38949  -0.38888  -0.38366  -0.37912
 Alpha  occ. eigenvalues --   -0.37678  -0.37313  -0.36976  -0.36762  -0.36304
 Alpha  occ. eigenvalues --   -0.35675  -0.35347  -0.35183  -0.34819  -0.34422
 Alpha  occ. eigenvalues --   -0.33638  -0.33490  -0.33089  -0.32611  -0.32100
 Alpha  occ. eigenvalues --   -0.32081  -0.31277  -0.30776  -0.28185  -0.27336
 Alpha  occ. eigenvalues --   -0.25451  -0.24653  -0.24366  -0.23485  -0.22635
 Alpha virt. eigenvalues --   -0.03970  -0.01502   0.00765   0.01445   0.03762
 Alpha virt. eigenvalues --    0.06870   0.08097   0.08475   0.08965   0.10183
 Alpha virt. eigenvalues --    0.10632   0.10791   0.11197   0.11989   0.12315
 Alpha virt. eigenvalues --    0.12885   0.13121   0.13652   0.13808   0.14035
 Alpha virt. eigenvalues --    0.14525   0.14747   0.15026   0.15387   0.15732
 Alpha virt. eigenvalues --    0.16105   0.16664   0.16849   0.16982   0.17676
 Alpha virt. eigenvalues --    0.17863   0.17964   0.18517   0.18913   0.19172
 Alpha virt. eigenvalues --    0.19369   0.19631   0.19826   0.20400   0.20601
 Alpha virt. eigenvalues --    0.20957   0.21345   0.21825   0.21956   0.22526
 Alpha virt. eigenvalues --    0.23082   0.23830   0.23958   0.24204   0.24549
 Alpha virt. eigenvalues --    0.24976   0.25537   0.25799   0.26318   0.26645
 Alpha virt. eigenvalues --    0.26938   0.27291   0.28184   0.28251   0.29364
 Alpha virt. eigenvalues --    0.31346   0.32070   0.32343   0.33790   0.34278
 Alpha virt. eigenvalues --    0.35401   0.36198   0.37804   0.37912   0.39883
 Alpha virt. eigenvalues --    0.40863   0.44551   0.45057   0.47620   0.48194
 Alpha virt. eigenvalues --    0.48843   0.49740   0.50155   0.50491   0.51159
 Alpha virt. eigenvalues --    0.51470   0.51914   0.52364   0.52476   0.53189
 Alpha virt. eigenvalues --    0.53488   0.53948   0.54073   0.55449   0.56105
 Alpha virt. eigenvalues --    0.56484   0.57153   0.57597   0.57966   0.58838
 Alpha virt. eigenvalues --    0.59849   0.60546   0.60697   0.61168   0.61527
 Alpha virt. eigenvalues --    0.61620   0.62436   0.62988   0.63593   0.64442
 Alpha virt. eigenvalues --    0.64922   0.65448   0.66493   0.67051   0.67287
 Alpha virt. eigenvalues --    0.67790   0.68609   0.68811   0.69410   0.69806
 Alpha virt. eigenvalues --    0.70911   0.71178   0.71616   0.72216   0.73124
 Alpha virt. eigenvalues --    0.73693   0.74101   0.74310   0.75830   0.76014
 Alpha virt. eigenvalues --    0.76616   0.77246   0.77413   0.78164   0.78480
 Alpha virt. eigenvalues --    0.79446   0.79728   0.80590   0.81641   0.81834
 Alpha virt. eigenvalues --    0.82758   0.83448   0.83653   0.84158   0.85062
 Alpha virt. eigenvalues --    0.85605   0.85918   0.86262   0.86438   0.87197
 Alpha virt. eigenvalues --    0.87291   0.87941   0.88590   0.88778   0.89097
 Alpha virt. eigenvalues --    0.89462   0.89728   0.89901   0.90510   0.90750
 Alpha virt. eigenvalues --    0.91269   0.91388   0.91536   0.92456   0.93018
 Alpha virt. eigenvalues --    0.93457   0.93560   0.93905   0.94310   0.95200
 Alpha virt. eigenvalues --    0.95288   0.95547   0.95581   0.96068   0.96520
 Alpha virt. eigenvalues --    0.97283   0.98146   0.98449   0.98890   0.99570
 Alpha virt. eigenvalues --    0.99906   1.00460   1.01299   1.01905   1.02903
 Alpha virt. eigenvalues --    1.03281   1.04216   1.04864   1.06441   1.07734
 Alpha virt. eigenvalues --    1.10304   1.10870   1.11091   1.12162   1.12841
 Alpha virt. eigenvalues --    1.13305   1.14595   1.14997   1.16575   1.17296
 Alpha virt. eigenvalues --    1.18083   1.18462   1.18944   1.20464   1.21159
 Alpha virt. eigenvalues --    1.21678   1.23036   1.25205   1.25622   1.26864
 Alpha virt. eigenvalues --    1.27431   1.29379   1.30379   1.30808   1.34285
 Alpha virt. eigenvalues --    1.35071   1.37380   1.38419   1.39140   1.40332
 Alpha virt. eigenvalues --    1.42324   1.42946   1.44643   1.44913   1.46218
 Alpha virt. eigenvalues --    1.48747   1.49483   1.50347   1.52375   1.53324
 Alpha virt. eigenvalues --    1.53915   1.54677   1.56341   1.56820   1.58845
 Alpha virt. eigenvalues --    1.59703   1.60239   1.60365   1.61395   1.62901
 Alpha virt. eigenvalues --    1.64145   1.65169   1.66659   1.67441   1.69468
 Alpha virt. eigenvalues --    1.70173   1.71705   1.72557   1.72612   1.73482
 Alpha virt. eigenvalues --    1.74557   1.75207   1.76526   1.77429   1.77930
 Alpha virt. eigenvalues --    1.79169   1.80021   1.80586   1.81482   1.82107
 Alpha virt. eigenvalues --    1.83322   1.83623   1.84517   1.84640   1.85359
 Alpha virt. eigenvalues --    1.86139   1.86600   1.87023   1.87870   1.88836
 Alpha virt. eigenvalues --    1.89174   1.89972   1.90108   1.90904   1.91178
 Alpha virt. eigenvalues --    1.92224   1.93009   1.93270   1.94195   1.95024
 Alpha virt. eigenvalues --    1.95887   1.96293   1.96606   1.97302   1.98035
 Alpha virt. eigenvalues --    1.98273   1.98516   1.99880   1.99993   2.00541
 Alpha virt. eigenvalues --    2.01487   2.02485   2.03187   2.03573   2.04052
 Alpha virt. eigenvalues --    2.04489   2.05679   2.06388   2.07803   2.08374
 Alpha virt. eigenvalues --    2.09199   2.11039   2.12039   2.12710   2.13369
 Alpha virt. eigenvalues --    2.14070   2.15790   2.17010   2.17892   2.18845
 Alpha virt. eigenvalues --    2.19385   2.20005   2.20976   2.21035   2.22131
 Alpha virt. eigenvalues --    2.23773   2.24230   2.24856   2.25869   2.26903
 Alpha virt. eigenvalues --    2.27592   2.28692   2.29130   2.30389   2.31669
 Alpha virt. eigenvalues --    2.32193   2.33109   2.33522   2.34379   2.34621
 Alpha virt. eigenvalues --    2.36040   2.36952   2.38134   2.38660   2.39201
 Alpha virt. eigenvalues --    2.39948   2.41104   2.41204   2.41599   2.43324
 Alpha virt. eigenvalues --    2.44396   2.45420   2.46878   2.48199   2.48655
 Alpha virt. eigenvalues --    2.49391   2.50387   2.50934   2.52894   2.53157
 Alpha virt. eigenvalues --    2.54960   2.56603   2.57989   2.59293   2.60409
 Alpha virt. eigenvalues --    2.60909   2.62695   2.63595   2.65157   2.66296
 Alpha virt. eigenvalues --    2.67202   2.69015   2.69647   2.69746   2.71236
 Alpha virt. eigenvalues --    2.72229   2.72800   2.74762   2.75503   2.77132
 Alpha virt. eigenvalues --    2.77590   2.78926   2.79909   2.80707   2.86915
 Alpha virt. eigenvalues --    2.87646   2.90507   2.93464   2.94185   2.96086
 Alpha virt. eigenvalues --    2.96254   2.98307   2.99170   3.00590   3.03209
 Alpha virt. eigenvalues --    3.05135   3.05950   3.11049   3.13420   3.19817
 Alpha virt. eigenvalues --    3.20700   3.26686   4.01374   4.09649   4.12159
 Alpha virt. eigenvalues --    4.13168   4.14060   4.16258   4.17457   4.19343
 Alpha virt. eigenvalues --    4.24081   4.25538   4.26173   4.27205   4.31033
 Alpha virt. eigenvalues --    4.31807   4.32607   4.36060   4.38051   4.44016
 Alpha virt. eigenvalues --    4.48729   4.49929   4.51950   4.58389   4.63006
 Alpha virt. eigenvalues --    4.64786   4.66113   4.69232   4.72717   4.77328
 Alpha virt. eigenvalues --    4.88901   4.96120   5.23521
          Condensed to atoms (all electrons):
 Mulliken atomic charges:
              1
     1  C   -0.195230
     2  C    0.199576
     3  C   -0.200641
     4  C    0.315642
     5  C   -0.019491
     6  C   -0.331853
     7  C    0.193067
     8  C    0.422634
     9  C   -0.112423
    10  C    0.406780
    11  C    0.420466
    12  O   -0.444988
    13  C   -0.149933
    14  C   -0.261900
    15  C   -0.469938
    16  O   -0.495264
    17  C   -0.154246
    18  C    0.297844
    19  O   -0.536860
    20  C   -0.308959
    21  O   -0.677127
    22  C   -0.344275
    23  C    0.103006
    24  O   -0.590420
    25  C    0.217106
    26  C   -0.524455
    27  C   -0.401916
    28  C   -0.466428
    29  C   -0.460423
    30  H    0.146747
    31  H    0.147034
    32  C   -0.521473
    33  H    0.125728
    34  H    0.164638
    35  H    0.179250
    36  H    0.144733
    37  H    0.130898
    38  H    0.159434
    39  H    0.159976
    40  H    0.143734
    41  H    0.157100
    42  H    0.164658
    43  H    0.150836
    44  H    0.431243
    45  H    0.190175
    46  H    0.152405
    47  H    0.130955
    48  H    0.172568
    49  H    0.163037
    50  H    0.157024
    51  H    0.140633
    52  H    0.138363
    53  H    0.193533
    54  H    0.144297
    55  H    0.156105
    56  H    0.163275
    57  H    0.150404
    58  H    0.163108
    59  H    0.158157
    60  H    0.155346
    61  H    0.155153
    62  C   -0.445410
    63  H    0.137711
    64  H    0.136746
    65  H    0.172533
 Sum of Mulliken atomic charges =   0.00000
 Mulliken charges with hydrogens summed into heavy atoms:
              1
     1  C   -0.069503
     2  C    0.199576
     3  C   -0.053607
     4  C    0.315642
     5  C   -0.019491
     6  C    0.012035
     7  C    0.193067
     8  C    0.422634
     9  C   -0.112423
    10  C    0.406780
    11  C    0.420466
    12  O   -0.444988
    13  C   -0.005199
    14  C    0.028432
    15  C   -0.009128
    16  O   -0.495264
    17  C   -0.007499
    18  C    0.297844
    19  O   -0.536860
    20  C    0.006534
    21  O   -0.245885
    22  C   -0.001695
    23  C    0.233961
    24  O   -0.590420
    25  C    0.217106
    26  C   -0.031827
    27  C   -0.122919
    28  C    0.027506
    29  C    0.016364
    32  C   -0.052818
    62  C    0.001580
 Sum of Mulliken charges with hydrogens summed into heavy atoms =   0.00000
 Electronic spatial extent (au):  <R**2>=          11290.7607
 Charge=              0.0000 electrons
 Dipole moment (field-independent basis, Debye):
    X=             -3.7354    Y=              3.4832    Z=             -1.6447  Tot=              5.3657
 Quadrupole moment (field-independent basis, Debye-Ang):
   XX=           -181.0194   YY=           -176.3709   ZZ=           -188.8530
   XY=              2.6394   XZ=            -10.3690   YZ=              2.3296
 Traceless Quadrupole moment (field-independent basis, Debye-Ang):
   XX=              1.0617   YY=              5.7102   ZZ=             -6.7719
   XY=              2.6394   XZ=            -10.3690   YZ=              2.3296
 Octapole moment (field-independent basis, Debye-Ang**2):
  XXX=             -2.6428  YYY=             59.4415  ZZZ=             -9.8963  XYY=             -8.3130
  XXY=             -6.0240  XXZ=            -19.1593  XZZ=            -29.0479  YZZ=             -4.9945
  YYZ=            -28.6941  XYZ=             -6.0412
 Hexadecapole moment (field-independent basis, Debye-Ang**3):
 XXXX=          -7365.3574 YYYY=          -4977.9912 ZZZZ=          -2589.7754 XXXY=             14.8801
 XXXZ=            -88.0232 YYYX=             58.4431 YYYZ=              5.0553 ZZZX=            -38.8317
 ZZZY=             -1.9475 XXYY=          -2041.7799 XXZZ=          -1740.1213 YYZZ=          -1236.5316
 XXYZ=             33.1319 YYXZ=             26.3581 ZZXY=             36.5175
 N-N= 3.524091328147D+03 E-N=-1.027443659614D+04  KE= 1.374468738598D+03
 1\1\GINC-B0604\FOpt\RB3LYP\6-31G(d)\C26H34O5\CAOFEI\24-Mar-2021\0\\# o
 pt rb3lyp/6-31g(d) geom=connectivity\\Title Card Required\\0,1\C,0.078
 9828886,-0.0750597891,-0.1103481587\C,1.413819582,-0.0790802297,-0.010
 8141058\C,2.1734246101,1.2276811851,-0.0297316949\C,1.4200691062,2.470
 7825822,0.5485675729\C,-0.1359132506,2.3436309839,0.6653282324\C,-0.72
 0994829,1.1955956456,-0.2140811141\C,1.9197224837,3.6668744884,-0.3291
 802113\C,0.8878282234,4.1152819408,-1.3445578109\C,-0.4275428642,4.223
 7507862,-1.0686184199\C,-0.8952386542,3.6141854853,0.1900075899\C,-1.4
 659549857,4.7229849353,-2.0587390043\O,-2.0977560603,3.9001523134,-2.6
 977624571\C,-1.7383698772,6.2188324407,-2.1804260182\C,-2.6705253794,6
 .6776503871,-1.0268039427\C,-0.4580378069,7.0679064666,-2.2198680633\O
 ,-1.9229979754,3.9666773757,0.7548346829\C,3.0282978056,3.1461488481,-
 1.2710668826\C,2.9064488622,4.0680245387,-2.5076292494\O,1.4626349703,
 4.4204721888,-2.5200183813\C,2.6441874607,1.6644508384,-1.4426798179\O
 ,2.2799356532,4.7902603923,0.4513028403\C,-0.3788908165,2.0813240488,2
 .1721159759\C,1.0116482159,2.0937548147,2.838846017\O,1.8755854062,2.7
 417768596,1.8810250151\C,1.0824310668,2.8168298385,4.1643695703\C,0.89
 77752633,4.314213256,4.1540991474\C,1.2678530411,2.121455331,5.2904304
 956\C,3.697344818,5.3678506997,-2.3379523432\C,3.1949869991,3.41821189
 83,-3.8573729297\H,4.0124560363,3.2434135324,-0.8029091831\H,3.0712459
 296,1.1318027463,0.5961883347\C,2.2278173229,-1.3439769766,0.074069404
 2\H,-0.4651113189,-1.0180791548,-0.134634646\H,-1.75654506,1.028471635
 1,0.1014003077\H,-0.7850918339,1.5257429278,-1.2608068243\H,-2.2841840
 314,6.3331052028,-3.1257949697\H,-2.7558283419,7.7704589526,-1.1000350
 485\H,-2.1882445505,6.4614679539,-0.0660007622\H,0.096661774,6.9944924
 394,-1.2778179662\H,-0.7185393646,8.1209426458,-2.3753454778\H,0.21012
 32732,6.7583210593,-3.0292419878\H,1.8154530453,1.5554197072,-2.152383
 9006\H,3.469287712,1.0483352941,-1.8132113134\H,2.3376453643,4.4481475
 436,1.3660354832\H,-1.0383805222,2.8563537986,2.5694678896\H,-0.869518
 6954,1.1199109185,2.3433853742\H,1.3675124298,1.063616455,2.9727090226
 \H,0.0069028274,4.6133016334,3.5886661491\H,1.7528998723,4.8144026161,
 3.6829450063\H,0.8031168265,4.7045871379,5.171536946\H,1.2644287216,2.
 6012098546,6.2657257982\H,1.4221160492,1.0450996894,5.2802063089\H,3.4
 833773769,5.8314617385,-1.3721133757\H,4.7725782425,5.1628483923,-2.39
 4988277\H,3.4398624331,6.0702660121,-3.1374099012\H,2.5645129715,2.542
 6452457,-4.031088842\H,4.2447011991,3.1084277246,-3.9070147826\H,3.012
 7004069,4.1340165708,-4.6652169159\H,1.59126227,-2.2342210857,0.054518
 5721\H,2.9392492158,-1.420792979,-0.7599442449\H,2.8254657226,-1.37131
 45239,0.995912389\C,-4.0654238465,6.0473206712,-1.048068275\H,-4.68254
 90898,6.4589687323,-0.2413154079\H,-4.5779934701,6.2423434761,-1.99798
 48468\H,-4.0140208544,4.9641618619,-0.9069165717\\Version=EM64L-G09Rev
 B.01\State=1-A\HF=-1387.3174603\RMSD=4.972e-09\RMSF=2.359e-06\Dipole=1
 .9253536,-0.8259471,0.2593119\Quadrupole=-5.6372375,5.2699548,0.367282
 7,-1.687802,-7.1184152,-2.2169531\PG=C01 [X(C26H34O5)]\\@


 I LOVE THOSE WHO LONG FOR THE IMPOSSIBLE.

                                 -- GOETHE
 Job cpu time:  0 days  6 hours 38 minutes 31.9 seconds.
 File lengths (MBytes):  RWF=    186 Int=      0 D2E=      0 Chk=     20 Scr=      1
 Normal termination of Gaussian 09 at Wed Mar 24 17:46:52 2021.
