 Entering Gaussian System, Link 0=g09
 Initial command:
 /public/software/g09/g09/l1.exe /tmp/Gau-27102.inp -scrdir=/tmp/
 Entering Link 1 = /public/software/g09/g09/l1.exe PID=     27103.
  
 Copyright (c) 1988,1990,1992,1993,1995,1998,2003,2009,2010,
            Gaussian, Inc.  All Rights Reserved.
  
 This is part of the Gaussian(R) 09 program.  It is based on
 the Gaussian(R) 03 system (copyright 2003, Gaussian, Inc.),
 the Gaussian(R) 98 system (copyright 1998, Gaussian, Inc.),
 the Gaussian(R) 94 system (copyright 1995, Gaussian, Inc.),
 the Gaussian 92(TM) system (copyright 1992, Gaussian, Inc.),
 the Gaussian 90(TM) system (copyright 1990, Gaussian, Inc.),
 the Gaussian 88(TM) system (copyright 1988, Gaussian, Inc.),
 the Gaussian 86(TM) system (copyright 1986, Carnegie Mellon
 University), and the Gaussian 82(TM) system (copyright 1983,
 Carnegie Mellon University). Gaussian is a federally registered
 trademark of Gaussian, Inc.
  
 This software contains proprietary and confidential information,
 including trade secrets, belonging to Gaussian, Inc.
  
 This software is provided under written license and may be
 used, copied, transmitted, or stored only in accord with that
 written license.
  
 The following legend is applicable only to US Government
 contracts under FAR:
  
                    RESTRICTED RIGHTS LEGEND
  
 Use, reproduction and disclosure by the US Government is
 subject to restrictions as set forth in subparagraphs (a)
 and (c) of the Commercial Computer Software - Restricted
 Rights clause in FAR 52.227-19.
  
 Gaussian, Inc.
 340 Quinnipiac St., Bldg. 40, Wallingford CT 06492
  
  
 ---------------------------------------------------------------
 Warning -- This program may not be used in any manner that
 competes with the business of Gaussian, Inc. or will provide
 assistance to any competitor of Gaussian, Inc.  The licensee
 of this program is prohibited from giving any competitor of
 Gaussian, Inc. access to this program.  By using this program,
 the user acknowledges that Gaussian, Inc. is engaged in the
 business of creating and licensing software in the field of
 computational chemistry and represents and warrants to the
 licensee that it is not a competitor of Gaussian, Inc. and that
 it will not use this program in any manner prohibited above.
 ---------------------------------------------------------------
  

 Cite this work as:
 Gaussian 09, Revision B.01,
 M. J. Frisch, G. W. Trucks, H. B. Schlegel, G. E. Scuseria, 
 M. A. Robb, J. R. Cheeseman, G. Scalmani, V. Barone, B. Mennucci, 
 G. A. Petersson, H. Nakatsuji, M. Caricato, X. Li, H. P. Hratchian, 
 A. F. Izmaylov, J. Bloino, G. Zheng, J. L. Sonnenberg, M. Hada, 
 M. Ehara, K. Toyota, R. Fukuda, J. Hasegawa, M. Ishida, T. Nakajima, 
 Y. Honda, O. Kitao, H. Nakai, T. Vreven, J. A. Montgomery, Jr., 
 J. E. Peralta, F. Ogliaro, M. Bearpark, J. J. Heyd, E. Brothers, 
 K. N. Kudin, V. N. Staroverov, T. Keith, R. Kobayashi, J. Normand, 
 K. Raghavachari, A. Rendell, J. C. Burant, S. S. Iyengar, J. Tomasi, 
 M. Cossi, N. Rega, J. M. Millam, M. Klene, J. E. Knox, J. B. Cross, 
 V. Bakken, C. Adamo, J. Jaramillo, R. Gomperts, R. E. Stratmann, 
 O. Yazyev, A. J. Austin, R. Cammi, C. Pomelli, J. W. Ochterski, 
 R. L. Martin, K. Morokuma, V. G. Zakrzewski, G. A. Voth, 
 P. Salvador, J. J. Dannenberg, S. Dapprich, A. D. Daniels, 
 O. Farkas, J. B. Foresman, J. V. Ortiz, J. Cioslowski, 
 and D. J. Fox, Gaussian, Inc., Wallingford CT, 2010.
 
 ******************************************
 Gaussian 09:  EM64L-G09RevB.01 12-Aug-2010
                24-Mar-2021 
 ******************************************
 %mem=600MW
 %nprocshared=10
 Will use up to   10 processors via shared memory.
 ---------------------------------------
 # opt rb3lyp/6-31g(d) geom=connectivity
 ---------------------------------------
 1/14=-1,18=20,19=15,26=3,38=1,57=2/1,3;
 2/9=110,12=2,17=6,18=5,40=1/2;
 3/5=1,6=6,7=1,11=2,16=1,25=1,30=1,71=1,74=-5,116=1/1,2,3;
 4//1;
 5/5=2,38=5/2;
 6/7=2,8=2,9=2,10=2,28=1/1;
 7//1,2,3,16;
 1/14=-1,18=20,19=15/3(2);
 2/9=110/2;
 99//99;
 2/9=110/2;
 3/5=1,6=6,7=1,11=2,16=1,25=1,30=1,71=1,74=-5,116=1/1,2,3;
 4/5=5,16=3/1;
 5/5=2,38=5/2;
 7//1,2,3,16;
 1/14=-1,18=20,19=15/3(-5);
 2/9=110/2;
 6/7=2,8=2,9=2,10=2,19=2,28=1/1;
 99/9=1/99;
 -------------------
 Title Card Required
 -------------------
 Symbolic Z-matrix:
 Charge =  0 Multiplicity = 1
 C                     0.        0.        0. 
 C                     1.3404    0.        0. 
 C                     2.1197    1.288     0. 
 C                     1.3769    2.5431    0.5489 
 C                    -0.163     2.4596    0.6851 
 C                    -0.8028    1.2585   -0.0436 
 C                     1.897     3.7041   -0.3263 
 C                     0.9415    4.207    -1.3515 
 C                    -0.3766    4.2755   -1.1439 
 C                    -0.8864    3.6949    0.1183 
 C                    -1.2917    4.7154   -2.2174 
 O                    -1.7926    3.8553   -2.9465 
 C                    -1.6627    6.1932   -2.3522 
 C                    -2.8353    6.5772   -1.4378 
 C                    -0.4814    7.1351   -2.117 
 O                    -1.9298    4.1239    0.6079 
 C                     2.9999    3.1641   -1.2165 
 C                     2.918     4.0641   -2.4635 
 O                     1.5353    4.479    -2.5758 
 C                     2.5881    1.6972   -1.401 
 O                     2.339     4.8036    0.4572 
 C                    -0.389     2.3832    2.2075 
 C                     0.9814    2.1128    2.8009 
 O                     1.8801    2.7686    1.8994 
 C                     1.1449    2.6192    4.216 
 C                     0.3153    1.911     5.2538 
 C                     1.9776    3.6129    4.5718 
 C                     3.7751    5.332    -2.3228 
 C                     3.3102    3.3511   -3.7603 
 H                     3.9891    3.218    -0.7451 
 H                     3.0132    1.1296    0.6227 
 C                     2.1354   -1.2745   -0.0175 
 H                    -0.5506   -0.9379   -0.0311 
 H                    -1.7933    1.0575    0.3858 
 H                    -0.9891    1.4854   -1.1018 
 H                    -1.9702    6.3334   -3.3976 
 H                    -2.5647    6.437    -0.3856 
 H                    -3.0519    7.6456   -1.5631 
 H                    -0.7686    8.1718   -2.3242 
 H                     0.3554    6.8891   -2.7782 
 H                    -0.1233    7.0909   -1.083 
 H                     3.4299    1.0879   -1.747 
 H                     1.7732    1.5844   -2.1269 
 H                     2.5015    4.4393    1.3533 
 H                    -1.1075    1.6116    2.5057 
 H                    -0.773     3.3348    2.597 
 H                     1.2123    1.0406    2.7812 
 H                    -0.7518    2.0563    5.0586 
 H                     0.5291    0.8372    5.242 
 H                     0.519     2.2771    6.2658 
 H                     2.5949    4.1333    3.8473 
 H                     2.0662    3.9368    5.6044 
 H                     3.4659    5.9474   -1.4729 
 H                     3.6652    5.9719   -3.2063 
 H                     4.8353    5.0851   -2.2056 
 H                     4.3248    2.9442   -3.7022 
 H                     3.2639    4.0411   -4.6112 
 H                     2.6164    2.5402   -4.0046 
 H                     1.4919   -2.1606   -0.0262 
 H                     2.7713   -1.3163   -0.9074 
 H                     2.7732   -1.3356    0.8702 
 C                    -4.1121    5.802    -1.7332 
 H                    -3.9961    4.7367   -1.5133 
 H                    -4.4035    5.9102   -2.7827 
 H                    -4.9319    6.1802   -1.1139 
 

 GradGradGradGradGradGradGradGradGradGradGradGradGradGradGradGradGradGrad
 Berny optimization.
 Initialization pass.
                           ----------------------------
                           !    Initial Parameters    !
                           ! (Angstroms and Degrees)  !
 --------------------------                            --------------------------
 ! Name  Definition              Value          Derivative Info.                !
 --------------------------------------------------------------------------------
 ! R1    R(1,2)                  1.3404         estimate D2E/DX2                !
 ! R2    R(1,6)                  1.4934         estimate D2E/DX2                !
 ! R3    R(1,33)                 1.088          estimate D2E/DX2                !
 ! R4    R(2,3)                  1.5054         estimate D2E/DX2                !
 ! R5    R(2,32)                 1.5022         estimate D2E/DX2                !
 ! R6    R(3,4)                  1.5583         estimate D2E/DX2                !
 ! R7    R(3,20)                 1.5329         estimate D2E/DX2                !
 ! R8    R(3,31)                 1.1005         estimate D2E/DX2                !
 ! R9    R(4,5)                  1.5482         estimate D2E/DX2                !
 ! R10   R(4,7)                  1.5442         estimate D2E/DX2                !
 ! R11   R(4,24)                 1.4587         estimate D2E/DX2                !
 ! R12   R(5,6)                  1.5437         estimate D2E/DX2                !
 ! R13   R(5,10)                 1.5397         estimate D2E/DX2                !
 ! R14   R(5,22)                 1.541          estimate D2E/DX2                !
 ! R15   R(6,34)                 1.0981         estimate D2E/DX2                !
 ! R16   R(6,35)                 1.0982         estimate D2E/DX2                !
 ! R17   R(7,8)                  1.4889         estimate D2E/DX2                !
 ! R18   R(7,17)                 1.5167         estimate D2E/DX2                !
 ! R19   R(7,21)                 1.4206         estimate D2E/DX2                !
 ! R20   R(8,9)                  1.3361         estimate D2E/DX2                !
 ! R21   R(8,19)                 1.3876         estimate D2E/DX2                !
 ! R22   R(9,10)                 1.4799         estimate D2E/DX2                !
 ! R23   R(9,11)                 1.4776         estimate D2E/DX2                !
 ! R24   R(10,16)                1.2298         estimate D2E/DX2                !
 ! R25   R(11,12)                1.2338         estimate D2E/DX2                !
 ! R26   R(11,13)                1.5296         estimate D2E/DX2                !
 ! R27   R(13,14)                1.5358         estimate D2E/DX2                !
 ! R28   R(13,15)                1.529          estimate D2E/DX2                !
 ! R29   R(13,36)                1.0987         estimate D2E/DX2                !
 ! R30   R(14,37)                1.0954         estimate D2E/DX2                !
 ! R31   R(14,38)                1.0973         estimate D2E/DX2                !
 ! R32   R(14,62)                1.5226         estimate D2E/DX2                !
 ! R33   R(15,39)                1.0955         estimate D2E/DX2                !
 ! R34   R(15,40)                1.0945         estimate D2E/DX2                !
 ! R35   R(15,41)                1.0951         estimate D2E/DX2                !
 ! R36   R(17,18)                1.54           estimate D2E/DX2                !
 ! R37   R(17,20)                1.5347         estimate D2E/DX2                !
 ! R38   R(17,30)                1.0971         estimate D2E/DX2                !
 ! R39   R(18,19)                1.448          estimate D2E/DX2                !
 ! R40   R(18,28)                1.5369         estimate D2E/DX2                !
 ! R41   R(18,29)                1.531          estimate D2E/DX2                !
 ! R42   R(20,42)                1.0953         estimate D2E/DX2                !
 ! R43   R(20,43)                1.0971         estimate D2E/DX2                !
 ! R44   R(21,44)                0.9809         estimate D2E/DX2                !
 ! R45   R(22,23)                1.5176         estimate D2E/DX2                !
 ! R46   R(22,45)                1.0957         estimate D2E/DX2                !
 ! R47   R(22,46)                1.0976         estimate D2E/DX2                !
 ! R48   R(23,24)                1.4319         estimate D2E/DX2                !
 ! R49   R(23,25)                1.5118         estimate D2E/DX2                !
 ! R50   R(23,47)                1.097          estimate D2E/DX2                !
 ! R51   R(24,44)                1.8643         estimate D2E/DX2                !
 ! R52   R(25,26)                1.5056         estimate D2E/DX2                !
 ! R53   R(25,27)                1.3444         estimate D2E/DX2                !
 ! R54   R(26,48)                1.0945         estimate D2E/DX2                !
 ! R55   R(26,49)                1.0949         estimate D2E/DX2                !
 ! R56   R(26,50)                1.0953         estimate D2E/DX2                !
 ! R57   R(27,51)                1.0848         estimate D2E/DX2                !
 ! R58   R(27,52)                1.0858         estimate D2E/DX2                !
 ! R59   R(28,53)                1.0939         estimate D2E/DX2                !
 ! R60   R(28,54)                1.0964         estimate D2E/DX2                !
 ! R61   R(28,55)                1.0949         estimate D2E/DX2                !
 ! R62   R(29,56)                1.0947         estimate D2E/DX2                !
 ! R63   R(29,57)                1.0965         estimate D2E/DX2                !
 ! R64   R(29,58)                1.0948         estimate D2E/DX2                !
 ! R65   R(32,59)                1.0951         estimate D2E/DX2                !
 ! R66   R(32,60)                1.0945         estimate D2E/DX2                !
 ! R67   R(32,61)                1.0948         estimate D2E/DX2                !
 ! R68   R(62,63)                1.0939         estimate D2E/DX2                !
 ! R69   R(62,64)                1.0946         estimate D2E/DX2                !
 ! R70   R(62,65)                1.0948         estimate D2E/DX2                !
 ! A1    A(2,1,6)              122.5183         estimate D2E/DX2                !
 ! A2    A(2,1,33)             120.4016         estimate D2E/DX2                !
 ! A3    A(6,1,33)             116.9727         estimate D2E/DX2                !
 ! A4    A(1,2,3)              121.1759         estimate D2E/DX2                !
 ! A5    A(1,2,32)             121.9524         estimate D2E/DX2                !
 ! A6    A(3,2,32)             116.8673         estimate D2E/DX2                !
 ! A7    A(2,3,4)              116.254          estimate D2E/DX2                !
 ! A8    A(2,3,20)             112.7422         estimate D2E/DX2                !
 ! A9    A(2,3,31)             107.2857         estimate D2E/DX2                !
 ! A10   A(4,3,20)             104.6308         estimate D2E/DX2                !
 ! A11   A(4,3,31)             107.6751         estimate D2E/DX2                !
 ! A12   A(20,3,31)            107.9073         estimate D2E/DX2                !
 ! A13   A(3,4,5)              117.4952         estimate D2E/DX2                !
 ! A14   A(3,4,7)              104.2042         estimate D2E/DX2                !
 ! A15   A(3,4,24)             106.6295         estimate D2E/DX2                !
 ! A16   A(5,4,7)              115.1783         estimate D2E/DX2                !
 ! A17   A(5,4,24)             105.6645         estimate D2E/DX2                !
 ! A18   A(7,4,24)             106.9965         estimate D2E/DX2                !
 ! A19   A(4,5,6)              114.3736         estimate D2E/DX2                !
 ! A20   A(4,5,10)             113.0589         estimate D2E/DX2                !
 ! A21   A(4,5,22)             103.6191         estimate D2E/DX2                !
 ! A22   A(6,5,10)             104.8182         estimate D2E/DX2                !
 ! A23   A(6,5,22)             111.5306         estimate D2E/DX2                !
 ! A24   A(10,5,22)            109.5462         estimate D2E/DX2                !
 ! A25   A(1,6,5)              114.7782         estimate D2E/DX2                !
 ! A26   A(1,6,34)             108.6156         estimate D2E/DX2                !
 ! A27   A(1,6,35)             107.0645         estimate D2E/DX2                !
 ! A28   A(5,6,34)             109.3703         estimate D2E/DX2                !
 ! A29   A(5,6,35)             111.3718         estimate D2E/DX2                !
 ! A30   A(34,6,35)            105.1649         estimate D2E/DX2                !
 ! A31   A(4,7,8)              115.3444         estimate D2E/DX2                !
 ! A32   A(4,7,17)             108.0527         estimate D2E/DX2                !
 ! A33   A(4,7,21)             111.97           estimate D2E/DX2                !
 ! A34   A(8,7,17)             100.5313         estimate D2E/DX2                !
 ! A35   A(8,7,21)             108.5421         estimate D2E/DX2                !
 ! A36   A(17,7,21)            111.9015         estimate D2E/DX2                !
 ! A37   A(7,8,9)              122.9167         estimate D2E/DX2                !
 ! A38   A(7,8,19)             113.5218         estimate D2E/DX2                !
 ! A39   A(9,8,19)             123.3121         estimate D2E/DX2                !
 ! A40   A(8,9,10)             116.8877         estimate D2E/DX2                !
 ! A41   A(8,9,11)             120.887          estimate D2E/DX2                !
 ! A42   A(10,9,11)            121.5399         estimate D2E/DX2                !
 ! A43   A(5,10,9)             117.8328         estimate D2E/DX2                !
 ! A44   A(5,10,16)            122.1372         estimate D2E/DX2                !
 ! A45   A(9,10,16)            119.6667         estimate D2E/DX2                !
 ! A46   A(9,11,12)            118.2432         estimate D2E/DX2                !
 ! A47   A(9,11,13)            120.1234         estimate D2E/DX2                !
 ! A48   A(12,11,13)           121.5308         estimate D2E/DX2                !
 ! A49   A(11,13,14)           111.9803         estimate D2E/DX2                !
 ! A50   A(11,13,15)           113.2162         estimate D2E/DX2                !
 ! A51   A(11,13,36)           105.9635         estimate D2E/DX2                !
 ! A52   A(14,13,15)           110.1374         estimate D2E/DX2                !
 ! A53   A(14,13,36)           108.7191         estimate D2E/DX2                !
 ! A54   A(15,13,36)           106.4983         estimate D2E/DX2                !
 ! A55   A(13,14,37)           110.5661         estimate D2E/DX2                !
 ! A56   A(13,14,38)           109.0368         estimate D2E/DX2                !
 ! A57   A(13,14,62)           113.4185         estimate D2E/DX2                !
 ! A58   A(37,14,38)           106.4425         estimate D2E/DX2                !
 ! A59   A(37,14,62)           109.1673         estimate D2E/DX2                !
 ! A60   A(38,14,62)           107.9404         estimate D2E/DX2                !
 ! A61   A(13,15,39)           110.567          estimate D2E/DX2                !
 ! A62   A(13,15,40)           111.0568         estimate D2E/DX2                !
 ! A63   A(13,15,41)           111.9004         estimate D2E/DX2                !
 ! A64   A(39,15,40)           107.3896         estimate D2E/DX2                !
 ! A65   A(39,15,41)           107.6072         estimate D2E/DX2                !
 ! A66   A(40,15,41)           108.1382         estimate D2E/DX2                !
 ! A67   A(7,17,18)            103.2093         estimate D2E/DX2                !
 ! A68   A(7,17,20)            102.459          estimate D2E/DX2                !
 ! A69   A(7,17,30)            112.7035         estimate D2E/DX2                !
 ! A70   A(18,17,20)           116.5488         estimate D2E/DX2                !
 ! A71   A(18,17,30)           111.5403         estimate D2E/DX2                !
 ! A72   A(20,17,30)           109.9098         estimate D2E/DX2                !
 ! A73   A(17,18,19)           106.3221         estimate D2E/DX2                !
 ! A74   A(17,18,28)           112.2306         estimate D2E/DX2                !
 ! A75   A(17,18,29)           113.5831         estimate D2E/DX2                !
 ! A76   A(19,18,28)           107.6536         estimate D2E/DX2                !
 ! A77   A(19,18,29)           108.2028         estimate D2E/DX2                !
 ! A78   A(28,18,29)           108.5957         estimate D2E/DX2                !
 ! A79   A(8,19,18)            106.5016         estimate D2E/DX2                !
 ! A80   A(3,20,17)            103.1364         estimate D2E/DX2                !
 ! A81   A(3,20,42)            112.0296         estimate D2E/DX2                !
 ! A82   A(3,20,43)            110.506          estimate D2E/DX2                !
 ! A83   A(17,20,42)           111.3134         estimate D2E/DX2                !
 ! A84   A(17,20,43)           112.1542         estimate D2E/DX2                !
 ! A85   A(42,20,43)           107.7376         estimate D2E/DX2                !
 ! A86   A(7,21,44)            105.5423         estimate D2E/DX2                !
 ! A87   A(5,22,23)            105.2297         estimate D2E/DX2                !
 ! A88   A(5,22,45)            113.5759         estimate D2E/DX2                !
 ! A89   A(5,22,46)            111.0336         estimate D2E/DX2                !
 ! A90   A(23,22,45)           111.1153         estimate D2E/DX2                !
 ! A91   A(23,22,46)           109.3679         estimate D2E/DX2                !
 ! A92   A(45,22,46)           106.5318         estimate D2E/DX2                !
 ! A93   A(22,23,24)           103.8252         estimate D2E/DX2                !
 ! A94   A(22,23,25)           113.8256         estimate D2E/DX2                !
 ! A95   A(22,23,47)           110.9282         estimate D2E/DX2                !
 ! A96   A(24,23,25)           111.5925         estimate D2E/DX2                !
 ! A97   A(24,23,47)           107.712          estimate D2E/DX2                !
 ! A98   A(25,23,47)           108.7501         estimate D2E/DX2                !
 ! A99   A(4,24,23)            107.191          estimate D2E/DX2                !
 ! A100  A(23,25,26)           115.3433         estimate D2E/DX2                !
 ! A101  A(23,25,27)           124.2135         estimate D2E/DX2                !
 ! A102  A(26,25,27)           120.4335         estimate D2E/DX2                !
 ! A103  A(25,26,48)           110.6            estimate D2E/DX2                !
 ! A104  A(25,26,49)           110.2598         estimate D2E/DX2                !
 ! A105  A(25,26,50)           112.159          estimate D2E/DX2                !
 ! A106  A(48,26,49)           108.581          estimate D2E/DX2                !
 ! A107  A(48,26,50)           107.5618         estimate D2E/DX2                !
 ! A108  A(49,26,50)           107.544          estimate D2E/DX2                !
 ! A109  A(25,27,51)           122.0248         estimate D2E/DX2                !
 ! A110  A(25,27,52)           121.5136         estimate D2E/DX2                !
 ! A111  A(51,27,52)           116.4615         estimate D2E/DX2                !
 ! A112  A(18,28,53)           112.1853         estimate D2E/DX2                !
 ! A113  A(18,28,54)           110.5983         estimate D2E/DX2                !
 ! A114  A(18,28,55)           111.3334         estimate D2E/DX2                !
 ! A115  A(53,28,54)           105.6284         estimate D2E/DX2                !
 ! A116  A(53,28,55)           108.5059         estimate D2E/DX2                !
 ! A117  A(54,28,55)           108.3569         estimate D2E/DX2                !
 ! A118  A(18,29,56)           111.4436         estimate D2E/DX2                !
 ! A119  A(18,29,57)           110.698          estimate D2E/DX2                !
 ! A120  A(18,29,58)           111.8153         estimate D2E/DX2                !
 ! A121  A(56,29,57)           108.3143         estimate D2E/DX2                !
 ! A122  A(56,29,58)           108.898          estimate D2E/DX2                !
 ! A123  A(57,29,58)           105.4366         estimate D2E/DX2                !
 ! A124  A(2,32,59)            112.0608         estimate D2E/DX2                !
 ! A125  A(2,32,60)            110.4463         estimate D2E/DX2                !
 ! A126  A(2,32,61)            110.2561         estimate D2E/DX2                !
 ! A127  A(59,32,60)           107.699          estimate D2E/DX2                !
 ! A128  A(59,32,61)           107.6744         estimate D2E/DX2                !
 ! A129  A(60,32,61)           108.5813         estimate D2E/DX2                !
 ! A130  A(14,62,63)           111.5847         estimate D2E/DX2                !
 ! A131  A(14,62,64)           111.0347         estimate D2E/DX2                !
 ! A132  A(14,62,65)           110.0163         estimate D2E/DX2                !
 ! A133  A(63,62,64)           108.496          estimate D2E/DX2                !
 ! A134  A(63,62,65)           107.5836         estimate D2E/DX2                !
 ! A135  A(64,62,65)           107.9916         estimate D2E/DX2                !
 ! D1    D(6,1,2,3)              1.9842         estimate D2E/DX2                !
 ! D2    D(6,1,2,32)          -177.2291         estimate D2E/DX2                !
 ! D3    D(33,1,2,3)           178.1008         estimate D2E/DX2                !
 ! D4    D(33,1,2,32)           -1.1125         estimate D2E/DX2                !
 ! D5    D(2,1,6,5)            -33.3172         estimate D2E/DX2                !
 ! D6    D(2,1,6,34)          -156.066          estimate D2E/DX2                !
 ! D7    D(2,1,6,35)            90.8457         estimate D2E/DX2                !
 ! D8    D(33,1,6,5)           150.4408         estimate D2E/DX2                !
 ! D9    D(33,1,6,34)           27.692          estimate D2E/DX2                !
 ! D10   D(33,1,6,35)          -85.3963         estimate D2E/DX2                !
 ! D11   D(1,2,3,4)             23.1262         estimate D2E/DX2                !
 ! D12   D(1,2,3,20)           -97.68           estimate D2E/DX2                !
 ! D13   D(1,2,3,31)           143.6599         estimate D2E/DX2                !
 ! D14   D(32,2,3,4)          -157.6221         estimate D2E/DX2                !
 ! D15   D(32,2,3,20)           81.5717         estimate D2E/DX2                !
 ! D16   D(32,2,3,31)          -37.0883         estimate D2E/DX2                !
 ! D17   D(1,2,32,59)           -0.1957         estimate D2E/DX2                !
 ! D18   D(1,2,32,60)          119.8822         estimate D2E/DX2                !
 ! D19   D(1,2,32,61)         -120.1127         estimate D2E/DX2                !
 ! D20   D(3,2,32,59)         -179.4412         estimate D2E/DX2                !
 ! D21   D(3,2,32,60)          -59.3633         estimate D2E/DX2                !
 ! D22   D(3,2,32,61)           60.6418         estimate D2E/DX2                !
 ! D23   D(2,3,4,5)            -15.8567         estimate D2E/DX2                !
 ! D24   D(2,3,4,7)           -144.6469         estimate D2E/DX2                !
 ! D25   D(2,3,4,24)           102.3803         estimate D2E/DX2                !
 ! D26   D(20,3,4,5)           109.191          estimate D2E/DX2                !
 ! D27   D(20,3,4,7)           -19.5993         estimate D2E/DX2                !
 ! D28   D(20,3,4,24)         -132.572          estimate D2E/DX2                !
 ! D29   D(31,3,4,5)          -136.1817         estimate D2E/DX2                !
 ! D30   D(31,3,4,7)            95.0281         estimate D2E/DX2                !
 ! D31   D(31,3,4,24)          -17.9447         estimate D2E/DX2                !
 ! D32   D(2,3,20,17)          165.321          estimate D2E/DX2                !
 ! D33   D(2,3,20,42)          -74.8731         estimate D2E/DX2                !
 ! D34   D(2,3,20,43)           45.2737         estimate D2E/DX2                !
 ! D35   D(4,3,20,17)           38.0819         estimate D2E/DX2                !
 ! D36   D(4,3,20,42)          157.8877         estimate D2E/DX2                !
 ! D37   D(4,3,20,43)          -81.9654         estimate D2E/DX2                !
 ! D38   D(31,3,20,17)         -76.3823         estimate D2E/DX2                !
 ! D39   D(31,3,20,42)          43.4235         estimate D2E/DX2                !
 ! D40   D(31,3,20,43)         163.5704         estimate D2E/DX2                !
 ! D41   D(3,4,5,6)            -13.4235         estimate D2E/DX2                !
 ! D42   D(3,4,5,10)          -133.2928         estimate D2E/DX2                !
 ! D43   D(3,4,5,22)           108.1997         estimate D2E/DX2                !
 ! D44   D(7,4,5,6)            109.9664         estimate D2E/DX2                !
 ! D45   D(7,4,5,10)            -9.9028         estimate D2E/DX2                !
 ! D46   D(7,4,5,22)          -128.4103         estimate D2E/DX2                !
 ! D47   D(24,4,5,6)          -132.1752         estimate D2E/DX2                !
 ! D48   D(24,4,5,10)          107.9555         estimate D2E/DX2                !
 ! D49   D(24,4,5,22)          -10.552          estimate D2E/DX2                !
 ! D50   D(3,4,7,8)            105.2444         estimate D2E/DX2                !
 ! D51   D(3,4,7,17)            -6.2917         estimate D2E/DX2                !
 ! D52   D(3,4,7,21)          -129.9705         estimate D2E/DX2                !
 ! D53   D(5,4,7,8)            -24.938          estimate D2E/DX2                !
 ! D54   D(5,4,7,17)          -136.4741         estimate D2E/DX2                !
 ! D55   D(5,4,7,21)            99.8471         estimate D2E/DX2                !
 ! D56   D(24,4,7,8)          -142.0461         estimate D2E/DX2                !
 ! D57   D(24,4,7,17)          106.4178         estimate D2E/DX2                !
 ! D58   D(24,4,7,21)          -17.261          estimate D2E/DX2                !
 ! D59   D(3,4,24,23)          -94.227          estimate D2E/DX2                !
 ! D60   D(5,4,24,23)           31.5171         estimate D2E/DX2                !
 ! D61   D(7,4,24,23)          154.7293         estimate D2E/DX2                !
 ! D62   D(4,5,6,1)             37.0973         estimate D2E/DX2                !
 ! D63   D(4,5,6,34)           159.4391         estimate D2E/DX2                !
 ! D64   D(4,5,6,35)           -84.7533         estimate D2E/DX2                !
 ! D65   D(10,5,6,1)           161.4755         estimate D2E/DX2                !
 ! D66   D(10,5,6,34)          -76.1827         estimate D2E/DX2                !
 ! D67   D(10,5,6,35)           39.6249         estimate D2E/DX2                !
 ! D68   D(22,5,6,1)           -80.0733         estimate D2E/DX2                !
 ! D69   D(22,5,6,34)           42.2684         estimate D2E/DX2                !
 ! D70   D(22,5,6,35)          158.076          estimate D2E/DX2                !
 ! D71   D(4,5,10,9)            40.1743         estimate D2E/DX2                !
 ! D72   D(4,5,10,16)         -146.7746         estimate D2E/DX2                !
 ! D73   D(6,5,10,9)           -85.035          estimate D2E/DX2                !
 ! D74   D(6,5,10,16)           88.0161         estimate D2E/DX2                !
 ! D75   D(22,5,10,9)          155.179          estimate D2E/DX2                !
 ! D76   D(22,5,10,16)         -31.7699         estimate D2E/DX2                !
 ! D77   D(4,5,22,23)          -12.3627         estimate D2E/DX2                !
 ! D78   D(4,5,22,45)         -134.1096         estimate D2E/DX2                !
 ! D79   D(4,5,22,46)          105.8619         estimate D2E/DX2                !
 ! D80   D(6,5,22,23)          111.1458         estimate D2E/DX2                !
 ! D81   D(6,5,22,45)          -10.6011         estimate D2E/DX2                !
 ! D82   D(6,5,22,46)         -130.6296         estimate D2E/DX2                !
 ! D83   D(10,5,22,23)        -133.2712         estimate D2E/DX2                !
 ! D84   D(10,5,22,45)         104.9819         estimate D2E/DX2                !
 ! D85   D(10,5,22,46)         -15.0466         estimate D2E/DX2                !
 ! D86   D(4,7,8,9)             35.9175         estimate D2E/DX2                !
 ! D87   D(4,7,8,19)          -138.513          estimate D2E/DX2                !
 ! D88   D(17,7,8,9)           151.8189         estimate D2E/DX2                !
 ! D89   D(17,7,8,19)          -22.6117         estimate D2E/DX2                !
 ! D90   D(21,7,8,9)           -90.6306         estimate D2E/DX2                !
 ! D91   D(21,7,8,19)           94.9389         estimate D2E/DX2                !
 ! D92   D(4,7,17,18)          151.0055         estimate D2E/DX2                !
 ! D93   D(4,7,17,20)           29.5364         estimate D2E/DX2                !
 ! D94   D(4,7,17,30)          -88.5294         estimate D2E/DX2                !
 ! D95   D(8,7,17,18)           29.7718         estimate D2E/DX2                !
 ! D96   D(8,7,17,20)          -91.6973         estimate D2E/DX2                !
 ! D97   D(8,7,17,30)          150.2369         estimate D2E/DX2                !
 ! D98   D(21,7,17,18)         -85.2744         estimate D2E/DX2                !
 ! D99   D(21,7,17,20)         153.2565         estimate D2E/DX2                !
 ! D100  D(21,7,17,30)          35.1907         estimate D2E/DX2                !
 ! D101  D(4,7,21,44)           19.6399         estimate D2E/DX2                !
 ! D102  D(8,7,21,44)          148.1142         estimate D2E/DX2                !
 ! D103  D(17,7,21,44)        -101.8492         estimate D2E/DX2                !
 ! D104  D(7,8,9,10)            -6.1122         estimate D2E/DX2                !
 ! D105  D(7,8,9,11)          -176.767          estimate D2E/DX2                !
 ! D106  D(19,8,9,10)          167.775          estimate D2E/DX2                !
 ! D107  D(19,8,9,11)           -2.8797         estimate D2E/DX2                !
 ! D108  D(7,8,19,18)            4.5678         estimate D2E/DX2                !
 ! D109  D(9,8,19,18)         -169.8375         estimate D2E/DX2                !
 ! D110  D(8,9,10,5)           -33.3815         estimate D2E/DX2                !
 ! D111  D(8,9,10,16)          153.3895         estimate D2E/DX2                !
 ! D112  D(11,9,10,5)          137.2079         estimate D2E/DX2                !
 ! D113  D(11,9,10,16)         -36.0211         estimate D2E/DX2                !
 ! D114  D(8,9,11,12)           92.2764         estimate D2E/DX2                !
 ! D115  D(8,9,11,13)          -91.3498         estimate D2E/DX2                !
 ! D116  D(10,9,11,12)         -77.9397         estimate D2E/DX2                !
 ! D117  D(10,9,11,13)          98.434          estimate D2E/DX2                !
 ! D118  D(9,11,13,14)         -84.7703         estimate D2E/DX2                !
 ! D119  D(9,11,13,15)          40.4765         estimate D2E/DX2                !
 ! D120  D(9,11,13,36)         156.8426         estimate D2E/DX2                !
 ! D121  D(12,11,13,14)         91.4817         estimate D2E/DX2                !
 ! D122  D(12,11,13,15)       -143.2715         estimate D2E/DX2                !
 ! D123  D(12,11,13,36)        -26.9055         estimate D2E/DX2                !
 ! D124  D(11,13,14,37)         62.5894         estimate D2E/DX2                !
 ! D125  D(11,13,14,38)        179.2864         estimate D2E/DX2                !
 ! D126  D(11,13,14,62)        -60.4123         estimate D2E/DX2                !
 ! D127  D(15,13,14,37)        -64.3368         estimate D2E/DX2                !
 ! D128  D(15,13,14,38)         52.3602         estimate D2E/DX2                !
 ! D129  D(15,13,14,62)        172.6615         estimate D2E/DX2                !
 ! D130  D(36,13,14,37)        179.3278         estimate D2E/DX2                !
 ! D131  D(36,13,14,38)        -63.9752         estimate D2E/DX2                !
 ! D132  D(36,13,14,62)         56.3261         estimate D2E/DX2                !
 ! D133  D(11,13,15,39)        174.1892         estimate D2E/DX2                !
 ! D134  D(11,13,15,40)         55.0775         estimate D2E/DX2                !
 ! D135  D(11,13,15,41)        -65.8735         estimate D2E/DX2                !
 ! D136  D(14,13,15,39)        -59.5778         estimate D2E/DX2                !
 ! D137  D(14,13,15,40)       -178.6895         estimate D2E/DX2                !
 ! D138  D(14,13,15,41)         60.3595         estimate D2E/DX2                !
 ! D139  D(36,13,15,39)         58.1395         estimate D2E/DX2                !
 ! D140  D(36,13,15,40)        -60.9722         estimate D2E/DX2                !
 ! D141  D(36,13,15,41)        178.0768         estimate D2E/DX2                !
 ! D142  D(13,14,62,63)         65.7113         estimate D2E/DX2                !
 ! D143  D(13,14,62,64)        -55.464          estimate D2E/DX2                !
 ! D144  D(13,14,62,65)       -174.9555         estimate D2E/DX2                !
 ! D145  D(37,14,62,63)        -58.0574         estimate D2E/DX2                !
 ! D146  D(37,14,62,64)       -179.2327         estimate D2E/DX2                !
 ! D147  D(37,14,62,65)         61.2758         estimate D2E/DX2                !
 ! D148  D(38,14,62,63)       -173.3677         estimate D2E/DX2                !
 ! D149  D(38,14,62,64)         65.457          estimate D2E/DX2                !
 ! D150  D(38,14,62,65)        -54.0346         estimate D2E/DX2                !
 ! D151  D(7,17,18,19)         -29.2598         estimate D2E/DX2                !
 ! D152  D(7,17,18,28)          88.1956         estimate D2E/DX2                !
 ! D153  D(7,17,18,29)        -148.1413         estimate D2E/DX2                !
 ! D154  D(20,17,18,19)         82.1478         estimate D2E/DX2                !
 ! D155  D(20,17,18,28)       -160.3967         estimate D2E/DX2                !
 ! D156  D(20,17,18,29)        -36.7336         estimate D2E/DX2                !
 ! D157  D(30,17,18,19)       -150.5162         estimate D2E/DX2                !
 ! D158  D(30,17,18,28)        -33.0607         estimate D2E/DX2                !
 ! D159  D(30,17,18,29)         90.6024         estimate D2E/DX2                !
 ! D160  D(7,17,20,3)          -41.4595         estimate D2E/DX2                !
 ! D161  D(7,17,20,42)        -161.7573         estimate D2E/DX2                !
 ! D162  D(7,17,20,43)          77.4491         estimate D2E/DX2                !
 ! D163  D(18,17,20,3)        -153.2984         estimate D2E/DX2                !
 ! D164  D(18,17,20,42)         86.4039         estimate D2E/DX2                !
 ! D165  D(18,17,20,43)        -34.3897         estimate D2E/DX2                !
 ! D166  D(30,17,20,3)          78.5683         estimate D2E/DX2                !
 ! D167  D(30,17,20,42)        -41.7294         estimate D2E/DX2                !
 ! D168  D(30,17,20,43)       -162.523          estimate D2E/DX2                !
 ! D169  D(17,18,19,8)          15.6538         estimate D2E/DX2                !
 ! D170  D(28,18,19,8)        -104.8039         estimate D2E/DX2                !
 ! D171  D(29,18,19,8)         138.007          estimate D2E/DX2                !
 ! D172  D(17,18,28,53)        -60.0314         estimate D2E/DX2                !
 ! D173  D(17,18,28,54)       -177.6815         estimate D2E/DX2                !
 ! D174  D(17,18,28,55)         61.7891         estimate D2E/DX2                !
 ! D175  D(19,18,28,53)         56.6277         estimate D2E/DX2                !
 ! D176  D(19,18,28,54)        -61.0225         estimate D2E/DX2                !
 ! D177  D(19,18,28,55)        178.4482         estimate D2E/DX2                !
 ! D178  D(29,18,28,53)        173.561          estimate D2E/DX2                !
 ! D179  D(29,18,28,54)         55.9108         estimate D2E/DX2                !
 ! D180  D(29,18,28,55)        -64.6185         estimate D2E/DX2                !
 ! D181  D(17,18,29,56)        -57.7058         estimate D2E/DX2                !
 ! D182  D(17,18,29,57)       -178.3226         estimate D2E/DX2                !
 ! D183  D(17,18,29,58)         64.4371         estimate D2E/DX2                !
 ! D184  D(19,18,29,56)       -175.5036         estimate D2E/DX2                !
 ! D185  D(19,18,29,57)         63.8796         estimate D2E/DX2                !
 ! D186  D(19,18,29,58)        -53.3607         estimate D2E/DX2                !
 ! D187  D(28,18,29,56)         67.9156         estimate D2E/DX2                !
 ! D188  D(28,18,29,57)        -52.7012         estimate D2E/DX2                !
 ! D189  D(28,18,29,58)       -169.9415         estimate D2E/DX2                !
 ! D190  D(5,22,23,24)          31.425          estimate D2E/DX2                !
 ! D191  D(5,22,23,25)         152.9559         estimate D2E/DX2                !
 ! D192  D(5,22,23,47)         -84.014          estimate D2E/DX2                !
 ! D193  D(45,22,23,24)        154.7573         estimate D2E/DX2                !
 ! D194  D(45,22,23,25)        -83.7118         estimate D2E/DX2                !
 ! D195  D(45,22,23,47)         39.3183         estimate D2E/DX2                !
 ! D196  D(46,22,23,24)        -87.9153         estimate D2E/DX2                !
 ! D197  D(46,22,23,25)         33.6157         estimate D2E/DX2                !
 ! D198  D(46,22,23,47)        156.6457         estimate D2E/DX2                !
 ! D199  D(22,23,24,4)         -39.4256         estimate D2E/DX2                !
 ! D200  D(25,23,24,4)        -162.4366         estimate D2E/DX2                !
 ! D201  D(47,23,24,4)          78.2687         estimate D2E/DX2                !
 ! D202  D(22,23,25,26)         67.4431         estimate D2E/DX2                !
 ! D203  D(22,23,25,27)       -113.6899         estimate D2E/DX2                !
 ! D204  D(24,23,25,26)       -175.4465         estimate D2E/DX2                !
 ! D205  D(24,23,25,27)          3.4205         estimate D2E/DX2                !
 ! D206  D(47,23,25,26)        -56.7689         estimate D2E/DX2                !
 ! D207  D(47,23,25,27)        122.098          estimate D2E/DX2                !
 ! D208  D(23,25,26,48)        -63.4214         estimate D2E/DX2                !
 ! D209  D(23,25,26,49)         56.6845         estimate D2E/DX2                !
 ! D210  D(23,25,26,50)        176.5038         estimate D2E/DX2                !
 ! D211  D(27,25,26,48)        117.6652         estimate D2E/DX2                !
 ! D212  D(27,25,26,49)       -122.2289         estimate D2E/DX2                !
 ! D213  D(27,25,26,50)         -2.4096         estimate D2E/DX2                !
 ! D214  D(23,25,27,51)          0.5161         estimate D2E/DX2                !
 ! D215  D(23,25,27,52)       -179.5044         estimate D2E/DX2                !
 ! D216  D(26,25,27,51)        179.3285         estimate D2E/DX2                !
 ! D217  D(26,25,27,52)         -0.692          estimate D2E/DX2                !
 --------------------------------------------------------------------------------
 Trust Radius=3.00D-01 FncErr=1.00D-07 GrdErr=1.00D-06
 Number of steps in this run=    390 maximum allowed number of steps=    390.
 GradGradGradGradGradGradGradGradGradGradGradGradGradGradGradGradGradGrad

 Stoichiometry    C26H34O5
 Framework group  C1[X(C26H34O5)]
 Deg. of freedom   189
 Full point group                 C1      NOp   1
 Largest Abelian subgroup         C1      NOp   1
 Largest concise Abelian subgroup C1      NOp   1
                         Standard orientation:                         
 ---------------------------------------------------------------------
 Center     Atomic      Atomic             Coordinates (Angstroms)
 Number     Number       Type             X           Y           Z
 ---------------------------------------------------------------------
      1          6           0       -1.994791    0.142654    2.764384
      2          6           0       -2.449282    1.205111    2.085195
      3          6           0       -1.923220    1.536942    0.714283
      4          6           0       -1.292678    0.357901   -0.086091
      5          6           0       -0.918905   -0.921496    0.701470
      6          6           0       -0.919295   -0.748247    2.235410
      7          6           0       -0.132531    1.009452   -0.869634
      8          6           0        1.231116    0.722627   -0.345113
      9          6           0        1.572032   -0.455244    0.185523
     10          6           0        0.488540   -1.447211    0.364930
     11          6           0        2.917769   -0.668637    0.757169
     12          8           0        3.079800   -0.460748    1.962486
     13          6           0        4.046451   -1.214161   -0.119292
     14          6           0        4.027584   -2.748086   -0.192027
     15          6           0        4.056118   -0.620429   -1.528318
     16          8           0        0.756410   -2.647491    0.367261
     17          6           0       -0.203008    2.509013   -0.653314
     18          6           0        1.266253    2.952452   -0.781190
     19          8           0        2.069747    1.828148   -0.348809
     20          6           0       -0.831878    2.612954    0.742800
     21          8           0       -0.166492    0.670850   -2.248884
     22          6           0       -1.974809   -1.948175    0.248027
     23          6           0       -3.028552   -1.138888   -0.485401
     24          8           0       -2.288006   -0.060178   -1.067134
     25          6           0       -3.782408   -1.925256   -1.533736
     26          6           0       -4.675735   -3.014963   -1.003340
     27          6           0       -3.708760   -1.687820   -2.854956
     28          6           0        1.653266    3.270514   -2.234133
     29          6           0        1.620558    4.157969    0.093496
     30          1           0       -0.841509    3.013445   -1.389183
     31          1           0       -2.767433    1.926722    0.125586
     32          6           0       -3.488380    2.128076    2.655364
     33          1           0       -2.361404   -0.067945    3.766894
     34          1           0       -1.012991   -1.732581    2.713094
     35          1           0        0.037722   -0.345375    2.592889
     36          1           0        4.982237   -0.895382    0.360038
     37          1           0        3.099460   -3.099975   -0.655455
     38          1           0        4.845937   -3.085754   -0.840389
     39          1           0        4.937363   -0.960515   -2.083215
     40          1           0        4.092957    0.472917   -1.494095
     41          1           0        3.170208   -0.913934   -2.101349
     42          1           0       -1.244425    3.611912    0.920217
     43          1           0       -0.107126    2.404271    1.539609
     44          1           0       -1.084149    0.371659   -2.423544
     45          1           0       -2.417284   -2.515763    1.074218
     46          1           0       -1.538478   -2.684938   -0.438635
     47          1           0       -3.750683   -0.706703    0.218204
     48          1           0       -4.085557   -3.782195   -0.492495
     49          1           0       -5.398683   -2.600463   -0.293106
     50          1           0       -5.241849   -3.509426   -1.800014
     51          1           0       -3.082101   -0.902617   -3.264261
     52          1           0       -4.276431   -2.275847   -3.569797
     53          1           0        1.529626    2.406222   -2.893196
     54          1           0        2.713207    3.543074   -2.300153
     55          1           0        1.058711    4.099120   -2.632424
     56          1           0        0.985437    5.019503   -0.136147
     57          1           0        2.666427    4.451309   -0.056118
     58          1           0        1.532464    3.926742    1.159973
     59          1           0       -3.807683    1.819623    3.656486
     60          1           0       -3.095035    3.146726    2.730661
     61          1           0       -4.375167    2.143101    2.013558
     62          6           0        4.195513   -3.420330    1.163813
     63          1           0        3.345712   -3.216809    1.821911
     64          1           0        5.109130   -3.079359    1.660920
     65          1           0        4.263905   -4.505751    1.038022
 ---------------------------------------------------------------------
 Rotational constants (GHZ):      0.1945702      0.1357227      0.1110497
 Standard basis: 6-31G(d) (6D, 7F)
 There are   533 symmetry adapted basis functions of A   symmetry.
 Integral buffers will be    131072 words long.
 Raffenetti 2 integral format.
 Two-electron integral symmetry is turned on.
   533 basis functions,  1004 primitive gaussians,   533 cartesian basis functions
   115 alpha electrons      115 beta electrons
       nuclear repulsion energy      3520.8488278575 Hartrees.
 NAtoms=   65 NActive=   65 NUniq=   65 SFac= 1.00D+00 NAtFMM=   50 NAOKFM=T Big=T
 One-electron integrals computed using PRISM.
 NBasis=   533 RedAO= T  NBF=   533
 NBsUse=   533 1.00D-06 NBFU=   533
 Harris functional with IExCor=  402 diagonalized for initial guess.
 ExpMin= 1.61D-01 ExpMax= 5.48D+03 ExpMxC= 8.25D+02 IAcc=1 IRadAn=         1 AccDes= 0.00D+00
 HarFok:  IExCor=  402 AccDes= 0.00D+00 IRadAn=         1 IDoV= 1
 ScaDFX=  1.000000  1.000000  1.000000  1.000000
 FoFCou: FMM=F IPFlag=           0 FMFlag=      100000 FMFlg1=        2001
         NFxFlg=           0 DoJE=T BraDBF=F KetDBF=T FulRan=T
         Omega=  0.000000  0.000000  1.000000  0.000000  0.000000 ICntrl=     500 IOpCl=  0
         NMat0=    1 NMatS0=    1 NMatT0=    0 NMatD0=    1 NMtDS0=    0 NMtDT0=    0
         I1Cent=           4 NGrid=           0.
 Petite list used in FoFCou.
 Initial guess orbital symmetries:
       Occupied  (A) (A) (A) (A) (A) (A) (A) (A) (A) (A) (A) (A)
                 (A) (A) (A) (A) (A) (A) (A) (A) (A) (A) (A) (A)
                 (A) (A) (A) (A) (A) (A) (A) (A) (A) (A) (A) (A)
                 (A) (A) (A) (A) (A) (A) (A) (A) (A) (A) (A) (A)
                 (A) (A) (A) (A) (A) (A) (A) (A) (A) (A) (A) (A)
                 (A) (A) (A) (A) (A) (A) (A) (A) (A) (A) (A) (A)
                 (A) (A) (A) (A) (A) (A) (A) (A) (A) (A) (A) (A)
                 (A) (A) (A) (A) (A) (A) (A) (A) (A) (A) (A) (A)
                 (A) (A) (A) (A) (A) (A) (A) (A) (A) (A) (A) (A)
                 (A) (A) (A) (A) (A) (A) (A)
       Virtual   (A) (A) (A) (A) (A) (A) (A) (A) (A) (A) (A) (A)
                 (A) (A) (A) (A) (A) (A) (A) (A) (A) (A) (A) (A)
                 (A) (A) (A) (A) (A) (A) (A) (A) (A) (A) (A) (A)
                 (A) (A) (A) (A) (A) (A) (A) (A) (A) (A) (A) (A)
                 (A) (A) (A) (A) (A) (A) (A) (A) (A) (A) (A) (A)
                 (A) (A) (A) (A) (A) (A) (A) (A) (A) (A) (A) (A)
                 (A) (A) (A) (A) (A) (A) (A) (A) (A) (A) (A) (A)
                 (A) (A) (A) (A) (A) (A) (A) (A) (A) (A) (A) (A)
                 (A) (A) (A) (A) (A) (A) (A) (A) (A) (A) (A) (A)
                 (A) (A) (A) (A) (A) (A) (A) (A) (A) (A) (A) (A)
                 (A) (A) (A) (A) (A) (A) (A) (A) (A) (A) (A) (A)
                 (A) (A) (A) (A) (A) (A) (A) (A) (A) (A) (A) (A)
                 (A) (A) (A) (A) (A) (A) (A) (A) (A) (A) (A) (A)
                 (A) (A) (A) (A) (A) (A) (A) (A) (A) (A) (A) (A)
                 (A) (A) (A) (A) (A) (A) (A) (A) (A) (A) (A) (A)
                 (A) (A) (A) (A) (A) (A) (A) (A) (A) (A) (A) (A)
                 (A) (A) (A) (A) (A) (A) (A) (A) (A) (A) (A) (A)
                 (A) (A) (A) (A) (A) (A) (A) (A) (A) (A) (A) (A)
                 (A) (A) (A) (A) (A) (A) (A) (A) (A) (A) (A) (A)
                 (A) (A) (A) (A) (A) (A) (A) (A) (A) (A) (A) (A)
                 (A) (A) (A) (A) (A) (A) (A) (A) (A) (A) (A) (A)
                 (A) (A) (A) (A) (A) (A) (A) (A) (A) (A) (A) (A)
                 (A) (A) (A) (A) (A) (A) (A) (A) (A) (A) (A) (A)
                 (A) (A) (A) (A) (A) (A) (A) (A) (A) (A) (A) (A)
                 (A) (A) (A) (A) (A) (A) (A) (A) (A) (A) (A) (A)
                 (A) (A) (A) (A) (A) (A) (A) (A) (A) (A) (A) (A)
                 (A) (A) (A) (A) (A) (A) (A) (A) (A) (A) (A) (A)
                 (A) (A) (A) (A) (A) (A) (A) (A) (A) (A) (A) (A)
                 (A) (A) (A) (A) (A) (A) (A) (A) (A) (A) (A) (A)
                 (A) (A) (A) (A) (A) (A) (A) (A) (A) (A) (A) (A)
                 (A) (A) (A) (A) (A) (A) (A) (A) (A) (A) (A) (A)
                 (A) (A) (A) (A) (A) (A) (A) (A) (A) (A) (A) (A)
                 (A) (A) (A) (A) (A) (A) (A) (A) (A) (A) (A) (A)
                 (A) (A) (A) (A) (A) (A) (A) (A) (A) (A) (A) (A)
                 (A) (A) (A) (A) (A) (A) (A) (A) (A) (A)
 The electronic state of the initial guess is 1-A.
 Requested convergence on RMS density matrix=1.00D-08 within 128 cycles.
 Requested convergence on MAX density matrix=1.00D-06.
 Requested convergence on             energy=1.00D-06.
 No special actions if energy rises.
 Integral accuracy reduced to 1.0D-05 until final iterations.
 Initial convergence to 1.0D-05 achieved.  Increase integral accuracy.
 SCF Done:  E(RB3LYP) =  -1387.30093550     A.U. after   16 cycles
             Convg  =    0.3234D-08             -V/T =  2.0091

 **********************************************************************

            Population analysis using the SCF density.

 **********************************************************************

 Orbital symmetries:
       Occupied  (A) (A) (A) (A) (A) (A) (A) (A) (A) (A) (A) (A)
                 (A) (A) (A) (A) (A) (A) (A) (A) (A) (A) (A) (A)
                 (A) (A) (A) (A) (A) (A) (A) (A) (A) (A) (A) (A)
                 (A) (A) (A) (A) (A) (A) (A) (A) (A) (A) (A) (A)
                 (A) (A) (A) (A) (A) (A) (A) (A) (A) (A) (A) (A)
                 (A) (A) (A) (A) (A) (A) (A) (A) (A) (A) (A) (A)
                 (A) (A) (A) (A) (A) (A) (A) (A) (A) (A) (A) (A)
                 (A) (A) (A) (A) (A) (A) (A) (A) (A) (A) (A) (A)
                 (A) (A) (A) (A) (A) (A) (A) (A) (A) (A) (A) (A)
                 (A) (A) (A) (A) (A) (A) (A)
       Virtual   (A) (A) (A) (A) (A) (A) (A) (A) (A) (A) (A) (A)
                 (A) (A) (A) (A) (A) (A) (A) (A) (A) (A) (A) (A)
                 (A) (A) (A) (A) (A) (A) (A) (A) (A) (A) (A) (A)
                 (A) (A) (A) (A) (A) (A) (A) (A) (A) (A) (A) (A)
                 (A) (A) (A) (A) (A) (A) (A) (A) (A) (A) (A) (A)
                 (A) (A) (A) (A) (A) (A) (A) (A) (A) (A) (A) (A)
                 (A) (A) (A) (A) (A) (A) (A) (A) (A) (A) (A) (A)
                 (A) (A) (A) (A) (A) (A) (A) (A) (A) (A) (A) (A)
                 (A) (A) (A) (A) (A) (A) (A) (A) (A) (A) (A) (A)
                 (A) (A) (A) (A) (A) (A) (A) (A) (A) (A) (A) (A)
                 (A) (A) (A) (A) (A) (A) (A) (A) (A) (A) (A) (A)
                 (A) (A) (A) (A) (A) (A) (A) (A) (A) (A) (A) (A)
                 (A) (A) (A) (A) (A) (A) (A) (A) (A) (A) (A) (A)
                 (A) (A) (A) (A) (A) (A) (A) (A) (A) (A) (A) (A)
                 (A) (A) (A) (A) (A) (A) (A) (A) (A) (A) (A) (A)
                 (A) (A) (A) (A) (A) (A) (A) (A) (A) (A) (A) (A)
                 (A) (A) (A) (A) (A) (A) (A) (A) (A) (A) (A) (A)
                 (A) (A) (A) (A) (A) (A) (A) (A) (A) (A) (A) (A)
                 (A) (A) (A) (A) (A) (A) (A) (A) (A) (A) (A) (A)
                 (A) (A) (A) (A) (A) (A) (A) (A) (A) (A) (A) (A)
                 (A) (A) (A) (A) (A) (A) (A) (A) (A) (A) (A) (A)
                 (A) (A) (A) (A) (A) (A) (A) (A) (A) (A) (A) (A)
                 (A) (A) (A) (A) (A) (A) (A) (A) (A) (A) (A) (A)
                 (A) (A) (A) (A) (A) (A) (A) (A) (A) (A) (A) (A)
                 (A) (A) (A) (A) (A) (A) (A) (A) (A) (A) (A) (A)
                 (A) (A) (A) (A) (A) (A) (A) (A) (A) (A) (A) (A)
                 (A) (A) (A) (A) (A) (A) (A) (A) (A) (A) (A) (A)
                 (A) (A) (A) (A) (A) (A) (A) (A) (A) (A) (A) (A)
                 (A) (A) (A) (A) (A) (A) (A) (A) (A) (A) (A) (A)
                 (A) (A) (A) (A) (A) (A) (A) (A) (A) (A) (A) (A)
                 (A) (A) (A) (A) (A) (A) (A) (A) (A) (A) (A) (A)
                 (A) (A) (A) (A) (A) (A) (A) (A) (A) (A) (A) (A)
                 (A) (A) (A) (A) (A) (A) (A) (A) (A) (A) (A) (A)
                 (A) (A) (A) (A) (A) (A) (A) (A) (A) (A) (A) (A)
                 (A) (A) (A) (A) (A) (A) (A) (A) (A) (A)
 The electronic state is 1-A.
 Alpha  occ. eigenvalues --  -19.19490 -19.17005 -19.14592 -19.13780 -19.13493
 Alpha  occ. eigenvalues --  -10.27933 -10.27168 -10.26460 -10.26348 -10.25954
 Alpha  occ. eigenvalues --  -10.25603 -10.24856 -10.21925 -10.20390 -10.20194
 Alpha  occ. eigenvalues --  -10.19921 -10.19821 -10.19707 -10.19699 -10.19204
 Alpha  occ. eigenvalues --  -10.19044 -10.18915 -10.18835 -10.18693 -10.18586
 Alpha  occ. eigenvalues --  -10.18409 -10.17851 -10.17695 -10.17055 -10.16613
 Alpha  occ. eigenvalues --  -10.15392  -1.08445  -1.06322  -1.03585  -1.02395
 Alpha  occ. eigenvalues --   -1.01898  -0.87652  -0.84030  -0.82702  -0.81667
 Alpha  occ. eigenvalues --   -0.80407  -0.79786  -0.77032  -0.74373  -0.73564
 Alpha  occ. eigenvalues --   -0.72547  -0.71577  -0.69620  -0.68970  -0.68491
 Alpha  occ. eigenvalues --   -0.64950  -0.63836  -0.63575  -0.61974  -0.61208
 Alpha  occ. eigenvalues --   -0.59307  -0.58947  -0.57233  -0.55695  -0.54143
 Alpha  occ. eigenvalues --   -0.53066  -0.51959  -0.51043  -0.50544  -0.49445
 Alpha  occ. eigenvalues --   -0.48037  -0.47390  -0.46395  -0.46186  -0.45773
 Alpha  occ. eigenvalues --   -0.45182  -0.44850  -0.44094  -0.43884  -0.43235
 Alpha  occ. eigenvalues --   -0.42759  -0.42649  -0.42394  -0.41922  -0.41775
 Alpha  occ. eigenvalues --   -0.40816  -0.40634  -0.40454  -0.40105  -0.39957
 Alpha  occ. eigenvalues --   -0.39475  -0.39312  -0.38770  -0.38493  -0.38275
 Alpha  occ. eigenvalues --   -0.37787  -0.37072  -0.36998  -0.36385  -0.35943
 Alpha  occ. eigenvalues --   -0.35500  -0.35221  -0.34954  -0.34828  -0.34382
 Alpha  occ. eigenvalues --   -0.33973  -0.33350  -0.33116  -0.32828  -0.32128
 Alpha  occ. eigenvalues --   -0.32022  -0.31557  -0.30876  -0.28192  -0.27030
 Alpha  occ. eigenvalues --   -0.25087  -0.25006  -0.24475  -0.23736  -0.23060
 Alpha virt. eigenvalues --   -0.04583  -0.02200   0.01213   0.01891   0.02683
 Alpha virt. eigenvalues --    0.06503   0.08245   0.08353   0.09247   0.10084
 Alpha virt. eigenvalues --    0.10451   0.10899   0.11265   0.11737   0.12269
 Alpha virt. eigenvalues --    0.12621   0.12982   0.13473   0.13735   0.13894
 Alpha virt. eigenvalues --    0.14292   0.14695   0.14988   0.15346   0.15594
 Alpha virt. eigenvalues --    0.15716   0.16373   0.16641   0.16813   0.17581
 Alpha virt. eigenvalues --    0.17752   0.18414   0.18614   0.18917   0.19282
 Alpha virt. eigenvalues --    0.19472   0.19926   0.20011   0.20215   0.20748
 Alpha virt. eigenvalues --    0.20920   0.21302   0.21444   0.21625   0.22511
 Alpha virt. eigenvalues --    0.23065   0.24012   0.24352   0.24406   0.24685
 Alpha virt. eigenvalues --    0.25064   0.25759   0.26020   0.26662   0.26757
 Alpha virt. eigenvalues --    0.27098   0.27248   0.28337   0.28715   0.30393
 Alpha virt. eigenvalues --    0.31509   0.32439   0.32586   0.34148   0.34520
 Alpha virt. eigenvalues --    0.34800   0.36147   0.37712   0.38170   0.40514
 Alpha virt. eigenvalues --    0.41405   0.44795   0.45600   0.47966   0.48336
 Alpha virt. eigenvalues --    0.49852   0.50287   0.50719   0.51743   0.51839
 Alpha virt. eigenvalues --    0.52165   0.52685   0.53090   0.53231   0.53410
 Alpha virt. eigenvalues --    0.53914   0.54416   0.54658   0.55455   0.55532
 Alpha virt. eigenvalues --    0.56626   0.56986   0.57855   0.58112   0.59542
 Alpha virt. eigenvalues --    0.60093   0.60283   0.60714   0.61508   0.61793
 Alpha virt. eigenvalues --    0.62104   0.62613   0.63093   0.63742   0.64679
 Alpha virt. eigenvalues --    0.65011   0.65704   0.66541   0.66764   0.67159
 Alpha virt. eigenvalues --    0.67536   0.68161   0.69048   0.69549   0.69848
 Alpha virt. eigenvalues --    0.69958   0.71053   0.72188   0.72270   0.72609
 Alpha virt. eigenvalues --    0.73134   0.73969   0.75500   0.75707   0.76115
 Alpha virt. eigenvalues --    0.76907   0.77422   0.77806   0.78208   0.78724
 Alpha virt. eigenvalues --    0.79648   0.79935   0.81197   0.81651   0.82379
 Alpha virt. eigenvalues --    0.83024   0.83695   0.83817   0.84203   0.85302
 Alpha virt. eigenvalues --    0.85700   0.85960   0.86084   0.86734   0.86798
 Alpha virt. eigenvalues --    0.87119   0.88053   0.88462   0.88849   0.89309
 Alpha virt. eigenvalues --    0.89693   0.89792   0.90294   0.90478   0.90914
 Alpha virt. eigenvalues --    0.91198   0.91354   0.91676   0.91900   0.92749
 Alpha virt. eigenvalues --    0.93251   0.93419   0.93564   0.94277   0.94738
 Alpha virt. eigenvalues --    0.94819   0.95740   0.95888   0.96144   0.96250
 Alpha virt. eigenvalues --    0.97113   0.97601   0.97892   0.98703   0.99412
 Alpha virt. eigenvalues --    0.99557   1.00155   1.01292   1.02579   1.02832
 Alpha virt. eigenvalues --    1.04015   1.04582   1.05657   1.06869   1.07916
 Alpha virt. eigenvalues --    1.08885   1.10616   1.11451   1.12453   1.12568
 Alpha virt. eigenvalues --    1.14016   1.15010   1.15249   1.16039   1.17231
 Alpha virt. eigenvalues --    1.17449   1.17780   1.19020   1.21070   1.21421
 Alpha virt. eigenvalues --    1.22094   1.22967   1.24963   1.25793   1.27496
 Alpha virt. eigenvalues --    1.29000   1.29484   1.30687   1.31703   1.33404
 Alpha virt. eigenvalues --    1.35727   1.37734   1.38179   1.39614   1.40222
 Alpha virt. eigenvalues --    1.41278   1.42888   1.43713   1.44567   1.45692
 Alpha virt. eigenvalues --    1.48085   1.50129   1.51255   1.51616   1.53096
 Alpha virt. eigenvalues --    1.53420   1.55128   1.56278   1.58017   1.58415
 Alpha virt. eigenvalues --    1.59271   1.59822   1.61866   1.62830   1.64415
 Alpha virt. eigenvalues --    1.65158   1.65794   1.66336   1.67839   1.68579
 Alpha virt. eigenvalues --    1.70791   1.71724   1.72340   1.74376   1.75132
 Alpha virt. eigenvalues --    1.75701   1.76180   1.76968   1.78400   1.79444
 Alpha virt. eigenvalues --    1.79977   1.80255   1.80576   1.81946   1.82674
 Alpha virt. eigenvalues --    1.83176   1.83704   1.84760   1.85421   1.86218
 Alpha virt. eigenvalues --    1.87016   1.87580   1.88315   1.88902   1.89256
 Alpha virt. eigenvalues --    1.89705   1.90074   1.90531   1.91374   1.91690
 Alpha virt. eigenvalues --    1.92976   1.93396   1.93769   1.95053   1.95777
 Alpha virt. eigenvalues --    1.96145   1.97185   1.97431   1.97850   1.98432
 Alpha virt. eigenvalues --    1.99178   1.99368   2.00284   2.00675   2.00895
 Alpha virt. eigenvalues --    2.01427   2.02692   2.03316   2.04092   2.04769
 Alpha virt. eigenvalues --    2.05253   2.06936   2.07748   2.08288   2.09496
 Alpha virt. eigenvalues --    2.10310   2.11387   2.12687   2.13498   2.14518
 Alpha virt. eigenvalues --    2.15534   2.15778   2.17123   2.17366   2.18685
 Alpha virt. eigenvalues --    2.19254   2.20184   2.20612   2.21939   2.22713
 Alpha virt. eigenvalues --    2.23456   2.24853   2.25705   2.26890   2.28015
 Alpha virt. eigenvalues --    2.28494   2.29306   2.29623   2.29760   2.31477
 Alpha virt. eigenvalues --    2.32396   2.32965   2.33504   2.33905   2.34845
 Alpha virt. eigenvalues --    2.35468   2.37643   2.37792   2.38353   2.39063
 Alpha virt. eigenvalues --    2.40620   2.41446   2.42080   2.42112   2.43519
 Alpha virt. eigenvalues --    2.44654   2.46738   2.47570   2.48195   2.48872
 Alpha virt. eigenvalues --    2.49387   2.51928   2.52526   2.52768   2.54488
 Alpha virt. eigenvalues --    2.56334   2.57978   2.58286   2.59732   2.61097
 Alpha virt. eigenvalues --    2.62286   2.64063   2.64598   2.64947   2.65551
 Alpha virt. eigenvalues --    2.67734   2.67963   2.69793   2.70840   2.72056
 Alpha virt. eigenvalues --    2.72382   2.72922   2.74145   2.76212   2.78602
 Alpha virt. eigenvalues --    2.79046   2.79699   2.81282   2.81909   2.85355
 Alpha virt. eigenvalues --    2.88384   2.90648   2.93970   2.94584   2.94840
 Alpha virt. eigenvalues --    2.97739   2.99824   3.00680   3.02392   3.03255
 Alpha virt. eigenvalues --    3.06256   3.07414   3.12837   3.16446   3.20502
 Alpha virt. eigenvalues --    3.23146   3.28624   4.01820   4.11389   4.12264
 Alpha virt. eigenvalues --    4.13248   4.14274   4.17407   4.18239   4.19917
 Alpha virt. eigenvalues --    4.22988   4.25065   4.26432   4.26999   4.31247
 Alpha virt. eigenvalues --    4.31947   4.33846   4.36861   4.39424   4.43649
 Alpha virt. eigenvalues --    4.47489   4.49865   4.51775   4.57833   4.62397
 Alpha virt. eigenvalues --    4.64618   4.66449   4.71021   4.74719   4.77953
 Alpha virt. eigenvalues --    4.90073   4.96580   5.26245
          Condensed to atoms (all electrons):
 Mulliken atomic charges:
              1
     1  C   -0.196606
     2  C    0.195263
     3  C   -0.194326
     4  C    0.315301
     5  C   -0.023578
     6  C   -0.333057
     7  C    0.198480
     8  C    0.421996
     9  C   -0.099528
    10  C    0.403109
    11  C    0.415960
    12  O   -0.455048
    13  C   -0.147241
    14  C   -0.260225
    15  C   -0.472217
    16  O   -0.488354
    17  C   -0.152508
    18  C    0.304764
    19  O   -0.537452
    20  C   -0.307749
    21  O   -0.675919
    22  C   -0.316513
    23  C    0.116670
    24  O   -0.593688
    25  C    0.180869
    26  C   -0.517440
    27  C   -0.391388
    28  C   -0.460207
    29  C   -0.463673
    30  H    0.146405
    31  H    0.150821
    32  C   -0.519708
    33  H    0.126185
    34  H    0.162380
    35  H    0.183834
    36  H    0.146511
    37  H    0.164242
    38  H    0.132173
    39  H    0.143878
    40  H    0.157238
    41  H    0.158238
    42  H    0.149332
    43  H    0.166484
    44  H    0.426766
    45  H    0.151572
    46  H    0.182480
    47  H    0.136623
    48  H    0.166020
    49  H    0.154346
    50  H    0.160973
    51  H    0.141522
    52  H    0.137670
    53  H    0.184981
    54  H    0.149606
    55  H    0.140568
    56  H    0.149131
    57  H    0.158332
    58  H    0.160332
    59  H    0.157945
    60  H    0.157215
    61  H    0.154480
    62  C   -0.444225
    63  H    0.165198
    64  H    0.139438
    65  H    0.135319
 Sum of Mulliken atomic charges =   0.00000
 Mulliken charges with hydrogens summed into heavy atoms:
              1
     1  C   -0.070421
     2  C    0.195263
     3  C   -0.043505
     4  C    0.315301
     5  C   -0.023578
     6  C    0.013157
     7  C    0.198480
     8  C    0.421996
     9  C   -0.099528
    10  C    0.403109
    11  C    0.415960
    12  O   -0.455048
    13  C   -0.000731
    14  C    0.036190
    15  C   -0.012864
    16  O   -0.488354
    17  C   -0.006103
    18  C    0.304764
    19  O   -0.537452
    20  C    0.008067
    21  O   -0.249154
    22  C    0.017539
    23  C    0.253294
    24  O   -0.593688
    25  C    0.180869
    26  C   -0.036100
    27  C   -0.112197
    28  C    0.014948
    29  C    0.004122
    32  C   -0.050068
    62  C   -0.004269
 Sum of Mulliken charges with hydrogens summed into heavy atoms =   0.00000
 Electronic spatial extent (au):  <R**2>=          11472.7576
 Charge=              0.0000 electrons
 Dipole moment (field-independent basis, Debye):
    X=             -4.1195    Y=              2.9823    Z=             -0.4580  Tot=              5.1062
 Quadrupole moment (field-independent basis, Debye-Ang):
   XX=           -180.0757   YY=           -177.5223   ZZ=           -188.5971
   XY=              4.4360   XZ=            -10.1966   YZ=              1.1833
 Traceless Quadrupole moment (field-independent basis, Debye-Ang):
   XX=              1.9893   YY=              4.5427   ZZ=             -6.5320
   XY=              4.4360   XZ=            -10.1966   YZ=              1.1833
 Octapole moment (field-independent basis, Debye-Ang**2):
  XXX=             -6.1473  YYY=             54.0614  ZZZ=             -6.7922  XYY=            -13.9781
  XXY=            -21.9568  XXZ=            -26.0311  XZZ=            -30.0296  YZZ=             -2.2938
  YYZ=            -11.9676  XYZ=             -1.9627
 Hexadecapole moment (field-independent basis, Debye-Ang**3):
 XXXX=          -7785.8195 YYYY=          -4851.4835 ZZZZ=          -2564.5373 XXXY=             56.4579
 XXXZ=            -80.5232 YYYX=             69.1032 YYYZ=            -17.1670 ZZZX=             -9.0607
 ZZZY=             -4.6739 XXYY=          -2044.2778 XXZZ=          -1780.6021 YYZZ=          -1240.8391
 XXYZ=             51.9252 YYXZ=              9.0576 ZZXY=             31.8396
 N-N= 3.520848827857D+03 E-N=-1.026801084586D+04  KE= 1.374829961934D+03
 Calling FoFJK, ICntrl=      2127 FMM=T ISym2X=0 I1Cent= 0 IOpClX= 0 NMat=1 NMatS=1 NMatT=0.
 ***** Axes restored to original set *****
 -------------------------------------------------------------------
 Center     Atomic                   Forces (Hartrees/Bohr)
 Number     Number              X              Y              Z
 -------------------------------------------------------------------
      1        6           0.009862850    0.000050673    0.000884283
      2        6          -0.009464511   -0.006150595    0.003668634
      3        6          -0.006676550   -0.009763888   -0.003338352
      4        6           0.010573131   -0.007160800    0.012312480
      5        6          -0.008283307    0.004874969    0.005353976
      6        6          -0.009156939   -0.008216476   -0.006235294
      7        6           0.021307039    0.014584750    0.010801761
      8        6          -0.005975499   -0.002744366   -0.024287562
      9        6           0.010929698   -0.006677649    0.009165387
     10        6          -0.014870409    0.017376454   -0.004243659
     11        6          -0.029463925   -0.006096066   -0.018213493
     12        8           0.008639685    0.014257218    0.010443634
     13        6           0.007576046    0.006299259   -0.007112471
     14        6          -0.007978294   -0.002731415    0.003646771
     15        6           0.007526387    0.001471821    0.000560033
     16        8           0.007019313   -0.010397983    0.001857576
     17        6           0.003117223   -0.006448005   -0.011600898
     18        6           0.030111791    0.004796239   -0.013777558
     19        8          -0.011701138   -0.008448419    0.033385951
     20        6           0.009318921   -0.001600924   -0.005849266
     21        8          -0.003423690    0.004565717    0.005564125
     22        6          -0.009645265   -0.001550004    0.008755612
     23        6           0.008591351    0.006798777    0.008025846
     24        8          -0.004202958    0.001859962   -0.008484613
     25        6           0.011531248    0.009477101    0.009668751
     26        6          -0.000156529   -0.000278347   -0.000365489
     27        6          -0.004307186   -0.006139517   -0.009109858
     28        6          -0.001836615    0.008426373    0.001846873
     29        6          -0.008477853   -0.000611791   -0.007555954
     30        1          -0.003055669    0.001955106    0.000235068
     31        1          -0.001743866    0.005833978    0.000644900
     32        6          -0.002493832   -0.000519976    0.000193613
     33        1           0.000668969   -0.000813840    0.000046645
     34        1           0.000563209    0.005220895   -0.000225869
     35        1          -0.001174642    0.005363676   -0.001290226
     36        1          -0.003740728   -0.004206683    0.000719265
     37        1           0.002250104   -0.000948015   -0.000189041
     38        1           0.004399943    0.001485329   -0.001929324
     39        1          -0.001741653   -0.000277917    0.000121533
     40        1           0.001255341    0.000230436    0.000755040
     41        1           0.000591321   -0.000223505    0.000345686
     42        1          -0.002073089   -0.001501258   -0.001462300
     43        1           0.000296294    0.000785111    0.000992332
     44        1          -0.002864087    0.001345862   -0.003922017
     45        1          -0.000062887    0.000633912   -0.003255060
     46        1           0.000510057   -0.001337329   -0.003635526
     47        1          -0.001149214   -0.003635708    0.000587567
     48        1          -0.002848175   -0.003007429    0.000386529
     49        1          -0.002952979   -0.003174443    0.000240339
     50        1           0.000976664    0.001032659   -0.001944866
     51        1           0.000275945   -0.000160017   -0.000163271
     52        1          -0.001035486   -0.000530237    0.000428087
     53        1           0.000338969   -0.004570614    0.003350477
     54        1           0.000529193   -0.003295032   -0.002299934
     55        1           0.000124223   -0.000789009   -0.000355751
     56        1          -0.000061560    0.000773009    0.001355315
     57        1           0.001892203    0.001488606    0.001881059
     58        1           0.001279216   -0.001700489    0.002555649
     59        1          -0.000612961    0.000888827   -0.000351781
     60        1           0.003996913   -0.001543352   -0.000057530
     61        1           0.004287279   -0.001179347    0.000082731
     62        6          -0.004559062   -0.002099894    0.002375585
     63        1          -0.000300819   -0.000146419   -0.001100787
     64        1          -0.000791954   -0.000984959   -0.001106100
     65        1          -0.001457196   -0.000215002    0.000224730
 -------------------------------------------------------------------
 Cartesian Forces:  Max     0.033385951 RMS     0.007046431

 GradGradGradGradGradGradGradGradGradGradGradGradGradGradGradGradGradGrad
 Berny optimization.
 Internal  Forces:  Max     0.020337472 RMS     0.003450688
 Search for a local minimum.
 Step number   1 out of a maximum of  390
 All quantities printed in internal units (Hartrees-Bohrs-Radians)
 Mixed Optimization -- RFO/linear search
 Second derivative matrix not updated -- first step.
 ITU=  0
     Eigenvalues ---    0.00278   0.00293   0.00356   0.00374   0.00382
     Eigenvalues ---    0.00467   0.00480   0.00563   0.00594   0.00609
     Eigenvalues ---    0.00649   0.00692   0.00726   0.00737   0.00882
     Eigenvalues ---    0.01062   0.01166   0.01250   0.01298   0.01450
     Eigenvalues ---    0.01518   0.01722   0.01736   0.01836   0.02085
     Eigenvalues ---    0.02624   0.02824   0.02824   0.03109   0.03216
     Eigenvalues ---    0.03462   0.03597   0.03712   0.03904   0.04085
     Eigenvalues ---    0.04274   0.04328   0.04458   0.04506   0.04827
     Eigenvalues ---    0.04895   0.04922   0.05005   0.05144   0.05284
     Eigenvalues ---    0.05320   0.05339   0.05387   0.05418   0.05446
     Eigenvalues ---    0.05502   0.05518   0.05571   0.05584   0.05638
     Eigenvalues ---    0.05658   0.05705   0.05889   0.05930   0.06145
     Eigenvalues ---    0.06581   0.06791   0.07111   0.07153   0.07156
     Eigenvalues ---    0.07227   0.07273   0.07316   0.07448   0.07994
     Eigenvalues ---    0.08331   0.08478   0.08504   0.09367   0.09436
     Eigenvalues ---    0.09898   0.10246   0.11442   0.11892   0.12307
     Eigenvalues ---    0.12586   0.13301   0.14533   0.15336   0.15734
     Eigenvalues ---    0.15967   0.16000   0.16000   0.16000   0.16000
     Eigenvalues ---    0.16000   0.16000   0.16000   0.16000   0.16000
     Eigenvalues ---    0.16000   0.16000   0.16000   0.16000   0.16000
     Eigenvalues ---    0.16000   0.16000   0.16000   0.16000   0.16000
     Eigenvalues ---    0.16000   0.16547   0.16960   0.18105   0.18617
     Eigenvalues ---    0.19769   0.20922   0.21921   0.22350   0.22548
     Eigenvalues ---    0.23387   0.24577   0.24816   0.24960   0.24994
     Eigenvalues ---    0.24997   0.24997   0.25000   0.26106   0.26716
     Eigenvalues ---    0.27023   0.27168   0.27406   0.27735   0.28356
     Eigenvalues ---    0.28797   0.28897   0.28984   0.29334   0.29460
     Eigenvalues ---    0.29512   0.30114   0.30299   0.30732   0.31166
     Eigenvalues ---    0.31797   0.31835   0.32145   0.33219   0.33622
     Eigenvalues ---    0.33830   0.33885   0.33890   0.33950   0.33981
     Eigenvalues ---    0.34000   0.34004   0.34021   0.34074   0.34082
     Eigenvalues ---    0.34164   0.34183   0.34191   0.34208   0.34212
     Eigenvalues ---    0.34225   0.34225   0.34248   0.34257   0.34261
     Eigenvalues ---    0.34263   0.34267   0.34276   0.34290   0.34292
     Eigenvalues ---    0.34297   0.34298   0.34363   0.34364   0.34845
     Eigenvalues ---    0.35043   0.35235   0.35299   0.35421   0.36639
     Eigenvalues ---    0.37522   0.41050   0.44370   0.50183   0.53461
     Eigenvalues ---    0.54373   0.56229   0.89522   0.91166
 RFO step:  Lambda=-2.18846526D-02 EMin= 2.78150930D-03
 Linear search not attempted -- first point.
 Iteration  1 RMS(Cart)=  0.04925604 RMS(Int)=  0.00084441
 Iteration  2 RMS(Cart)=  0.00141837 RMS(Int)=  0.00025140
 Iteration  3 RMS(Cart)=  0.00000116 RMS(Int)=  0.00025140
 Iteration  4 RMS(Cart)=  0.00000000 RMS(Int)=  0.00025140
 Variable       Old X    -DE/DX   Delta X   Delta X   Delta X     New X
                                 (Linear)    (Quad)   (Total)
    R1        2.53299  -0.00191   0.00000  -0.00408  -0.00414   2.52885
    R2        2.82210   0.00886   0.00000   0.02548   0.02536   2.84746
    R3        2.05606   0.00036   0.00000   0.00097   0.00097   2.05703
    R4        2.84481   0.00493   0.00000   0.01253   0.01259   2.85740
    R5        2.83879   0.00473   0.00000   0.01379   0.01379   2.85258
    R6        2.94477   0.00648   0.00000   0.01661   0.01655   2.96132
    R7        2.89668   0.01022   0.00000   0.03425   0.03420   2.93088
    R8        2.07972  -0.00189   0.00000  -0.00528  -0.00528   2.07444
    R9        2.92561   0.01219   0.00000   0.03861   0.03860   2.96421
   R10        2.91802   0.00776   0.00000   0.03127   0.03154   2.94957
   R11        2.75661  -0.00524   0.00000  -0.01536  -0.01539   2.74122
   R12        2.91716   0.00527   0.00000   0.01948   0.01943   2.93658
   R13        2.90953   0.00485   0.00000   0.00859   0.00826   2.91779
   R14        2.91203   0.00541   0.00000   0.01912   0.01911   2.93114
   R15        2.07515  -0.00155   0.00000  -0.00430  -0.00430   2.07086
   R16        2.07524   0.00255   0.00000   0.00707   0.00707   2.08231
   R17        2.81368   0.01122   0.00000   0.02632   0.02602   2.83970
   R18        2.86619   0.01494   0.00000   0.05300   0.05251   2.91870
   R19        2.68457   0.00259   0.00000   0.00671   0.00674   2.69131
   R20        2.52487   0.01181   0.00000   0.02082   0.02092   2.54579
   R21        2.62222  -0.01816   0.00000  -0.04244  -0.04217   2.58005
   R22        2.79663   0.00124   0.00000  -0.00094  -0.00079   2.79584
   R23        2.79227   0.02034   0.00000   0.05492   0.05492   2.84719
   R24        2.32400  -0.00884   0.00000  -0.00947  -0.00947   2.31453
   R25        2.33154  -0.01962   0.00000  -0.02139  -0.02139   2.31015
   R26        2.89054  -0.00274   0.00000  -0.00867  -0.00867   2.88187
   R27        2.90218   0.00617   0.00000   0.01986   0.01986   2.92204
   R28        2.88947   0.00692   0.00000   0.02183   0.02183   2.91129
   R29        2.07618  -0.00017   0.00000  -0.00049  -0.00049   2.07570
   R30        2.07010   0.00050   0.00000   0.00136   0.00136   2.07146
   R31        2.07362   0.00080   0.00000   0.00221   0.00221   2.07583
   R32        2.87736   0.00763   0.00000   0.02361   0.02361   2.90097
   R33        2.07023   0.00017   0.00000   0.00047   0.00047   2.07070
   R34        2.06831   0.00045   0.00000   0.00124   0.00124   2.06955
   R35        2.06953   0.00053   0.00000   0.00145   0.00145   2.07098
   R36        2.91025   0.00008   0.00000   0.01204   0.01222   2.92247
[...]
     54          1           0        2.757987    3.375449   -2.328204
     55          1           0        1.191737    4.135330   -2.675434
     56          1           0        1.109649    5.101616   -0.254899
     57          1           0        2.722198    4.395063   -0.043738
     58          1           0        1.437159    4.015959    1.113782
     59          1           0       -4.031470    1.817921    3.501773
     60          1           0       -3.393512    3.171192    2.551727
     61          1           0       -4.551349    2.064507    1.821439
     62          6           0        4.064634   -3.583620    0.962159
     63          1           0        3.255634   -3.383949    1.670304
     64          1           0        5.017311   -3.410249    1.477389
     65          1           0        4.015958   -4.644460    0.691205
 ---------------------------------------------------------------------
 Rotational constants (GHZ):      0.1908354      0.1373050      0.1108666

 **********************************************************************

            Population analysis using the SCF density.

 **********************************************************************

 Orbital symmetries:
       Occupied  (A) (A) (A) (A) (A) (A) (A) (A) (A) (A) (A) (A)
                 (A) (A) (A) (A) (A) (A) (A) (A) (A) (A) (A) (A)
                 (A) (A) (A) (A) (A) (A) (A) (A) (A) (A) (A) (A)
                 (A) (A) (A) (A) (A) (A) (A) (A) (A) (A) (A) (A)
                 (A) (A) (A) (A) (A) (A) (A) (A) (A) (A) (A) (A)
                 (A) (A) (A) (A) (A) (A) (A) (A) (A) (A) (A) (A)
                 (A) (A) (A) (A) (A) (A) (A) (A) (A) (A) (A) (A)
                 (A) (A) (A) (A) (A) (A) (A) (A) (A) (A) (A) (A)
                 (A) (A) (A) (A) (A) (A) (A) (A) (A) (A) (A) (A)
                 (A) (A) (A) (A) (A) (A) (A)
       Virtual   (A) (A) (A) (A) (A) (A) (A) (A) (A) (A) (A) (A)
                 (A) (A) (A) (A) (A) (A) (A) (A) (A) (A) (A) (A)
                 (A) (A) (A) (A) (A) (A) (A) (A) (A) (A) (A) (A)
                 (A) (A) (A) (A) (A) (A) (A) (A) (A) (A) (A) (A)
                 (A) (A) (A) (A) (A) (A) (A) (A) (A) (A) (A) (A)
                 (A) (A) (A) (A) (A) (A) (A) (A) (A) (A) (A) (A)
                 (A) (A) (A) (A) (A) (A) (A) (A) (A) (A) (A) (A)
                 (A) (A) (A) (A) (A) (A) (A) (A) (A) (A) (A) (A)
                 (A) (A) (A) (A) (A) (A) (A) (A) (A) (A) (A) (A)
                 (A) (A) (A) (A) (A) (A) (A) (A) (A) (A) (A) (A)
                 (A) (A) (A) (A) (A) (A) (A) (A) (A) (A) (A) (A)
                 (A) (A) (A) (A) (A) (A) (A) (A) (A) (A) (A) (A)
                 (A) (A) (A) (A) (A) (A) (A) (A) (A) (A) (A) (A)
                 (A) (A) (A) (A) (A) (A) (A) (A) (A) (A) (A) (A)
                 (A) (A) (A) (A) (A) (A) (A) (A) (A) (A) (A) (A)
                 (A) (A) (A) (A) (A) (A) (A) (A) (A) (A) (A) (A)
                 (A) (A) (A) (A) (A) (A) (A) (A) (A) (A) (A) (A)
                 (A) (A) (A) (A) (A) (A) (A) (A) (A) (A) (A) (A)
                 (A) (A) (A) (A) (A) (A) (A) (A) (A) (A) (A) (A)
                 (A) (A) (A) (A) (A) (A) (A) (A) (A) (A) (A) (A)
                 (A) (A) (A) (A) (A) (A) (A) (A) (A) (A) (A) (A)
                 (A) (A) (A) (A) (A) (A) (A) (A) (A) (A) (A) (A)
                 (A) (A) (A) (A) (A) (A) (A) (A) (A) (A) (A) (A)
                 (A) (A) (A) (A) (A) (A) (A) (A) (A) (A) (A) (A)
                 (A) (A) (A) (A) (A) (A) (A) (A) (A) (A) (A) (A)
                 (A) (A) (A) (A) (A) (A) (A) (A) (A) (A) (A) (A)
                 (A) (A) (A) (A) (A) (A) (A) (A) (A) (A) (A) (A)
                 (A) (A) (A) (A) (A) (A) (A) (A) (A) (A) (A) (A)
                 (A) (A) (A) (A) (A) (A) (A) (A) (A) (A) (A) (A)
                 (A) (A) (A) (A) (A) (A) (A) (A) (A) (A) (A) (A)
                 (A) (A) (A) (A) (A) (A) (A) (A) (A) (A) (A) (A)
                 (A) (A) (A) (A) (A) (A) (A) (A) (A) (A) (A) (A)
                 (A) (A) (A) (A) (A) (A) (A) (A) (A) (A) (A) (A)
                 (A) (A) (A) (A) (A) (A) (A) (A) (A) (A) (A) (A)
                 (A) (A) (A) (A) (A) (A) (A) (A) (A) (A)
 The electronic state is 1-A.
 Alpha  occ. eigenvalues --  -19.19441 -19.17110 -19.15009 -19.13222 -19.13093
 Alpha  occ. eigenvalues --  -10.27154 -10.26918 -10.26628 -10.26476 -10.26188
 Alpha  occ. eigenvalues --  -10.25891 -10.24908 -10.21436 -10.20477 -10.20436
 Alpha  occ. eigenvalues --  -10.20191 -10.20144 -10.19818 -10.19457 -10.19069
 Alpha  occ. eigenvalues --  -10.19047 -10.18896 -10.18798 -10.18787 -10.18725
 Alpha  occ. eigenvalues --  -10.18349 -10.18246 -10.17769 -10.17176 -10.16789
 Alpha  occ. eigenvalues --  -10.15431  -1.08826  -1.06592  -1.03426  -1.02650
 Alpha  occ. eigenvalues --   -1.02245  -0.86897  -0.83684  -0.82150  -0.81321
 Alpha  occ. eigenvalues --   -0.80021  -0.79540  -0.76675  -0.73948  -0.73006
 Alpha  occ. eigenvalues --   -0.72107  -0.71366  -0.70098  -0.69060  -0.68353
 Alpha  occ. eigenvalues --   -0.64781  -0.63711  -0.63496  -0.61652  -0.60757
 Alpha  occ. eigenvalues --   -0.58926  -0.58775  -0.56789  -0.55558  -0.53789
 Alpha  occ. eigenvalues --   -0.53014  -0.51916  -0.50985  -0.49998  -0.49291
 Alpha  occ. eigenvalues --   -0.47899  -0.47087  -0.46515  -0.46193  -0.45813
 Alpha  occ. eigenvalues --   -0.44990  -0.44597  -0.44050  -0.43672  -0.43110
 Alpha  occ. eigenvalues --   -0.42416  -0.42340  -0.42147  -0.41715  -0.41600
 Alpha  occ. eigenvalues --   -0.40894  -0.40552  -0.40171  -0.40093  -0.39988
 Alpha  occ. eigenvalues --   -0.39297  -0.39158  -0.38941  -0.38415  -0.38344
 Alpha  occ. eigenvalues --   -0.37651  -0.37498  -0.36941  -0.36462  -0.36097
 Alpha  occ. eigenvalues --   -0.35535  -0.35329  -0.35069  -0.34785  -0.34510
 Alpha  occ. eigenvalues --   -0.33697  -0.33559  -0.33084  -0.32613  -0.32332
 Alpha  occ. eigenvalues --   -0.32021  -0.31165  -0.30682  -0.28250  -0.27357
 Alpha  occ. eigenvalues --   -0.25159  -0.24597  -0.24317  -0.23472  -0.22609
 Alpha virt. eigenvalues --   -0.03890  -0.01427   0.01076   0.01918   0.03764
 Alpha virt. eigenvalues --    0.06938   0.08204   0.08571   0.09041   0.10063
 Alpha virt. eigenvalues --    0.10490   0.10790   0.11251   0.11634   0.12273
 Alpha virt. eigenvalues --    0.12714   0.12888   0.13622   0.13741   0.14084
 Alpha virt. eigenvalues --    0.14540   0.14643   0.15027   0.15320   0.15543
 Alpha virt. eigenvalues --    0.15816   0.16527   0.16651   0.16857   0.17364
 Alpha virt. eigenvalues --    0.17698   0.18075   0.18709   0.18902   0.19114
 Alpha virt. eigenvalues --    0.19352   0.19596   0.19835   0.20368   0.20643
 Alpha virt. eigenvalues --    0.20892   0.21202   0.21477   0.21660   0.22398
 Alpha virt. eigenvalues --    0.23094   0.23599   0.23995   0.24067   0.24424
 Alpha virt. eigenvalues --    0.24832   0.25461   0.25779   0.26428   0.26576
 Alpha virt. eigenvalues --    0.26973   0.27410   0.28198   0.28548   0.30049
 Alpha virt. eigenvalues --    0.30992   0.31940   0.32237   0.33886   0.34234
 Alpha virt. eigenvalues --    0.34511   0.36437   0.37843   0.38513   0.40017
 Alpha virt. eigenvalues --    0.41003   0.44892   0.45270   0.47771   0.48259
 Alpha virt. eigenvalues --    0.49585   0.50022   0.50291   0.51330   0.51384
 Alpha virt. eigenvalues --    0.51787   0.52134   0.52767   0.53140   0.53480
 Alpha virt. eigenvalues --    0.53619   0.54085   0.54295   0.55332   0.55422
 Alpha virt. eigenvalues --    0.56683   0.56797   0.57596   0.57905   0.59643
 Alpha virt. eigenvalues --    0.60030   0.60157   0.60553   0.61276   0.61566
 Alpha virt. eigenvalues --    0.61804   0.62409   0.62873   0.63345   0.64147
 Alpha virt. eigenvalues --    0.64945   0.65369   0.66326   0.66584   0.67039
 Alpha virt. eigenvalues --    0.67648   0.68197   0.68816   0.69455   0.70093
 Alpha virt. eigenvalues --    0.70755   0.70928   0.71355   0.72335   0.72824
 Alpha virt. eigenvalues --    0.73611   0.73834   0.75313   0.75444   0.76202
 Alpha virt. eigenvalues --    0.76271   0.77242   0.77882   0.78291   0.78826
 Alpha virt. eigenvalues --    0.79243   0.80118   0.80991   0.81862   0.82518
 Alpha virt. eigenvalues --    0.82755   0.83383   0.83792   0.84511   0.85181
 Alpha virt. eigenvalues --    0.85574   0.85956   0.86057   0.86765   0.86877
 Alpha virt. eigenvalues --    0.87294   0.87881   0.88575   0.88664   0.89029
 Alpha virt. eigenvalues --    0.89331   0.89371   0.89855   0.89907   0.90669
 Alpha virt. eigenvalues --    0.90959   0.91256   0.91490   0.91909   0.92834
 Alpha virt. eigenvalues --    0.93242   0.93437   0.93786   0.94065   0.94760
 Alpha virt. eigenvalues --    0.95217   0.95515   0.95763   0.95892   0.96553
 Alpha virt. eigenvalues --    0.97015   0.97643   0.98298   0.98859   0.98952
 Alpha virt. eigenvalues --    0.99106   1.00048   1.01208   1.02363   1.03121
 Alpha virt. eigenvalues --    1.03426   1.04556   1.05002   1.06232   1.08419
 Alpha virt. eigenvalues --    1.09742   1.11140   1.11883   1.12321   1.12802
 Alpha virt. eigenvalues --    1.13699   1.14459   1.14998   1.15855   1.16166
 Alpha virt. eigenvalues --    1.17887   1.18094   1.19225   1.20345   1.21147
 Alpha virt. eigenvalues --    1.22252   1.23687   1.24298   1.25637   1.26715
 Alpha virt. eigenvalues --    1.28362   1.30214   1.30472   1.30742   1.33359
 Alpha virt. eigenvalues --    1.35993   1.36903   1.38154   1.39537   1.39983
 Alpha virt. eigenvalues --    1.41440   1.42479   1.43697   1.45291   1.45702
 Alpha virt. eigenvalues --    1.48040   1.50160   1.50926   1.51801   1.53134
 Alpha virt. eigenvalues --    1.53720   1.54979   1.55809   1.56811   1.58093
 Alpha virt. eigenvalues --    1.60062   1.60264   1.61049   1.62541   1.63174
 Alpha virt. eigenvalues --    1.64967   1.65556   1.66176   1.67206   1.69597
 Alpha virt. eigenvalues --    1.70381   1.71021   1.72307   1.73012   1.74133
 Alpha virt. eigenvalues --    1.74860   1.75222   1.76669   1.77828   1.78376
 Alpha virt. eigenvalues --    1.79509   1.80814   1.80903   1.81721   1.81991
 Alpha virt. eigenvalues --    1.83445   1.83875   1.84412   1.84873   1.85498
 Alpha virt. eigenvalues --    1.85934   1.86563   1.87696   1.88328   1.88698
 Alpha virt. eigenvalues --    1.89229   1.89522   1.90098   1.90988   1.91306
 Alpha virt. eigenvalues --    1.92171   1.93163   1.93446   1.94506   1.94802
 Alpha virt. eigenvalues --    1.96001   1.96367   1.96487   1.97207   1.97495
 Alpha virt. eigenvalues --    1.98473   1.98724   1.99349   1.99968   2.00154
 Alpha virt. eigenvalues --    2.01269   2.02369   2.02718   2.03383   2.04314
 Alpha virt. eigenvalues --    2.04433   2.05754   2.06275   2.07588   2.08313
 Alpha virt. eigenvalues --    2.10642   2.11066   2.12331   2.12770   2.13756
 Alpha virt. eigenvalues --    2.14171   2.15397   2.17096   2.17418   2.17895
 Alpha virt. eigenvalues --    2.18660   2.19720   2.20485   2.20698   2.22094
 Alpha virt. eigenvalues --    2.23977   2.24398   2.24819   2.26844   2.26917
 Alpha virt. eigenvalues --    2.28039   2.29149   2.29470   2.30401   2.31075
 Alpha virt. eigenvalues --    2.32025   2.32986   2.33172   2.33600   2.34138
 Alpha virt. eigenvalues --    2.35948   2.37431   2.38509   2.38685   2.39026
 Alpha virt. eigenvalues --    2.40241   2.40442   2.41351   2.42039   2.42502
 Alpha virt. eigenvalues --    2.44452   2.45276   2.46956   2.48248   2.48959
 Alpha virt. eigenvalues --    2.49239   2.50651   2.52382   2.52957   2.54508
 Alpha virt. eigenvalues --    2.55543   2.57552   2.58249   2.58752   2.59830
 Alpha virt. eigenvalues --    2.62154   2.63155   2.63820   2.65283   2.65766
 Alpha virt. eigenvalues --    2.66663   2.67767   2.69565   2.70709   2.70937
 Alpha virt. eigenvalues --    2.71782   2.72774   2.73260   2.76169   2.77275
 Alpha virt. eigenvalues --    2.77676   2.78669   2.79835   2.80632   2.84068
 Alpha virt. eigenvalues --    2.87360   2.90254   2.93336   2.94419   2.96430
 Alpha virt. eigenvalues --    2.97961   2.99594   3.00379   3.02555   3.03524
 Alpha virt. eigenvalues --    3.05383   3.06191   3.12400   3.13417   3.20783
 Alpha virt. eigenvalues --    3.22112   3.27082   4.03011   4.10053   4.12386
 Alpha virt. eigenvalues --    4.12987   4.14452   4.16467   4.17394   4.19704
 Alpha virt. eigenvalues --    4.23579   4.24603   4.25626   4.26669   4.31187
 Alpha virt. eigenvalues --    4.31677   4.32790   4.35973   4.38190   4.43529
 Alpha virt. eigenvalues --    4.47019   4.49331   4.51021   4.58496   4.62891
 Alpha virt. eigenvalues --    4.64293   4.66377   4.69660   4.73726   4.77030
 Alpha virt. eigenvalues --    4.89111   4.96410   5.24246
          Condensed to atoms (all electrons):
 Mulliken atomic charges:
              1
     1  C   -0.194643
     2  C    0.198424
     3  C   -0.198467
     4  C    0.309772
     5  C   -0.023881
     6  C   -0.332696
     7  C    0.197270
     8  C    0.421518
     9  C   -0.111923
    10  C    0.407044
    11  C    0.420593
    12  O   -0.445216
    13  C   -0.150052
    14  C   -0.261982
    15  C   -0.469865
    16  O   -0.496829
    17  C   -0.154642
    18  C    0.297520
    19  O   -0.536723
    20  C   -0.309706
    21  O   -0.674910
    22  C   -0.326495
    23  C    0.116349
    24  O   -0.588737
    25  C    0.183098
    26  C   -0.518663
    27  C   -0.395306
    28  C   -0.466540
    29  C   -0.460414
    30  H    0.147823
    31  H    0.149175
    32  C   -0.521580
    33  H    0.125436
    34  H    0.164554
    35  H    0.180443
    36  H    0.144682
    37  H    0.160841
    38  H    0.130738
    39  H    0.143609
    40  H    0.156734
    41  H    0.160132
    42  H    0.150984
    43  H    0.165243
    44  H    0.428407
    45  H    0.150120
    46  H    0.183860
    47  H    0.136264
    48  H    0.168959
    49  H    0.154584
    50  H    0.160536
    51  H    0.146198
    52  H    0.136268
    53  H    0.194645
    54  H    0.156012
    55  H    0.144345
    56  H    0.150360
    57  H    0.163244
    58  H    0.163355
    59  H    0.158103
    60  H    0.155790
    61  H    0.155096
    62  C   -0.445273
    63  H    0.172417
    64  H    0.136476
    65  H    0.137527
 Sum of Mulliken atomic charges =   0.00000
 Mulliken charges with hydrogens summed into heavy atoms:
              1
     1  C   -0.069208
     2  C    0.198424
     3  C   -0.049292
     4  C    0.309772
     5  C   -0.023881
     6  C    0.012300
     7  C    0.197270
     8  C    0.421518
     9  C   -0.111923
    10  C    0.407044
    11  C    0.420593
    12  O   -0.445216
    13  C   -0.005370
    14  C    0.029598
    15  C   -0.009390
    16  O   -0.496829
    17  C   -0.006819
    18  C    0.297520
    19  O   -0.536723
    20  C    0.006521
    21  O   -0.246503
    22  C    0.007486
    23  C    0.252613
    24  O   -0.588737
    25  C    0.183098
    26  C   -0.034585
    27  C   -0.112840
    28  C    0.028462
    29  C    0.016544
    32  C   -0.052592
    62  C    0.001147
 Sum of Mulliken charges with hydrogens summed into heavy atoms =   0.00000
 Electronic spatial extent (au):  <R**2>=          11479.8928
 Charge=              0.0000 electrons
 Dipole moment (field-independent basis, Debye):
    X=             -3.9189    Y=              3.5988    Z=             -0.9720  Tot=              5.4086
 Quadrupole moment (field-independent basis, Debye-Ang):
   XX=           -179.8722   YY=           -175.9705   ZZ=           -189.2870
   XY=              6.0461   XZ=            -10.7773   YZ=              2.0416
 Traceless Quadrupole moment (field-independent basis, Debye-Ang):
   XX=              1.8377   YY=              5.7394   ZZ=             -7.5771
   XY=              6.0461   XZ=            -10.7773   YZ=              2.0416
 Octapole moment (field-independent basis, Debye-Ang**2):
  XXX=             -4.7093  YYY=             60.0463  ZZZ=             -9.9790  XYY=            -12.7939
  XXY=            -15.9604  XXZ=            -21.9487  XZZ=            -29.2412  YZZ=             -1.2545
  YYZ=            -17.0997  XYZ=             -2.6414
 Hexadecapole moment (field-independent basis, Debye-Ang**3):
 XXXX=          -7691.2256 YYYY=          -4951.1490 ZZZZ=          -2562.9801 XXXY=             58.4921
 XXXZ=            -88.7043 YYYX=             89.9775 YYYZ=            -21.0626 ZZZX=            -17.6566
 ZZZY=             -1.8280 XXYY=          -2045.3407 XXZZ=          -1767.9394 YYZZ=          -1256.2602
 XXYZ=             47.6825 YYXZ=              6.6267 ZZXY=             38.7712
 N-N= 3.512057335049D+03 E-N=-1.025033321620D+04  KE= 1.374465215503D+03
 1\1\GINC-B0600\FOpt\RB3LYP\6-31G(d)\C26H34O5\CAOFEI\24-Mar-2021\0\\# o
 pt rb3lyp/6-31g(d) geom=connectivity\\Title Card Required\\0,1\C,0.062
 5384826,-0.0568231141,-0.0784811351\C,1.3980047059,-0.056097964,0.0095
 13571\C,2.1572068352,1.2501239511,-0.0102098077\C,1.3957899242,2.50038
 79267,0.5404916153\C,-0.1669359371,2.3922623992,0.6322678279\C,-0.7468
 221754,1.2054622564,-0.1998356418\C,1.9198141629,3.6859061087,-0.33217
 92965\C,0.9225407276,4.1147098894,-1.3919490944\C,-0.404404929,4.21477
 27316,-1.1747775371\C,-0.9236524778,3.6273233572,0.0716894226\C,-1.399
 6039202,4.6907015483,-2.2194771621\O,-1.9857596415,3.8530340288,-2.882
 2779425\C,-1.6876899258,6.1810131677,-2.3686946912\C,-2.7050921044,6.6
 283947268,-1.2841383718\C,-0.4227998116,7.0525643517,-2.3262733133\O,-
 1.9928686724,3.9612242769,0.5668900252\C,3.0598856878,3.1566428582,-1.
 2309991722\C,2.9838696747,4.0692515374,-2.4774243735\O,1.540633336,4.4
 157121136,-2.5463167372\C,2.6720785023,1.6759037167,-1.4099553318\O,2.
 249874486,4.8200105852,0.4455113957\C,-0.43981774,2.2270143612,2.14971
 56464\C,0.9506937536,2.1088041943,2.8010675991\O,1.8333961124,2.767612
 5157,1.8826468153\C,1.065116702,2.6875493189,4.1916379963\C,0.16584407
 7,2.0384748195,5.2155470807\C,1.9079431921,3.6764817736,4.4974671332\C
 ,3.7630090436,5.373254938,-2.2870202572\C,3.3251314205,3.4108991663,-3
 .8106574881\H,4.027406592,3.2512210539,-0.7290724025\H,3.037815935,1.1
 593386718,0.6406647386\C,2.2147946244,-1.3193553131,0.0960234818\H,-0.
 4769458842,-1.0028127799,-0.0939316238\H,-1.7775419652,1.041047692,0.1
 317056835\H,-0.8265178163,1.5022720149,-1.2560945734\H,-2.17031977,6.2
 81368994,-3.3493917723\H,-2.28521097,6.4284413653,-0.2912086465\H,-2.8
 067774665,7.718728311,-1.3721275655\H,-0.6909805944,8.1010553403,-2.49
 85285231\H,0.3007992206,6.75541265,-3.0915285774\H,0.0722185892,6.9881
 125144,-1.3509576993\H,3.5049438744,1.0541237796,-1.7523404623\H,1.864
 6720686,1.5695574937,-2.1441706358\H,2.199051371,4.512482263,1.3728250
 764\H,-1.056394788,1.3498373859,2.3615111796\H,-0.9769352756,3.1047189
 508,2.5187551865\H,1.2386233062,1.0452377966,2.8452724737\H,-0.8944922
 162,2.1773626045,4.9676029577\H,0.3387378686,0.9545211567,5.2669135484
 \H,0.3372921761,2.4562613533,6.2115704215\H,2.5682243869,4.1205994763,
 3.7608015056\H,1.9687154236,4.0677756693,5.5095010788\H,3.507722624,5.
 8445932064,-1.3351012457\H,3.5359020878,6.0676231894,-3.1025476069\H,4
 .8404048462,5.1719946219,-2.2980300579\H,4.3772827598,3.1056767619,-3.
 8196375485\H,3.1695261322,4.1200933883,-4.6298247332\H,2.704985003,2.5
 314675832,-4.0010402882\H,1.5798721604,-2.2109065911,0.0835390452\H,2.
 9216291756,-1.3986233586,-0.7415696931\H,2.8175274553,-1.3415943901,1.
 0147246896\C,-4.0824081686,5.9698268946,-1.3954339856\H,-4.0191917731,
 4.8887420886,-1.2435218388\H,-4.5327642494,6.1486140755,-2.3794703436\
 H,-4.7609902347,6.3739125447,-0.6355600187\\Version=EM64L-G09RevB.01\S
 tate=1-A\HF=-1387.3162913\RMSD=8.083e-09\RMSF=6.190e-06\Dipole=1.83081
 64,-0.9981162,0.4242008\Quadrupole=-5.1096818,4.3986319,0.7110499,-0.7
 466498,-8.536762,-4.025228\PG=C01 [X(C26H34O5)]\\@


 COLLEGE PROFESSOR: SOMEONE WHO TALKS IN OTHER PEOPLE'S SLEEP.
 Job cpu time:  0 days  4 hours 40 minutes  2.3 seconds.
 File lengths (MBytes):  RWF=    186 Int=      0 D2E=      0 Chk=     20 Scr=      1
 Normal termination of Gaussian 09 at Wed Mar 24 17:57:15 2021.
