 Entering Gaussian System, Link 0=g09
 Initial command:
 /public/software/g09/g09/l1.exe /tmp/Gau-13774.inp -scrdir=/tmp/
 Entering Link 1 = /public/software/g09/g09/l1.exe PID=     13775.
  
 Copyright (c) 1988,1990,1992,1993,1995,1998,2003,2009,2010,
            Gaussian, Inc.  All Rights Reserved.
  
 This is part of the Gaussian(R) 09 program.  It is based on
 the Gaussian(R) 03 system (copyright 2003, Gaussian, Inc.),
 the Gaussian(R) 98 system (copyright 1998, Gaussian, Inc.),
 the Gaussian(R) 94 system (copyright 1995, Gaussian, Inc.),
 the Gaussian 92(TM) system (copyright 1992, Gaussian, Inc.),
 the Gaussian 90(TM) system (copyright 1990, Gaussian, Inc.),
 the Gaussian 88(TM) system (copyright 1988, Gaussian, Inc.),
 the Gaussian 86(TM) system (copyright 1986, Carnegie Mellon
 University), and the Gaussian 82(TM) system (copyright 1983,
 Carnegie Mellon University). Gaussian is a federally registered
 trademark of Gaussian, Inc.
  
 This software contains proprietary and confidential information,
 including trade secrets, belonging to Gaussian, Inc.
  
 This software is provided under written license and may be
 used, copied, transmitted, or stored only in accord with that
 written license.
  
 The following legend is applicable only to US Government
 contracts under FAR:
  
                    RESTRICTED RIGHTS LEGEND
  
 Use, reproduction and disclosure by the US Government is
 subject to restrictions as set forth in subparagraphs (a)
 and (c) of the Commercial Computer Software - Restricted
 Rights clause in FAR 52.227-19.
  
 Gaussian, Inc.
 340 Quinnipiac St., Bldg. 40, Wallingford CT 06492
  
  
 ---------------------------------------------------------------
 Warning -- This program may not be used in any manner that
 competes with the business of Gaussian, Inc. or will provide
 assistance to any competitor of Gaussian, Inc.  The licensee
 of this program is prohibited from giving any competitor of
 Gaussian, Inc. access to this program.  By using this program,
 the user acknowledges that Gaussian, Inc. is engaged in the
 business of creating and licensing software in the field of
 computational chemistry and represents and warrants to the
 licensee that it is not a competitor of Gaussian, Inc. and that
 it will not use this program in any manner prohibited above.
 ---------------------------------------------------------------
  

 Cite this work as:
 Gaussian 09, Revision B.01,
 M. J. Frisch, G. W. Trucks, H. B. Schlegel, G. E. Scuseria, 
 M. A. Robb, J. R. Cheeseman, G. Scalmani, V. Barone, B. Mennucci, 
 G. A. Petersson, H. Nakatsuji, M. Caricato, X. Li, H. P. Hratchian, 
 A. F. Izmaylov, J. Bloino, G. Zheng, J. L. Sonnenberg, M. Hada, 
 M. Ehara, K. Toyota, R. Fukuda, J. Hasegawa, M. Ishida, T. Nakajima, 
 Y. Honda, O. Kitao, H. Nakai, T. Vreven, J. A. Montgomery, Jr., 
 J. E. Peralta, F. Ogliaro, M. Bearpark, J. J. Heyd, E. Brothers, 
 K. N. Kudin, V. N. Staroverov, T. Keith, R. Kobayashi, J. Normand, 
 K. Raghavachari, A. Rendell, J. C. Burant, S. S. Iyengar, J. Tomasi, 
 M. Cossi, N. Rega, J. M. Millam, M. Klene, J. E. Knox, J. B. Cross, 
 V. Bakken, C. Adamo, J. Jaramillo, R. Gomperts, R. E. Stratmann, 
 O. Yazyev, A. J. Austin, R. Cammi, C. Pomelli, J. W. Ochterski, 
 R. L. Martin, K. Morokuma, V. G. Zakrzewski, G. A. Voth, 
 P. Salvador, J. J. Dannenberg, S. Dapprich, A. D. Daniels, 
 O. Farkas, J. B. Foresman, J. V. Ortiz, J. Cioslowski, 
 and D. J. Fox, Gaussian, Inc., Wallingford CT, 2010.
 
 ******************************************
 Gaussian 09:  EM64L-G09RevB.01 12-Aug-2010
                24-Mar-2021 
 ******************************************
 %mem=600MW
 %nprocshared=10
 Will use up to   10 processors via shared memory.
 ---------------------------------------
 # opt rb3lyp/6-31g(d) geom=connectivity
 ---------------------------------------
 1/14=-1,18=20,19=15,26=3,38=1,57=2/1,3;
 2/9=110,12=2,17=6,18=5,40=1/2;
 3/5=1,6=6,7=1,11=2,16=1,25=1,30=1,71=1,74=-5,116=1/1,2,3;
 4//1;
 5/5=2,38=5/2;
 6/7=2,8=2,9=2,10=2,28=1/1;
 7//1,2,3,16;
 1/14=-1,18=20,19=15/3(2);
 2/9=110/2;
 99//99;
 2/9=110/2;
 3/5=1,6=6,7=1,11=2,16=1,25=1,30=1,71=1,74=-5,116=1/1,2,3;
 4/5=5,16=3/1;
 5/5=2,38=5/2;
 7//1,2,3,16;
 1/14=-1,18=20,19=15/3(-5);
 2/9=110/2;
 6/7=2,8=2,9=2,10=2,19=2,28=1/1;
 99/9=1/99;
 -------------------
 Title Card Required
 -------------------
 Symbolic Z-matrix:
 Charge =  0 Multiplicity = 1
 C                     0.        0.        0. 
 C                     1.3409    0.        0. 
 C                     2.1173    1.2915    0. 
 C                     1.3921    2.5339    0.5986 
 C                    -0.1345    2.4211    0.7916 
 C                    -0.7983    1.2647    0.0077 
 C                     1.8488    3.7061   -0.3099 
 C                     0.8271    4.2142   -1.2661 
 C                    -0.4739    4.2734   -0.967 
 C                    -0.8826    3.6814    0.3288 
 C                    -1.4797    4.7471   -1.9422 
 O                    -2.3129    3.9372   -2.3526 
 C                    -1.4039    6.1952   -2.4413 
 C                    -2.6885    6.6003   -3.1921 
 C                    -1.0706    7.1841   -1.3231 
 O                    -1.861     4.132     0.9204 
 C                     2.9004    3.1835   -1.268 
 C                     2.7271    4.0852   -2.5059 
 O                     1.3377    4.4969   -2.5241 
 C                     2.5044    1.7125   -1.4248 
 O                     2.3417    4.8109    0.4349 
 C                    -0.2803    2.189     2.2984 
 C                     0.9765    2.7618    2.9327 
 O                     1.9829    2.7677    1.9101 
 C                     0.9606    4.1386    3.5647 
 C                     2.251     4.5398    4.2391 
 C                    -0.0911    4.9731    3.6086 
 C                     3.5872    5.3564   -2.4226 
 C                     3.0323    3.3764   -3.8283 
 H                     3.9166    3.2529   -0.8599 
 H                     3.0404    1.1279    0.5755 
 C                     2.1372   -1.2728   -0.0396 
 H                    -0.5534   -0.9355   -0.0415 
 H                    -0.9931    1.5357   -1.0378 
 H                    -1.7833    1.0541    0.446 
 H                    -0.5912    6.2239   -3.1786 
 H                    -2.5115    7.551    -3.7107 
 H                    -2.9073    5.8615   -3.973 
 H                    -1.7349    7.0588   -0.4613 
 H                    -1.1516    8.2176   -1.6762 
 H                    -0.045     7.0456   -0.9651 
 H                     1.6549    1.5871   -2.1076 
 H                     3.3356    1.116    -1.8164 
 H                     2.5826    4.4495    1.3123 
 H                    -1.2087    2.5671    2.7351 
 H                    -0.2853    1.1108    2.5088 
 H                     1.311     2.0628    3.7102 
 H                     3.0705    4.5924    3.5162 
 H                     2.1785    5.5195    4.7238 
 H                     2.5162    3.8104    5.0116 
 H                    -1.0557    4.7364    3.1769 
 H                    -0.0231    5.9414    4.0969 
 H                     3.3349    5.9695   -1.5525 
 H                     4.6538    5.1135   -2.3791 
 H                     3.4143    5.9971   -3.2955 
 H                     4.0495    2.9721   -3.8403 
 H                     2.3255    2.5645   -4.0272 
 H                     2.9265    4.0683   -4.6723 
 H                     1.4946   -2.1593   -0.0567 
 H                     2.7682   -1.3016   -0.9334 
 H                     2.78     -1.345     0.8436 
 C                    -3.9219    6.7585   -2.3106 
 H                    -4.7961    6.9818   -2.9309 
 H                    -4.1361    5.8462   -1.7465 
 H                    -3.8038    7.5833   -1.6015 
 

 GradGradGradGradGradGradGradGradGradGradGradGradGradGradGradGradGradGrad
 Berny optimization.
 Initialization pass.
                           ----------------------------
                           !    Initial Parameters    !
                           ! (Angstroms and Degrees)  !
 --------------------------                            --------------------------
 ! Name  Definition              Value          Derivative Info.                !
 --------------------------------------------------------------------------------
 ! R1    R(1,2)                  1.3409         estimate D2E/DX2                !
 ! R2    R(1,6)                  1.4956         estimate D2E/DX2                !
 ! R3    R(1,33)                 1.0877         estimate D2E/DX2                !
 ! R4    R(2,3)                  1.5069         estimate D2E/DX2                !
 ! R5    R(2,32)                 1.5019         estimate D2E/DX2                !
 ! R6    R(3,4)                  1.5581         estimate D2E/DX2                !
 ! R7    R(3,20)                 1.5353         estimate D2E/DX2                !
 ! R8    R(3,31)                 1.1            estimate D2E/DX2                !
 ! R9    R(4,5)                  1.5429         estimate D2E/DX2                !
 ! R10   R(4,7)                  1.5518         estimate D2E/DX2                !
 ! R11   R(4,24)                 1.4573         estimate D2E/DX2                !
 ! R12   R(5,6)                  1.5467         estimate D2E/DX2                !
 ! R13   R(5,10)                 1.5369         estimate D2E/DX2                !
 ! R14   R(5,22)                 1.5315         estimate D2E/DX2                !
 ! R15   R(6,34)                 1.0975         estimate D2E/DX2                !
 ! R16   R(6,35)                 1.0985         estimate D2E/DX2                !
 ! R17   R(7,8)                  1.4887         estimate D2E/DX2                !
 ! R18   R(7,17)                 1.5156         estimate D2E/DX2                !
 ! R19   R(7,21)                 1.4207         estimate D2E/DX2                !
 ! R20   R(8,9)                  1.3363         estimate D2E/DX2                !
 ! R21   R(8,19)                 1.3868         estimate D2E/DX2                !
 ! R22   R(9,10)                 1.4821         estimate D2E/DX2                !
 ! R23   R(9,11)                 1.4789         estimate D2E/DX2                !
 ! R24   R(10,16)                1.2289         estimate D2E/DX2                !
 ! R25   R(11,12)                1.2323         estimate D2E/DX2                !
 ! R26   R(11,13)                1.5336         estimate D2E/DX2                !
 ! R27   R(13,14)                1.5421         estimate D2E/DX2                !
 ! R28   R(13,15)                1.5295         estimate D2E/DX2                !
 ! R29   R(13,36)                1.0977         estimate D2E/DX2                !
 ! R30   R(14,37)                1.0973         estimate D2E/DX2                !
 ! R31   R(14,38)                1.097          estimate D2E/DX2                !
 ! R32   R(14,62)                1.5243         estimate D2E/DX2                !
 ! R33   R(15,39)                1.0953         estimate D2E/DX2                !
 ! R34   R(15,40)                1.0952         estimate D2E/DX2                !
 ! R35   R(15,41)                1.0951         estimate D2E/DX2                !
 ! R36   R(17,18)                1.5413         estimate D2E/DX2                !
 ! R37   R(17,20)                1.5314         estimate D2E/DX2                !
 ! R38   R(17,30)                1.0973         estimate D2E/DX2                !
 ! R39   R(18,19)                1.4492         estimate D2E/DX2                !
 ! R40   R(18,28)                1.5371         estimate D2E/DX2                !
 ! R41   R(18,29)                1.5311         estimate D2E/DX2                !
 ! R42   R(20,42)                1.0971         estimate D2E/DX2                !
 ! R43   R(20,43)                1.0955         estimate D2E/DX2                !
 ! R44   R(21,44)                0.979          estimate D2E/DX2                !
 ! R45   R(22,23)                1.5199         estimate D2E/DX2                !
 ! R46   R(22,45)                1.0934         estimate D2E/DX2                !
 ! R47   R(22,46)                1.0985         estimate D2E/DX2                !
 ! R48   R(23,24)                1.4348         estimate D2E/DX2                !
 ! R49   R(23,25)                1.515          estimate D2E/DX2                !
 ! R50   R(23,47)                1.0977         estimate D2E/DX2                !
 ! R51   R(24,44)                1.8829         estimate D2E/DX2                !
 ! R52   R(25,26)                1.5103         estimate D2E/DX2                !
 ! R53   R(25,27)                1.3433         estimate D2E/DX2                !
 ! R54   R(26,48)                1.094          estimate D2E/DX2                !
 ! R55   R(26,49)                1.0954         estimate D2E/DX2                !
 ! R56   R(26,50)                1.095          estimate D2E/DX2                !
 ! R57   R(27,51)                1.083          estimate D2E/DX2                !
 ! R58   R(27,52)                1.0866         estimate D2E/DX2                !
 ! R59   R(28,53)                1.0939         estimate D2E/DX2                !
 ! R60   R(28,54)                1.0948         estimate D2E/DX2                !
 ! R61   R(28,55)                1.0965         estimate D2E/DX2                !
 ! R62   R(29,56)                1.0947         estimate D2E/DX2                !
 ! R63   R(29,57)                1.0947         estimate D2E/DX2                !
 ! R64   R(29,58)                1.0965         estimate D2E/DX2                !
 ! R65   R(32,59)                1.095          estimate D2E/DX2                !
 ! R66   R(32,60)                1.0945         estimate D2E/DX2                !
 ! R67   R(32,61)                1.0947         estimate D2E/DX2                !
 ! R68   R(62,63)                1.0949         estimate D2E/DX2                !
 ! R69   R(62,64)                1.0938         estimate D2E/DX2                !
 ! R70   R(62,65)                1.0941         estimate D2E/DX2                !
 ! A1    A(2,1,6)              122.2603         estimate D2E/DX2                !
 ! A2    A(2,1,33)             120.582          estimate D2E/DX2                !
 ! A3    A(6,1,33)             117.1234         estimate D2E/DX2                !
 ! A4    A(1,2,3)              121.0127         estimate D2E/DX2                !
 ! A5    A(1,2,32)             122.0188         estimate D2E/DX2                !
 ! A6    A(3,2,32)             116.9459         estimate D2E/DX2                !
 ! A7    A(2,3,4)              116.3326         estimate D2E/DX2                !
 ! A8    A(2,3,20)             111.4028         estimate D2E/DX2                !
 ! A9    A(2,3,31)             107.7517         estimate D2E/DX2                !
 ! A10   A(4,3,20)             104.7871         estimate D2E/DX2                !
 ! A11   A(4,3,31)             107.9486         estimate D2E/DX2                !
 ! A12   A(20,3,31)            108.3436         estimate D2E/DX2                !
 ! A13   A(3,4,5)              116.7615         estimate D2E/DX2                !
 ! A14   A(3,4,7)              103.9115         estimate D2E/DX2                !
 ! A15   A(3,4,24)             106.5574         estimate D2E/DX2                !
 ! A16   A(5,4,7)              114.8135         estimate D2E/DX2                !
 ! A17   A(5,4,24)             107.4745         estimate D2E/DX2                !
 ! A18   A(7,4,24)             106.6413         estimate D2E/DX2                !
 ! A19   A(4,5,6)              114.5758         estimate D2E/DX2                !
 ! A20   A(4,5,10)             112.5812         estimate D2E/DX2                !
 ! A21   A(4,5,22)             103.1997         estimate D2E/DX2                !
 ! A22   A(6,5,10)             104.5702         estimate D2E/DX2                !
 ! A23   A(6,5,22)             110.1493         estimate D2E/DX2                !
 ! A24   A(10,5,22)            111.9741         estimate D2E/DX2                !
 ! A25   A(1,6,5)              113.9383         estimate D2E/DX2                !
 ! A26   A(1,6,34)             107.3763         estimate D2E/DX2                !
 ! A27   A(1,6,35)             108.5756         estimate D2E/DX2                !
 ! A28   A(5,6,34)             111.9852         estimate D2E/DX2                !
 ! A29   A(5,6,35)             109.0226         estimate D2E/DX2                !
 ! A30   A(34,6,35)            105.5623         estimate D2E/DX2                !
 ! A31   A(4,7,8)              115.586          estimate D2E/DX2                !
 ! A32   A(4,7,17)             108.2912         estimate D2E/DX2                !
 ! A33   A(4,7,21)             112.4962         estimate D2E/DX2                !
 ! A34   A(8,7,17)             100.8267         estimate D2E/DX2                !
 ! A35   A(8,7,21)             108.0244         estimate D2E/DX2                !
 ! A36   A(17,7,21)            111.0293         estimate D2E/DX2                !
 ! A37   A(7,8,9)              122.6519         estimate D2E/DX2                !
 ! A38   A(7,8,19)             113.5488         estimate D2E/DX2                !
 ! A39   A(9,8,19)             123.5381         estimate D2E/DX2                !
 ! A40   A(8,9,10)             116.5186         estimate D2E/DX2                !
 ! A41   A(8,9,11)             121.9219         estimate D2E/DX2                !
 ! A42   A(10,9,11)            121.1268         estimate D2E/DX2                !
 ! A43   A(5,10,9)             117.1668         estimate D2E/DX2                !
 ! A44   A(5,10,16)            122.9031         estimate D2E/DX2                !
 ! A45   A(9,10,16)            119.6016         estimate D2E/DX2                !
 ! A46   A(9,11,12)            117.9655         estimate D2E/DX2                !
 ! A47   A(9,11,13)            118.9113         estimate D2E/DX2                !
 ! A48   A(12,11,13)           123.0674         estimate D2E/DX2                !
 ! A49   A(11,13,14)           111.4282         estimate D2E/DX2                !
 ! A50   A(11,13,15)           112.5416         estimate D2E/DX2                !
 ! A51   A(11,13,36)           106.2532         estimate D2E/DX2                !
 ! A52   A(14,13,15)           111.5696         estimate D2E/DX2                !
 ! A53   A(14,13,36)           106.431          estimate D2E/DX2                !
 ! A54   A(15,13,36)           108.2291         estimate D2E/DX2                !
 ! A55   A(13,14,37)           108.8643         estimate D2E/DX2                !
 ! A56   A(13,14,38)           109.6212         estimate D2E/DX2                !
 ! A57   A(13,14,62)           114.8202         estimate D2E/DX2                !
 ! A58   A(37,14,38)           106.2138         estimate D2E/DX2                !
 ! A59   A(37,14,62)           108.2956         estimate D2E/DX2                !
 ! A60   A(38,14,62)           108.673          estimate D2E/DX2                !
 ! A61   A(13,15,39)           111.6601         estimate D2E/DX2                !
 ! A62   A(13,15,40)           110.9968         estimate D2E/DX2                !
 ! A63   A(13,15,41)           111.1813         estimate D2E/DX2                !
 ! A64   A(39,15,40)           108.4685         estimate D2E/DX2                !
 ! A65   A(39,15,41)           107.2371         estimate D2E/DX2                !
 ! A66   A(40,15,41)           107.0993         estimate D2E/DX2                !
 ! A67   A(7,17,18)            103.1789         estimate D2E/DX2                !
 ! A68   A(7,17,20)            102.5049         estimate D2E/DX2                !
 ! A69   A(7,17,30)            112.6853         estimate D2E/DX2                !
 ! A70   A(18,17,20)           116.7852         estimate D2E/DX2                !
 ! A71   A(18,17,30)           111.4596         estimate D2E/DX2                !
 ! A72   A(20,17,30)           109.7739         estimate D2E/DX2                !
 ! A73   A(17,18,19)           106.5041         estimate D2E/DX2                !
 ! A74   A(17,18,28)           112.1723         estimate D2E/DX2                !
 ! A75   A(17,18,29)           113.6059         estimate D2E/DX2                !
 ! A76   A(19,18,28)           107.5899         estimate D2E/DX2                !
 ! A77   A(19,18,29)           108.1659         estimate D2E/DX2                !
 ! A78   A(28,18,29)           108.5492         estimate D2E/DX2                !
 ! A79   A(8,19,18)            106.4803         estimate D2E/DX2                !
 ! A80   A(3,20,17)            103.5075         estimate D2E/DX2                !
 ! A81   A(3,20,42)            110.5489         estimate D2E/DX2                !
 ! A82   A(3,20,43)            111.9464         estimate D2E/DX2                !
 ! A83   A(17,20,42)           111.9468         estimate D2E/DX2                !
 ! A84   A(17,20,43)           111.311          estimate D2E/DX2                !
 ! A85   A(42,20,43)           107.6262         estimate D2E/DX2                !
 ! A86   A(7,21,44)            105.5541         estimate D2E/DX2                !
 ! A87   A(5,22,23)            105.9481         estimate D2E/DX2                !
 ! A88   A(5,22,45)            114.9207         estimate D2E/DX2                !
 ! A89   A(5,22,46)            109.7312         estimate D2E/DX2                !
 ! A90   A(23,22,45)           113.898          estimate D2E/DX2                !
 ! A91   A(23,22,46)           107.0813         estimate D2E/DX2                !
 ! A92   A(45,22,46)           105.0125         estimate D2E/DX2                !
 ! A93   A(22,23,24)           106.5067         estimate D2E/DX2                !
 ! A94   A(22,23,25)           120.525          estimate D2E/DX2                !
 ! A95   A(22,23,47)           107.9141         estimate D2E/DX2                !
 ! A96   A(24,23,25)           107.5143         estimate D2E/DX2                !
 ! A97   A(24,23,47)           107.0789         estimate D2E/DX2                !
 ! A98   A(25,23,47)           106.6433         estimate D2E/DX2                !
 ! A99   A(4,24,23)            110.8787         estimate D2E/DX2                !
 ! A100  A(23,25,26)           114.7542         estimate D2E/DX2                !
 ! A101  A(23,25,27)           125.9033         estimate D2E/DX2                !
 ! A102  A(26,25,27)           119.2965         estimate D2E/DX2                !
 ! A103  A(25,26,48)           110.9603         estimate D2E/DX2                !
 ! A104  A(25,26,49)           112.2478         estimate D2E/DX2                !
 ! A105  A(25,26,50)           110.1815         estimate D2E/DX2                !
 ! A106  A(48,26,49)           107.394          estimate D2E/DX2                !
 ! A107  A(48,26,50)           108.4666         estimate D2E/DX2                !
 ! A108  A(49,26,50)           107.4337         estimate D2E/DX2                !
 ! A109  A(25,27,51)           123.2673         estimate D2E/DX2                !
 ! A110  A(25,27,52)           121.2856         estimate D2E/DX2                !
 ! A111  A(51,27,52)           115.4453         estimate D2E/DX2                !
 ! A112  A(18,28,53)           112.1829         estimate D2E/DX2                !
 ! A113  A(18,28,54)           111.3352         estimate D2E/DX2                !
 ! A114  A(18,28,55)           110.6008         estimate D2E/DX2                !
 ! A115  A(53,28,54)           108.5091         estimate D2E/DX2                !
 ! A116  A(53,28,55)           105.6253         estimate D2E/DX2                !
 ! A117  A(54,28,55)           108.3545         estimate D2E/DX2                !
 ! A118  A(18,29,56)           111.449          estimate D2E/DX2                !
 ! A119  A(18,29,57)           111.8129         estimate D2E/DX2                !
 ! A120  A(18,29,58)           110.6992         estimate D2E/DX2                !
 ! A121  A(56,29,57)           108.9085         estimate D2E/DX2                !
 ! A122  A(56,29,58)           108.3176         estimate D2E/DX2                !
 ! A123  A(57,29,58)           105.4179         estimate D2E/DX2                !
 ! A124  A(2,32,59)            112.0459         estimate D2E/DX2                !
 ! A125  A(2,32,60)            110.4573         estimate D2E/DX2                !
 ! A126  A(2,32,61)            110.2391         estimate D2E/DX2                !
 ! A127  A(59,32,60)           107.7143         estimate D2E/DX2                !
 ! A128  A(59,32,61)           107.6846         estimate D2E/DX2                !
 ! A129  A(60,32,61)           108.5775         estimate D2E/DX2                !
 ! A130  A(14,62,63)           109.8524         estimate D2E/DX2                !
 ! A131  A(14,62,64)           111.725          estimate D2E/DX2                !
 ! A132  A(14,62,65)           111.4512         estimate D2E/DX2                !
 ! A133  A(63,62,64)           107.8134         estimate D2E/DX2                !
 ! A134  A(63,62,65)           107.4341         estimate D2E/DX2                !
 ! A135  A(64,62,65)           108.4007         estimate D2E/DX2                !
 ! D1    D(6,1,2,3)             -0.3488         estimate D2E/DX2                !
 ! D2    D(6,1,2,32)          -178.5668         estimate D2E/DX2                !
 ! D3    D(33,1,2,3)           177.4599         estimate D2E/DX2                !
 ! D4    D(33,1,2,32)           -0.758          estimate D2E/DX2                !
 ! D5    D(2,1,6,5)            -33.3338         estimate D2E/DX2                !
 ! D6    D(2,1,6,34)            91.2845         estimate D2E/DX2                !
 ! D7    D(2,1,6,35)          -155.0294         estimate D2E/DX2                !
 ! D8    D(33,1,6,5)           148.7857         estimate D2E/DX2                !
 ! D9    D(33,1,6,34)          -86.5961         estimate D2E/DX2                !
 ! D10   D(33,1,6,35)           27.0901         estimate D2E/DX2                !
 ! D11   D(1,2,3,4)             25.3823         estimate D2E/DX2                !
 ! D12   D(1,2,3,20)           -94.6087         estimate D2E/DX2                !
 ! D13   D(1,2,3,31)           146.6797         estimate D2E/DX2                !
 ! D14   D(32,2,3,4)          -156.3126         estimate D2E/DX2                !
 ! D15   D(32,2,3,20)           83.6964         estimate D2E/DX2                !
 ! D16   D(32,2,3,31)          -35.0153         estimate D2E/DX2                !
 ! D17   D(1,2,32,59)           -0.5914         estimate D2E/DX2                !
 ! D18   D(1,2,32,60)          119.5036         estimate D2E/DX2                !
 ! D19   D(1,2,32,61)         -120.4999         estimate D2E/DX2                !
 ! D20   D(3,2,32,59)         -178.8781         estimate D2E/DX2                !
 ! D21   D(3,2,32,60)          -58.7832         estimate D2E/DX2                !
 ! D22   D(3,2,32,61)           61.2134         estimate D2E/DX2                !
 ! D23   D(2,3,4,5)            -15.2157         estimate D2E/DX2                !
 ! D24   D(2,3,4,7)           -142.7416         estimate D2E/DX2                !
 ! D25   D(2,3,4,24)           104.8359         estimate D2E/DX2                !
 ! D26   D(20,3,4,5)           108.2727         estimate D2E/DX2                !
 ! D27   D(20,3,4,7)           -19.2531         estimate D2E/DX2                !
 ! D28   D(20,3,4,24)         -131.6757         estimate D2E/DX2                !
 ! D29   D(31,3,4,5)          -136.4086         estimate D2E/DX2                !
 ! D30   D(31,3,4,7)            96.0656         estimate D2E/DX2                !
 ! D31   D(31,3,4,24)          -16.357          estimate D2E/DX2                !
 ! D32   D(2,3,20,17)          164.2355         estimate D2E/DX2                !
 ! D33   D(2,3,20,42)           44.1994         estimate D2E/DX2                !
 ! D34   D(2,3,20,43)          -75.7802         estimate D2E/DX2                !
 ! D35   D(4,3,20,17)           37.6358         estimate D2E/DX2                !
 ! D36   D(4,3,20,42)          -82.4003         estimate D2E/DX2                !
 ! D37   D(4,3,20,43)          157.6201         estimate D2E/DX2                !
 ! D38   D(31,3,20,17)         -77.4076         estimate D2E/DX2                !
 ! D39   D(31,3,20,42)         162.5564         estimate D2E/DX2                !
 ! D40   D(31,3,20,43)          42.5768         estimate D2E/DX2                !
 ! D41   D(3,4,5,6)            -16.5488         estimate D2E/DX2                !
 ! D42   D(3,4,5,10)          -135.8751         estimate D2E/DX2                !
 ! D43   D(3,4,5,22)           103.2081         estimate D2E/DX2                !
 ! D44   D(7,4,5,6)            105.4439         estimate D2E/DX2                !
 ! D45   D(7,4,5,10)           -13.8823         estimate D2E/DX2                !
 ! D46   D(7,4,5,22)          -134.7992         estimate D2E/DX2                !
 ! D47   D(24,4,5,6)          -136.1105         estimate D2E/DX2                !
 ! D48   D(24,4,5,10)          104.5633         estimate D2E/DX2                !
 ! D49   D(24,4,5,22)          -16.3536         estimate D2E/DX2                !
 ! D50   D(3,4,7,8)            105.9764         estimate D2E/DX2                !
 ! D51   D(3,4,7,17)            -6.2098         estimate D2E/DX2                !
 ! D52   D(3,4,7,21)          -129.3002         estimate D2E/DX2                !
 ! D53   D(5,4,7,8)            -22.7488         estimate D2E/DX2                !
 ! D54   D(5,4,7,17)          -134.935          estimate D2E/DX2                !
 ! D55   D(5,4,7,21)           101.9746         estimate D2E/DX2                !
 ! D56   D(24,4,7,8)          -141.6618         estimate D2E/DX2                !
 ! D57   D(24,4,7,17)          106.152          estimate D2E/DX2                !
 ! D58   D(24,4,7,21)          -16.9384         estimate D2E/DX2                !
 ! D59   D(3,4,24,23)         -123.5863         estimate D2E/DX2                !
 ! D60   D(5,4,24,23)            2.2929         estimate D2E/DX2                !
 ! D61   D(7,4,24,23)          125.8865         estimate D2E/DX2                !
 ! D62   D(4,5,6,1)             40.1092         estimate D2E/DX2                !
 ! D63   D(4,5,6,34)           -82.0048         estimate D2E/DX2                !
 ! D64   D(4,5,6,35)           161.5572         estimate D2E/DX2                !
 ! D65   D(10,5,6,1)           163.8297         estimate D2E/DX2                !
 ! D66   D(10,5,6,34)           41.7157         estimate D2E/DX2                !
 ! D67   D(10,5,6,35)          -74.7223         estimate D2E/DX2                !
 ! D68   D(22,5,6,1)           -75.6928         estimate D2E/DX2                !
 ! D69   D(22,5,6,34)          162.1932         estimate D2E/DX2                !
 ! D70   D(22,5,6,35)           45.7551         estimate D2E/DX2                !
 ! D71   D(4,5,10,9)            44.4178         estimate D2E/DX2                !
 ! D72   D(4,5,10,16)         -142.2003         estimate D2E/DX2                !
 ! D73   D(6,5,10,9)           -80.5762         estimate D2E/DX2                !
 ! D74   D(6,5,10,16)           92.8057         estimate D2E/DX2                !
 ! D75   D(22,5,10,9)          160.1702         estimate D2E/DX2                !
 ! D76   D(22,5,10,16)         -26.4479         estimate D2E/DX2                !
 ! D77   D(4,5,22,23)           23.8335         estimate D2E/DX2                !
 ! D78   D(4,5,22,45)          150.5142         estimate D2E/DX2                !
 ! D79   D(4,5,22,46)          -91.446          estimate D2E/DX2                !
 ! D80   D(6,5,22,23)          146.5913         estimate D2E/DX2                !
 ! D81   D(6,5,22,45)          -86.7279         estimate D2E/DX2                !
 ! D82   D(6,5,22,46)           31.3118         estimate D2E/DX2                !
 ! D83   D(10,5,22,23)         -97.4953         estimate D2E/DX2                !
 ! D84   D(10,5,22,45)          29.1855         estimate D2E/DX2                !
 ! D85   D(10,5,22,46)         147.2252         estimate D2E/DX2                !
 ! D86   D(4,7,8,9)             35.6438         estimate D2E/DX2                !
 ! D87   D(4,7,8,19)          -138.6716         estimate D2E/DX2                !
 ! D88   D(17,7,8,9)           152.1213         estimate D2E/DX2                !
 ! D89   D(17,7,8,19)          -22.194          estimate D2E/DX2                !
 ! D90   D(21,7,8,9)           -91.3637         estimate D2E/DX2                !
 ! D91   D(21,7,8,19)           94.321          estimate D2E/DX2                !
 ! D92   D(4,7,17,18)          150.8668         estimate D2E/DX2                !
 ! D93   D(4,7,17,20)           29.1302         estimate D2E/DX2                !
 ! D94   D(4,7,17,30)          -88.7934         estimate D2E/DX2                !
 ! D95   D(8,7,17,18)           29.1106         estimate D2E/DX2                !
 ! D96   D(8,7,17,20)          -92.626          estimate D2E/DX2                !
 ! D97   D(8,7,17,30)          149.4504         estimate D2E/DX2                !
 ! D98   D(21,7,17,18)         -85.1591         estimate D2E/DX2                !
 ! D99   D(21,7,17,20)         153.1043         estimate D2E/DX2                !
 ! D100  D(21,7,17,30)          35.1807         estimate D2E/DX2                !
 ! D101  D(4,7,21,44)           20.4963         estimate D2E/DX2                !
 ! D102  D(8,7,21,44)          149.2751         estimate D2E/DX2                !
 ! D103  D(17,7,21,44)        -101.0475         estimate D2E/DX2                !
 ! D104  D(7,8,9,10)            -5.7986         estimate D2E/DX2                !
 ! D105  D(7,8,9,11)          -178.3265         estimate D2E/DX2                !
 ! D106  D(19,8,9,10)          167.9471         estimate D2E/DX2                !
 ! D107  D(19,8,9,11)           -4.5807         estimate D2E/DX2                !
 ! D108  D(7,8,19,18)            4.5287         estimate D2E/DX2                !
 ! D109  D(9,8,19,18)         -169.7288         estimate D2E/DX2                !
 ! D110  D(8,9,10,5)           -35.674          estimate D2E/DX2                !
 ! D111  D(8,9,10,16)          150.7156         estimate D2E/DX2                !
 ! D112  D(11,9,10,5)          136.9175         estimate D2E/DX2                !
 ! D113  D(11,9,10,16)         -36.6928         estimate D2E/DX2                !
 ! D114  D(8,9,11,12)          114.1472         estimate D2E/DX2                !
 ! D115  D(8,9,11,13)          -63.2196         estimate D2E/DX2                !
 ! D116  D(10,9,11,12)         -58.0402         estimate D2E/DX2                !
 ! D117  D(10,9,11,13)         124.593          estimate D2E/DX2                !
 ! D118  D(9,11,13,14)        -167.3688         estimate D2E/DX2                !
 ! D119  D(9,11,13,15)         -41.1766         estimate D2E/DX2                !
 ! D120  D(9,11,13,36)          77.1045         estimate D2E/DX2                !
 ! D121  D(12,11,13,14)         15.4065         estimate D2E/DX2                !
 ! D122  D(12,11,13,15)        141.5987         estimate D2E/DX2                !
 ! D123  D(12,11,13,36)       -100.1202         estimate D2E/DX2                !
 ! D124  D(11,13,14,37)       -168.0413         estimate D2E/DX2                !
 ! D125  D(11,13,14,38)        -52.2514         estimate D2E/DX2                !
 ! D126  D(11,13,14,62)         70.3897         estimate D2E/DX2                !
 ! D127  D(15,13,14,37)         65.2335         estimate D2E/DX2                !
 ! D128  D(15,13,14,38)       -178.9766         estimate D2E/DX2                !
 ! D129  D(15,13,14,62)        -56.3355         estimate D2E/DX2                !
 ! D130  D(36,13,14,37)        -52.6241         estimate D2E/DX2                !
 ! D131  D(36,13,14,38)         63.1658         estimate D2E/DX2                !
 ! D132  D(36,13,14,62)       -174.193          estimate D2E/DX2                !
 ! D133  D(11,13,15,39)        -51.3971         estimate D2E/DX2                !
 ! D134  D(11,13,15,40)       -172.5629         estimate D2E/DX2                !
 ! D135  D(11,13,15,41)         68.3275         estimate D2E/DX2                !
 ! D136  D(14,13,15,39)         74.7189         estimate D2E/DX2                !
 ! D137  D(14,13,15,40)        -46.447          estimate D2E/DX2                !
 ! D138  D(14,13,15,41)       -165.5565         estimate D2E/DX2                !
 ! D139  D(36,13,15,39)       -168.5101         estimate D2E/DX2                !
 ! D140  D(36,13,15,40)         70.3241         estimate D2E/DX2                !
 ! D141  D(36,13,15,41)        -48.7854         estimate D2E/DX2                !
 ! D142  D(13,14,62,63)       -176.3404         estimate D2E/DX2                !
 ! D143  D(13,14,62,64)        -56.7379         estimate D2E/DX2                !
 ! D144  D(13,14,62,65)         64.7051         estimate D2E/DX2                !
 ! D145  D(37,14,62,63)         61.7814         estimate D2E/DX2                !
 ! D146  D(37,14,62,64)       -178.6161         estimate D2E/DX2                !
 ! D147  D(37,14,62,65)        -57.1732         estimate D2E/DX2                !
 ! D148  D(38,14,62,63)        -53.1902         estimate D2E/DX2                !
 ! D149  D(38,14,62,64)         66.4123         estimate D2E/DX2                !
 ! D150  D(38,14,62,65)       -172.1448         estimate D2E/DX2                !
 ! D151  D(7,17,18,19)         -28.5522         estimate D2E/DX2                !
 ! D152  D(7,17,18,28)          88.9061         estimate D2E/DX2                !
 ! D153  D(7,17,18,29)        -147.5217         estimate D2E/DX2                !
 ! D154  D(20,17,18,19)         82.9979         estimate D2E/DX2                !
 ! D155  D(20,17,18,28)       -159.5438         estimate D2E/DX2                !
 ! D156  D(20,17,18,29)        -35.9716         estimate D2E/DX2                !
 ! D157  D(30,17,18,19)       -149.7272         estimate D2E/DX2                !
 ! D158  D(30,17,18,28)        -32.2688         estimate D2E/DX2                !
 ! D159  D(30,17,18,29)         91.3034         estimate D2E/DX2                !
 ! D160  D(7,17,20,3)          -40.888          estimate D2E/DX2                !
 ! D161  D(7,17,20,42)          78.1895         estimate D2E/DX2                !
 ! D162  D(7,17,20,43)        -161.3052         estimate D2E/DX2                !
 ! D163  D(18,17,20,3)        -152.8233         estimate D2E/DX2                !
 ! D164  D(18,17,20,42)        -33.7458         estimate D2E/DX2                !
 ! D165  D(18,17,20,43)         86.7594         estimate D2E/DX2                !
 ! D166  D(30,17,20,3)          79.0807         estimate D2E/DX2                !
 ! D167  D(30,17,20,42)       -161.8418         estimate D2E/DX2                !
 ! D168  D(30,17,20,43)        -41.3365         estimate D2E/DX2                !
 ! D169  D(17,18,19,8)          15.2503         estimate D2E/DX2                !
 ! D170  D(28,18,19,8)        -105.2038         estimate D2E/DX2                !
 ! D171  D(29,18,19,8)         137.715          estimate D2E/DX2                !
 ! D172  D(17,18,28,53)        -60.096          estimate D2E/DX2                !
 ! D173  D(17,18,28,54)         61.7282         estimate D2E/DX2                !
 ! D174  D(17,18,28,55)       -177.7424         estimate D2E/DX2                !
 ! D175  D(19,18,28,53)         56.7127         estimate D2E/DX2                !
 ! D176  D(19,18,28,54)        178.5369         estimate D2E/DX2                !
 ! D177  D(19,18,28,55)        -60.9338         estimate D2E/DX2                !
 ! D178  D(29,18,28,53)        173.5437         estimate D2E/DX2                !
 ! D179  D(29,18,28,54)        -64.6321         estimate D2E/DX2                !
 ! D180  D(29,18,28,55)         55.8973         estimate D2E/DX2                !
 ! D181  D(17,18,29,56)        -57.5044         estimate D2E/DX2                !
 ! D182  D(17,18,29,57)         64.6542         estimate D2E/DX2                !
 ! D183  D(17,18,29,58)       -178.1297         estimate D2E/DX2                !
 ! D184  D(19,18,29,56)       -175.5182         estimate D2E/DX2                !
 ! D185  D(19,18,29,57)        -53.3596         estimate D2E/DX2                !
 ! D186  D(19,18,29,58)         63.8565         estimate D2E/DX2                !
 ! D187  D(28,18,29,56)         68.021          estimate D2E/DX2                !
 ! D188  D(28,18,29,57)       -169.8204         estimate D2E/DX2                !
 ! D189  D(28,18,29,58)        -52.6043         estimate D2E/DX2                !
 ! D190  D(5,22,23,24)         -23.3026         estimate D2E/DX2                !
 ! D191  D(5,22,23,25)          99.3206         estimate D2E/DX2                !
 ! D192  D(5,22,23,47)        -137.993          estimate D2E/DX2                !
 ! D193  D(45,22,23,24)       -150.5995         estimate D2E/DX2                !
 ! D194  D(45,22,23,25)        -27.9763         estimate D2E/DX2                !
 ! D195  D(45,22,23,47)         94.7101         estimate D2E/DX2                !
 ! D196  D(46,22,23,24)         93.771          estimate D2E/DX2                !
 ! D197  D(46,22,23,25)       -143.6058         estimate D2E/DX2                !
 ! D198  D(46,22,23,47)        -20.9194         estimate D2E/DX2                !
 ! D199  D(22,23,24,4)          13.0919         estimate D2E/DX2                !
 ! D200  D(25,23,24,4)        -117.3755         estimate D2E/DX2                !
 ! D201  D(47,23,24,4)         128.3476         estimate D2E/DX2                !
 ! D202  D(22,23,25,26)        175.9822         estimate D2E/DX2                !
 ! D203  D(22,23,25,27)         -1.5179         estimate D2E/DX2                !
 ! D204  D(24,23,25,26)        -61.8807         estimate D2E/DX2                !
 ! D205  D(24,23,25,27)        120.6193         estimate D2E/DX2                !
 ! D206  D(47,23,25,26)         52.6869         estimate D2E/DX2                !
 ! D207  D(47,23,25,27)       -124.8132         estimate D2E/DX2                !
 ! D208  D(23,25,26,48)         62.6503         estimate D2E/DX2                !
 ! D209  D(23,25,26,49)       -177.1793         estimate D2E/DX2                !
 ! D210  D(23,25,26,50)        -57.4944         estimate D2E/DX2                !
 ! D211  D(27,25,26,48)       -119.6716         estimate D2E/DX2                !
 ! D212  D(27,25,26,49)          0.4988         estimate D2E/DX2                !
 ! D213  D(27,25,26,50)        120.1837         estimate D2E/DX2                !
 ! D214  D(23,25,27,51)         -0.4518         estimate D2E/DX2                !
 ! D215  D(23,25,27,52)        179.0309         estimate D2E/DX2                !
 ! D216  D(26,25,27,51)       -177.8485         estimate D2E/DX2                !
 ! D217  D(26,25,27,52)          1.6342         estimate D2E/DX2                !
 --------------------------------------------------------------------------------
 Trust Radius=3.00D-01 FncErr=1.00D-07 GrdErr=1.00D-06
 Number of steps in this run=    390 maximum allowed number of steps=    390.
 GradGradGradGradGradGradGradGradGradGradGradGradGradGradGradGradGradGrad

 Stoichiometry    C26H34O5
 Framework group  C1[X(C26H34O5)]
 Deg. of freedom   189
 Full point group                 C1      NOp   1
 Largest Abelian subgroup         C1      NOp   1
 Largest concise Abelian subgroup C1      NOp   1
                         Standard orientation:                         
 ---------------------------------------------------------------------
 Center     Atomic      Atomic             Coordinates (Angstroms)
 Number     Number       Type             X           Y           Z
 ---------------------------------------------------------------------
      1          6           0        2.233474    0.453980   -2.859459
      2          6           0        2.926270    1.150566   -1.946872
      3          6           0        2.482319    1.201252   -0.507737
      4          6           0        1.625199    0.000606   -0.006151
      5          6           0        1.016837   -0.917917   -1.086287
      6          6           0        0.997719   -0.312294   -2.509398
      7          6           0        0.592492    0.653373    0.950619
      8          6           0       -0.795840    0.758080    0.423431
      9          6           0       -1.341605   -0.176116   -0.360778
     10          6           0       -0.449896   -1.275959   -0.798723
     11          6           0       -2.709703   -0.038372   -0.905181
     12          8           0       -2.836841    0.082223   -2.124969
     13          6           0       -3.893686    0.009706    0.068324
     14          6           0       -5.237036   -0.160344   -0.669577
     15          6           0       -3.751133   -0.992546    1.214864
     16          8           0       -0.923588   -2.386270   -1.029208
     17          6           0        0.948748    2.118116    1.107271
     18          6           0       -0.414341    2.784171    1.379026
     19          8           0       -1.411639    1.964710    0.720133
     20          6           0        1.620114    2.441014   -0.230730
     21          8           0        0.535486    0.004717    2.213258
     22          6           0        1.925385   -2.150299   -1.049557
     23          6           0        2.550159   -2.167382    0.335848
     24          8           0        2.501624   -0.818205    0.821598
     25          6           0        1.990007   -3.063295    1.421586
     26          6           0        2.766568   -3.048536    2.716825
     27          6           0        0.924818   -3.873051    1.303021
     28          6           0       -0.755769    2.816435    2.877374
     29          6           0       -0.523038    4.206971    0.823950
     30          1           0        1.653710    2.296645    1.928965
     31          1           0        3.384075    1.259499    0.119576
     32          6           0        4.148677    1.943842   -2.310349
     33          1           0        2.536779    0.455536   -3.904034
     34          1           0        0.142456    0.359026   -2.658771
     35          1           0        0.868625   -1.121368   -3.241121
     36          1           0       -3.899684    1.021032    0.495055
     37          1           0       -6.054027    0.091912    0.018171
     38          1           0       -5.297837    0.559997   -1.494754
     39          1           0       -3.536507   -2.001207    0.845767
     40          1           0       -4.664221   -1.030929    1.818321
     41          1           0       -2.932940   -0.711801    1.886386
     42          1           0        0.886243    2.586792   -1.033085
     43          1           0        2.223655    3.352760   -0.163541
     44          1           0        1.380902   -0.481864    2.296831
     45          1           0        1.439436   -3.089420   -1.327941
     46          1           0        2.744495   -2.028846   -1.771442
     47          1           0        3.609681   -2.432270    0.225191
     48          1           0        2.756396   -2.051862    3.167902
     49          1           0        2.355681   -3.746157    3.454727
     50          1           0        3.807417   -3.337075    2.536572
     51          1           0        0.342958   -3.959985    0.393776
     52          1           0        0.595970   -4.497486    2.129220
     53          1           0       -0.806864    1.813462    3.311027
     54          1           0       -0.021734    3.401628    3.440642
     55          1           0       -1.746326    3.258434    3.037931
     56          1           0        0.260440    4.855509    1.228745
     57          1           0       -0.466778    4.222530   -0.269166
     58          1           0       -1.496472    4.646448    1.072025
     59          1           0        4.387305    1.865923   -3.376227
     60          1           0        4.000012    3.003191   -2.078946
     61          1           0        5.015706    1.582382   -1.748162
     62          6           0       -5.491073   -1.558008   -1.222156
     63          1           0       -6.431366   -1.570880   -1.782999
     64          1           0       -4.693305   -1.876914   -1.899095
     65          1           0       -5.578220   -2.296009   -0.419146
 ---------------------------------------------------------------------
 Rotational constants (GHZ):      0.1934986      0.1387088      0.1191048
 Standard basis: 6-31G(d) (6D, 7F)
 There are   533 symmetry adapted basis functions of A   symmetry.
 Integral buffers will be    131072 words long.
 Raffenetti 2 integral format.
 Two-electron integral symmetry is turned on.
   533 basis functions,  1004 primitive gaussians,   533 cartesian basis functions
   115 alpha electrons      115 beta electrons
       nuclear repulsion energy      3546.1335901304 Hartrees.
 NAtoms=   65 NActive=   65 NUniq=   65 SFac= 1.00D+00 NAtFMM=   50 NAOKFM=T Big=T
 One-electron integrals computed using PRISM.
 NBasis=   533 RedAO= T  NBF=   533
 NBsUse=   533 1.00D-06 NBFU=   533
 Harris functional with IExCor=  402 diagonalized for initial guess.
 ExpMin= 1.61D-01 ExpMax= 5.48D+03 ExpMxC= 8.25D+02 IAcc=1 IRadAn=         1 AccDes= 0.00D+00
 HarFok:  IExCor=  402 AccDes= 0.00D+00 IRadAn=         1 IDoV= 1
 ScaDFX=  1.000000  1.000000  1.000000  1.000000
 FoFCou: FMM=F IPFlag=           0 FMFlag=      100000 FMFlg1=        2001
         NFxFlg=           0 DoJE=T BraDBF=F KetDBF=T FulRan=T
         Omega=  0.000000  0.000000  1.000000  0.000000  0.000000 ICntrl=     500 IOpCl=  0
         NMat0=    1 NMatS0=    1 NMatT0=    0 NMatD0=    1 NMtDS0=    0 NMtDT0=    0
         I1Cent=           4 NGrid=           0.
 Petite list used in FoFCou.
 Initial guess orbital symmetries:
       Occupied  (A) (A) (A) (A) (A) (A) (A) (A) (A) (A) (A) (A)
                 (A) (A) (A) (A) (A) (A) (A) (A) (A) (A) (A) (A)
                 (A) (A) (A) (A) (A) (A) (A) (A) (A) (A) (A) (A)
                 (A) (A) (A) (A) (A) (A) (A) (A) (A) (A) (A) (A)
                 (A) (A) (A) (A) (A) (A) (A) (A) (A) (A) (A) (A)
                 (A) (A) (A) (A) (A) (A) (A) (A) (A) (A) (A) (A)
                 (A) (A) (A) (A) (A) (A) (A) (A) (A) (A) (A) (A)
                 (A) (A) (A) (A) (A) (A) (A) (A) (A) (A) (A) (A)
                 (A) (A) (A) (A) (A) (A) (A) (A) (A) (A) (A) (A)
                 (A) (A) (A) (A) (A) (A) (A)
       Virtual   (A) (A) (A) (A) (A) (A) (A) (A) (A) (A) (A) (A)
                 (A) (A) (A) (A) (A) (A) (A) (A) (A) (A) (A) (A)
                 (A) (A) (A) (A) (A) (A) (A) (A) (A) (A) (A) (A)
                 (A) (A) (A) (A) (A) (A) (A) (A) (A) (A) (A) (A)
                 (A) (A) (A) (A) (A) (A) (A) (A) (A) (A) (A) (A)
                 (A) (A) (A) (A) (A) (A) (A) (A) (A) (A) (A) (A)
                 (A) (A) (A) (A) (A) (A) (A) (A) (A) (A) (A) (A)
                 (A) (A) (A) (A) (A) (A) (A) (A) (A) (A) (A) (A)
                 (A) (A) (A) (A) (A) (A) (A) (A) (A) (A) (A) (A)
                 (A) (A) (A) (A) (A) (A) (A) (A) (A) (A) (A) (A)
                 (A) (A) (A) (A) (A) (A) (A) (A) (A) (A) (A) (A)
                 (A) (A) (A) (A) (A) (A) (A) (A) (A) (A) (A) (A)
                 (A) (A) (A) (A) (A) (A) (A) (A) (A) (A) (A) (A)
                 (A) (A) (A) (A) (A) (A) (A) (A) (A) (A) (A) (A)
                 (A) (A) (A) (A) (A) (A) (A) (A) (A) (A) (A) (A)
                 (A) (A) (A) (A) (A) (A) (A) (A) (A) (A) (A) (A)
                 (A) (A) (A) (A) (A) (A) (A) (A) (A) (A) (A) (A)
                 (A) (A) (A) (A) (A) (A) (A) (A) (A) (A) (A) (A)
                 (A) (A) (A) (A) (A) (A) (A) (A) (A) (A) (A) (A)
                 (A) (A) (A) (A) (A) (A) (A) (A) (A) (A) (A) (A)
                 (A) (A) (A) (A) (A) (A) (A) (A) (A) (A) (A) (A)
                 (A) (A) (A) (A) (A) (A) (A) (A) (A) (A) (A) (A)
                 (A) (A) (A) (A) (A) (A) (A) (A) (A) (A) (A) (A)
                 (A) (A) (A) (A) (A) (A) (A) (A) (A) (A) (A) (A)
                 (A) (A) (A) (A) (A) (A) (A) (A) (A) (A) (A) (A)
                 (A) (A) (A) (A) (A) (A) (A) (A) (A) (A) (A) (A)
                 (A) (A) (A) (A) (A) (A) (A) (A) (A) (A) (A) (A)
                 (A) (A) (A) (A) (A) (A) (A) (A) (A) (A) (A) (A)
                 (A) (A) (A) (A) (A) (A) (A) (A) (A) (A) (A) (A)
                 (A) (A) (A) (A) (A) (A) (A) (A) (A) (A) (A) (A)
                 (A) (A) (A) (A) (A) (A) (A) (A) (A) (A) (A) (A)
                 (A) (A) (A) (A) (A) (A) (A) (A) (A) (A) (A) (A)
                 (A) (A) (A) (A) (A) (A) (A) (A) (A) (A) (A) (A)
                 (A) (A) (A) (A) (A) (A) (A) (A) (A) (A) (A) (A)
                 (A) (A) (A) (A) (A) (A) (A) (A) (A) (A)
 The electronic state of the initial guess is 1-A.
 Requested convergence on RMS density matrix=1.00D-08 within 128 cycles.
 Requested convergence on MAX density matrix=1.00D-06.
 Requested convergence on             energy=1.00D-06.
 No special actions if energy rises.
 Integral accuracy reduced to 1.0D-05 until final iterations.
 Initial convergence to 1.0D-05 achieved.  Increase integral accuracy.
 SCF Done:  E(RB3LYP) =  -1387.30078008     A.U. after   16 cycles
             Convg  =    0.4469D-08             -V/T =  2.0091

 **********************************************************************

            Population analysis using the SCF density.

 **********************************************************************

 Orbital symmetries:
       Occupied  (A) (A) (A) (A) (A) (A) (A) (A) (A) (A) (A) (A)
                 (A) (A) (A) (A) (A) (A) (A) (A) (A) (A) (A) (A)
                 (A) (A) (A) (A) (A) (A) (A) (A) (A) (A) (A) (A)
                 (A) (A) (A) (A) (A) (A) (A) (A) (A) (A) (A) (A)
                 (A) (A) (A) (A) (A) (A) (A) (A) (A) (A) (A) (A)
                 (A) (A) (A) (A) (A) (A) (A) (A) (A) (A) (A) (A)
                 (A) (A) (A) (A) (A) (A) (A) (A) (A) (A) (A) (A)
                 (A) (A) (A) (A) (A) (A) (A) (A) (A) (A) (A) (A)
                 (A) (A) (A) (A) (A) (A) (A) (A) (A) (A) (A) (A)
                 (A) (A) (A) (A) (A) (A) (A)
       Virtual   (A) (A) (A) (A) (A) (A) (A) (A) (A) (A) (A) (A)
                 (A) (A) (A) (A) (A) (A) (A) (A) (A) (A) (A) (A)
                 (A) (A) (A) (A) (A) (A) (A) (A) (A) (A) (A) (A)
                 (A) (A) (A) (A) (A) (A) (A) (A) (A) (A) (A) (A)
                 (A) (A) (A) (A) (A) (A) (A) (A) (A) (A) (A) (A)
                 (A) (A) (A) (A) (A) (A) (A) (A) (A) (A) (A) (A)
                 (A) (A) (A) (A) (A) (A) (A) (A) (A) (A) (A) (A)
                 (A) (A) (A) (A) (A) (A) (A) (A) (A) (A) (A) (A)
                 (A) (A) (A) (A) (A) (A) (A) (A) (A) (A) (A) (A)
                 (A) (A) (A) (A) (A) (A) (A) (A) (A) (A) (A) (A)
                 (A) (A) (A) (A) (A) (A) (A) (A) (A) (A) (A) (A)
                 (A) (A) (A) (A) (A) (A) (A) (A) (A) (A) (A) (A)
                 (A) (A) (A) (A) (A) (A) (A) (A) (A) (A) (A) (A)
                 (A) (A) (A) (A) (A) (A) (A) (A) (A) (A) (A) (A)
                 (A) (A) (A) (A) (A) (A) (A) (A) (A) (A) (A) (A)
                 (A) (A) (A) (A) (A) (A) (A) (A) (A) (A) (A) (A)
                 (A) (A) (A) (A) (A) (A) (A) (A) (A) (A) (A) (A)
                 (A) (A) (A) (A) (A) (A) (A) (A) (A) (A) (A) (A)
                 (A) (A) (A) (A) (A) (A) (A) (A) (A) (A) (A) (A)
                 (A) (A) (A) (A) (A) (A) (A) (A) (A) (A) (A) (A)
                 (A) (A) (A) (A) (A) (A) (A) (A) (A) (A) (A) (A)
                 (A) (A) (A) (A) (A) (A) (A) (A) (A) (A) (A) (A)
                 (A) (A) (A) (A) (A) (A) (A) (A) (A) (A) (A) (A)
                 (A) (A) (A) (A) (A) (A) (A) (A) (A) (A) (A) (A)
                 (A) (A) (A) (A) (A) (A) (A) (A) (A) (A) (A) (A)
                 (A) (A) (A) (A) (A) (A) (A) (A) (A) (A) (A) (A)
                 (A) (A) (A) (A) (A) (A) (A) (A) (A) (A) (A) (A)
                 (A) (A) (A) (A) (A) (A) (A) (A) (A) (A) (A) (A)
                 (A) (A) (A) (A) (A) (A) (A) (A) (A) (A) (A) (A)
                 (A) (A) (A) (A) (A) (A) (A) (A) (A) (A) (A) (A)
                 (A) (A) (A) (A) (A) (A) (A) (A) (A) (A) (A) (A)
                 (A) (A) (A) (A) (A) (A) (A) (A) (A) (A) (A) (A)
                 (A) (A) (A) (A) (A) (A) (A) (A) (A) (A) (A) (A)
                 (A) (A) (A) (A) (A) (A) (A) (A) (A) (A) (A) (A)
                 (A) (A) (A) (A) (A) (A) (A) (A) (A) (A)
 The electronic state is 1-A.
 Alpha  occ. eigenvalues --  -19.19616 -19.16908 -19.14428 -19.13649 -19.13380
 Alpha  occ. eigenvalues --  -10.27729 -10.27106 -10.26473 -10.26331 -10.26047
 Alpha  occ. eigenvalues --  -10.25355 -10.24546 -10.21818 -10.20285 -10.19828
 Alpha  occ. eigenvalues --  -10.19736 -10.19622 -10.19570 -10.19361 -10.19063
 Alpha  occ. eigenvalues --  -10.19002 -10.18782 -10.18726 -10.18634 -10.18494
 Alpha  occ. eigenvalues --  -10.18205 -10.17785 -10.17277 -10.16781 -10.16746
 Alpha  occ. eigenvalues --  -10.15529  -1.08519  -1.06083  -1.03478  -1.02340
 Alpha  occ. eigenvalues --   -1.01698  -0.87668  -0.84068  -0.82532  -0.81268
 Alpha  occ. eigenvalues --   -0.80123  -0.79585  -0.77075  -0.74378  -0.73548
 Alpha  occ. eigenvalues --   -0.72522  -0.71188  -0.69652  -0.68675  -0.67858
 Alpha  occ. eigenvalues --   -0.65208  -0.64054  -0.63745  -0.62403  -0.61122
 Alpha  occ. eigenvalues --   -0.59360  -0.58558  -0.56870  -0.54662  -0.53433
 Alpha  occ. eigenvalues --   -0.53104  -0.51945  -0.50753  -0.50016  -0.49285
 Alpha  occ. eigenvalues --   -0.47901  -0.47272  -0.46978  -0.46411  -0.45835
 Alpha  occ. eigenvalues --   -0.45242  -0.44673  -0.44400  -0.44026  -0.43067
 Alpha  occ. eigenvalues --   -0.42967  -0.42467  -0.42216  -0.41649  -0.41327
 Alpha  occ. eigenvalues --   -0.40727  -0.40640  -0.40143  -0.40076  -0.39194
 Alpha  occ. eigenvalues --   -0.38981  -0.38716  -0.38583  -0.38153  -0.38092
 Alpha  occ. eigenvalues --   -0.37603  -0.37154  -0.37045  -0.36740  -0.36363
 Alpha  occ. eigenvalues --   -0.35831  -0.35500  -0.34979  -0.34826  -0.34154
 Alpha  occ. eigenvalues --   -0.33920  -0.33249  -0.32615  -0.32365  -0.32221
 Alpha  occ. eigenvalues --   -0.31745  -0.31381  -0.30978  -0.27323  -0.26942
 Alpha  occ. eigenvalues --   -0.25055  -0.24808  -0.24453  -0.23688  -0.23166
 Alpha virt. eigenvalues --   -0.04744  -0.02253   0.01285   0.01813   0.03924
 Alpha virt. eigenvalues --    0.06477   0.08464   0.08901   0.09503   0.10240
 Alpha virt. eigenvalues --    0.10504   0.10919   0.11388   0.11766   0.12735
 Alpha virt. eigenvalues --    0.13129   0.13379   0.13852   0.13981   0.14092
 Alpha virt. eigenvalues --    0.14493   0.15119   0.15209   0.15239   0.15684
 Alpha virt. eigenvalues --    0.16192   0.16356   0.16588   0.17263   0.17867
 Alpha virt. eigenvalues --    0.18049   0.18521   0.18773   0.18896   0.19201
 Alpha virt. eigenvalues --    0.19582   0.19652   0.19904   0.20146   0.20492
 Alpha virt. eigenvalues --    0.20911   0.21045   0.22066   0.22285   0.22774
 Alpha virt. eigenvalues --    0.23265   0.23867   0.24295   0.24448   0.24852
 Alpha virt. eigenvalues --    0.25390   0.25529   0.25808   0.26214   0.26712
 Alpha virt. eigenvalues --    0.27521   0.27694   0.28137   0.28989   0.31322
 Alpha virt. eigenvalues --    0.31676   0.31975   0.32990   0.33623   0.34620
 Alpha virt. eigenvalues --    0.35266   0.36344   0.37674   0.39182   0.39884
 Alpha virt. eigenvalues --    0.41840   0.44002   0.46276   0.47234   0.48627
 Alpha virt. eigenvalues --    0.49188   0.49871   0.50631   0.51408   0.51812
 Alpha virt. eigenvalues --    0.52011   0.52222   0.52789   0.53140   0.53736
 Alpha virt. eigenvalues --    0.54387   0.54713   0.55449   0.55764   0.56025
 Alpha virt. eigenvalues --    0.56646   0.57551   0.58019   0.58708   0.59241
 Alpha virt. eigenvalues --    0.59682   0.60003   0.60931   0.61447   0.61933
 Alpha virt. eigenvalues --    0.62600   0.62723   0.63944   0.64602   0.65057
 Alpha virt. eigenvalues --    0.65885   0.66597   0.66791   0.66976   0.67690
 Alpha virt. eigenvalues --    0.68073   0.68263   0.69328   0.69861   0.70315
 Alpha virt. eigenvalues --    0.71239   0.71907   0.72128   0.72825   0.73335
 Alpha virt. eigenvalues --    0.73898   0.74649   0.75548   0.76085   0.76607
 Alpha virt. eigenvalues --    0.77304   0.77892   0.78363   0.78715   0.79400
 Alpha virt. eigenvalues --    0.80099   0.80293   0.81010   0.81317   0.82760
 Alpha virt. eigenvalues --    0.82825   0.82953   0.84071   0.84679   0.85066
 Alpha virt. eigenvalues --    0.85453   0.86220   0.86448   0.86623   0.87207
 Alpha virt. eigenvalues --    0.87443   0.87935   0.88877   0.89261   0.89406
 Alpha virt. eigenvalues --    0.89468   0.89814   0.90108   0.90413   0.90697
 Alpha virt. eigenvalues --    0.90977   0.91132   0.91368   0.91942   0.92069
 Alpha virt. eigenvalues --    0.92326   0.93144   0.93713   0.93802   0.94757
 Alpha virt. eigenvalues --    0.95301   0.95690   0.95757   0.96509   0.97206
 Alpha virt. eigenvalues --    0.97609   0.97946   0.98435   0.99077   0.99620
 Alpha virt. eigenvalues --    1.00617   1.01273   1.02338   1.02912   1.03671
 Alpha virt. eigenvalues --    1.03798   1.04930   1.05599   1.05837   1.08490
 Alpha virt. eigenvalues --    1.09550   1.10323   1.11729   1.12204   1.12918
 Alpha virt. eigenvalues --    1.13802   1.14713   1.15497   1.16584   1.16952
 Alpha virt. eigenvalues --    1.18432   1.18593   1.19010   1.20054   1.21279
 Alpha virt. eigenvalues --    1.22476   1.23704   1.25244   1.26364   1.27186
 Alpha virt. eigenvalues --    1.29299   1.29543   1.31934   1.32638   1.33335
 Alpha virt. eigenvalues --    1.34469   1.35283   1.37223   1.39514   1.40677
 Alpha virt. eigenvalues --    1.41319   1.43307   1.43982   1.44643   1.46901
 Alpha virt. eigenvalues --    1.47863   1.48298   1.49921   1.51499   1.52545
 Alpha virt. eigenvalues --    1.53429   1.54378   1.56553   1.57287   1.58664
 Alpha virt. eigenvalues --    1.59027   1.60835   1.62732   1.64097   1.66238
 Alpha virt. eigenvalues --    1.67153   1.67817   1.68370   1.68670   1.69486
 Alpha virt. eigenvalues --    1.70795   1.71406   1.73071   1.73287   1.74317
 Alpha virt. eigenvalues --    1.74956   1.75952   1.76961   1.77239   1.78546
 Alpha virt. eigenvalues --    1.79481   1.79996   1.80137   1.80785   1.81715
 Alpha virt. eigenvalues --    1.81849   1.82304   1.83970   1.84787   1.85679
 Alpha virt. eigenvalues --    1.86499   1.86830   1.87265   1.88041   1.88872
 Alpha virt. eigenvalues --    1.89209   1.90119   1.90593   1.91401   1.92027
 Alpha virt. eigenvalues --    1.92856   1.93250   1.94066   1.94700   1.95636
 Alpha virt. eigenvalues --    1.96075   1.96967   1.97128   1.98162   1.98934
 Alpha virt. eigenvalues --    1.99114   1.99893   2.00747   2.01512   2.01956
 Alpha virt. eigenvalues --    2.02828   2.03259   2.04415   2.04715   2.05677
 Alpha virt. eigenvalues --    2.06421   2.07540   2.08225   2.09221   2.10547
 Alpha virt. eigenvalues --    2.10943   2.11714   2.12555   2.13071   2.13689
 Alpha virt. eigenvalues --    2.14681   2.15957   2.16150   2.16856   2.18011
 Alpha virt. eigenvalues --    2.18859   2.19939   2.21561   2.22243   2.22443
 Alpha virt. eigenvalues --    2.22954   2.24182   2.26572   2.26759   2.27571
 Alpha virt. eigenvalues --    2.28340   2.28603   2.28745   2.30673   2.31307
 Alpha virt. eigenvalues --    2.33096   2.33836   2.33949   2.34123   2.35223
 Alpha virt. eigenvalues --    2.35782   2.36374   2.37637   2.38060   2.38431
 Alpha virt. eigenvalues --    2.40073   2.40795   2.41500   2.43682   2.44463
 Alpha virt. eigenvalues --    2.45678   2.46362   2.46986   2.48235   2.48789
 Alpha virt. eigenvalues --    2.50647   2.51221   2.52684   2.54322   2.55322
 Alpha virt. eigenvalues --    2.56073   2.57021   2.57879   2.58811   2.59762
 Alpha virt. eigenvalues --    2.61783   2.62380   2.63538   2.64207   2.65890
 Alpha virt. eigenvalues --    2.66272   2.67530   2.68533   2.69987   2.71216
 Alpha virt. eigenvalues --    2.72208   2.74920   2.75530   2.76763   2.77844
 Alpha virt. eigenvalues --    2.78561   2.79158   2.81483   2.81919   2.86321
 Alpha virt. eigenvalues --    2.88710   2.91080   2.93504   2.93829   2.95124
 Alpha virt. eigenvalues --    2.97702   2.98762   2.99214   3.01306   3.03842
 Alpha virt. eigenvalues --    3.05476   3.07198   3.11887   3.18032   3.20874
 Alpha virt. eigenvalues --    3.22754   3.28057   4.01266   4.09910   4.12488
 Alpha virt. eigenvalues --    4.13369   4.14935   4.17250   4.19045   4.20274
 Alpha virt. eigenvalues --    4.23374   4.26002   4.26699   4.28271   4.28960
 Alpha virt. eigenvalues --    4.32079   4.34902   4.37352   4.40099   4.42934
 Alpha virt. eigenvalues --    4.47189   4.47631   4.53042   4.55677   4.60357
 Alpha virt. eigenvalues --    4.65355   4.68233   4.70633   4.73050   4.77691
 Alpha virt. eigenvalues --    4.89890   4.92991   5.25233
          Condensed to atoms (all electrons):
 Mulliken atomic charges:
              1
     1  C   -0.200085
     2  C    0.201547
     3  C   -0.199875
     4  C    0.318655
     5  C   -0.044707
     6  C   -0.327587
     7  C    0.209864
     8  C    0.406894
     9  C   -0.087477
    10  C    0.419149
    11  C    0.429147
    12  O   -0.463680
    13  C   -0.171755
    14  C   -0.248151
    15  C   -0.469009
    16  O   -0.490423
    17  C   -0.151815
    18  C    0.305780
    19  O   -0.540939
    20  C   -0.306367
    21  O   -0.677930
    22  C   -0.328150
    23  C    0.091195
    24  O   -0.581587
    25  C    0.184637
    26  C   -0.509734
    27  C   -0.403429
    28  C   -0.459849
    29  C   -0.463516
    30  H    0.144925
    31  H    0.150460
    32  C   -0.519101
    33  H    0.126184
    34  H    0.182638
    35  H    0.165203
    36  H    0.168551
    37  H    0.122654
    38  H    0.148714
    39  H    0.169331
    40  H    0.145952
    41  H    0.159768
    42  H    0.162261
    43  H    0.148981
    44  H    0.431424
    45  H    0.186689
    46  H    0.152653
    47  H    0.134400
    48  H    0.155062
    49  H    0.157528
    50  H    0.151698
    51  H    0.175683
    52  H    0.136223
    53  H    0.184585
    54  H    0.140929
    55  H    0.148203
    56  H    0.150280
    57  H    0.158411
    58  H    0.157228
    59  H    0.157544
    60  H    0.155431
    61  H    0.155742
    62  C   -0.452623
    63  H    0.137354
    64  H    0.168337
    65  H    0.139895
 Sum of Mulliken atomic charges =   0.00000
 Mulliken charges with hydrogens summed into heavy atoms:
              1
     1  C   -0.073901
     2  C    0.201547
     3  C   -0.049415
     4  C    0.318655
     5  C   -0.044707
     6  C    0.020253
     7  C    0.209864
     8  C    0.406894
     9  C   -0.087477
    10  C    0.419149
    11  C    0.429147
    12  O   -0.463680
    13  C   -0.003204
    14  C    0.023217
    15  C    0.006043
    16  O   -0.490423
    17  C   -0.006889
    18  C    0.305780
    19  O   -0.540939
    20  C    0.004875
    21  O   -0.246506
    22  C    0.011192
    23  C    0.225595
    24  O   -0.581587
    25  C    0.184637
    26  C   -0.045446
    27  C   -0.091523
    28  C    0.013869
    29  C    0.002403
    32  C   -0.050384
    62  C   -0.007037
 Sum of Mulliken charges with hydrogens summed into heavy atoms =   0.00000
 Electronic spatial extent (au):  <R**2>=          11104.9767
 Charge=              0.0000 electrons
 Dipole moment (field-independent basis, Debye):
    X=              4.2580    Y=              2.8153    Z=              1.6818  Tot=              5.3745
 Quadrupole moment (field-independent basis, Debye-Ang):
   XX=           -180.7005   YY=           -178.4689   ZZ=           -186.7608
   XY=             -1.6520   XZ=             -9.2502   YZ=             -0.0042
 Traceless Quadrupole moment (field-independent basis, Debye-Ang):
   XX=              1.2762   YY=              3.5078   ZZ=             -4.7840
   XY=             -1.6520   XZ=             -9.2502   YZ=             -0.0042
 Octapole moment (field-independent basis, Debye-Ang**2):
  XXX=              5.5298  YYY=             33.3003  ZZZ=              6.5138  XYY=             18.6861
  XXY=              2.7450  XXZ=             21.7278  XZZ=             30.3100  YZZ=             -3.0009
  YYZ=             26.2100  XYZ=              0.1826
 Hexadecapole moment (field-independent basis, Debye-Ang**3):
 XXXX=          -7328.8547 YYYY=          -4556.5279 ZZZZ=          -2889.5970 XXXY=            -25.4204
 XXXZ=            -48.6105 YYYX=            -20.4976 YYYZ=              1.5089 ZZZX=            -31.7381
 ZZZY=              4.4726 XXYY=          -1983.3212 XXZZ=          -1740.8495 YYZZ=          -1208.4666
 XXYZ=             -7.0937 YYXZ=              7.1899 ZZXY=            -15.8006
 N-N= 3.546133590130D+03 E-N=-1.031884688735D+04  KE= 1.374826271720D+03
 Calling FoFJK, ICntrl=      2127 FMM=T ISym2X=0 I1Cent= 0 IOpClX= 0 NMat=1 NMatS=1 NMatT=0.
 ***** Axes restored to original set *****
 -------------------------------------------------------------------
 Center     Atomic                   Forces (Hartrees/Bohr)
 Number     Number              X              Y              Z
 -------------------------------------------------------------------
      1        6           0.009705093    0.000878778    0.001769030
      2        6          -0.009994719   -0.005814034    0.004498730
      3        6          -0.005663309   -0.009449402   -0.003043740
      4        6           0.012775571   -0.005779475    0.006988381
      5        6          -0.007449045    0.003112574    0.005133637
      6        6          -0.006604499   -0.009065447   -0.005178155
      7        6           0.022011557    0.015707916    0.006426894
      8        6          -0.006655678   -0.001707815   -0.023536955
      9        6           0.006702793   -0.002723916    0.006860378
     10        6          -0.016553901    0.018417179    0.000865173
     11        6          -0.019210640   -0.008127141   -0.013493999
     12        8           0.008389638    0.013844285    0.005696081
     13        6          -0.009816228    0.001546358   -0.005898614
     14        6          -0.001999878   -0.003371658   -0.004925227
     15        6           0.007182932    0.000126624    0.007267985
     16        8           0.006920116   -0.010128970   -0.001041722
     17        6           0.002104809   -0.006559190   -0.011819786
     18        6           0.029494966    0.004974924   -0.015467067
     19        8          -0.008312378   -0.008707075    0.033307187
     20        6           0.009257511   -0.001714139   -0.006455165
     21        8          -0.005331856    0.005698905    0.003955398
     22        6          -0.002948830   -0.007760764    0.008338142
     23        6          -0.000884352    0.006292735    0.016740421
     24        8          -0.004419652   -0.008477347   -0.013963807
     25        6          -0.011790533    0.015523910    0.008046211
     26        6          -0.000174402    0.001092998   -0.001128588
     27        6           0.001174244   -0.008917088   -0.001609679
     28        6          -0.001981316    0.008407971    0.001782945
     29        6          -0.009020853   -0.000376035   -0.006945553
     30        1          -0.003219250    0.002213952    0.000388204
     31        1          -0.001931977    0.005609390    0.000746688
     32        6          -0.002472467   -0.000353792    0.000215668
     33        1           0.000690815   -0.001001946   -0.000036959
     34        1          -0.002136972    0.005993063   -0.000033565
     35        1           0.000432636    0.004937564   -0.000213734
     36        1           0.003403774   -0.002425399    0.000747413
     37        1           0.002940003    0.000357090   -0.000141125
     38        1           0.002005258   -0.000699623    0.001234363
     39        1          -0.000125587    0.000738081   -0.000431014
     40        1          -0.001372487   -0.000192177   -0.001137256
     41        1          -0.000363341   -0.000223666    0.001018218
     42        1           0.000124132    0.000297215    0.001151559
     43        1          -0.002259977   -0.001672415   -0.001303640
     44        1          -0.002841978   -0.001249274   -0.002615736
     45        1           0.000860460    0.004937300   -0.005772836
     46        1           0.000941483    0.000973652   -0.004496885
     47        1           0.004508698   -0.000186840    0.000424279
     48        1           0.004233758   -0.002046710    0.001389747
     49        1          -0.001823246   -0.000783671   -0.001484977
     50        1           0.003818817   -0.002104329    0.000176376
     51        1          -0.000662723   -0.000753575   -0.002575644
     52        1           0.001773408   -0.000034617    0.000494235
     53        1           0.000612906   -0.004595413    0.003323424
     54        1           0.000132875   -0.000818453   -0.000368682
     55        1           0.000401219   -0.003280054   -0.002272443
     56        1          -0.000028585    0.000744149    0.001316238
     57        1           0.001484410   -0.001909451    0.002501884
     58        1           0.002083950    0.001535879    0.001671686
     59        1          -0.000673901    0.000825299   -0.000343549
     60        1           0.004138363   -0.001584867   -0.000214040
     61        1           0.004158137   -0.001128481    0.000059421
     62        6          -0.003643191    0.000690980    0.001549475
     63        1          -0.001272490    0.000233192    0.000305223
     64        1          -0.000007064   -0.000391784    0.000140491
     65        1          -0.000817027    0.000404065    0.001418952
 -------------------------------------------------------------------
 Cartesian Forces:  Max     0.033307187 RMS     0.006812843

 GradGradGradGradGradGradGradGradGradGradGradGradGradGradGradGradGradGrad
 Berny optimization.
 Internal  Forces:  Max     0.017129070 RMS     0.003428586
 Search for a local minimum.
 Step number   1 out of a maximum of  390
 All quantities printed in internal units (Hartrees-Bohrs-Radians)
 Mixed Optimization -- RFO/linear search
 Second derivative matrix not updated -- first step.
 ITU=  0
     Eigenvalues ---    0.00230   0.00275   0.00322   0.00354   0.00376
     Eigenvalues ---    0.00445   0.00530   0.00567   0.00568   0.00596
     Eigenvalues ---    0.00599   0.00630   0.00692   0.00741   0.00814
     Eigenvalues ---    0.01046   0.01122   0.01226   0.01276   0.01457
     Eigenvalues ---    0.01508   0.01704   0.01723   0.01821   0.02070
     Eigenvalues ---    0.02565   0.02839   0.02839   0.03133   0.03159
     Eigenvalues ---    0.03306   0.03529   0.03661   0.03880   0.04081
     Eigenvalues ---    0.04277   0.04347   0.04456   0.04462   0.04628
     Eigenvalues ---    0.04762   0.04818   0.04946   0.05122   0.05282
     Eigenvalues ---    0.05308   0.05337   0.05399   0.05423   0.05451
     Eigenvalues ---    0.05500   0.05533   0.05555   0.05570   0.05604
     Eigenvalues ---    0.05693   0.05733   0.05840   0.05928   0.06142
     Eigenvalues ---    0.06574   0.06852   0.07046   0.07076   0.07157
     Eigenvalues ---    0.07217   0.07319   0.07348   0.07576   0.08096
     Eigenvalues ---    0.08352   0.08691   0.08740   0.09122   0.09614
     Eigenvalues ---    0.09770   0.10331   0.11509   0.11879   0.12462
     Eigenvalues ---    0.12588   0.13308   0.14492   0.15317   0.15989
     Eigenvalues ---    0.16000   0.16000   0.16000   0.16000   0.16000
     Eigenvalues ---    0.16000   0.16000   0.16000   0.16000   0.16000
     Eigenvalues ---    0.16000   0.16000   0.16000   0.16000   0.16000
     Eigenvalues ---    0.16000   0.16000   0.16000   0.16000   0.16000
     Eigenvalues ---    0.16411   0.17000   0.17179   0.18143   0.18498
     Eigenvalues ---    0.19432   0.20801   0.21944   0.22096   0.22743
     Eigenvalues ---    0.23264   0.24702   0.24844   0.24973   0.24978
     Eigenvalues ---    0.24985   0.24987   0.25000   0.26109   0.26605
     Eigenvalues ---    0.26894   0.27462   0.27841   0.28279   0.28312
     Eigenvalues ---    0.28336   0.28778   0.28856   0.29096   0.29322
     Eigenvalues ---    0.29469   0.29961   0.30276   0.30548   0.30852
     Eigenvalues ---    0.31324   0.31666   0.32180   0.32999   0.33678
     Eigenvalues ---    0.33843   0.33849   0.33935   0.33939   0.33963
     Eigenvalues ---    0.33981   0.33985   0.34007   0.34011   0.34070
     Eigenvalues ---    0.34075   0.34188   0.34191   0.34207   0.34224
     Eigenvalues ---    0.34232   0.34237   0.34237   0.34250   0.34267
     Eigenvalues ---    0.34271   0.34278   0.34279   0.34301   0.34343
     Eigenvalues ---    0.34349   0.34366   0.34378   0.34419   0.34700
     Eigenvalues ---    0.35077   0.35210   0.35637   0.35937   0.36512
     Eigenvalues ---    0.37910   0.41007   0.44508   0.50555   0.53388
     Eigenvalues ---    0.54281   0.56477   0.90131   0.91529
 RFO step:  Lambda=-2.26032979D-02 EMin= 2.30000000D-03
 Linear search not attempted -- first point.
 Iteration  1 RMS(Cart)=  0.04826728 RMS(Int)=  0.00074481
 Iteration  2 RMS(Cart)=  0.00111741 RMS(Int)=  0.00025770
 Iteration  3 RMS(Cart)=  0.00000088 RMS(Int)=  0.00025770
 Variable       Old X    -DE/DX   Delta X   Delta X   Delta X     New X
                                 (Linear)    (Quad)   (Total)
    R1        2.53393  -0.00262   0.00000  -0.00499  -0.00504   2.52890
    R2        2.82627   0.00785   0.00000   0.02285   0.02274   2.84900
    R3        2.05549   0.00051   0.00000   0.00137   0.00137   2.05686
    R4        2.84764   0.00438   0.00000   0.01136   0.01143   2.85908
    R5        2.83817   0.00464   0.00000   0.01348   0.01348   2.85164
    R6        2.94445   0.00579   0.00000   0.01368   0.01364   2.95809
    R7        2.90129   0.01028   0.00000   0.03466   0.03461   2.93590
    R8        2.07877  -0.00206   0.00000  -0.00574  -0.00574   2.07302
    R9        2.91562   0.01092   0.00000   0.03153   0.03154   2.94716
   R10        2.93243   0.00965   0.00000   0.03516   0.03551   2.96794
   R11        2.75391  -0.00332   0.00000  -0.00783  -0.00780   2.74611
   R12        2.92291   0.00389   0.00000   0.01395   0.01391   2.93681
   R13        2.90440   0.00647   0.00000   0.01425   0.01390   2.91830
   R14        2.89417   0.00417   0.00000   0.01197   0.01181   2.90598
   R15        2.07393   0.00189   0.00000   0.00522   0.00522   2.07916
   R16        2.07585  -0.00142   0.00000  -0.00394  -0.00394   2.07191
   R17        2.81332   0.01029   0.00000   0.02373   0.02341   2.83673
   R18        2.86400   0.01511   0.00000   0.05253   0.05202   2.91602
   R19        2.68465   0.00078   0.00000   0.00209   0.00219   2.68683
   R20        2.52515   0.01328   0.00000   0.02334   0.02345   2.54860
   R21        2.62066  -0.01713   0.00000  -0.03992  -0.03965   2.58101
   R22        2.80075   0.00191   0.00000   0.00090   0.00106   2.80181
   R23        2.79465   0.01520   0.00000   0.04114   0.04114   2.83579
   R24        2.32236  -0.00973   0.00000  -0.01037  -0.01037   2.31199
   R25        2.32873  -0.01667   0.00000  -0.01804  -0.01804   2.31069
   R26        2.89803  -0.00361   0.00000  -0.01151  -0.01151   2.88652
   R27        2.91410   0.00181   0.00000   0.00591   0.00591   2.92001
   R28        2.89034   0.00636   0.00000   0.02003   0.02003   2.91037
   R29        2.07433   0.00196   0.00000   0.00540   0.00540   2.07973
   R30        2.07363   0.00085   0.00000   0.00234   0.00234   2.07597
   R31        2.07311  -0.00080   0.00000  -0.00222  -0.00222   2.07089
   R32        2.88042   0.00671   0.00000   0.02083   0.02083   2.90124
   R33        2.06983  -0.00035   0.00000  -0.00095  -0.00095   2.06888
   R34        2.06954   0.00029   0.00000   0.00078   0.00078   2.07033
   R35        2.06940   0.00002   0.00000   0.00005   0.00005   2.06946
   R36        2.91257  -0.00001   0.00000   0.01164   0.01181   2.92437
   R37        2.89396   0.00630   0.00000   0.02278   0.02281   2.91677
[...]
     55          1           0        2.028498    2.944237   -3.020376
     56          1           0        0.332752    4.918923   -1.218592
     57          1           0        0.822526    4.158648    0.310399
     58          1           0        2.012098    4.402280   -0.980238
     59          1           0       -4.268251    2.065567    3.453009
     60          1           0       -3.835275    3.233387    2.191683
     61          1           0       -4.915703    1.897404    1.807773
     62          6           0        5.756416   -1.588430    1.089361
     63          1           0        6.705693   -1.511352    1.632351
     64          1           0        5.039025   -2.100901    1.735616
     65          1           0        5.936158   -2.213978    0.207587
 ---------------------------------------------------------------------
 Rotational constants (GHZ):      0.1949999      0.1332915      0.1155102

 **********************************************************************

            Population analysis using the SCF density.

 **********************************************************************

 Orbital symmetries:
       Occupied  (A) (A) (A) (A) (A) (A) (A) (A) (A) (A) (A) (A)
                 (A) (A) (A) (A) (A) (A) (A) (A) (A) (A) (A) (A)
                 (A) (A) (A) (A) (A) (A) (A) (A) (A) (A) (A) (A)
                 (A) (A) (A) (A) (A) (A) (A) (A) (A) (A) (A) (A)
                 (A) (A) (A) (A) (A) (A) (A) (A) (A) (A) (A) (A)
                 (A) (A) (A) (A) (A) (A) (A) (A) (A) (A) (A) (A)
                 (A) (A) (A) (A) (A) (A) (A) (A) (A) (A) (A) (A)
                 (A) (A) (A) (A) (A) (A) (A) (A) (A) (A) (A) (A)
                 (A) (A) (A) (A) (A) (A) (A) (A) (A) (A) (A) (A)
                 (A) (A) (A) (A) (A) (A) (A)
       Virtual   (A) (A) (A) (A) (A) (A) (A) (A) (A) (A) (A) (A)
                 (A) (A) (A) (A) (A) (A) (A) (A) (A) (A) (A) (A)
                 (A) (A) (A) (A) (A) (A) (A) (A) (A) (A) (A) (A)
                 (A) (A) (A) (A) (A) (A) (A) (A) (A) (A) (A) (A)
                 (A) (A) (A) (A) (A) (A) (A) (A) (A) (A) (A) (A)
                 (A) (A) (A) (A) (A) (A) (A) (A) (A) (A) (A) (A)
                 (A) (A) (A) (A) (A) (A) (A) (A) (A) (A) (A) (A)
                 (A) (A) (A) (A) (A) (A) (A) (A) (A) (A) (A) (A)
                 (A) (A) (A) (A) (A) (A) (A) (A) (A) (A) (A) (A)
                 (A) (A) (A) (A) (A) (A) (A) (A) (A) (A) (A) (A)
                 (A) (A) (A) (A) (A) (A) (A) (A) (A) (A) (A) (A)
                 (A) (A) (A) (A) (A) (A) (A) (A) (A) (A) (A) (A)
                 (A) (A) (A) (A) (A) (A) (A) (A) (A) (A) (A) (A)
                 (A) (A) (A) (A) (A) (A) (A) (A) (A) (A) (A) (A)
                 (A) (A) (A) (A) (A) (A) (A) (A) (A) (A) (A) (A)
                 (A) (A) (A) (A) (A) (A) (A) (A) (A) (A) (A) (A)
                 (A) (A) (A) (A) (A) (A) (A) (A) (A) (A) (A) (A)
                 (A) (A) (A) (A) (A) (A) (A) (A) (A) (A) (A) (A)
                 (A) (A) (A) (A) (A) (A) (A) (A) (A) (A) (A) (A)
                 (A) (A) (A) (A) (A) (A) (A) (A) (A) (A) (A) (A)
                 (A) (A) (A) (A) (A) (A) (A) (A) (A) (A) (A) (A)
                 (A) (A) (A) (A) (A) (A) (A) (A) (A) (A) (A) (A)
                 (A) (A) (A) (A) (A) (A) (A) (A) (A) (A) (A) (A)
                 (A) (A) (A) (A) (A) (A) (A) (A) (A) (A) (A) (A)
                 (A) (A) (A) (A) (A) (A) (A) (A) (A) (A) (A) (A)
                 (A) (A) (A) (A) (A) (A) (A) (A) (A) (A) (A) (A)
                 (A) (A) (A) (A) (A) (A) (A) (A) (A) (A) (A) (A)
                 (A) (A) (A) (A) (A) (A) (A) (A) (A) (A) (A) (A)
                 (A) (A) (A) (A) (A) (A) (A) (A) (A) (A) (A) (A)
                 (A) (A) (A) (A) (A) (A) (A) (A) (A) (A) (A) (A)
                 (A) (A) (A) (A) (A) (A) (A) (A) (A) (A) (A) (A)
                 (A) (A) (A) (A) (A) (A) (A) (A) (A) (A) (A) (A)
                 (A) (A) (A) (A) (A) (A) (A) (A) (A) (A) (A) (A)
                 (A) (A) (A) (A) (A) (A) (A) (A) (A) (A) (A) (A)
                 (A) (A) (A) (A) (A) (A) (A) (A) (A) (A)
 The electronic state is 1-A.
 Alpha  occ. eigenvalues --  -19.19833 -19.16695 -19.14953 -19.13043 -19.12587
 Alpha  occ. eigenvalues --  -10.27052 -10.26880 -10.26849 -10.26436 -10.26074
 Alpha  occ. eigenvalues --  -10.25742 -10.24672 -10.21292 -10.20514 -10.20304
 Alpha  occ. eigenvalues --  -10.20207 -10.19732 -10.19572 -10.19495 -10.19335
 Alpha  occ. eigenvalues --  -10.18948 -10.18854 -10.18616 -10.18555 -10.18443
 Alpha  occ. eigenvalues --  -10.18409 -10.18263 -10.17486 -10.16888 -10.16773
 Alpha  occ. eigenvalues --  -10.15369  -1.09133  -1.05736  -1.03390  -1.02160
 Alpha  occ. eigenvalues --   -1.01950  -0.86856  -0.83847  -0.81965  -0.81141
 Alpha  occ. eigenvalues --   -0.79883  -0.79235  -0.76792  -0.74004  -0.73029
 Alpha  occ. eigenvalues --   -0.72128  -0.71028  -0.70183  -0.68698  -0.68017
 Alpha  occ. eigenvalues --   -0.64925  -0.64205  -0.63531  -0.62043  -0.60701
 Alpha  occ. eigenvalues --   -0.59107  -0.58356  -0.56520  -0.54384  -0.53163
 Alpha  occ. eigenvalues --   -0.52802  -0.51752  -0.50579  -0.49761  -0.48978
 Alpha  occ. eigenvalues --   -0.47650  -0.47552  -0.46960  -0.46340  -0.46038
 Alpha  occ. eigenvalues --   -0.45077  -0.44503  -0.44176  -0.43960  -0.42818
 Alpha  occ. eigenvalues --   -0.42558  -0.42189  -0.42120  -0.41670  -0.41097
 Alpha  occ. eigenvalues --   -0.40846  -0.40535  -0.40366  -0.39951  -0.39248
 Alpha  occ. eigenvalues --   -0.38959  -0.38763  -0.38537  -0.38292  -0.37973
 Alpha  occ. eigenvalues --   -0.37611  -0.37421  -0.36960  -0.36613  -0.36450
 Alpha  occ. eigenvalues --   -0.35941  -0.35486  -0.35095  -0.34865  -0.34571
 Alpha  occ. eigenvalues --   -0.33526  -0.33338  -0.32891  -0.32188  -0.32046
 Alpha  occ. eigenvalues --   -0.31519  -0.31092  -0.30834  -0.27424  -0.27210
 Alpha  occ. eigenvalues --   -0.25302  -0.24524  -0.24287  -0.23392  -0.22643
 Alpha virt. eigenvalues --   -0.04304  -0.01611   0.00981   0.01538   0.05426
 Alpha virt. eigenvalues --    0.07042   0.08464   0.08716   0.09465   0.10378
 Alpha virt. eigenvalues --    0.10636   0.10833   0.11192   0.11678   0.12761
 Alpha virt. eigenvalues --    0.13068   0.13259   0.13807   0.14014   0.14172
 Alpha virt. eigenvalues --    0.15011   0.15066   0.15184   0.15635   0.15901
 Alpha virt. eigenvalues --    0.16133   0.16498   0.16847   0.17019   0.17241
 Alpha virt. eigenvalues --    0.17669   0.18333   0.18707   0.19074   0.19188
 Alpha virt. eigenvalues --    0.19375   0.19654   0.19809   0.19997   0.20273
 Alpha virt. eigenvalues --    0.20393   0.21009   0.21722   0.22009   0.22508
 Alpha virt. eigenvalues --    0.22902   0.23085   0.23563   0.24326   0.24672
 Alpha virt. eigenvalues --    0.24760   0.24955   0.25845   0.26068   0.26681
 Alpha virt. eigenvalues --    0.27190   0.27722   0.27895   0.28724   0.30220
 Alpha virt. eigenvalues --    0.31243   0.31753   0.32799   0.33431   0.34637
 Alpha virt. eigenvalues --    0.34968   0.36909   0.37413   0.39012   0.39515
 Alpha virt. eigenvalues --    0.42515   0.44048   0.45912   0.47090   0.48245
 Alpha virt. eigenvalues --    0.49219   0.49740   0.50583   0.50773   0.51554
 Alpha virt. eigenvalues --    0.51993   0.52067   0.52319   0.52711   0.53510
 Alpha virt. eigenvalues --    0.54156   0.54229   0.54831   0.55198   0.55586
 Alpha virt. eigenvalues --    0.56899   0.57252   0.57982   0.58702   0.58905
 Alpha virt. eigenvalues --    0.59232   0.60105   0.60390   0.61002   0.61607
 Alpha virt. eigenvalues --    0.61854   0.62254   0.64062   0.64734   0.65378
 Alpha virt. eigenvalues --    0.65558   0.66300   0.66876   0.67251   0.67669
 Alpha virt. eigenvalues --    0.68190   0.68369   0.69086   0.69727   0.70024
 Alpha virt. eigenvalues --    0.70647   0.71728   0.72482   0.72681   0.72944
 Alpha virt. eigenvalues --    0.73098   0.74403   0.74869   0.75764   0.76354
 Alpha virt. eigenvalues --    0.77125   0.77719   0.77809   0.78159   0.78783
 Alpha virt. eigenvalues --    0.80087   0.80508   0.80989   0.81144   0.82471
 Alpha virt. eigenvalues --    0.83267   0.83521   0.84210   0.84298   0.85026
 Alpha virt. eigenvalues --    0.85461   0.85691   0.86166   0.86807   0.87016
 Alpha virt. eigenvalues --    0.87513   0.87724   0.88177   0.88508   0.89114
 Alpha virt. eigenvalues --    0.89326   0.89636   0.90342   0.90447   0.90609
 Alpha virt. eigenvalues --    0.90943   0.91011   0.91192   0.91556   0.92053
 Alpha virt. eigenvalues --    0.92766   0.93346   0.93684   0.93871   0.94718
 Alpha virt. eigenvalues --    0.94939   0.95097   0.96265   0.96752   0.96779
 Alpha virt. eigenvalues --    0.97094   0.97943   0.98879   0.99411   0.99887
 Alpha virt. eigenvalues --    1.00570   1.01351   1.01730   1.02195   1.02918
 Alpha virt. eigenvalues --    1.03609   1.04381   1.05270   1.08078   1.09317
 Alpha virt. eigenvalues --    1.09960   1.11212   1.12332   1.13180   1.13695
 Alpha virt. eigenvalues --    1.14518   1.14690   1.15421   1.15670   1.17038
 Alpha virt. eigenvalues --    1.18039   1.18790   1.19633   1.19785   1.22663
 Alpha virt. eigenvalues --    1.23265   1.24750   1.25106   1.26850   1.27091
 Alpha virt. eigenvalues --    1.28814   1.30103   1.31420   1.31690   1.34289
 Alpha virt. eigenvalues --    1.35329   1.36241   1.37114   1.38745   1.39581
 Alpha virt. eigenvalues --    1.41208   1.42257   1.44094   1.45399   1.46095
 Alpha virt. eigenvalues --    1.46839   1.47656   1.48700   1.51662   1.52403
 Alpha virt. eigenvalues --    1.53807   1.54742   1.56406   1.57020   1.58540
 Alpha virt. eigenvalues --    1.60528   1.61742   1.62252   1.63165   1.64354
 Alpha virt. eigenvalues --    1.66696   1.67108   1.68388   1.68889   1.69524
 Alpha virt. eigenvalues --    1.70096   1.71221   1.71863   1.73037   1.74297
 Alpha virt. eigenvalues --    1.74824   1.75466   1.76142   1.76810   1.78033
 Alpha virt. eigenvalues --    1.78334   1.78927   1.79571   1.80334   1.80476
 Alpha virt. eigenvalues --    1.81553   1.82244   1.83463   1.83878   1.84778
 Alpha virt. eigenvalues --    1.85476   1.86221   1.86756   1.87192   1.87847
 Alpha virt. eigenvalues --    1.88231   1.89226   1.89972   1.90936   1.92029
 Alpha virt. eigenvalues --    1.92485   1.92844   1.93621   1.93953   1.94671
 Alpha virt. eigenvalues --    1.95602   1.96543   1.97224   1.97581   1.97910
 Alpha virt. eigenvalues --    1.98999   1.99502   2.00066   2.00468   2.01683
 Alpha virt. eigenvalues --    2.02161   2.02358   2.03904   2.04314   2.04642
 Alpha virt. eigenvalues --    2.06116   2.07350   2.07831   2.08663   2.08866
 Alpha virt. eigenvalues --    2.10893   2.11350   2.11930   2.12365   2.12444
 Alpha virt. eigenvalues --    2.13198   2.14138   2.15591   2.16821   2.17653
 Alpha virt. eigenvalues --    2.18081   2.19998   2.20796   2.21456   2.22091
 Alpha virt. eigenvalues --    2.22861   2.23346   2.25289   2.26268   2.27042
 Alpha virt. eigenvalues --    2.27486   2.28012   2.29592   2.30487   2.31964
 Alpha virt. eigenvalues --    2.32280   2.32867   2.33316   2.33867   2.35340
 Alpha virt. eigenvalues --    2.35830   2.36489   2.37270   2.37899   2.39209
 Alpha virt. eigenvalues --    2.39917   2.40373   2.41802   2.42158   2.42973
 Alpha virt. eigenvalues --    2.44342   2.45262   2.46215   2.47858   2.48554
 Alpha virt. eigenvalues --    2.49690   2.50320   2.52340   2.53188   2.54454
 Alpha virt. eigenvalues --    2.55472   2.56144   2.57512   2.58874   2.59050
 Alpha virt. eigenvalues --    2.61443   2.62120   2.62758   2.64671   2.65037
 Alpha virt. eigenvalues --    2.66336   2.66671   2.67689   2.69092   2.70296
 Alpha virt. eigenvalues --    2.71252   2.73925   2.74412   2.76511   2.77026
 Alpha virt. eigenvalues --    2.77448   2.78464   2.79497   2.80138   2.85371
 Alpha virt. eigenvalues --    2.87248   2.88770   2.91847   2.94591   2.96269
 Alpha virt. eigenvalues --    2.97869   2.98168   3.00073   3.01513   3.02816
 Alpha virt. eigenvalues --    3.05414   3.06735   3.11373   3.15317   3.17494
 Alpha virt. eigenvalues --    3.24895   3.26608   4.01837   4.06728   4.09883
 Alpha virt. eigenvalues --    4.12401   4.13995   4.16094   4.18057   4.18842
 Alpha virt. eigenvalues --    4.23057   4.25824   4.26331   4.29298   4.29758
 Alpha virt. eigenvalues --    4.31701   4.34710   4.35905   4.39958   4.42446
 Alpha virt. eigenvalues --    4.46834   4.47768   4.54450   4.56094   4.60124
 Alpha virt. eigenvalues --    4.64800   4.67713   4.69966   4.73843   4.76009
 Alpha virt. eigenvalues --    4.88361   4.93690   5.23247
          Condensed to atoms (all electrons):
 Mulliken atomic charges:
              1
     1  C   -0.197274
     2  C    0.204310
     3  C   -0.200473
     4  C    0.323146
     5  C   -0.051053
     6  C   -0.325378
     7  C    0.202327
     8  C    0.400993
     9  C   -0.091941
    10  C    0.419238
    11  C    0.429061
    12  O   -0.456746
    13  C   -0.178012
    14  C   -0.244944
    15  C   -0.461860
    16  O   -0.483703
    17  C   -0.157096
    18  C    0.300408
    19  O   -0.538076
    20  C   -0.308517
    21  O   -0.671745
    22  C   -0.332563
    23  C    0.094317
    24  O   -0.590082
    25  C    0.180493
    26  C   -0.513858
    27  C   -0.404802
    28  C   -0.466845
    29  C   -0.460997
    30  H    0.146000
    31  H    0.149735
    32  C   -0.520858
    33  H    0.125461
    34  H    0.173680
    35  H    0.168215
    36  H    0.160929
    37  H    0.120306
    38  H    0.142832
    39  H    0.163575
    40  H    0.144797
    41  H    0.162209
    42  H    0.160196
    43  H    0.150698
    44  H    0.430942
    45  H    0.189402
    46  H    0.151300
    47  H    0.135449
    48  H    0.159807
    49  H    0.157335
    50  H    0.154098
    51  H    0.185358
    52  H    0.136606
    53  H    0.195025
    54  H    0.145116
    55  H    0.155321
    56  H    0.152038
    57  H    0.161866
    58  H    0.162426
    59  H    0.157645
    60  H    0.153873
    61  H    0.156598
    62  C   -0.452957
    63  H    0.134942
    64  H    0.175430
    65  H    0.136275
 Sum of Mulliken atomic charges =   0.00000
 Mulliken charges with hydrogens summed into heavy atoms:
              1
     1  C   -0.071814
     2  C    0.204310
     3  C   -0.050738
     4  C    0.323146
     5  C   -0.051053
     6  C    0.016517
     7  C    0.202327
     8  C    0.400993
     9  C   -0.091941
    10  C    0.419238
    11  C    0.429061
    12  O   -0.456746
    13  C   -0.017083
    14  C    0.018194
    15  C    0.008720
    16  O   -0.483703
    17  C   -0.011097
    18  C    0.300408
    19  O   -0.538076
    20  C    0.002378
    21  O   -0.240803
    22  C    0.008139
    23  C    0.229766
    24  O   -0.590082
    25  C    0.180493
    26  C   -0.042618
    27  C   -0.082837
    28  C    0.028617
    29  C    0.015333
    32  C   -0.052742
    62  C   -0.006310
 Sum of Mulliken charges with hydrogens summed into heavy atoms =   0.00000
 Electronic spatial extent (au):  <R**2>=          11364.2905
 Charge=              0.0000 electrons
 Dipole moment (field-independent basis, Debye):
    X=             -4.1291    Y=              4.3458    Z=             -2.0187  Tot=              6.3254
 Quadrupole moment (field-independent basis, Debye-Ang):
   XX=           -181.8183   YY=           -177.9615   ZZ=           -186.2288
   XY=              5.2149   XZ=             -9.0744   YZ=              2.6689
 Traceless Quadrupole moment (field-independent basis, Debye-Ang):
   XX=              0.1846   YY=              4.0414   ZZ=             -4.2260
   XY=              5.2149   XZ=             -9.0744   YZ=              2.6689
 Octapole moment (field-independent basis, Debye-Ang**2):
  XXX=            -20.5035  YYY=             43.4874  ZZZ=             -8.1552  XYY=            -16.2737
  XXY=              7.2461  XXZ=            -22.1209  XZZ=            -29.0583  YZZ=              4.4569
  YYZ=            -32.7279  XYZ=              2.5416
 Hexadecapole moment (field-independent basis, Debye-Ang**3):
 XXXX=          -7811.8284 YYYY=          -4473.6363 ZZZZ=          -2886.8969 XXXY=             51.8573
 XXXZ=            -48.8442 YYYX=             11.9433 YYYZ=            -12.2912 ZZZX=            -28.0558
 ZZZY=             -3.7896 XXYY=          -2044.4693 XXZZ=          -1804.2420 YYZZ=          -1196.4774
 XXYZ=             32.3619 YYXZ=              0.9287 ZZXY=             38.7539
 N-N= 3.523204106823D+03 E-N=-1.027285798234D+04  KE= 1.374454054814D+03
 1\1\GINC-B0604\FOpt\RB3LYP\6-31G(d)\C26H34O5\CAOFEI\24-Mar-2021\0\\# o
 pt rb3lyp/6-31g(d) geom=connectivity\\Title Card Required\\0,1\C,0.020
 0082785,-0.0088982958,0.0482789429\C,1.3576536369,-0.0197980145,0.0102
 583435\C,2.1246382082,1.2807301836,-0.0442108507\C,1.4334338759,2.5130
 475755,0.6225649647\C,-0.1039149738,2.410831675,0.8702022451\C,-0.7863
 019609,1.2612799071,0.0636806164\C,1.8600876612,3.7256337635,-0.282453
 8071\C,0.7615393317,4.1929895474,-1.2183567988\C,-0.5399545687,4.27997
 37243,-0.8591251934\C,-0.8989720874,3.6794817305,0.4487170239\C,-1.655
 2089885,4.7971962711,-1.7274253207\O,-2.6886916092,4.1525509875,-1.804
 2210551\C,-1.4467316272,6.1136511613,-2.4786986788\C,-2.6329693549,6.4
 521610697,-3.4039841162\C,-1.0896541651,7.2487644578,-1.4943206492\O,-
 1.8626083341,4.0525062157,1.0983226017\C,2.8995051067,3.2158053756,-1.
 3064136265\C,2.7042358576,4.162118475,-2.5121950769\O,1.2620586204,4.5
 162071025,-2.4220749374\C,2.4890200962,1.7417463379,-1.480152715\O,2.2
 659936705,4.8366731674,0.4866963108\C,-0.2109487116,2.1424428583,2.383
 1548951\C,1.0787990184,2.6764345176,3.0114865163\O,2.0414215536,2.7177
 854599,1.9112692127\C,1.0742238407,4.0250056425,3.7147954057\C,2.36836
 63446,4.3455584627,4.4282639059\C,0.0331733079,4.8623150352,3.72813434
 82\C,3.5041746485,5.4587147664,-2.367544676\C,2.9002173555,3.539044874
 9,-3.8903364797\H,3.91396642,3.2942163772,-0.9037293956\H,3.0668208276
 ,1.1629659869,0.5073675823\C,2.165636551,-1.290934578,-0.0204709286\H,
 -0.5279347859,-0.9501676816,0.0537063328\H,-0.9877577902,1.5975318037,
 -0.9632189609\H,-1.7731904475,1.0878184778,0.5071383778\H,-0.563427491
 6,5.9524577851,-3.1127295948\H,-2.2999281749,7.2374654134,-4.096765568
 5\H,-2.8547061454,5.5691713561,-4.014642422\H,-1.8795510783,7.40104508
 5,-0.7516932359\H,-0.9540640174,8.188588201,-2.0418684915\H,-0.1624393
 162,7.0334092529,-0.9549912565\H,1.6070275178,1.6552100757,-2.12633232
 6\H,3.2767596576,1.126013566,-1.9251797467\H,2.4369927646,4.4624935445
 ,1.3760775344\H,-1.1188685226,2.5921424128,2.7864110548\H,-0.262925997
 4,1.0630633919,2.5524725875\H,1.4881868776,1.940973546,3.7167412563\H,
 3.2277896702,4.2951772303,3.7473493653\H,2.3445023256,5.343389317,4.87
 56308596\H,2.565739109,3.6170871358,5.2274959934\H,-0.9009690273,4.655
 3518219,3.2177336757\H,0.0975761977,5.8143101055,4.2501998054\H,3.3524
 281924,5.8986903136,-1.3793009194\H,4.5733677802,5.2567917286,-2.49917
 39323\H,3.194422025,6.1774706161,-3.1332351559\H,3.9440583886,3.231239
 1785,-4.0159211703\H,2.2603443944,2.6651796001,-4.035751888\H,2.664592
 0973,4.2691525391,-4.6713904922\H,1.5227401121,-2.1768358955,-0.012840
 0114\H,2.7999550955,-1.3433361331,-0.916286089\H,2.8416838266,-1.35166
 75113,0.8437572711\C,-3.9198989873,6.9094345619,-2.7053925672\H,-4.707
 4634152,7.0934300129,-3.4455236834\H,-4.2807390001,6.1452488119,-2.012
 0409308\H,-3.7738196648,7.8414685151,-2.1476142807\\Version=EM64L-G09R
 evB.01\State=1-A\HF=-1387.3169462\RMSD=6.612e-09\RMSF=3.960e-06\Dipole
 =2.2897259,-0.9568931,-0.1861546\Quadrupole=-8.4741201,4.1960685,4.278
 0515,-0.0994031,-4.0871207,-1.8361992\PG=C01 [X(C26H34O5)]\\@


 THE ... SCIENTISTS WERE WRONG ... THE MOST PERSISTENT PRINCIPLES 
 OF THE UNIVERSE WERE ACCIDENT AND ERROR.

                          -- FRANK HERBERT IN DUNE
 Job cpu time:  0 days  6 hours  9 minutes 53.3 seconds.
 File lengths (MBytes):  RWF=    186 Int=      0 D2E=      0 Chk=     20 Scr=      1
 Normal termination of Gaussian 09 at Wed Mar 24 14:31:32 2021.
